/*--------------------------------*- C++ -*----------------------------------*\
| =========                 |                                                 |
| \\      /  F ield         | OpenFOAM: The Open Source CFD Toolbox           |
|  \\    /   O peration     | Version:  2406                                  |
|   \\  /    A nd           | Website:  www.openfoam.com                      |
|    \\/     M anipulation  |                                                 |
\*---------------------------------------------------------------------------*/
FoamFile
{
    version     2.0;
    format      ascii;
    arch        "LSB;label=32;scalar=64";
    class       Cloud<dsmcParcel>;
    location    "0.004/lagrangian/dsmc";
    object      coordinates;
}
// * * * * * * * * * * * * * * * * * * * * * * * * * * * * * * * * * * * * * //

6203
(
(0.2885908694 0.3557045653 0.3293144623 0.02639010297) 442 868 1
(0.2840620968 0.1249976488 0.2329713028 0.3579689516) 201 393 1
(0.3250877606 0.3374561197 0.2443197582 0.09313636152) 138 269 2
(0.1137012208 0.4431493896 0.3958949568 0.04725443278) 173 279 1
(0.5789665953 0.03726214613 0.1732545562 0.2105167024) 233 397 2
(0.1110840555 0.4444579722 0.008500298108 0.4359576741) 232 452 2
(0.3192970629 0.236549406 0.1038020625 0.3403514686) 171 276 2
(0.001963958795 0.488638714 0.4990180206 0.01037930664) 500 982 2
(0.05919930811 0.4704003459 0.1233983242 0.3470020217) 233 397 1
(0.5965269095 0.2017365453 0.06098203923 0.140754506) 203 395 2
(0.6767004574 0.1597807529 0.1616497713 0.001869018376) 351 686 1
(0.2891952517 0.1092366924 0.2461656818 0.3554023742) 316 619 1
(0.1074826414 0.4462586793 0.00615215355 0.4401065257) 563 1274 2
(0.08998735101 0.4550063245 0.03757967225 0.4174266522) 472 927 1
(0.4721524873 0.2639237564 0.2244883515 0.0394354049) 592 1162 2
(0.6749492256 0.04098404461 0.1625253872 0.1215413426) 4 8 2
(0.006215110642 0.05872161714 0.4381708275 0.4968924447) 83 104 2
(0.6480005669 0.1759997165 0.1281719484 0.04782776809) 348 680 2
(0.2408835109 0.3646677997 0.01489044484 0.3795582446) 203 338 2
(0.834226045 0.01451361602 0.08288697751 0.06837336149) 559 1098 2
(0.4235028753 0.08596149086 0.2022870715 0.2882485623) 293 515 2
(0.02899830768 0.1022342274 0.4855008462 0.3832666188) 471 925 2
(0.3527248462 0.3236375769 0.02924821744 0.2943893595) 82 160 1
(0.1440995006 0.1960596637 0.231890586 0.4279502497) 232 454 1
(0.312106664 0.05665530032 0.2872913677 0.343946668) 27 51 1
(0.6364266397 0.1817866802 0.1517354002 0.03005127997) 143 279 1
(0.6244659686 0.1877670157 0.164898924 0.02286809166) 3 6 1
(0.2300078231 0.3766812426 0.008314845825 0.3849960885) 79 153 1
(0.5692822348 0.2153588826 0.1737761237 0.04158275884) 349 626 1
(0.361464999 0.1235653038 0.3192675005 0.1957021968) 231 450 1
(0.04647130152 0.1539804283 0.4767643492 0.3227839209) 231 453 2
(0.6891788139 0.1554105931 0.1367618372 0.01864875587) 171 335 1
(0.3308766949 0.1462426046 0.1883190479 0.3345616526) 323 574 2
(0.8783605909 0.001778685218 0.05904101935 0.06081970457) 351 630 2
(0.06262267699 0.008090252007 0.4686886615 0.4605984095) 233 454 1
(0.2764447047 0.3617776477 0.25991094 0.1018667076) 323 1266 2
(0.1523554176 0.108464914 0.3153573772 0.4238222912) 353 633 2
(0.6249826882 0.1875086559 0.1480948595 0.0394137964) 319 567 1
(0.5844037323 0.2077981338 0.03238570554 0.1754124283) 233 454 2
(0.3501678714 0.05069778452 0.2742182798 0.3249160643) 473 1271 1
(0.1355339385 0.4322330308 0.108031877 0.3242011538) 383 692 1
(0.007416240685 0.4832558997 0.4962918797 0.01303597993) 471 922 1
(0.04625013672 0.3299033311 0.4768749316 0.1469716005) 592 1160 1
(0.5999111031 0.2000444485 0.1541993412 0.04584510731) 443 867 2
(0.027555277 0.00943770533 0.4862223615 0.4767846562) 16 28 1
(0.5851092198 0.2074453901 0.1101511742 0.09729421587) 170 274 1
(0.02248473117 0.4887576344 0.2770773495 0.2116802849) 106 148 1
(0.02359939703 0.4882003015 0.4599532188 0.02824708269) 172 278 1
(0.346384556 0.1287467012 0.1980610208 0.326807722) 139 271 1
(0.2009452746 0.25069751 0.1488298527 0.3995273627) 620 1159 2
(0.4752794876 0.2623602562 0.03843094554 0.2239293107) 29 53 2
(0.1722467296 0.4138766352 0.2440129679 0.1698636673) 255 497 2
(0.4494054303 0.2752972848 0.2644449434 0.01085234142) 263 513 2
(0.3550057914 0.3224971043 0.2526909138 0.06980619052) 586 1092 1
(0.3958944029 0.3020527985 0.111866659 0.1901861395) 107 150 1
(0.7252027713 0.06107181294 0.1373986143 0.07632680141) 383 751 2
(0.01360892988 0.4847132803 0.008482254792 0.4931955351) 349 684 1
(0.1610452337 0.1963918043 0.4194773832 0.2230855788) 233 456 2
(0.2353358442 0.3823320779 0.1634590722 0.2188730057) 16 1255 2
(0.3126806451 0.3436596775 0.3210417277 0.02261794977) 83 1258 2
(0.3363664554 0.3318167723 0.2769318049 0.05488496739) 54 61 1
(0.3210100463 0.08869002559 0.3394949769 0.2508049513) 322 632 2
(0.007454217344 0.370206725 0.4962728913 0.1260661664) 112 216 1
(0.04215304618 0.4048254764 0.4789234769 0.07409800056) 15 26 1
(0.8652979108 0.008411743792 0.0673510446 0.05893930081) 499 977 1
(0.06998174343 0.06383918355 0.4011699447 0.4650091283) 352 632 2
(0.5198045106 0.2400977447 0.1537734396 0.08632430507) 49 94 2
(0.7070255661 0.09201377732 0.1464872169 0.05447343962) 202 396 2
(0.479964363 0.1775928237 0.2600178185 0.08242499475) 83 161 2
(0.6815944635 0.1316108633 0.1592027683 0.02759190495) 412 809 2
(0.006403446091 0.2312713576 0.496798277 0.2655269193) 501 981 1
(0.07430079349 0.4628496033 0.1492386309 0.3136109723) 323 1266 2
(0.1271195394 0.4364402303 0.2368328677 0.1996073626) 203 1262 2
(0.75854033 0.120729835 0.08470278289 0.03602705213) 472 924 2
(0.4593703493 0.1393041899 0.1310106355 0.2703148254) 291 512 2
(0.1022866937 0.4488566531 0.4154914569 0.0333651962) 323 1266 2
(0.7212918961 0.1393540519 0.03826602781 0.1010880241) 232 452 2
(0.4593412441 0.2614525387 0.008876839272 0.270329378) 413 751 2
(0.1145371826 0.07989506316 0.3628363455 0.4427314087) 503 928 2
(0.04784617788 0.4760769111 0.282054504 0.1940224071) 293 515 1
(0.8877093317 0.05614533415 0.01831205009 0.03783328407) 322 632 1
(0.5611609884 0.2101196742 0.2194195058 0.009299831609) 109 213 2
(0.2607634331 0.1914342335 0.17818405 0.3696182835) 52 100 1
(0.5112185827 0.1506974283 0.2443907086 0.09369328029) 54 102 1
(0.5381478767 0.2248886409 0.2309260616 0.006037420712) 171 335 2
(0.2841896854 0.3579051573 0.03336040075 0.3245447565) 293 515 1
(0.08076848209 0.105242861 0.459615759 0.354372898) 200 389 1
(0.1855712905 0.382773207 0.4072143548 0.02444114777) 653 1307 2
(0.6202113984 0.1898943008 0.1002140347 0.08968026608) 201 335 1
(0.1428716335 0.4285641833 0.01889044674 0.4096737365) 232 452 2
(0.7246528443 0.05601766773 0.1376735778 0.08165591011) 199 390 2
(0.5325113557 0.1425518848 0.2337443221 0.09119243737) 171 332 1
(0.09568791999 0.008830358558 0.45215604 0.4433256814) 412 809 2
(0.04405570427 0.05576603821 0.4779721479 0.4222061097) 648 1302 2
(0.9163839177 0.03771667603 0.04180804114 0.004091365109) 261 512 2
(0.6904682537 0.1547658731 0.1443971547 0.01036871849) 322 629 2
(0.07954429512 0.4602278524 0.3139206541 0.1463071983) 411 748 1
(0.2691260119 0.1312252324 0.2342117617 0.3654369941) 623 1164 2
(0.1666140169 0.3797266657 0.03696632579 0.4166929915) 142 277 1
(0.5575667173 0.2212166413 0.09713850517 0.1240781362) 562 1103 2
(0.1600137991 0.1943538175 0.2256392829 0.4199931004) 322 573 2
(0.08666217958 0.3715932334 0.4566689102 0.08507567684) 32 61 2
(0.1235856475 0.4382071762 0.3004443958 0.1377627805) 232 452 2
(0.2782492759 0.1026190407 0.360875362 0.2582563213) 353 692 2
(0.3520744918 0.3239627541 0.181916428 0.1420463261) 649 1216 1
(0.4532488521 0.2733755739 0.2433162486 0.03005932535) 143 1260 2
(0.1726952624 0.4136523688 0.03925539429 0.3743969745) 232 455 1
(0.260584028 0.2342718334 0.1354361526 0.369707986) 31 29 2
(0.3571563122 0.03752044853 0.3214218439 0.2839013954) 501 984 2
(0.4935592456 0.1921701173 0.2532203772 0.0610502599) 352 691 2
(0.3093225296 0.3453387352 0.1203117354 0.2250269998) 293 515 1
(0.5356119174 0.2321940413 0.1300658466 0.1021281947) 322 629 2
(0.008425932354 0.4957870338 0.07831251942 0.4174745144) 503 1272 2
(0.5710842108 0.1161847102 0.2144578946 0.09827318439) 231 450 1
(0.5739060837 0.1141251699 0.09892178824 0.2130469581) 502 985 1
(0.4629944657 0.05774593416 0.2685027672 0.210756833) 500 982 2
(0.3494764281 0.1801494507 0.1451123352 0.3252617859) 563 1274 1
(0.2935452798 0.3532273601 0.1716825244 0.1815448357) 323 633 1
(0.2335560855 0.1599012735 0.3832219573 0.2233206837) 140 271 1
(0.7217823127 0.1391088437 0.01921685886 0.1198919848) 142 275 2
(0.7035342198 0.1254395639 0.02279332625 0.1482328901) 407 798 1
(0.8058812383 0.09705938085 0.08180097113 0.01525840972) 173 1261 2
(0.08179100127 0.4591044994 0.4463718112 0.01273268819) 322 629 2
(0.09166212424 0.05639287935 0.4541689379 0.3977760585) 203 397 2
(0.612697293 0.1572308872 0.1936513535 0.03642046629) 229 449 2
(0.4100968599 0.2949515701 0.2773676323 0.0175839378) 31 60 1
(0.08413930331 0.2861965862 0.1717337621 0.4579303483) 532 1044 1
(0.04203107392 0.478984463 0.2302887141 0.2486957489) 52 100 2
(0.9345784468 0.03271077659 0.02290571494 0.009805061647) 351 688 2
(0.09161202132 0.2034451716 0.2507488177 0.4541939893) 111 158 2
(0.4336385812 0.1576986311 0.2831807094 0.1254820783) 263 515 2
(0.5625686361 0.2187156819 0.191873775 0.02684190693) 651 1251 2
(0.103160895 0.4484195525 0.3193206924 0.1290988601) 141 217 1
(0.06236660035 0.4688166998 0.1468314491 0.3219852507) 82 159 2
(0.454446224 0.272776888 0.05165664365 0.2211202443) 532 1044 2
(0.4226280185 0.1143361875 0.2886859907 0.1743498033) 618 1211 1
(0.066638556 0.06091453708 0.4057661849 0.466680722) 383 692 2
(0.3857863652 0.3071068174 0.1015868596 0.2055199578) 411 804 2
(0.1073268254 0.4463365873 0.3544519661 0.09188462124) 292 573 1
(0.2231314293 0.2100921259 0.3884342854 0.1783421595) 412 806 1
(0.8269763661 0.05695520743 0.02955660949 0.08651181693) 442 867 1
(0.2506719363 0.3746640319 0.138847885 0.2358161469) 263 515 1
(0.7414052849 0.1292973576 0.0725104666 0.05678689097) 83 159 2
(0.2474234117 0.3762882941 0.3729862284 0.003302065787) 353 692 1
(0.3301519379 0.2799161988 0.334924031 0.05500783227) 320 625 1
(0.3745041502 0.1003173097 0.2124306152 0.3127479249) 503 1272 1
(0.4827679123 0.03474836353 0.2586160439 0.2238676803) 171 332 1
(0.0996632359 0.180250422 0.450168382 0.26991796) 382 750 2
(0.2810536235 0.0852122986 0.2742608897 0.3594731883) 623 1164 2
(0.5922455724 0.2038772138 0.1494401757 0.05443703812) 201 394 1
(0.3587854458 0.3206072771 0.02816547076 0.2924418064) 563 1103 2
(0.4504001902 0.2747999049 0.02641266853 0.2483872363) 589 1157 1
(0.02308791263 0.283462272 0.2049937717 0.4884560437) 291 512 2
(0.03183006851 0.1098241846 0.4840849657 0.3742607812) 170 333 2
(0.1629995627 0.1541192038 0.4185002187 0.2643810149) 200 389 1
(0.1467840923 0.4266079539 0.4052805179 0.0213274359) 529 980 1
(0.3991352955 0.3004323522 0.09679964212 0.2036327101) 107 150 1
(0.7222099933 0.1388950034 0.114155695 0.02473930832) 173 338 1
(0.3409133463 0.045427133 0.2841161939 0.3295433269) 232 396 2
(0.1200271055 0.3493416678 0.4399864472 0.09064477946) 291 571 2
(0.02483415777 0.4875829211 0.1968312613 0.2907516598) 472 924 2
(0.1808196955 0.4095901523 0.2722889341 0.1373012181) 319 626 1
(0.1668813815 0.01341390146 0.4031454078 0.4165593092) 139 213 2
(0.2494016562 0.3752991719 0.1849199332 0.1903792387) 293 1265 2
(0.2115423572 0.3942288214 0.1589648991 0.2352639223) 503 985 2
(0.07124323912 0.211279173 0.4643783804 0.2530992074) 351 686 1
(0.1164126227 0.1223514294 0.3194422593 0.4417936887) 143 1260 1
(0.02257175648 0.4887141218 0.06822830857 0.4204858132) 231 450 2
(0.1105666618 0.2278468901 0.216869779 0.4447166691) 351 630 2
(0.007101719391 0.35693859 0.1395105503 0.4964491403) 14 26 1
(0.4037991557 0.1001652716 0.1979351506 0.2981004222) 203 338 2
(0.2746454771 0.04210397089 0.3626772614 0.3205732906) 411 807 2
(0.1356395431 0.4321802284 0.1193867998 0.3127934286) 16 30 1
(0.2181945525 0.0517580544 0.3391446694 0.3909027238) 409 802 1
(0.359859395 0.3200703025 0.12314574 0.1969245625) 322 632 1
(0.9543677762 0.0228161119 0.01002682639 0.01278928551) 141 217 1
(0.02925801866 0.2303644031 0.2550065875 0.4853709907) 141 217 2
(0.4617400583 0.1519337062 0.1171962647 0.2691299709) 142 277 1
(0.1437757522 0.4281121239 0.4196583593 0.008453764559) 12 23 1
(0.2063503126 0.3968248437 0.02856014025 0.3682647034) 173 338 1
(0.5755863351 0.03822516432 0.2122068325 0.1739816681) 172 337 2
(0.6085718502 0.04249628904 0.1957140749 0.1532177859) 258 506 2
(0.5717195364 0.1147223374 0.09941789441 0.2141402318) 472 868 2
(0.3679497622 0.3160251189 0.3072827664 0.008742352466) 353 690 2
(0.2068038152 0.3965980924 0.26648157 0.1301165224) 593 1162 2
(0.6476569441 0.176171528 0.04655312467 0.1296184033) 562 1101 2
(0.3856902548 0.2439273797 0.0632274929 0.3071548726) 82 159 1
(0.6014072884 0.1992963558 0.002393806535 0.1969025493) 15 26 2
(0.4708267652 0.2645866174 0.01748180751 0.2471048099) 30 27 1
(0.5454687458 0.05135106874 0.1759145584 0.2272656271) 143 220 2
(0.121470466 0.3221046595 0.1171601075 0.439264767) 229 448 1
(0.3252459467 0.3373770267 0.08252371922 0.2548533074) 530 982 1
(0.4644689359 0.02191552033 0.2458500117 0.2677655321) 379 743 1
(0.23862556 0.1522068361 0.38068722 0.228480384) 16 28 1
(0.3376226995 0.3311886503 0.1808190296 0.1503696207) 54 102 2
(0.5690989178 0.06771178298 0.2154505411 0.1477387581) 143 279 2
(0.6050408978 0.07372516493 0.1237543862 0.1974795511) 322 631 1
(0.5658146952 0.1298350305 0.2170926524 0.08725762188) 169 331 2
(0.421070672 0.05974051553 0.289464664 0.2297241485) 317 622 2
(0.2378836067 0.1581019173 0.3810581967 0.2229562794) 172 334 1
(0.3357370672 0.04424108715 0.3321314664 0.2878903793) 201 391 1
(0.0286281621 0.485685919 0.05150030443 0.4341856145) 53 103 1
(0.7047676976 0.07634958566 0.07126656553 0.1476161512) 263 456 2
(0.2170311813 0.3914844093 0.1056186431 0.2858657662) 563 1103 2
(0.3196331456 0.09662106578 0.2435623614 0.3401834272) 440 863 1
(0.1242700247 0.4378649877 0.361195024 0.07666996364) 203 395 2
(0.03018921413 0.4849053929 0.3750250395 0.1098803534) 170 333 1
(0.3795855744 0.3102072128 0.00812422193 0.3020829909) 262 513 2
(0.6146680796 0.1926659602 0.1882768133 0.004389146839) 5 7 2
(0.4190771448 0.2904614276 0.260748188 0.02971323957) 111 158 1
(0.5295019609 0.2352490196 0.001218462543 0.234030557) 202 396 1
(0.03231441178 0.4838427941 0.07615412286 0.4076886713) 201 391 2
(0.009280690209 0.4953596549 0.3827451374 0.1126145175) 470 864 1
(0.7684678536 0.0137620713 0.1157660732 0.1020040019) 232 455 2
(0.2590789463 0.1222642442 0.2481962826 0.3704605269) 142 219 2
(0.2701135156 0.3649432422 0.252180548 0.1127626942) 230 451 1
(0.01332044401 0.3533896093 0.1399501687 0.493339778) 349 626 2
(0.8916538036 0.0541730982 0.01576982998 0.03840326821) 531 1040 2
(0.7081752317 0.1459123842 0.111074695 0.03483768915) 497 917 1
(0.2201279339 0.389936033 0.07370783412 0.3162281989) 469 920 2
(0.6230175194 0.1884912403 0.09840085874 0.09009038157) 322 573 1
(0.3520198433 0.3239900784 0.1811947455 0.1427953329) 289 566 2
(0.1081602779 0.4348548588 0.01106500223 0.445919861) 110 214 1
(0.4497234783 0.1434212816 0.2751382608 0.1317169792) 232 455 2
(0.07594469497 0.06454193895 0.3974857136 0.4620276525) 377 681 2
(0.3147180291 0.3426409854 0.02460726799 0.3180337174) 592 1160 2
(0.3639980937 0.1368217066 0.3180009532 0.1811792466) 322 629 1
(0.6319322244 0.1840338878 0.1789048618 0.005129025963) 202 337 1
(0.1326152884 0.128934088 0.4336923558 0.3047582678) 3 6 2
(0.3963003077 0.3018498461 0.1646555768 0.1371942694) 377 681 1
(0.4173479552 0.2913260224 0.2242519768 0.06707404558) 54 61 1
(0.4051983044 0.2974008478 0.2011455137 0.09625533416) 380 745 2
(0.690956312 0.154521844 0.1120909386 0.04243090542) 27 51 2
(0.2805337275 0.3412325398 0.01850059644 0.3597331363) 381 747 1
(0.1472817676 0.4263591162 0.375765428 0.05059368823) 531 1040 2
(0.3713733323 0.3143133339 0.04805481669 0.2662585172) 232 452 2
(0.3253599264 0.07768268242 0.3373200368 0.2596373544) 287 560 1
(0.3534247884 0.1524908928 0.170796713 0.3232876058) 293 515 2
(0.6931002111 0.004952633628 0.1534498945 0.1484972608) 383 751 2
(0.09636789624 0.2937544384 0.4518160519 0.1580616135) 230 451 2
(0.01639392458 0.4460896784 0.4918030377 0.04571335934) 47 88 1
(0.4496716749 0.2751641626 0.1244335253 0.1507306372) 13 25 1
(0.7883640614 0.1058179693 0.0526339379 0.0531840314) 501 981 2
(0.04740399645 0.4762980018 0.3961161204 0.0801818814) 52 98 2
(0.4455752563 0.2772123718 0.1178659403 0.1593464315) 200 389 2
(0.4894115579 0.1430347662 0.1122594548 0.255294221) 169 272 2
(0.2464892585 0.3767553707 0.2020685641 0.1746868066) 173 279 1
(0.8188505557 0.09057472215 0.04325744748 0.04731727467) 321 571 1
(0.2388948664 0.2685687142 0.1119838527 0.3805525668) 260 451 2
(0.5137271565 0.1500435314 0.2431364218 0.0930928904) 263 515 2
(0.5481577234 0.2259211383 0.2166291333 0.009292005044) 141 275 2
(0.2851993774 0.3574003113 0.2882449343 0.069155377) 112 160 1
(0.2275778523 0.1985192985 0.1876917753 0.3862110739) 441 807 2
(0.06638322401 0.466808388 0.3498101825 0.1169982055) 141 273 2
(0.7782239792 0.1108880104 0.02298921853 0.08789879187) 323 574 1
(0.4251160648 0.2874419676 0.1728782177 0.1145637499) 413 751 1
(0.5829876594 0.1583205659 0.05018560441 0.2085061703) 203 338 2
(0.6309344938 0.1845327531 0.1791790348 0.005353718309) 52 98 2
(0.3223666307 0.04723615375 0.3388166846 0.2915805309) 412 809 2
(0.06477930766 0.4676103462 0.4410910922 0.02651925394) 501 925 1
(0.4917988908 0.2541005546 0.107005772 0.1470947826) 560 1041 1
(0.4988430573 0.2505784714 0.1038967865 0.1466816848) 471 866 1
(0.4321504322 0.2839247839 0.03722862565 0.2466961582) 231 394 1
(0.09657180365 0.4517140982 0.07529546038 0.3764186378) 532 1045 1
(0.2431923988 0.01905255476 0.3593512458 0.3784038006) 170 332 1
(0.2389232431 0.3805383784 0.3468653342 0.03367304419) 620 1217 2
(0.07470291501 0.4626485425 0.4231892768 0.03945926569) 351 630 1
(0.51220442 0.24389779 0.006244103364 0.2376536866) 619 1157 1
(0.1913809029 0.1005492898 0.4043095485 0.3037602587) 347 678 1
(0.09555754884 0.004858195717 0.4473630299 0.4522212256) 347 680 1
(0.2998601195 0.3422974111 0.007772529196 0.3500699403) 202 337 2
(0.7036567754 0.1034793726 0.04469223969 0.1481716123) 443 810 2
(0.2278787221 0.3506086252 0.386060639 0.03545201373) 263 515 2
(0.631267461 0.1575444422 0.1843662695 0.02682182734) 231 453 2
(0.1806618984 0.04327932373 0.4096690508 0.3663897271) 442 865 1
(0.505846058 0.247076971 0.2327896625 0.01428730857) 53 100 2
(0.7332166323 0.1042308474 0.0291608364 0.1333916838) 170 332 1
(0.6564378179 0.171781091 0.07939482427 0.09238626677) 232 455 1
(0.05727529192 0.471362354 0.4621496391 0.009212714948) 317 563 1
(0.5596607608 0.2201696196 0.1059426722 0.1142269474) 140 274 1
(0.04357921968 0.1259799979 0.4782103902 0.3522303923) 170 330 1
(0.4487846128 0.2756076936 0.2230750643 0.05253262927) 316 620 1
(0.2222350013 0.3888824994 0.2096352139 0.1792472854) 232 396 1
(0.4951321471 0.2524339265 0.177678231 0.07475569551) 78 152 1
(0.8663576476 0.05232465278 0.01449652344 0.06682117622) 410 804 1
(0.0142988118 0.4928505941 0.3053680104 0.1874825837) 649 1249 2
(0.1017807032 0.4491096484 0.3575028445 0.09160680385) 171 332 2
(0.08944289343 0.4552785533 0.003928196244 0.451350357) 230 392 1
(0.1339396332 0.4330301834 0.3442121472 0.08881803623) 615 1207 2
(0.02903072871 0.4854846356 0.1020807459 0.3834038898) 652 1306 1
(0.7685305921 0.1157347039 0.1131727906 0.002561913356) 503 928 1
(0.2237203159 0.07544028476 0.3881398421 0.3126995573) 293 574 2
(0.4095819778 0.2952090111 0.007087128705 0.2881218824) 110 215 1
(0.785993101 0.1070034495 0.07155040705 0.03545304247) 593 1164 1
(0.8076833176 0.0961583412 0.03020019524 0.06595814596) 230 451 1
(0.004994359307 0.4975028203 0.4147637872 0.08273903317) 290 566 2
(0.1875648423 0.3132062266 0.09301135227 0.4062175788) 562 1103 1
(0.01949411111 0.4902529444 0.08827242897 0.4019805155) 233 1263 2
(0.0516100348 0.09188441789 0.4741949826 0.3823105647) 440 861 1
(0.3769592705 0.3045698173 0.3115203647 0.006950547427) 110 212 1
(0.383951112 0.2047302765 0.308024444 0.1032941675) 263 515 2
(0.3499460472 0.3250269764 0.1955098434 0.1295171331) 286 560 2
(0.04832098307 0.0521700019 0.4758395085 0.4236695066) 375 736 2
(0.169203072 0.0685235554 0.3468749086 0.415398464) 470 922 1
(0.8070922061 0.09645389694 0.03369004852 0.06276384842) 503 985 2
(0.009437448512 0.4952812757 0.2032804217 0.2920008541) 646 1210 1
(0.09870363865 0.4506481807 0.09323963915 0.3574085415) 168 329 1
(0.6969586406 0.04454625398 0.1515206797 0.1069744257) 113 220 2
(0.6638879949 0.09304768113 0.1680560026 0.07500832144) 590 1159 2
(0.7435694915 0.08560759873 0.1282152543 0.04260765552) 379 744 2
(0.03120874516 0.4843956274 0.04291452228 0.4414811051) 531 1042 2
(0.2023679262 0.04502630505 0.3988160369 0.3537897318) 590 1156 1
(0.4219896195 0.2890051903 0.06126373651 0.2277414538) 171 332 2
(0.4050913266 0.2974543367 0.0479379088 0.2495164279) 170 333 1
(0.1454549091 0.42334692 0.003925625478 0.4272725454) 468 860 2
(0.2930466417 0.1889657278 0.3534766792 0.1645109514) 411 807 2
(0.6778491788 0.04684980228 0.1142256083 0.1610754106) 496 915 2
(0.07898697829 0.451884204 0.008622306887 0.4605065109) 615 1149 2
(0.2914666422 0.3542666789 0.3272278809 0.02703879796) 200 333 1
(0.5523359436 0.2238320282 0.04226930111 0.1815627271) 470 922 2
(0.3219669174 0.3390165413 0.1094980666 0.2295184747) 169 331 1
(0.7050811449 0.02543994511 0.1474594276 0.1220194825) 350 684 1
(0.7590223943 0.1204888029 0.03524470959 0.08524409327) 263 515 1
(0.07553543691 0.4622322815 0.1462677257 0.3159645558) 200 333 1
(0.5509978976 0.05343542957 0.2245010512 0.1710656216) 109 213 2
(0.1921649276 0.1294434379 0.4039175362 0.2744740983) 103 201 2
(0.02826020701 0.4858698965 0.01566238327 0.4702075132) 323 631 2
(0.448501344 0.2537155369 0.02203379108 0.275749328) 408 800 1
(0.05543063005 0.472284685 0.0585590803 0.4137256047) 292 570 2
(0.2619430519 0.2451594306 0.1238690435 0.3690284741) 111 216 1
(0.2916182421 0.354190879 0.2549737493 0.09921712972) 382 749 2
(0.1120996861 0.4439501569 0.08066669585 0.3632834611) 379 741 2
(0.5907733328 0.196336271 0.008277062587 0.2046133336) 110 214 1
(0.1645942649 0.40193771 0.4177028676 0.01576515751) 201 394 2
(0.8752192516 0.03471089607 0.06239037418 0.02767947811) 138 270 2
(0.161014455 0.4194927725 0.290502157 0.1289906155) 440 861 2
(0.395865419 0.3020672905 0.2959282426 0.006139047881) 560 1099 2
(0.5337499384 0.2331250308 0.03186120373 0.2012638271) 112 219 1
(0.09877709099 0.4506114545 0.4193256677 0.03128578681) 528 978 1
(0.2873665639 0.04078530051 0.3563167181 0.3155314175) 313 611 1
(0.07084992104 0.4516737901 0.4645750395 0.01290124935) 171 332 1
(0.2051710211 0.3306356635 0.3974144894 0.06677882594) 353 692 2
(0.3001143202 0.3499428399 0.2320832022 0.1178596377) 350 686 2
(0.3285621117 0.3357189441 0.3331014392 0.002617504956) 618 1214 1
(0.007329375097 0.4963353125 0.3933631348 0.1029721776) 351 689 1
(0.5290691318 0.2354654341 0.1889798793 0.04648555479) 166 325 1
(0.2762298145 0.2048816512 0.3618850927 0.1570034416) 112 219 2
(0.2425644459 0.3109486925 0.3787177771 0.06776908453) 79 154 2
(0.9277446023 0.03612769885 0.02020908524 0.0159186136) 291 571 1
(0.4374181948 0.2812909026 0.01877791749 0.2625129851) 533 1044 2
(0.260936912 0.369531544 0.08250805222 0.2870234918) 230 451 1
(0.1730232212 0.1899800474 0.4134883894 0.2235083419) 227 442 1
(0.1183215624 0.04298230631 0.4408392188 0.3978569125) 54 102 1
(0.5860593953 0.2069703023 0.08125374058 0.1257165618) 50 54 1
(0.1886894822 0.4056552589 0.07357610114 0.3320791578) 348 682 2
(0.565569922 0.1527307849 0.0644842541 0.217215039) 441 865 1
(0.328163988 0.335918006 0.1337083639 0.2022096421) 263 513 2
(0.08844057233 0.09464796389 0.3611317499 0.4557797138) 467 858 2
(0.03406095415 0.11552867 0.3674408529 0.4829695229) 353 1267 1
(0.6729859389 0.1103271695 0.05317986102 0.1635070305) 288 506 2
(0.2440087532 0.170756028 0.2072395954 0.3779956234) 322 573 2
(0.3299036617 0.1168474921 0.3350481691 0.2182006771) 134 262 2
(0.01071360055 0.4946431997 0.4653739371 0.02926926258) 32 30 1
(0.4384879725 0.2807560137 0.07936577332 0.2013902404) 529 1036 2
(0.5567112795 0.1348249748 0.2216443602 0.08681938542) 318 624 2
(0.3946137027 0.3026931486 0.1390595506 0.1636335981) 498 975 2
(0.3738105474 0.3130947263 0.2918607302 0.02123399609) 290 569 1
(0.1860746604 0.4069626698 0.376567643 0.03039502677) 170 330 2
(0.3598957936 0.2370722668 0.3200521032 0.08297983636) 288 565 2
(0.2269290453 0.02522064302 0.3613148343 0.3865354774) 292 572 1
(0.4164433744 0.2917783128 0.2677551861 0.02402312665) 376 737 2
(0.08185716654 0.3258952339 0.4590714167 0.1331761828) 203 395 1
(0.6036433937 0.1981783031 0.1048046977 0.09337360545) 293 572 2
(0.04614209174 0.3686425876 0.4769289541 0.1082863665) 172 337 2
(0.07788257011 0.4610587149 0.3272628608 0.1337958542) 559 1098 1
(0.06294164703 0.1395298328 0.4685291765 0.3289993437) 320 628 2
(0.316114677 0.3419426615 0.02360025323 0.3183424083) 111 216 2
(0.550534312 0.164121693 0.06061115099 0.224732844) 350 628 2
(0.8768063871 0.02387244474 0.06159680643 0.03772436169) 32 59 1
(0.5641952181 0.1988418385 0.01906055248 0.2179023909) 438 859 1
(0.4229360496 0.174717189 0.2885319752 0.1138147862) 561 1099 1
(0.4202591488 0.2898704256 0.1879632317 0.1019071939) 230 448 2
(0.8357236339 0.02236458489 0.08213818306 0.05977359817) 321 627 1
(0.06100240744 0.4694987963 0.04401405915 0.4254847371) 378 739 2
(0.4742654117 0.246584103 0.01628319119 0.2628672942) 143 220 2
(0.1203179136 0.2800369634 0.4398410432 0.1598040799) 469 921 2
(0.230833779 0.2908205299 0.09376258064 0.3845831105) 112 218 1
(0.5914829198 0.1162344826 0.08802405747 0.2042585401) 291 512 2
(0.2369105405 0.3636632098 0.3815447297 0.01788151989) 290 566 1
(0.5998078724 0.2000960638 0.009390932143 0.1907051316) 561 1102 1
(0.5768351431 0.05381315612 0.1577692723 0.2115824284) 254 439 2
(0.4059266346 0.2970366827 0.2601194033 0.03691727935) 317 622 1
(0.237771306 0.381114347 0.1151120653 0.2660022817) 291 512 1
(0.3604141506 0.022669672 0.2971232527 0.3197929247) 173 1261 1
(0.09161303741 0.4336711248 0.02052235646 0.4541934813) 353 633 2
(0.4113977846 0.05874701783 0.2355540899 0.2943011077) 172 278 2
(0.6500431434 0.1749784283 0.0212281841 0.1537502442) 498 978 1
(0.2183911587 0.3069749917 0.08382942899 0.3908044206) 473 869 2
(0.009102529151 0.4628453405 0.4954487354 0.03260339496) 291 571 2
(0.5081073231 0.06804514343 0.177901195 0.2459463385) 622 1221 1
(0.06512652854 0.4674367357 0.002019022213 0.4654177135) 590 1158 2
(0.2051908541 0.1279359852 0.397404573 0.2694685877) 167 324 1
(0.5728468528 0.07887318662 0.134703387 0.2135765736) 408 742 2
(0.7749120478 0.1125439761 0.003351779163 0.1091921969) 437 857 2
(0.5386402721 0.04624537089 0.2306798639 0.184434493) 530 1038 1
(0.5604472273 0.2197763863 0.07433488725 0.1454414991) 347 678 2
(0.4598226181 0.270088691 0.1238516801 0.1462370108) 141 273 2
(0.7276289967 0.1361855016 0.01978156581 0.1164039358) 224 436 2
(0.6067680642 0.1966159679 0.1030554325 0.09356053543) 323 631 2
(0.02039380266 0.352564829 0.1372382697 0.4898030987) 443 1270 1
(0.142572579 0.4287137105 0.04796173265 0.3807519778) 593 1164 1
(0.1703807987 0.4148096007 0.1356132861 0.2791963146) 200 392 1
(0.3994933167 0.3002533417 0.098292737 0.2019606047) 412 809 1
(0.2445300818 0.1557232611 0.222011698 0.3777349591) 435 795 2
(0.2961708425 0.3519145787 0.06281234144 0.2891022373) 109 212 2
(0.4503946521 0.2748026739 0.2153929047 0.05940976919) 231 452 2
(0.5446405962 0.09457019998 0.2276797019 0.1331095019) 108 211 2
(0.5755549498 0.2122225251 0.2016344795 0.01058804567) 202 393 2
(0.1370033753 0.4314983123 0.2024605438 0.2290377685) 7 13 1
(0.3400213265 0.3299893368 0.3107594035 0.01922993326) 442 867 2
(0.1176946719 0.441152664 0.1903436621 0.250809002) 591 1160 2
(0.4601074311 0.1709112128 0.2699462844 0.09903507165) 529 1036 1
(0.02524164191 0.487379179 0.2429114411 0.2444677379) 412 809 1
(0.4365579127 0.2817210436 0.149344602 0.1323764416) 413 751 1
(0.5111662408 0.2444168796 0.128628665 0.1157882146) 590 1159 1
(0.0182343367 0.3519727116 0.4908828317 0.13891012) 141 273 1
(0.09910116201 0.02956804773 0.4208813713 0.450449419) 46 88 1
(0.6260883217 0.1029947932 0.1869558391 0.08396104598) 413 808 1
(0.5644185026 0.02140625871 0.19638449 0.2177907487) 350 686 1
(0.2999228805 0.155101262 0.3500385597 0.1949372978) 473 926 1
(0.4565607645 0.2237908694 0.2717196178 0.04792874839) 351 689 2
(0.6106807041 0.07974205935 0.1149175886 0.1946596479) 229 390 2
(0.7636507377 0.06214407719 0.1181746311 0.05603055395) 323 631 1
(0.2036308772 0.2747540318 0.1234305296 0.3981845614) 443 810 2
(0.07591953737 0.4620402313 0.187070119 0.2749701123) 199 387 2
(0.4038867701 0.1940837561 0.298056615 0.1039728588) 528 1034 1
(0.3780860289 0.2345851002 0.3109569855 0.07637188538) 317 619 1
(0.03003055 0.484984725 0.04443701179 0.4405477132) 351 630 1
(0.2265352935 0.3750464935 0.01168585979 0.3867323532) 532 1044 1
(0.1315070673 0.07299755879 0.4342464664 0.3612489076) 562 1104 2
(0.1536932194 0.4231533903 0.1283817923 0.294771598) 472 926 2
(0.009466773828 0.3711516661 0.1241149469 0.4952666131) 527 1034 1
(0.1232798251 0.4383600874 0.3815057991 0.05685428837) 473 928 1
(0.5813654238 0.02462982251 0.2093172881 0.1846874656) 168 326 1
(0.1004929164 0.4497535418 0.2684357386 0.1813178032) 438 859 2
(0.431374415 0.2843127925 0.1116036266 0.1727091659) 233 1263 2
(0.4914513667 0.1635201109 0.2542743166 0.0907542057) 530 1041 2
(0.07887851867 0.4186857472 0.04187499345 0.4605607407) 410 746 2
(0.8721829144 0.06390854282 0.004449917129 0.05945862569) 81 155 2
(0.05831456507 0.4708427175 0.1934292286 0.2774134888) 107 206 2
(0.1165192981 0.441740351 0.2461440181 0.1955963329) 228 444 2