/*--------------------------------*- C++ -*----------------------------------*\
| =========                 |                                                 |
| \\      /  F ield         | OpenFOAM: The Open Source CFD Toolbox           |
|  \\    /   O peration     | Version:  2406                                  |
|   \\  /    A nd           | Website:  www.openfoam.com                      |
|    \\/     M anipulation  |                                                 |
\*---------------------------------------------------------------------------*/
FoamFile
{
    version     2.0;
    format      ascii;
    arch        "LSB;label=32;scalar=64";
    class       scalarField;
    location    "0.004/lagrangian/dsmc";
    object      Ei;
}
// * * * * * * * * * * * * * * * * * * * * * * * * * * * * * * * * * * * * * //


6203
(
2.020972729e-20
2.63079377e-20
2.260230457e-21
1.850842416e-20
3.442731673e-22
1.146992828e-20
7.389339415e-21
1.859936276e-22
4.279071611e-21
3.654668488e-21
1.958383629e-21
1.082959021e-20
2.573603622e-21
4.955972145e-21
2.181449256e-21
4.040143745e-22
3.983883202e-21
6.330557488e-22
2.273387676e-20
1.612220167e-20
1.768734309e-21
2.182192969e-20
9.158848853e-25
1.354406576e-20
3.499321239e-21
1.514692388e-20
1.944887953e-21
1.326171292e-20
1.152558381e-21
4.477943867e-21
1.392261972e-21
3.709055172e-21
6.063899535e-22
6.686728423e-21
3.76959212e-21
6.559206318e-21
2.072588298e-23
1.560789289e-20
2.148750796e-20
2.094068163e-21
4.227650005e-21
9.419956254e-21
3.44468233e-21
5.794750679e-21
3.197030965e-20
1.645541679e-21
7.871520635e-22
2.374131566e-21
4.178412574e-21
1.083617675e-20
6.937070489e-21
1.752461631e-20
1.224259598e-20
2.953926275e-21
8.050318968e-21
9.771874772e-21
3.302858026e-21
2.844179778e-21
3.324926603e-21
3.373654463e-21
7.193938109e-22
6.479321704e-22
1.920630253e-21
6.260013193e-21
5.171069245e-21
4.66775585e-21
2.377839725e-21
2.301102509e-21
8.924844515e-23
9.976053749e-21
1.090985868e-21
1.013979017e-20
3.886136763e-21
2.982765082e-21
1.676612595e-20
7.309098596e-21
1.266148373e-20
2.18515875e-21
1.042886045e-21
2.323492833e-22
1.628299819e-20
3.4723827e-21
2.800671116e-22
9.450603529e-21
2.484137334e-21
6.886045156e-21
6.11887732e-21
1.032271732e-21
1.03033832e-20
1.153544518e-20
5.46406522e-21
4.547424939e-21
7.722734347e-21
2.847465401e-21
1.380548643e-20
3.144957154e-21
1.830445926e-21
7.669330197e-21
7.05374705e-21
6.775900272e-21
6.656916249e-21
2.463107697e-22
2.086740716e-21
1.47917987e-20
4.85396786e-22
1.899191628e-20
2.425526901e-21
2.363193083e-20
1.173497989e-20
3.525899185e-21
6.25763484e-21
1.554444603e-20
3.864159685e-21
1.247818622e-21
2.808143001e-22
4.230011967e-21
9.922981971e-21
2.948831531e-22
4.1552531e-21
9.219742476e-23
1.070133984e-20
5.925847963e-21
2.849695614e-22
1.17332555e-20
5.960329808e-21
4.390863311e-21
5.62922403e-22
4.141260609e-21
5.123770399e-21
1.684143302e-20
9.798007008e-21
5.062172692e-22
2.926631685e-21
8.663111087e-21
8.132335578e-21
1.081926102e-21
1.843018932e-21
1.670905189e-21
1.365157112e-21
2.300862034e-22
1.963850578e-21
1.495998012e-21
9.138164516e-21
3.459799336e-21
6.840371427e-22
1.06085789e-21
5.25580371e-21
4.548537534e-21
1.138915365e-20
3.761381942e-21
7.89913814e-21
3.554413867e-21
2.357937971e-21
5.895098289e-21
3.046104397e-21
2.232542637e-21
4.119012629e-21
5.372648362e-21
4.331300746e-21
4.017638322e-22
3.495423943e-21
2.480250285e-21
3.18033374e-21
2.042037996e-22
2.048221289e-21
7.613358415e-21
1.015105117e-21
2.531208368e-21
1.260566654e-20
9.229053176e-21
2.560519156e-20
2.236006573e-21
1.516515358e-21
1.852601166e-21
1.542933495e-20
1.842196367e-20
1.84712873e-21
9.694993094e-21
1.722122892e-21
1.933279923e-21
9.576280685e-21
1.214837732e-21
6.739966442e-21
2.327294998e-22
1.468849311e-20
6.290525298e-21
4.299712116e-21
1.268164254e-20
1.102461039e-20
3.415047157e-21
1.960777859e-20
9.379626961e-21
1.353548936e-21
9.298406538e-21
2.51510515e-20
9.540483494e-22
2.465267515e-22
1.428236781e-20
1.028340731e-22
8.895944617e-21
1.069172935e-21
2.012885724e-22
1.199165576e-22
6.788257621e-22
6.818792882e-21
5.027300942e-22
1.146588119e-21
1.901357013e-21
1.158011896e-20
1.44397253e-21
2.559633206e-21
2.994261665e-21
4.734868761e-21
1.46546043e-21
5.936417945e-22
1.871508732e-21
7.387668012e-22
4.281993853e-21
8.032179099e-21
2.418090079e-21
1.211302328e-21
1.424898936e-21
2.44485793e-21
5.742269987e-21
1.830571697e-21
1.36991777e-21
4.187789296e-21
3.325780913e-21
5.011909603e-21
1.330414306e-20
6.760648067e-21
1.495266983e-20
9.599490826e-21
5.508872979e-21
2.940781864e-21
1.195503745e-21
4.941003676e-21
5.270711301e-21
1.990379712e-22
1.23206446e-21
2.574428203e-21
2.666187798e-20
1.12727909e-20
4.909369144e-22
3.160485083e-21
2.487847422e-21
2.891492368e-22
2.129022632e-21
7.244255838e-21
5.284417838e-21
1.797205591e-21
1.050678853e-20
7.747123735e-21
5.452947961e-21
8.975735031e-21
4.129752556e-21
7.72369729e-22
8.664685409e-21
5.928104214e-22
3.865556837e-21
4.243981575e-22
1.544162002e-21
2.154502677e-20
7.552425088e-21
2.87300354e-20
3.972726131e-21
5.799151892e-21
6.382915463e-22
2.058202093e-21
6.200821974e-21
2.256510692e-20
2.520179064e-21
8.279542216e-21
9.581352192e-21
7.56715216e-21
1.217307853e-20
2.854428829e-20
1.067880066e-20
4.967463786e-21
1.043692684e-20
1.307843112e-20
1.336378623e-20
1.253478373e-21
2.166491016e-21
1.685782404e-21
4.604158587e-22
2.163717425e-21
7.055397318e-21
5.391556696e-21
9.285727448e-22
2.630597445e-21
6.086668734e-22
2.386418823e-21
3.952031554e-21
2.405334749e-24
1.270531889e-21
1.924339873e-21
6.160869256e-21
2.237888484e-21
5.08996688e-21
1.436257506e-20
8.919082164e-21
5.955009556e-21
1.22629152e-21
1.218166468e-20
2.208770505e-22
2.902625219e-21
1.042144213e-22
2.232329217e-21
5.170906527e-22
3.705222044e-22
2.869457239e-21
1.129823315e-20
1.681230731e-20
7.681180247e-23
3.356096134e-21
3.875196441e-22
1.534713856e-22
3.371825482e-21
5.150367928e-21
5.718175927e-21
4.999614125e-21
1.752582392e-21
1.022409054e-20
3.291142237e-21
3.958152937e-21
3.684234887e-22
8.207124637e-21
2.418244529e-21
5.410968176e-20
4.195298032e-21
1.533826293e-20
8.650503595e-21
5.109954098e-21
4.465348192e-21
4.995864896e-21
4.497499491e-21
2.747632424e-20
7.384547911e-22
4.11694094e-21
2.527193519e-21
3.344001328e-21
2.528955038e-21
1.168268049e-20
2.421863825e-21
8.245850567e-21
1.244051931e-20
1.108944815e-20
1.717608655e-21
7.579002842e-22
2.971967336e-21
2.609552537e-21
1.105057518e-21
3.207038569e-21
5.16056221e-21
1.212731124e-21
2.374236898e-21
6.898565725e-21
1.860352411e-21
1.698326916e-21
6.818115339e-21
4.789372786e-21
1.490288233e-20
7.568945057e-21
1.200066059e-21
2.883174688e-20
1.231031971e-20
1.373294827e-21
5.895920826e-21
2.180682783e-21
3.572899446e-21
8.871186497e-22
1.754468951e-21
6.833572082e-21
9.595104519e-22
7.356205475e-21
3.26316828e-21
1.164815376e-21
3.460386825e-21
3.775040795e-21
2.343209919e-21
1.778912261e-21
3.985373303e-21
8.440100685e-22
2.153521001e-21
2.424346688e-21
1.131389029e-20
4.468614476e-21
2.60609034e-21
9.9101813e-22
1.090511603e-20
6.75965558e-22
3.48553401e-21
2.710110971e-21
8.694822264e-21
2.709286904e-21
9.115001003e-21
7.130978837e-21
1.827178887e-21
3.913288547e-21
3.13486569e-21
3.306722044e-21
8.180961306e-21
2.151082522e-22
3.217674033e-21
1.911828014e-21
3.160881603e-21
2.711360993e-20
1.187633156e-21
1.963494362e-21
3.869911217e-22
1.150954279e-20
8.303427433e-22
5.823697645e-21
3.43056023e-22
1.096900758e-20
9.164119386e-21
1.054180267e-20
1.633633388e-20
4.094716996e-21
1.867752745e-21
5.482860436e-21
3.751849903e-22
1.754681577e-20
2.581903706e-21
3.140934124e-21
5.176010613e-21
2.049724926e-21
4.600541008e-22
8.743069271e-22
7.003557176e-21
5.926351454e-21
7.400241919e-22
7.017360561e-21
8.391267318e-21
1.685745735e-21
3.373349999e-22
4.48841945e-21
1.413465717e-21
1.211112364e-20
4.819625819e-21
7.263191848e-21
1.10596698e-20
1.079604317e-21
3.0287638e-21
9.912291504e-22
4.685683457e-21
3.078218571e-21
2.095973751e-21
8.064040738e-21
1.688153307e-21
6.219022963e-21
1.960857822e-22
6.541115563e-22
3.850604981e-21
7.825736074e-21
1.105540882e-20
1.629852723e-21
4.686588654e-22
1.834597073e-21
5.774409056e-22
6.315799037e-22
7.90269836e-21
3.596699214e-21
3.206990266e-22
5.478486189e-22
1.343883466e-20
6.782417825e-21
5.418164043e-21
2.352327625e-21
3.941535271e-21
9.068607873e-21
7.510068741e-22
1.089390062e-21
9.49484227e-21
7.743640985e-21
4.638529152e-21
1.743052643e-22
3.017841469e-20
3.095555151e-22
7.136709249e-21
5.291705775e-21
1.426367413e-21
2.069638436e-21
2.295978672e-21
1.567927288e-21
1.017286202e-21
1.568263413e-21
2.634403033e-21
4.676510494e-21
5.566281461e-21
5.860532422e-21
1.152257044e-21
4.533728324e-22
2.175549776e-21
1.534500194e-20
3.549847565e-21
1.555279034e-22
6.243395252e-22
3.995077463e-21
5.536992509e-21
2.26046788e-21
7.102199047e-22
4.094225424e-21
2.068258212e-20
1.126844211e-20
1.304258511e-21
1.125903796e-21
1.609496559e-20
8.149012205e-21
1.258057557e-21
7.779482933e-22
7.626097751e-22
4.12970585e-22
6.205846362e-22
1.854666349e-20
2.417539644e-21
1.518423321e-20
3.252662684e-21
1.089723483e-21
1.766745305e-20
7.260696628e-22
1.560787219e-21
9.850897368e-21
2.077725254e-21
2.620797494e-22
1.090528583e-20
6.199233582e-21
6.699623765e-21
6.977785545e-21
7.872966886e-21
2.652993246e-20
4.288353674e-21
1.301995084e-22
6.069480538e-22
2.059597465e-21
6.135341674e-22
1.148917251e-20
2.729675677e-22
6.310645497e-21
3.253403934e-21
2.463513191e-21
5.955127702e-21
3.404296831e-21
5.571954197e-21
2.33435652e-20
2.861618412e-21
3.500659436e-21
1.797651003e-21
1.09284749e-21
4.659164111e-21
5.063410775e-21
1.168076174e-20
1.013025275e-21
1.651180328e-21
1.056788318e-21
1.611384815e-21
3.413729711e-21
1.231500696e-21
1.34952436e-21
2.007352956e-21
5.96434294e-22
1.79473384e-21
7.45889502e-21
2.372570018e-21
6.084054785e-22
8.790980814e-22
1.239632589e-21
1.736636902e-21
2.034586734e-21
9.381768589e-22
5.387231327e-21
6.745270991e-21
1.170921218e-21
6.735736544e-21
5.786444212e-21
4.311045358e-21
3.012363295e-21
2.373648093e-21
5.643863571e-21
1.582431475e-21
5.951505964e-22
4.832312881e-21
2.514257745e-21
7.215589562e-22
2.67872342e-20
4.450967937e-21
3.052125335e-21
1.302669676e-20
4.182687835e-21
3.308406268e-21
7.006625131e-21
1.716046396e-22
2.068588354e-21
2.983495743e-21
4.459611456e-21
1.074604073e-23
4.60056462e-21
2.145957815e-21
7.489688616e-21
2.826747687e-21
1.479784146e-21
2.174940263e-21
8.922160974e-22
4.825540352e-21
5.901826603e-21
5.899452015e-22
2.075845165e-21
2.075562265e-21
1.669796267e-21
3.764051618e-21
1.295693501e-21
4.113296022e-21
4.895847564e-21
3.911397405e-21
6.295201116e-21
1.076563306e-20
1.459901288e-20
6.606960828e-21
1.831490229e-21
7.025238273e-23
1.413317264e-20
9.415068943e-21
6.413388884e-22
3.680975374e-22
1.587327068e-21
8.903661059e-22
1.217139851e-20
1.387185586e-21
8.968425566e-22
2.39572397e-20
2.750515755e-21
7.2447884e-21
4.503629139e-21
1.453282946e-21
5.820451891e-21
1.144289159e-20
3.116930808e-21
3.70307413e-22
2.731024651e-21
1.28648875e-21
3.988158915e-21
2.392407267e-22
1.854192055e-21
1.57129555e-21
4.105446567e-21
4.374077967e-21
6.936268871e-21
1.176304485e-21
3.91784352e-21
4.298066873e-21
2.103348338e-20
1.044927638e-20
5.927141005e-22
4.043913907e-21
2.314299946e-20
1.654006846e-21
6.303623041e-21
1.41017951e-20
2.610074946e-21
1.045212243e-20
1.46821067e-20
3.233567824e-21
1.207456064e-20
1.973581358e-21
2.456066408e-21
1.617003295e-21
7.06840705e-21
4.029306922e-22
1.093180724e-20
5.572757483e-23
3.082232888e-21
1.299066202e-20
3.452793243e-21
3.282355165e-21
3.313945998e-21
1.944594411e-21
1.054193359e-20
1.303100786e-21
8.025533617e-22
2.876324988e-21
3.196218647e-21
1.771363975e-22
3.793783741e-21
5.620721895e-21
3.254191542e-22
4.875449985e-21
6.030399915e-21
9.34708329e-21
5.865295451e-21
7.830679526e-21
2.607419362e-21
1.347428456e-23
9.113009393e-21
4.162531873e-21
3.026411022e-21
1.678912655e-21
1.113066279e-22
6.729379534e-20
8.941380875e-21
3.801439637e-22
3.046494279e-21
4.549140552e-21
5.132042597e-21
3.711686665e-21
1.516033291e-21
3.097701857e-21
3.497350288e-21
5.463437817e-21
7.893403484e-21
6.233990668e-22
2.770590931e-21
3.040055204e-21
3.499214599e-21
2.112628858e-21
2.865410214e-21
1.244639024e-21
3.114305407e-21
3.668862268e-22
1.506927162e-21
3.899894419e-21
6.034215652e-21
2.631469519e-21
1.679335788e-20
9.973617958e-22
1.760963885e-20
1.919204322e-21
1.810594744e-21
1.610303353e-21
8.81592719e-21
2.550047108e-21
6.367234975e-22
1.642945475e-21
7.233482276e-22
3.56875202e-21
1.309886304e-21
1.776812516e-21
6.942632668e-22
2.618954576e-21
1.830037859e-21
1.632617619e-21
4.169073952e-22
1.671922636e-21
5.618172434e-22
9.027618117e-22
4.713612998e-21
5.356115216e-21
4.292623358e-21
7.722314543e-21
1.146894952e-21
7.531839564e-21
3.745667546e-21
4.041742051e-21
3.44600912e-21
2.848569003e-21
1.318821435e-21
8.609722587e-21
6.090083415e-21
4.551347853e-21
4.328139749e-21
1.1602637e-20
5.42047013e-21
3.215178213e-23
5.716082997e-23
1.057384014e-21
3.498656308e-21
2.914071566e-21
1.847066933e-21
1.02356328e-21
7.956483003e-21
5.224998091e-22
1.274628134e-22
5.323948851e-21
4.313839125e-21
2.082049608e-21
8.791148997e-22
5.324040425e-21
1.315992422e-21
8.598583605e-21
1.651347088e-21
5.407164548e-21
3.988279039e-22
1.239171555e-21
4.85210855e-22
5.736584836e-22
5.635455022e-21
6.637233477e-21
2.685211993e-21
1.381418537e-21
3.726543692e-21
1.744498725e-21
5.864840619e-21
5.148989869e-21
3.929779521e-22
2.1048021e-21
1.143004402e-20
5.511154384e-21
1.089458182e-22
2.49828859e-21
8.260732146e-21
1.174239822e-20
5.326423242e-21
1.258772089e-20
1.834520669e-21
7.936004693e-22
1.857216483e-21
1.66922628e-20
7.30192647e-22
2.511249325e-21
5.879221864e-22
1.892161531e-22
8.267383905e-21
3.275311795e-21
4.853681818e-21
7.046049199e-22
3.671672577e-21
2.700060058e-20
6.788718821e-21
6.073651029e-21
8.537662946e-21
5.161681226e-21
2.187524579e-20
5.452852066e-21
4.379050215e-21
6.190650484e-21
2.140723845e-20
4.635833987e-21
6.084139049e-21
3.541626868e-21
1.371025606e-20
3.041345951e-21
3.524115778e-21
6.23198282e-21
2.379685075e-21
1.870166185e-21
2.813251588e-21
3.022512792e-21
1.309452543e-21
6.785443241e-21
1.532377767e-21
2.559679697e-21
1.150864936e-20
2.637492185e-21
1.508796239e-20
2.051057995e-21
6.478347499e-21
1.4474088e-22
1.426550971e-23
4.418214166e-21
8.214350312e-22
2.969997453e-21
7.750183632e-21
4.009444616e-21
6.051791885e-22
3.331488904e-21
4.959081914e-21
1.087192647e-23
7.190549706e-21
1.232525386e-20
3.090066078e-21
1.613704648e-21
1.103638065e-20
2.584873142e-21
1.990170811e-20
6.419894016e-21
2.528187133e-21
2.039316793e-21
4.756887823e-21
7.81950451e-22
2.426645463e-22
1.015204714e-20
5.283085024e-21
2.440060405e-21
2.476428673e-21
2.764955981e-21
6.848618716e-21
7.79754391e-21
6.142712279e-21
1.787572116e-20
3.214606805e-21
3.37873363e-22
7.966449104e-21
1.685059032e-20
8.989012486e-21
1.034076157e-20
4.990510817e-21
6.816392537e-21
2.372230398e-21
2.09547007e-21
5.736145681e-22
4.666802774e-22
1.041149485e-20
9.416856974e-22
5.539683612e-21
1.667925892e-21
1.657656882e-20
1.372512582e-21
2.816766395e-21
2.490265117e-21
2.78352572e-21
2.889433149e-21
6.862634734e-21
1.203253711e-20
2.498789735e-21
2.543746267e-21
5.033556857e-21
2.525945974e-21
3.687302455e-21
5.954887153e-21
3.142009763e-21
4.927597356e-20
1.183486806e-20
2.57450579e-21
2.962745237e-21
9.969616712e-21
2.63413263e-21
2.927003109e-21
4.234956028e-21
1.804300495e-20
1.891504639e-21
8.972519198e-21
1.139998338e-20
9.995142401e-21
4.95850435e-21
5.039911256e-21
4.645404111e-21
1.299097468e-21
9.883145411e-21
1.545110043e-21
2.47903201e-21
2.028886595e-21
1.504486447e-20
5.695890358e-22
1.270057166e-22
8.01532951e-22
1.480249347e-20
2.591575051e-21
8.932002683e-21
1.740523717e-21
5.32823521e-22
7.166903142e-21
9.808001075e-21
1.013498023e-21
5.161456949e-22
4.93824409e-21
8.746153199e-22
5.015283069e-21
1.370598231e-20
3.291250126e-22
4.419991348e-21
1.694406183e-22
1.252600319e-20
1.315922589e-21
1.715432325e-20
9.105359538e-21
1.202358887e-20
3.103732934e-22
9.615602396e-21
7.653101849e-21
3.34350556e-21
7.294682126e-21
4.743812865e-22
1.118594847e-20
1.606154407e-21
2.820693683e-21
5.688593121e-22
2.982306694e-21
8.865990722e-21
1.085417011e-21
1.861580176e-22
2.606873419e-22
1.077038354e-21
2.93270487e-21
3.125723399e-20
2.7854676e-20
2.077542182e-21
1.040017804e-20
3.523341192e-21
1.522679489e-21
1.577940109e-20
5.066599311e-21
6.404483926e-22
6.040120007e-22
5.240023524e-21
4.168851333e-21
6.806553355e-22
3.345453129e-21
3.730524837e-21
2.071463253e-22
6.446991653e-21
9.781308204e-22
1.386610285e-21
7.968401959e-21
8.243528451e-22
1.958190113e-21
4.292511614e-22
7.028584445e-21
1.224761367e-21
2.010694312e-20
2.101794427e-21
9.387148693e-21
7.557916026e-21
5.444033671e-22
6.525427736e-21
2.183045946e-21
2.048393128e-21
7.548217947e-23
6.358997515e-21
4.189121186e-21
3.661591485e-21
2.941210038e-21
2.73604577e-21
9.283714099e-21
4.591535717e-21
1.716596051e-20
1.270620008e-21
1.014723995e-20
6.740570721e-21
3.233250756e-21
1.075399586e-20
6.874352395e-21
1.18659651e-21
8.207781926e-21
2.024005217e-21
1.65774199e-20
8.927068746e-21
1.978531295e-21
4.973726875e-22
2.22247197e-21
4.626678438e-21
9.80439003e-21
2.7206321e-21
4.556618637e-22
8.492616146e-21
3.146565917e-21
7.465228679e-22
3.428840578e-22
9.291546107e-21
9.793626599e-21
8.494876939e-21
8.130049692e-21
9.350438021e-22
6.055340038e-21
7.228034951e-21
1.828116701e-21
1.508399351e-21
2.671001984e-21
1.453799313e-21
2.665814775e-21
2.640455011e-21
5.010081618e-21
6.29839924e-22
3.980718259e-21
3.449909857e-21
5.668685501e-22
2.09577753e-21
4.661904782e-21
1.263572921e-21
8.226175404e-21
4.490528749e-22
2.13643193e-21
1.355296927e-20
1.263529671e-21
1.419442259e-21
2.24298557e-20
6.96301055e-21
2.914798526e-22
1.938451211e-21
1.770931998e-21
1.020873795e-21
7.711238814e-21
3.048680636e-21
3.058694228e-23
1.795127404e-21
2.43552563e-21
7.553327044e-21
7.346140211e-21
1.426261627e-20
5.762482938e-21
6.123245671e-21
1.862722816e-21
1.339956101e-20
5.796634491e-21
3.135768452e-21
9.243737868e-22
8.26058328e-21
4.741017726e-22
1.34374608e-21
1.132598182e-21
5.611033077e-21
2.176638568e-21
1.30461206e-20
1.690073276e-22
1.906844108e-21
1.378525499e-21
3.201196748e-21
2.236295064e-21
8.155574593e-21
3.675902408e-21
3.069035973e-21
2.119499649e-21
1.227433844e-21
3.346759316e-21
5.113359011e-24
9.763792834e-21
6.593274499e-21
2.053155496e-22
1.225302973e-20
3.590188822e-21
1.353492455e-20
9.510343903e-22
1.30289441e-20
2.593336561e-21
2.225357389e-20
2.389604905e-21
1.445570591e-20
6.963322759e-22
3.313340383e-21
8.257404715e-21
3.312574081e-21
1.241744738e-20
5.474761157e-21
1.051341047e-21
3.86579075e-22
7.953761648e-21
1.179654772e-21
1.366388797e-21
1.049662505e-20
1.900472338e-20
5.811674316e-22
4.122181641e-21
5.146651209e-21
1.000816807e-20
2.351398197e-21
2.860674222e-21
2.817534765e-21
5.101639037e-21
2.081505697e-21
6.619764738e-21
7.939170427e-21
9.703895077e-22
5.597463035e-21
8.712801835e-22
1.495217444e-20
9.308057362e-21
3.259337365e-21
1.362306221e-20
6.954714008e-21
4.205188058e-21
4.899322093e-22
1.128504586e-21
1.127718455e-20
2.056434376e-21
1.971332735e-21
6.133213005e-21
8.356506418e-22
7.943029278e-21
1.514521557e-20
5.687729793e-22
6.588407917e-21
2.317926383e-20
3.234621682e-21
1.11323805e-20
2.328168775e-22
6.749819162e-21
2.197654593e-20
2.482058394e-22
5.534530506e-21
9.960704433e-21
9.176707911e-23
5.836068357e-21
7.252286129e-21
5.300551141e-21
1.434321128e-20
1.083833358e-20
5.029284274e-21
1.861809151e-20
6.350494203e-21
9.91596411e-21
5.134789254e-21
2.244394131e-20
3.651430223e-21
1.278217069e-22
8.799709456e-22
6.688714911e-21
1.68593016e-20
1.669557798e-20
1.738450554e-21
2.350973063e-20
1.215373334e-20
6.221925583e-21
5.444568891e-21
4.159774896e-21
9.400620243e-21
1.822174599e-21
2.224893343e-21
6.718084415e-21
6.681983605e-22
6.754149563e-22
9.824985849e-22
1.821510564e-21
2.798538306e-21
2.027576104e-21
5.368478888e-21
1.608037438e-20
5.226782708e-21
5.427495014e-22
1.381120821e-21
6.507191902e-22
3.923301653e-21
3.5552714e-21
5.876507655e-21
1.119443131e-20
3.696168353e-21
8.955802382e-21
6.140422062e-22
8.470575146e-21
3.786466696e-21
2.023506823e-20
3.667615787e-20
6.819105717e-23
1.676954863e-21
1.236425317e-21
5.152990007e-21
3.626890134e-22
1.308168159e-21
5.527881039e-21
1.315583796e-21
1.541039392e-20
5.302428369e-21
1.876562557e-21
2.238611164e-21
1.483397491e-21
3.220720101e-20
1.528412531e-21
3.005121023e-21
2.363276244e-21
3.154484694e-21
5.615941553e-22
4.680381264e-21
7.505853533e-22
2.58863814e-21
8.724084713e-21
1.499614049e-20
5.183800334e-21
1.537130897e-22
1.013075084e-21
1.112555456e-20
1.300644601e-21
1.077106563e-20
4.682318177e-22
9.133096522e-22
1.025039649e-22
1.884787939e-22
9.389890744e-21
1.298025182e-21
4.114789674e-22
7.978013375e-21
1.138457116e-21
7.366467945e-21
1.073742196e-20
8.127855349e-21
4.926581533e-21
3.148202894e-22
1.494734719e-21
3.801993902e-21
3.685421914e-22
4.929051819e-21
1.634261451e-21
8.324759923e-22
9.616249167e-21
5.296432737e-22
7.418009781e-22
3.857647418e-22
3.20069307e-21
1.386958248e-21
2.674608379e-21
6.355480356e-21
2.248387659e-21
1.569646568e-21
1.697076925e-21
1.709619644e-21
6.672112175e-23
1.264870976e-21
4.071740439e-21
1.046109875e-20
2.602196937e-21
8.11665583e-21
2.243565741e-21
5.631465414e-21
1.697849372e-20
5.58950805e-21
1.153288123e-20
7.19534295e-21
7.956979673e-21
1.184393169e-21
9.733637225e-21
2.025943831e-21
4.357573932e-21
6.628967156e-22
2.027680783e-22
5.75283929e-22
1.36691762e-21
1.322333522e-21
1.163280237e-20
5.149402587e-22
5.282606897e-21
4.561860001e-21
1.876518362e-20
5.664610245e-21
2.937932029e-22
1.038739234e-21
1.452302368e-20
4.078918729e-21
5.327290889e-21
3.292988169e-21
9.257885157e-22
2.02045171e-21
2.134435857e-22
1.948264032e-22
4.74128142e-21
3.706570138e-22
2.08929071e-20
4.873040817e-21
5.264207633e-21
4.114185946e-22
3.45104815e-21
2.426040385e-21
1.408393839e-21
8.101213959e-22
4.367215436e-21
3.806862943e-21
5.607161686e-21
1.007078022e-21
1.165622387e-21
8.955857167e-21
9.771547099e-21
5.425044989e-21
2.291307275e-22
3.162095322e-21
5.365346213e-21
7.556479385e-21
3.94496893e-22
9.944413724e-23
2.635181904e-21
2.484620003e-21
1.252237393e-21
5.610132336e-21
4.033532397e-21
2.398888801e-21
1.022529517e-21
4.563044188e-21
1.551544671e-21
1.934989349e-20
1.571417939e-20
2.71837114e-21
2.302053809e-21
8.970760559e-22
5.797113033e-21
3.284810228e-21
3.262739907e-21
2.394564394e-21
8.338924719e-21
1.762593213e-21
1.681560832e-20
1.075775782e-20
9.204596733e-22
1.74922573e-20
2.687021093e-20
1.183064091e-21
9.145715117e-22
5.530645922e-21
3.062690822e-21
6.131720285e-21
1.164270001e-20
2.1381663e-21
8.502276395e-22
5.279616506e-21
1.772179007e-22
6.537752081e-21
1.507853482e-22
3.445276634e-23
3.296537125e-21
8.065269429e-21
8.669390471e-21
2.486316985e-21
2.043006851e-20
1.39300241e-20
4.724465853e-21
8.565829245e-21
5.450914589e-21
3.639849598e-21
1.791460645e-21
3.564009583e-21
1.917427283e-22
3.645747789e-22
8.050870349e-22
3.884664403e-22
1.320880957e-20
7.171027625e-21
4.371866341e-21
2.428508747e-21
9.098216857e-21
6.143790399e-21
7.808095757e-22
2.050918654e-21
2.868536937e-21
4.893215515e-21
1.587772255e-20
1.611499838e-21
1.006240114e-20
3.895822269e-21
4.360161104e-21
6.778939803e-21
2.945118667e-21
4.502250101e-23
1.697672822e-21
5.498253394e-21
1.81200935e-21
5.104917295e-21
2.523390755e-21
2.924694832e-21
3.247578789e-21
1.11909874e-21
1.695443874e-22
4.851421499e-21
9.209303158e-21
9.436439463e-21
7.704154572e-22
1.528262009e-21
8.856946528e-21
3.647848854e-22
1.540348673e-22
2.333355757e-20
3.255904335e-21
4.711075947e-22
5.257706624e-22
2.071282747e-21
2.912233452e-21
1.040622731e-21
4.389455485e-21
7.788303811e-21
1.005251254e-21
3.185398554e-21
2.194178942e-21
5.775027252e-21
2.7344794e-20
6.280720836e-22
5.448736493e-22
2.698868473e-22
2.594886099e-22
1.111586315e-21
8.40037349e-21
4.316997522e-21
6.382313262e-23
5.234289742e-21
3.210566585e-20
2.237683242e-20
7.165423699e-21
4.521300113e-22
1.579753453e-20
9.838886622e-21
4.618728468e-21
7.032642157e-21
9.413970629e-21
7.050757404e-21
6.685227379e-21
4.98870966e-21
8.726959313e-22
7.837301069e-22
3.723620064e-21
1.230940014e-20
5.275318121e-21
5.104909019e-21
1.338828664e-20
1.068228233e-20
1.501643943e-21
1.61176706e-22
1.235851116e-21
8.948913467e-21
2.705262093e-21
5.616862944e-22
2.291209316e-22
3.432870427e-21
7.181704212e-21
3.579789841e-21
1.349438606e-22
2.177766216e-21
2.02458666e-20
5.01067613e-21
7.826408472e-21
3.641830038e-21
1.42738045e-21
3.283155205e-21
1.820161758e-21
5.156527203e-21
7.379422862e-21
2.242444915e-22
4.74554398e-21
5.871732162e-22
6.384168884e-21
6.646168795e-21
4.280189287e-21
3.161733474e-21
3.572972722e-22
7.505290217e-21
3.776758642e-21
8.497020042e-21
4.375704638e-21
1.480678404e-20
6.863115046e-22
5.247135148e-21
1.052687098e-20
1.858083467e-20
1.349760232e-22
4.02863697e-21
5.086828985e-21
9.274518594e-21
5.970040548e-21
4.468775738e-22
5.631663415e-21
2.947672142e-21
1.461633343e-22
2.915786428e-21
2.783885556e-22
1.078782075e-20
1.123664304e-21
1.121064407e-20
1.171391375e-21
2.916219519e-21
3.500308239e-21
1.752416751e-20
7.396546849e-21
3.901592672e-21
7.008539367e-22
4.765860616e-21
1.431934859e-20
5.758217122e-23
8.705733626e-21
3.952140414e-21
3.126693874e-21
2.782278406e-20
1.767347538e-20
5.62719446e-21
3.101587242e-21
3.838094985e-22
2.092241428e-21
1.961105576e-21
3.060143817e-21
9.386068802e-21
3.426695172e-22
9.964575683e-22
2.921397423e-21
1.952526164e-21
7.162198031e-21
3.895953214e-21
7.80741014e-21
2.208637394e-20
2.543512285e-22
1.513098647e-21
2.035483433e-21
4.7050911e-21
7.346426018e-21
6.31650149e-21
2.885073216e-21
2.625166603e-21
5.02687948e-21
3.814357759e-21
1.769193622e-21
9.862049374e-21
1.550107613e-21
1.933190352e-21
2.210534702e-21
9.802752739e-21
3.727733006e-21
4.89906653e-21
7.463133405e-21
1.831544537e-21
2.276696073e-21
4.829504284e-21
2.614290501e-20
1.99374441e-21
1.359399666e-20
1.110858106e-20
1.271471209e-21
4.923485248e-21
4.032786662e-21
1.479423535e-20
1.90880764e-22
2.256305369e-21
7.623779503e-21
1.487054058e-20
1.432298075e-20
8.724361178e-21
2.001885257e-21
4.179168425e-21
4.018433436e-21
1.795770904e-22
8.722027575e-22
7.06977728e-21
3.745705709e-21
2.02799863e-21
7.22264195e-22
8.455824093e-22
2.504529127e-21
2.345593563e-21
1.805576022e-21
3.508463361e-21
5.154966307e-21
1.613160845e-21
2.530607557e-20
9.139522084e-22
1.100842315e-21
3.774845259e-21
6.268010198e-21
4.815065196e-21
6.274274521e-22
3.561081868e-20
2.061121445e-21
8.107078988e-21
5.990022342e-21
8.414017927e-21
1.356961574e-22
4.868277006e-22
5.038827456e-21
3.750118604e-21
6.669946195e-21
3.645131022e-21
8.643762584e-21
1.166746686e-20
4.132299313e-21
5.906468003e-21
1.288258081e-21
4.289257601e-21
9.819373373e-21
9.176250005e-22
3.625454699e-21
6.831962126e-21
5.451481199e-21
4.102137135e-21
1.360370016e-21
1.611348751e-22
1.572715825e-21
1.024545786e-21
1.149340742e-21
9.096785961e-22
9.107712072e-22
5.24689587e-21
3.847902027e-21
5.127706702e-22
1.462385087e-22
4.642891742e-22
9.269516929e-22
1.599110084e-21
2.156139639e-20
1.27983344e-21
2.565210059e-21
1.376460137e-21
2.006096823e-20
2.576407499e-22
1.565702333e-21
1.337468764e-20
2.8526583e-21
1.569087516e-20
1.224059398e-21
5.856611655e-21
1.108539842e-20
4.561282647e-23
1.299489574e-21
2.152276168e-21
7.280477373e-21
4.935119324e-21
1.449372033e-21
2.836028328e-21
1.057895482e-20
1.2003199e-21
2.69631987e-21
5.106438379e-22
1.137139055e-22
1.636693688e-21
1.452501716e-20
1.820106926e-21
2.913370385e-21
3.025851766e-21
2.688890992e-21
3.921622618e-22
2.968942317e-21
6.117138019e-21
2.981614238e-21
6.359967535e-22
7.646413796e-21
1.190596558e-21
8.616113083e-21
4.094638375e-21
1.18956241e-20
1.427231759e-21
1.704360856e-20
3.772256743e-22
4.739027768e-21
3.310469661e-21
3.30340511e-21
4.743394737e-22
8.998999126e-21
9.671398197e-22
1.237944989e-22
7.367081725e-21
4.231554358e-22
5.181408507e-21
5.613454104e-21
4.130613831e-22
5.461747296e-21
9.687620551e-22
1.489348029e-21
6.480349005e-21
6.814722703e-23
4.094787407e-21
1.376336119e-21
4.292807611e-21
9.037892817e-21
3.284879696e-22
1.699152315e-22
8.343857921e-22
1.190641612e-21
9.555059153e-22
3.140393111e-21
1.848461022e-21
6.473070119e-21
2.821437976e-21
5.657992089e-22
4.976236387e-21
7.643488092e-21
6.778828532e-21
2.433354161e-22
6.060776893e-21
2.557969042e-21
1.481693955e-21
8.003271981e-22
2.374442175e-21
7.806233794e-22
6.914102234e-21
6.035897868e-22
4.319672017e-21
9.978311746e-22
3.07413499e-21
3.390583395e-21
1.078800423e-21
5.093817106e-21
7.006032265e-22
3.788992385e-21
1.204408934e-21
7.03659762e-21
1.242197735e-21
2.04909477e-21
5.529263825e-21
7.583723912e-22
1.206857704e-21
4.436785704e-21
3.312382613e-22
5.000862267e-21
5.991223248e-21
3.293022411e-21
1.330239771e-20
1.55519789e-20
4.285665332e-21
7.703121887e-22
8.800317012e-22
1.213706327e-20
2.450850389e-20
1.864912699e-21
2.328914161e-21
3.772653066e-21
5.092703582e-21
1.516434234e-21
6.276143753e-22
1.580712686e-21
1.555391163e-21
3.081488987e-21
1.448125737e-21
5.289361665e-21
1.596587337e-21
9.825996621e-21
2.245272973e-21
7.866283862e-21
6.484369268e-21
4.945799716e-21
2.990973733e-21
2.880382853e-20
2.921548311e-21
2.429623766e-21
4.032644446e-21
1.122520475e-21
4.359323643e-22
2.951360611e-22
1.671074793e-21
3.547359911e-21
3.992694285e-21
1.661516157e-21
1.453516088e-20
4.738066545e-21
2.952634054e-21
2.06228125e-21
1.990097903e-21
2.301313847e-21
2.001214205e-22
1.153965363e-20
2.824599595e-21
2.816324978e-21
1.080738608e-20
4.755938404e-21
4.919869778e-22
6.719423056e-21
1.356132555e-21
3.62321271e-21
3.806882808e-22
6.390657234e-21
3.480341738e-20
3.035000302e-21
1.346984184e-21
4.301362562e-22
6.952420143e-22
1.979667485e-21
4.144862408e-22
1.829239888e-21
1.167336468e-20
3.729548049e-21
5.658347281e-21
8.288545409e-22
4.612500034e-21
1.664148875e-20
9.98475599e-21
4.783803494e-21
4.081457901e-21
6.760613622e-22
6.374162143e-21