/*--------------------------------*- C++ -*----------------------------------*\
| =========                 |                                                 |
| \\      /  F ield         | OpenFOAM: The Open Source CFD Toolbox           |
|  \\    /   O peration     | Version:  2406                                  |
|   \\  /    A nd           | Website:  www.openfoam.com                      |
|    \\/     M anipulation  |                                                 |
\*---------------------------------------------------------------------------*/
FoamFile
{
    version     2.0;
    format      ascii;
    arch        "LSB;label=32;scalar=64";
    class       labelField;
    location    "0.004/lagrangian/dsmc";
    object      origId;
}
// * * * * * * * * * * * * * * * * * * * * * * * * * * * * * * * * * * * * * //


6203
(
165728
166006
166322
167321
166248
167695
166736
166817
167301
167764
165609
167497
196167
167564
167361
167468
167763
194597
194611
166636
166888
167403
168435
195956
195111
195631
166254
168466
167193
167448
167584
168029
168304
173169
167484
167503
194220
167927
168105
168657
170183
167697
167718
167871
168084
167794
167843
168270
168966
170962
193991
190514
168660
173422
166429
167593
167627
167750
167792
168107
168436
168664
168895
195103
193299
167569
167753
167994
168092
168181
168476
168647
167815
167078
167925
168022
168053
168207
168306
168689
168836
168965
169321
197091
196674
167700
167924
167960
168111
193910
168291
168369
168601
168681
168818
168851
196562
22539
166538
167875
168310
168451
168482
168495
168503
168551
168667
168880
168889
169029
169765
195345
172648
166985
167626
168038
168112
168272
168288
195454
168575
168652
168736
168750
168839
168891
169258
196243
170873
195451
197588
174139
196665
197381
168048
168130
168281
168473
168586
168676
168738
168796
168883
169016
169092
169888
197388
171410
172470
197288
174396
22562
191257
195852
168170
194730
167934
168024
168108
168208
168241
168377
168446
168648
168763
168904
169055
169246
169248
169305
169332
169737
169849
196985
172276
196863
166133
168080
168168
168374
168471
168636
168645
168670
168679
168931
168989
168998
169066
169082
169097
169194
169228
169245
169310
169351
169423
169492
169533
169577
169605
169676
169843
169883
171586
196234
194500
166551
166882
167829
167839
168002
168133
168177
168189
168257
168397
168459
168504
168535
168640
168936
168970
169004
169020
169124
169171
169267
169412
169592
169608
169616
169767
169814
169893
170399
197894
196356
22586
167671
167674
167730
167797
168187
168371
168391
168396
168487
168572
168580
168630
168718
168762
168797
168828
168888
168911
197185
169078
169081
169095
169169
169249
169268
169311
169312
169414
169536
169578
169593
169603
169687
169858
169871
169895
198825
192269
168394
168515
168544
168570
168675
168747
168759
168848
169018
169051
169071
169079
169201
169277
169291
169409
169441
169587
169611
169635
169657
169685
169798
169889
170321
172994
173513
173602
173785
197471
197691
167678
167863
168186
168212
168355
168363
168546
168590
168671
168758
168809
168815
168972
169086
169089
169150
169218
169235
169274
169313
169319
169330
169345
169346
169392
169406
169422
169438
169447
169661
169689
169777
169857
169876
169906
170071
170247
170297
170378
170465
170824
170865
197583
196658
168167
198111
196684
174395
194913
164150
168261
168326
168375
168439
168450
168474
168562
168674
168720
168835
169021
169076
169129
169174
169177
169205
169272
169408
169428
169488
169572
169615
169618
169683
169700
169717
198005
169818
169852
169867
169886
169901
169942
169945
170015
170122
198820
198110
172738
173164
173253
173784
173872
197482
170196
174662
174928
167419
168632
168768
168795
168917
168990
169052
169094
169155
169226
169259
169262
169398
169411
169425
169597
169620
169705
169769
169822
169978
170041
170081
170238
170245
170250
170299
170355
170392
198827
172107
167893
169584
173783
174484
174824
175102
194248
168794
167957
168318
168362
168408
168713
168834
168892
169144
169186
169238
169240
169256
169261
169306
169316
169340
169426
169439
169507
169636
169639
169712
169716
169721
169734
169754
169938
169956
169977
169990
170065
170073
170074
170110
170215
170226
170240
170289
170313
170468
170610
171378
172736
198507
175280
22649
197975
197575
167889
168198
168327
168702
168926
169166
169176
169247
169250
169326
196259
169430
169433
169443
169495
169525
169556
169582
169614
169629
169708
169736
169761
169773
169786
169853
169862
169949
169975
170145
170225
197387
170457
170542
198524
197996
173079
173512
197475
167737
170199
168008
168098
168754
168766
168881
169010
169063
169084
169132
169173
169193
169241
169244
169307
169328
169329
169352
169446
169482
169498
169506
169520
169580
169604
169617
169709
169722
169727
169766
169792
169854
169880
169902
169965
169982
170101
170125
170139
170236
170308
170377
170455
170501
170524
170647
170757
171762
169134
169751
196678
174925
174926
170209
168199
168373
168469
168555
168583
168619
168853
168886
168984
169190
169483
169491
169503
169513
169532
169591
169667
169719
196686
169799
169802
169879
169964
169988
169991
170024
170062
170072
170154
170165
170210
170212
170219
170239
170300
170347
170380
170404
170436
170453
170477
170539
170555
170644
170645
170678
198724
170926
171236
199228
172377
197157
172645
173511
173871
173962
174047
169658
175279
167057
168142
168862
168982
169014
169057
169070
169167
169255
169324
169327
169369
169537
169588
169718
169784
169845
169860
169868
169917
169971
169976
170042
170055
170130
170201
170232
170325
170391
170395
170456
170463
170480
170481
170489
170517
170569
170584
170652
170740
198323
170799
170913
169130
171189
171235
171279
171296
199231
198515
172646
198823
197786
198518
170788
197798
22682
193565
198508
169750
167332
167518
167908
168564
168899
168906
169025
169050
169069
169080
169343
169502
169553
169607
169609
169684
169706
169810
169846
169957
170033
170036
170054
170061
170064
170131
170282
170291
170303
170337
170379
170406
170422
170474
170482
170578
170607
199133
170662
170950
197587
198511
171508
197083
172015
172372
198516
173078
169301
175014
22688
194617
167995
198819
168180
168719
168971
169115
169154
169160
169269
169512
169543
169544
169549
169583
169600
169601
169638
169698
169791
169815
197489
169869
169892
169952
169966
170039
170082
170088
170102
170118
170167
170202
170211
170294
170304
170311
170363
170419
170472
170478
170516
170594
170634
170638
170670
170721
170829
171092
171140
198316
171231
171735
199638
172273
172277
195750
173964
174220
174570
169571
174823
175191
170109
194887
195330
198095
168020
168194
168563
168823
168938
169153
169163
169188
169273
169366
169456
169519
169539
169575
169586
169674
169681
169729
169768
169780
169781
169874
169974
169996
170076
170113
170128
170142
170160
170181
170200
170230
170235
170296
170307
170322
170326
170328
170385
170387
170388
198921
170543
170553
170567
170581
170585
170674
170704
170716
170745
170783
170800
170893
170914
170915
170927
171074
171229
198623
171583
199223
198906
172992
173333
198613
199316
173965
198812
198203
199109
198916
199520
175370
196351
175631
22707
22710
192527
198410
197283
167609
168565
168629
168944
169065
169118
169391
169655
169665
169673
169756
169772
169790
169813
169881
169962
169970
170002
170027
170035
170067
170108
170119
170121
170135
170163
170203
170266
170284
170287
170382
170394
170400
170417
170486
170497
170500
170565
170593
170685
170734
170739
170751
170777
170786
170787
170810
170850
170933
170982
171038
171120
171126
199738
171179
171230
171365
171475
171674
171727
171957
199325
172826
199632
173080
170014
175278
175712
22713
194178
193616
165908
199113
168811
169104
169309
169322
169335
169490
169501
169518
169545
169686
169688
169696
169774
169882
169897
169920
170025
170048
170050
170178
170207
170370
170383
170401
170418
170502
170506
170523
170571
170572
170588
170603
170733
170735
170790
170845
170907
171009
171021
171087
171174
171177
171187
171188
171232
171284
171355
171995
172190
172271
172375
198512
199323
199522
168968
199318
199740
170980
175100
176059
168442
168808
169017
169096
169151
169157
169185
169283
169424
169521
169542
169596
169599
169659
169697
169713
169730
169779
169900
169951
169973
170000
170004
170086
170123
170137
170197
170234
170248
170249
198320
170320
170338
170384
170446
170452
170462
170475
170488
170495
170536
170538
170661
170692
170730
170791
170806
170809
170843
170901
170909
170928
170988
171007
171022
171036
171048
171227
171314
171352
198923
171582
171844
171861
172105
172274
172374
199018
199630
173781
198821
199126
198924
175369
197050
192721
167731
166763
169133
168091
169383
199222
199127
168733
169355
169434
169458
169675
169693
169812
169943
169963
169995
170045
170047
170053
170063
170069
170112
170132
170147
170159
170233
170243
170330
170333
170341
170492
170586
170627
170651
170658
170667
170793
170819
170936
171000
171012
171020
171035
171155
171190
171265
171360
171523
171648
198826
197481
173601
174310
198611
199412
175368
198301
196661
195732
194346
167464
197219
194706
196360
198483
198717
169323
169416
169679
169702
169720
169760
169776
169885
169914
169946
170040
170134
170143
170174
170216
170256
170372
170496
170498
170509
170533
170537
170573
170576
197785
170637
170726
170765
170772
170863
170898
170941
170998
171033
171102
171106
171108
171117
171175
171186
171214
171252
171306
171432
171483
171558
172191
200239
198192
198615
194319
193604
197146
199317
198500
169027
169284
169547
169632
169637
169817
169989
169997
170037
170127
170221
170227
170251
170298
170301
170309
170317
170329
170396
170403
170405
170426
170460
170467
170473
170503
170507
170546
170547
170559
170566
170579
170591
170633
170722
170723
170738
170748
170767
170808
170823
170828
170861
170862
170908
170910
170917
170940
171031
171091
171100
171119
171209
171220
171255
171278
171289
171311
171359
171366
171367
171368
171455
171542
171575
171944
172272
172468
199220
172734
173778
174393
174922
199006
176230
22748
22750
22751
22752
198421
198178
199537
169606
169941
169959
169961
170056
170057
170083
170085
170205
170261
170271
170285
170353
170389
170413
170479
170485
170490
170557
170635
170641
170653
170669
170671
170687
170729
170741
170752
170795
170831
170844
170904
170925
171011
171015
171028
171099
171132
171139
171164
171280
171310
171358
171376
171393
171417
171436
171446
171462
171512
171529
171546
171645
171905
172083
172275
198405
199944
172733
173961
198725
175366
175629
175885
22765
22766
22769
194075
193591
194101
195517
199722
166608
169120
169140
169165
169390
169796
169803
169936
170013
170116
170148
170198
170206
170224
170241
170310
170369
170484
170520
170577
170656
170719
170923
170937
171003
171019
171052
171095
171111
196760
198006
171158
171176
171195
171264
199329
171349
171369
171407
171431
171461
171504
171559
171581
171594
171636
171638
171717
171742
171761
171776
171863
171877
172013
199320
173506
173685
197778
174481
174565
174919
199950
197880
176507
22779
22780
22781
22782
188215
163862
194063
193815
198077
167211
199525
169229
169848
169341
169395
169887
169935
169981
170070
170288
170318
170393
170409
170548
170660
170708
170770
170814
170825
170834
170951
170990
171001
171010
171016
171024
171029
171068
171083
171094
171098
171110
171166
171192
171244
171260
171275
171276
171291
171356
171371
171445
171449
171450
171457
171465
171514
171549
171597
171599
171622
171663
171706
171753
171783
199948
171987
172060
172126
172141
172168
172243
172370
199128
173251
198413
174566
199734
175367
176320
176592
22793
22795
193940
195713
195210
169763
170034
199023
200556
169489
169778
169913
170044
170059
170161
170204
170336
170550
170564
170597
170640
170659
170665
170666
170683
170711
170725
170737
170750
170802
170822
170859
199132
170885
170916
170918
170920
170942
170992
171081
171101
171122
171129
171168
171185
171206
171219
171225
171234
171263
171298
171381
171402
171425
171438
171443
171544
171626
171627
171738
171788
171875
171890
172135
172338
172410
198523
198915
199945
173508
173682
198504
175189
200029
171851
176319
169320
22801
22803
22804
194288
167652
166865
197766
197448
198510
169574
198798
197580
169215
199927
170884
169666
169699
169711
169837
170066
170117
170305
170521
170535
170684
170709
170742
170763
170769
170803
170835
170839
170912
170919
170987
171013
171030
171086
171107
171181
171193
171198
171337
171341
171396
171441
171517
171553
171577
171633
171639
171659
171699
171710
171722
171730
171741
171749
171760
171786
171787
171795
171823
171843
171878
172183
200965
172249
170029
198914
200047
173779
199534
199016
174392
200048
198800
170628
171767
170975
22815
22816
193985
195421
195586
196839
196288
196660
195132
169487
199012
170106
199415
198903
169180
169668
169771
169819
170046
170375
170504
170562
170575
170595
170599
170655
170727
170731
170743
170755
170764
170785
170813
170821
170838
170905
170945
170948
170995
171075
171084
171105
171161
171173
171201
171208
171215
171254
171282
171283
171342
171392
171406
171452
171468
171499
171535
171604
171615
171670
171673
171720
171721
171724
171782
171785
171801
171810
171835
171849
171871
171917
198612
171948
172004
172120
172138
172167
198606
172320
172340
172356
173599
173777
199941
174483
171150
199532
198198
176505
176506
199206
22823
165639
194313
195577
197886
200452
168734
169122
169499
169663
169878
169939
170075
170166
170292
170352
170376
170408
170423
170430
170471
170491
170602
170623
170664
170676
170677
170686
170775
170820
170847
170866
170887
170989
170997
171004
171041
171079
171093
171096
171180
171250
171262
171277
171285
171287
171303
171321
171374
171375
171447
171453
171466
171474
171476
171487
200149
171593
171612
171697
171716
171723
171729
171797
171824
171876
171879
171889
171895
171923
171974
171998
172254
172298
172464
172643
173076
199117
200653
174218
198715
197887
174921
176058
200444
176415
176950
22827
22828
22829
22830
195128
165981
192969
195542
195739
196969
196571
196842
190031
196853
197073
197902
196564
171067
200128
168901
169510
169960
170259
170306
170415
170494
170552
170568
170570
170580
170646
170736
170900
170938
170984
171054
171085
171088
171112
171207
171340
171348
171389
171395
171458
171477
171488
171545
171556
171562
171598
171623
171644
171715
171740
171746
171781
171814
171822
171873
172057
172075
172092
172247
172264
200868
172368
172405
172609
175365
172030
200361
176056
200864
176151
22834
22835
22836
194702
198417
168907
198085
199190
168994
169217
169877
169968
169984
170149
170237
170290
170402
170469
170582
170583
170728
170761
171002
171006
171032
171127
171156
171184
171197
171271
171286
171294
171297
171380
171464
199020
171515
171524
171530
171531
171543
171613
171651
199416
171913
171994
172006
172009
172031
172059
172129
172240
172322
172333
172449
198716
200139
199627
199720
175276
175363
175710
176316
200852
177210
22846
22847
22848
195494
166950
196779
198395
169387
198086
168978
198314
198191
197770
196264
198722
168973
198705
169787
169894
170231
170397
170487
170631
170672
170804
170827
170832
170833
170902
170934
170949
171014
171018
171097
171163
171172
171261
171295
171304
171316
171343
171363
171383
171427
171451
171463
171478
171527
171538
171567
171610
171630
171658
171700
171739
171813
171821
200562
171927
171937
171963
171964
171969
171985
171999
172052
172071
172149
172174
172178
172180
172206
172302
172421
172526
172567
172575
198919
172814
201593
170286
174917
175190
200248
171440
200358
200857
199227
22855
22856
193492
196874
197372
198308
197362
197592
197999
171419
170279
170339
170561
170689
170732
170758
170762
170801
170830
170993
171034
171104
171113
171116
171165
171253
171305
171323
171347
171384
171429
171434
171435
171448
171470
171472
171525
171608
171620
171712
171726
171737
171778
171826
171859
171865
171874
171904
171907
171910
171915
171953
171967
171983
171991
172034
172048
172054
172056
172079
172091
172094
199943
172148
172151
172156
172160
172163
172171
172186
172194
172196
172234
172261
172262
172266
172300
200140
200045
172723
172732
172793
172794
200759
173101
200136
202098
199528
199942
200645
174918
199421
175364
175540
175709
198818
193160
194218
195808
196110
196749
196869
169497
200010
169950
171170
170156
170412
170476
170574
170705
170720
170754
170815
170826
170836
170840
170932
170935
170991
171025
171073
171109
171125
171216
171290
171460
171467
171469
171473
171481
171511
171536
171547
171550
171560
171561
171572
171595
171692
171711
171732
171743
171747
171784
171793
171806
171820
171897
171901
171906
200360
171947
171950
171952
171955
171959
171968
171970
171975
171984
172010
172040
172055
172070
172072
172118
172145
172161
172210
172229
172231
172258
172268
172319
172344
172346
172363
172422
172483
172680
172920
173361
201067
173868
174306
174390
169953
201987
199930
175972
176590
176591
176860
201041
22862
22863
22864
22866
22867
22869
191627
193827
183201
167031
197462
195597
196037
170016
200225
168527
168012
195435
171245
167125
171768
169940
170466
170649
170749
170976
171069
171157
171160
171270
171288
171454
171459
171537
171540
171551
171603
171616
171625
171628
171641
171643
171656
171708
171728
171731
171779
171790
171805
171869
171922
199731
171949
171972
172066
172089
172136
172152
172216
172217
172233
172250
172303
172312
172394
172396
172423
172435
172497
172510
172529
172550
172580
172604
172708
172784
172792
172936
172965
173459
201796
200865
172026
175011
175627
176055
176150
199414
200247
177029
22872
22873
22874
22876
22877
195510
167309
168190
196042
168804
197677
169225
169576
167397
200760
170620
200443
201156
169692
170386
170663
170714
170855
170856
170860
170977
171103
171167
171178
171213
171274
171293
171300
171302
171386
171539
171624
171819
171831
171885
171908
171954
171960
172023
172046
172050
172073
172154
172155
172230
172304
172399
172433
172502
172512
172513
172565
172573
172585
172589
172626
172661
172707
172720
172751
172761
172769
172771
172822
172823
199418
172851
172874
172905
172918
172929
172949
173224
201174
173503
199511
176413
200736
201168
176589
201163
176949
177209
22884
22886
193808
168453
168704
167890
196965
195195
198390
168651
199539
199949
199410
200245
169220
169613
170365
170724
170807
170896
171045
171318
171357
171362
171379
171433
171456
171532
171533
171755
171828
171841
171872
171882
171933
171951
171958
171962
172035
172043
172124
172134
172139
172153
172159
172172
172181
172204
172224
172228
172239
172255
172256
172308
172326
172334
172335
172349
172402
172404
172432
172439
172448
172454
172501
172592
172692
172787
172796
201387
173000
173010
173597
173867
173960
177121
200451
22889
22890
22891
22892
22894
192999
195499
197829
193856
197314
199313
169061
200249
198998
199832
199713
168102
170324
170679
170707
170753
171070
171118
171183
171199
171439
171555
171566
171617
171619
171632
171635
171694
171698
171769
171811
171815
171816
171833
171836
171946
171977
172038
172074
172211
172232
172242
172252
172306
172327
172328
172332
172367
172438
172441
172442
172457
172482
172506
172535
172539
172613
172841
172880
172904
172934
172978
173019
173067
173098
173195
173395
173396
201595
171060
175098
172198
198208
22900
22901
22902
22903
22904
22906
22907
22908
194731
196265
195731
196778
195823
198691
200141
200462
201788
197277
199523
170136
170549
170560
170715
170717
170817
170837
171064
171210
171269
171350
171385
171614
171647
171718
171802
171808
171809
171830
171837
171857
171938
171988
172045
172047
172049
172080
172088
172133
172142
172144
172165
172241
172253
172314
172315
172323
172337
172348
172420
172508
172523
172524
172538
172540
172603
172605
172610
172678
172727
172802
172815
172832
172857
173299
200038
173478
173663
173828
174739
201993
202387
201578
171765
176858
177642
201362
196670
22912
22913
22914
22915
22916
22920
22921
22922
166497
191279
195187
168707
198701
196646
168967
199011
192935
171154
197272
172908
169625
170654
170746
171039
171072
171196
171205
171273
171281
171370
171516
171526
171609
171618
171631
171649
171714
171862
171864
171920
172044
172063
172067
172115
172123
172179
172221
172283
172313
172360
172418
172428
172434
172447
172452
200463
172492
172504
172520
172593
172620
172627
172670
172681
172691
172693
172696
172754
172801
172809
172819
172840
172859
172861
172987
173031
173136
173185
173233
173266
173319
173392
173452
173453
173596
173681
202701
201489
175013
170619
173256
176414
176504
176588
176771
201887
200845
201977
201995
22933
22934
22935
192965
194201
194586
194628
192758
196019
196036
198200
197173
196249
170448
199729
198307
169298
201061
169864
169627
170924
171203
171257
171437
171552
171564
171629
171705
171777
171807
171961
172084
172100
172137
172146
172147
172158
172177
172202
172222
172223
172238
172309
172325
172413
172415
172427
172440
172453
172460
172465
200043
172491
172509
172521
172527
172612
172615
172617
172641
172668
172694
172770
172774
172798
172854
172863
173017
173048
173145
173150
173494
173540
201889
173776
199225
174106
202502
174659
175012
175451
175805
175807
202080
177207
177553
201992
177812
177904
178001
22941
192963
197666
192705
168522
197055
168979
194047
192002
197354
171336
198103
199298
199230
201368
168986
196552
199844
169855
170911
171182
171377
171513
171521
171621
171702
171736
171799
171898
172041
172082
172101
172330
172336
172364
172385
172401
172444
172450
172455
172456
172531
172560
172569
172579
172582
172588
172602
172606
172611
172684
172714
172728
172780
172785
172804
172805
172808
172869
172871
172881
172885
172897
172899
200359
172947
172951
172995
173100
173112
173177
173317
173342
173382
173505
201591
174740
175009
175274
201275
201277
175539
173085
200550
176679
201682
201585
22945
22946
22947
22948
22949
191232
193461
195792
194877
165891
194690
196580
197150
195351
197742
196578
197757
197981
197368
199712
169656
201751
200244
170218
169227
170208
170959
171258
171398
171640
171657
171660
171709
171719
171770
171800
171881
171899
171918
171981
171992
172024
172077
172093
172117
172187
172203
172235
172293
172301
172408
172426
172436
172488
172516
172519
172528
172564
172597
172628
172702
172710
172711
172758
172776
172830
172843
172858
172909
172928
172942
172962
172963
173066
173102
173123
173127
173215
173274
173293
173315
173332
173378
173442
173474
173562
173570
173702
173866
173901
174014
176501
201024
22954
22955
22956
22957
22958
22959
22960
22962
22963
189879
188730
192096
195796
195423
196671
195748
196840
197171
195213
197365
197664
168790
169239
197172
197898
201051
200092
198067
195931
194198
172574
199737
170531
201269
200147
170293
171078
171498
171804
171886
171888
171942
171966
171993
172027
172068
172069
172119
172122
172127
172128
172143
172214
172215
172227
172245
172289
172324
172400
172416
172424
172429
172499
172514
172532
172533
201279
172561
172583
172614
172623
200560
172675
172690
172713
172747
172775
172847
172865
172924
172952
172964
172973
172988
173035
173040
173047
173083
173120
173137
173140
173221
173268
173273
173277
201696
173358
173366
173375
173405
173552
173576
173617
201994
176315
201787
201480
173532
22968
22969
22970
22971
188190
189629
193396
193831
167305
195833
195912
196657
196267
198790
199302
200146
198889
199003
168103
169969
199324
171339
198097
169749
172391
172388
170260
170811
171114
171169
171267
171268
171486
171642
171661
171696
171701
171798
171827
171839
171956
171965
171971
171986
172036
172103
172164
172166
172218
172220
172236
172246
172248
172307
172317
172321
172345
172354
172395
172406
172503
172505
172541
172570
172576
172596
172598
172599
172607
172621
172677
172679
172683
172703
172725
172744
172757
172760
172779
172800
172838
172866
172875
172878
172891
172923
172926
172957
173036
173044
173057
173068
173189
173232
173280
173328
201385
173445
173477
173492
173501
173520
173553
173625
173661
171152
173832
173958
173959
174308
174821
201690
176410
176412
172657
201983
177120
200037
173981
177903
178178
202910
22975
194700
191390
188827
196146
168163
194329
197675
168356
198619
199247
198808
199397
199536
194818
200638
171687
198415
168447
199846
196352
169073
197809
170459
170985
171653
171734
171792
171812
171855
171887
171893
171980
171996
172065
172209
172213
172225
172311
172431
172458
172496
172522
172563
172586
172591
172618
172669
172689
172701
172704
172719
172772
172789
172803
172860
172872
172877
172933
172971
172982
173005
173038
173130
173178
173191
173201
173205
173213
173219
173285
173300
173325
173363
173380
173443
173470
173518
173561
173583
201382
173696
173820
173929
174038
174080
174305
174657
174915
200849
176502
176948
200967
172114
201985
202680
178439
22977
22979
22981
22982
22983
186575
194590
195422
193868
196109
197547
196923
196241
197793
196780
196942
197782
194558
197783
198000
197164
198895
199526
169315
199509
198393
199321
170999
171191
171301
171404
171695
171725
171818
171825
171840
171894
172033
172042
172061
172064
172140
172185
172237
172257
172263
172353
172355
172397
172398
172498
172697
172712
172753
172813
172829
172844
172850
172870
172883
172937
172943
173020
173022
173055
173062
173113
173162
173188
173200
173321
173385
173404
173479
173564
173582
173587
173612
173754
173772
173905
174105
175185
175271
175538
175708
202276
175969
177206
177551
202487
177811
177902
201573
201592
202784
178438
170554
22985
22986
22987
22988
22989
22990
22991
22992
22994
189624
195937
195653
195924
167992
195301
196232
167904
195855
198797
198920
199226
200449
168799
189522
170797
200839
200040
172297
199919
198422
197822
199215
172562
171361
171652
171707
171866
171891
172032
172351
172419
172601
172663
172673
172686
172698
172706
172709
172716
172778
172852
172882
172940
173014
173025
173030
173039
173141
202104
173181
173203
173209
173294
173298
173301
173307
173327
173345
173387
173444
173446
173466
173493
173533
173647
173660
173666
173701
173708
173709
173727
173810
201072
173935
174010
174094
174501
174563
175269
175272
175806
202698
201370
202389
177640
202395
178260
23000
23001
23002
189116
193261
194174
196332
167748
195614
191998
197153
196169
197559
196548
198984
197049
197310
199608
172746
170897
171496
171541
171693
171713
171868
171903
172058
172329
172417
172430
172485
172515
172581
172594
172750
172781
172786
172855
172913
172948
172956
172958
172967
172969
172976
173024
173026
173051
173054
173118
173125
173146
173190
173237
173282
173316
173354
173364
173386
173399
173413
173431
173435
173448
173462
173527
173551
173556
173644
173653
173659
173673
202396
173830
173834
173853
173864
173912
173999
174083
174132
174135
174195
174232
173336
175450
203011
202897
175970
176770
178000
178259
23005
193950
194277
166676
196226
198621
197239
168960
196851
197262
197882
168007
198723
170362
197799
197763
200745
198088
201689
202906
199732
171247
171400
171883
171979
172078
172290
172305
172316
172359
172411
172425
172557
172600
172608
172767
172835
172853
172890
172911
172927
172930
172950
173021
173091
173160
173197
173206
173225
173264
173289
173297
173308
173482
173489
173491
173545
173636
173717
173730
173749
173800
173804
173848
173857
173992
174058
174075
174197
174245
175008
201588
200553
201876
177901
203405
23007
23008
23009
23010
23011
183324
195439
193076
195228
194348
196989
196557
198064
196967
196157
198599
196732
199842
194238
198911
197182
200091
200250
200446
201455
171151
193800
172764
171090
171259
172132
172226
172331
172487
172518
172558
172721
172788
172799
172868
172889
172916
172922
172953
172981
173110
173156
173194
173198
173199
173208
173211
173226
173236
173260
173311
173344
173359
173381
173390
173400
173440
173456
173464
173516
173699
173715
173734
173743
173763
173797
173829
173849
173860
173899
173956
173982
173986
173989
174004
174081
174103
174111
174154
174167
201377
174322
174350
174431
174656
172996
204134
176408
176677
177549
177550
178608
23013
23014
23016
23017
23018
23019
23020
194776
194916
187003
194992
195916
196056
196058
197661
197585
195551
197284
196951
198286
199115
196682
199315
199703
170983
170534
199546
169680
202292
195701
201783
201066
198418
171554
171569
171773
171791
171796
171973
172062
172212
172318
172357
172407
172517
172595
172629
172667
172695
172806
172862
172895
172939
172961
173037
173043
173103
173114
173115
173121
173126
173134
173135
173186
173291
173295
173367
173394
173436
173455
173468
173535
173546
173608
173614
173627
173635
173888
173921
173925
173996
174012
174013
174043
174065
174090
174339
174352
174455
174488
202295
175536
201789
202499
202197
177999
178783
23024
23025
194074
195928
195587
195617
195944
197274
197167
198207
197779
170706
197864
194428
170443
201055
202369
173004
194397
194317
198102
173423
201882
172310
170744
172393
172446
172544
172549
172584
172587
172676
172782
172944
172954
173015
173018
173027
173034
173049
173059
173084
173104
173116
173122
173124
173139
173284
173290
173355
173401
173467
173469
173484
173522
173528
173549
173559
173563
173606
173624
173645
173687
173706
173737
173740
173742
173746
173748
173795
173817
173818
173987
173991
173993
174031
174064
174280
174328
174361
174451
174540
175133
175706
173170
201997
201577
203109
177376
178949
23034
23035
23036
23037
23038
23039
23040
23041
186597
193943
195404
194987
194184
196626
197039
195546
198187
196228
197892
197651
197371
198883
197033
199135
199936
198610
171502
171686
199413
168643
199221
199111
196868
197068
169755
198720
170278
200115
171939
202385
202795
171997
172205
172219
172493
172578
172731
172752
172790
172816
172836
172867
172894
172921
172960
173009
173011
173023
173033
173131
173259
173267
173302
173343
173374
173377
173379
173439
173460
173557
173565
173626
173637
173662
173689
173705
173713
173773
173812
173839
173975
173998
174006
174027
174029
174040
174078
174087
174113
174134
174163
174190
174237
174253
174258
174270
174276
174277
174290
174525
174619
174622
174635
174718
175537
175968
201582
176498
176587
177205
202079
178258
174319
178695
179128
179214
198517
23045
23046
23047
23048
23049
23050
23051
187134
191332
192744
192048
195117
193642