/*--------------------------------*- C++ -*----------------------------------*\
| =========                 |                                                 |
| \\      /  F ield         | OpenFOAM: The Open Source CFD Toolbox           |
|  \\    /   O peration     | Version:  2406                                  |
|   \\  /    A nd           | Website:  www.openfoam.com                      |
|    \\/     M anipulation  |                                                 |
\*---------------------------------------------------------------------------*/
FoamFile
{
    version     2.0;
    format      ascii;
    arch        "LSB;label=32;scalar=64";
    class       Cloud<dsmcParcel>;
    location    "0.004/lagrangian/dsmc";
    object      positions;
}
// * * * * * * * * * * * * * * * * * * * * * * * * * * * * * * * * * * * * * //

6203
(
(0.2908589337 0.2603400467 1.897353802e-19) 442
(0.2884760751 0.2149979549 2.168404345e-19) 201
(0.2654595796 0.1993371051 0) 138
(0.3006292492 0.2070469367 5.421010862e-20) 173
(0.3023067776 0.2194635366 -4.33680869e-19) 233
(0.2899825797 0.2193692025 0) 232
(0.2865391189 0.2060223954 -4.33680869e-19) 171
(0.278209079 0.2718127019 1.084202172e-19) 500
(0.2983454947 0.2176403562 0) 233
(0.2994492416 0.2145059416 4.33680869e-19) 203
(0.284514302 0.2412722743 -2.693564772e-19) 351
(0.2503565613 0.2344679018 -4.33680869e-19) 316
(0.3043898558 0.2784843875 -2.168404345e-19) 563
(0.2930831159 0.2665306752 -4.33680869e-19) 472
(0.295378334 0.2859793888 -1.355252716e-19) 592
(0.2942921924 0.1709739637 -2.168404345e-19) 4
(0.304328825 0.1907893726 -4.33680869e-19) 83
(0.2615452223 0.2389073718 -4.33680869e-19) 348
(0.3011020414 0.2129324967 -4.33680869e-19) 203
(0.2710262511 0.2805740707 5.421010862e-20) 559
(0.3025289243 0.230006474 -2.168404345e-19) 293
(0.2886703234 0.2665213565 2.168404345e-19) 471
(0.2931450629 0.1938341554 2.168404345e-19) 82
(0.296630137 0.2213397028 -2.168404345e-19) 232
(0.2655091109 0.1786307612 -2.168404345e-19) 27
(0.2998300145 0.2048991497 7.860465751e-19) 143
(0.2844898466 0.1695874792 -5.421010862e-20) 3
(0.2734423595 0.1895155535 0) 79
(0.2701898953 0.2390282488 4.065758147e-19) 349
(0.2833150842 0.2198669979 1.084202172e-19) 231
(0.2882093438 0.2218991199 -4.33680869e-19) 231
(0.2847038757 0.2085896354 -1.084202172e-19) 171
(0.3024230354 0.2352174314 2.168404345e-19) 323
(0.2861947957 0.2410417647 -5.421010862e-20) 351
(0.2974182223 0.2226762642 0) 233
(0.3037451117 0.2365931124 5.421010862e-20) 323
(0.3033921227 0.2402735029 -2.168404345e-19) 353
(0.2702061054 0.2334978921 2.710505431e-20) 319
(0.2994031239 0.2201530775 3.252606517e-19) 233
(0.3034637907 0.2659600883 -2.168404345e-19) 473
(0.2985187861 0.2453685867 -2.168404345e-19) 383
(0.2819682128 0.2636005373 -3.930232875e-19) 471
(0.2897359422 0.2869193655 1.084202172e-19) 592
(0.2994621154 0.2579455925 8.131516294e-20) 443
(0.2972848227 0.178683927 -4.33680869e-19) 16
(0.2773852536 0.2057372979 1.626303259e-19) 170
(0.2460368715 0.1888802238 0) 106
(0.293154619 0.2059492903 -2.710505431e-20) 172
(0.2729983009 0.2018744841 2.168404345e-19) 139
(0.279262928 0.2893077701 -2.168404345e-19) 620
(0.2761280819 0.1783010979 3.252606517e-19) 29
(0.2368753125 0.2187273327 2.168404345e-19) 255
(0.2988895784 0.2243225382 0) 263
(0.2471161068 0.2835029037 -1.084202172e-19) 586
(0.2538185654 0.1909511026 5.421010862e-19) 107
(0.3015673237 0.2486926327 5.421010862e-20) 383
(0.2742680724 0.2405891309 0) 349
(0.3026889602 0.2229452728 0) 233
(0.3039019794 0.1758598795 -1.084202172e-19) 16
(0.3036068386 0.1932852596 -8.131516294e-20) 83
(0.3005697884 0.1857044331 2.710505431e-20) 54
(0.2952792538 0.2383695869 -2.168404345e-19) 322
(0.2895883569 0.1978386397 3.252606517e-19) 112
(0.2897203562 0.175329072 -2.710505431e-19) 15
(0.2699918541 0.2690340603 2.710505431e-19) 499
(0.2964265051 0.2395361604 -4.33680869e-19) 352
(0.264716609 0.1821087238 3.252606517e-19) 49
(0.2937809471 0.2150627537 0) 202
(0.3016152415 0.1945723296 0) 83
(0.2935762587 0.2538464485 -1.084202172e-19) 412
(0.28196436 0.270628384 2.168404345e-19) 501
(0.3045164748 0.2354967864 -4.33680869e-19) 323
(0.3043149232 0.2142576111 1.084202172e-19) 203
(0.2924455965 0.263512617 -2.439454888e-19) 472
(0.2867456354 0.2287538031 4.33680869e-19) 291
(0.3044096831 0.2370182047 2.710505431e-20) 323
(0.2923038981 0.219429169 5.421010862e-20) 232
(0.3010549265 0.2519096357 0) 413
(0.303754136 0.2675226502 0) 503
(0.2995112665 0.2287136748 0) 293
(0.2932252635 0.2366499435 -1.897353802e-19) 322
(0.2705776669 0.1960295483 9.486769009e-20) 109
(0.2885649782 0.1868676454 2.168404345e-19) 52
(0.2991247211 0.1878431733 5.421010862e-20) 54
(0.2857928824 0.2091281749 1.084202172e-19) 171
(0.2985152892 0.2292749706 0) 293
(0.2746272635 0.2142712371 0) 200
(0.3011751447 0.2994911831 -2.710505431e-20) 653
(0.2850630375 0.2122851765 4.878909776e-19) 201
(0.2901035042 0.2193231756 4.33680869e-19) 232
(0.2711280885 0.2126823072 1.626303259e-19) 199
(0.2839657782 0.208148179 0) 171
(0.2967475813 0.2556378466 -2.168404345e-19) 412
(0.2661069617 0.299873582 0) 648
(0.2857758587 0.2248269546 -1.863472484e-19) 261
(0.2921866405 0.2354558188 -2.57498016e-19) 322
(0.2846346776 0.2498823795 2.168404345e-19) 411
(0.3027731029 0.2897943055 0) 623
(0.2965442249 0.2037168762 2.168404345e-19) 142
(0.2950524056 0.2799840871 1.084202172e-19) 562
(0.2950884343 0.2341634371 2.168404345e-19) 322
(0.3016377644 0.184694769 -1.084202172e-19) 32
(0.2900301376 0.2177505205 -2.168404345e-19) 232
(0.3029562685 0.2445312918 2.168404345e-19) 353
(0.2694256007 0.2953061029 0) 649
(0.3030704428 0.204114202 2.710505431e-19) 143
(0.2930698625 0.2220068219 2.168404345e-19) 232
(0.2944004974 0.1791075511 0) 31
(0.2879112561 0.271145683 -4.33680869e-19) 501
(0.2938323126 0.2433171488 0) 352
(0.2992734659 0.2294099069 -4.33680869e-19) 293
(0.2915975447 0.2354901242 -5.421010862e-20) 322
(0.3047678474 0.2676998953 2.168404345e-19) 503
(0.284112517 0.2193977446 2.168404345e-19) 231
(0.2949900569 0.2701633098 5.421010862e-19) 502
(0.2797333048 0.2705643576 0) 500
(0.3034664291 0.2816569947 0) 563
(0.2996800441 0.2387773619 2.168404345e-19) 323
(0.2752085057 0.2022766119 1.084202172e-19) 140
(0.2923057637 0.2029095015 1.084202172e-19) 142
(0.2563955962 0.250980353 -1.084202172e-19) 407
(0.3017248291 0.2095160724 -8.131516294e-20) 173
(0.2898711447 0.2335983692 -1.694065895e-19) 322
(0.3040205118 0.2177969411 2.168404345e-19) 203
(0.2707840324 0.2186522267 1.084202172e-19) 229
(0.291254057 0.1823367681 1.490777987e-19) 31
(0.2968589365 0.276144728 -2.168404345e-19) 532
(0.2893996177 0.184608675 2.168404345e-19) 52
(0.285993833 0.2413113326 -2.57498016e-19) 351
(0.2876601744 0.1943680647 0) 111
(0.3019436103 0.2276053114 -1.084202172e-19) 263
(0.2874133491 0.2970634027 0) 651
(0.2847656681 0.1996243509 -3.252606517e-19) 141
(0.296942018 0.1907642156 0) 82
(0.2954458985 0.2739377936 3.252606517e-19) 532
(0.2606878258 0.2923744542 0) 618
(0.3040815444 0.245552317 0) 383
(0.2834076074 0.2518169629 -1.084202172e-19) 411
(0.2906684475 0.2330682947 1.084202172e-19) 292
(0.290408824 0.2537772858 -1.084202172e-19) 412
(0.2940243771 0.2586847593 -3.252606517e-19) 442
(0.2999304975 0.2279316777 4.33680869e-19) 263
(0.3000003719 0.1925381381 1.897353802e-19) 83
(0.2981463825 0.2442936118 -1.253608762e-19) 353
(0.2755759804 0.2352905805 2.439454888e-19) 320
(0.3033709256 0.2710865938 0) 503
(0.2837765444 0.2088717517 5.421010862e-19) 171
(0.2954261912 0.2500350124 2.168404345e-19) 382
(0.3030782067 0.2898310974 -2.168404345e-19) 623
(0.2846078292 0.2144435588 1.626303259e-19) 201
(0.2985448518 0.2805943783 0) 563
(0.2703061688 0.2873404858 2.168404345e-19) 589
(0.2873119186 0.227584607 4.33680869e-19) 291
(0.2809816841 0.2100258143 2.168404345e-19) 170
(0.2749400911 0.2137941477 -2.168404345e-19) 200
(0.2703466485 0.2719723471 -2.710505431e-20) 529
(0.2537160843 0.1909474417 1.084202172e-19) 107
(0.3001158648 0.2101860979 2.032879073e-19) 173
(0.2955329689 0.2181388819 0) 232
(0.2864400167 0.232690183 3.794707604e-19) 291
(0.2896544727 0.2627676168 -2.168404345e-19) 472
(0.2684341279 0.2367655966 1.084202172e-19) 319
(0.273581017 0.1984622234 2.168404345e-19) 139
(0.3038483055 0.2306533382 0) 293
(0.297984726 0.2688528747 0) 503
(0.2822110233 0.2425200124 0) 351
(0.3043557798 0.2061725383 -4.33680869e-19) 143
(0.2820258674 0.2182607651 2.168404345e-19) 231
(0.2874019061 0.2389863107 2.168404345e-19) 351
(0.2895329012 0.175664533 4.33680869e-19) 14
(0.3024958791 0.2135285852 -2.168404345e-19) 203
(0.2881911748 0.2546770506 0) 411
(0.3000794709 0.1788514192 0) 16
(0.2734874354 0.253742531 0) 409
(0.292429522 0.2380520891 3.252606517e-19) 322
(0.2856470077 0.2021079887 2.236166981e-19) 141
(0.2876929804 0.1997709117 0) 141
(0.2954180663 0.2040268677 4.33680869e-19) 142
(0.267311384 0.1739853325 5.421010862e-20) 12
(0.300771152 0.2116707641 -2.168404345e-19) 173
(0.2946923695 0.2099921459 0) 172
(0.2640540824 0.2237484508 -1.084202172e-19) 258
(0.2941242162 0.2628739966 0) 472
(0.2985797137 0.2405581966 -2.507217524e-19) 353
(0.2979667002 0.2847718768 1.084202172e-19) 593
(0.2920237801 0.2803378093 -1.084202172e-19) 562
(0.2957082614 0.1927252975 -2.168404345e-19) 82
(0.2918478398 0.1752244107 -1.084202172e-19) 15
(0.2838643293 0.1781486599 2.168404345e-19) 30
(0.3023272448 0.2029493712 0) 143
(0.2738565053 0.2185135236 4.33680869e-19) 229
(0.2761861476 0.2726671747 2.168404345e-19) 530
(0.2725477265 0.2474864762 0) 379
(0.2980877529 0.1774369701 -1.084202172e-19) 16
(0.2984643469 0.1862401252 -1.084202172e-19) 54
(0.3021124055 0.2053436702 5.421010862e-19) 143
(0.2948712509 0.2371473192 0) 322
(0.2711716787 0.2074549259 2.710505431e-19) 169
(0.2570181408 0.2352196352 -4.33680869e-19) 317
(0.2904649434 0.2095945192 2.168404345e-19) 172
(0.28321721 0.2147719879 -2.168404345e-19) 201
(0.2929774 0.1891723028 -2.168404345e-19) 53
(0.3015288855 0.2252104461 0) 263
(0.298005606 0.2801550249 -2.168404345e-19) 563
(0.2807203598 0.25922024 2.168404345e-19) 440
(0.2976527343 0.2126654548 -5.421010862e-20) 203
(0.2752721356 0.2094184915 1.626303259e-19) 170
(0.295731556 0.223829591 2.168404345e-19) 262
(0.2995182522 0.1698629403 2.710505431e-19) 5
(0.2855211533 0.1950104088 -1.626303259e-19) 111
(0.2933576144 0.2155114986 2.168404345e-19) 202
(0.2820629304 0.2126093538 2.168404345e-19) 201
(0.277271824 0.2605277405 3.794707604e-19) 470
(0.2941427702 0.2204586907 5.421010862e-20) 232
(0.2952597384 0.2013185532 2.168404345e-19) 142
(0.276206831 0.2201419848 2.168404345e-19) 230
(0.2715763444 0.2375492652 8.67361738e-19) 349
(0.285332027 0.2747626395 5.421010862e-20) 531
(0.2550005724 0.2672992656 -3.252606517e-19) 497
(0.2734800582 0.2613671866 -6.505213035e-19) 469
(0.2926798627 0.2352511488 -1.626303259e-19) 322
(0.2729767984 0.2282989078 1.084202172e-19) 289
(0.2815272874 0.1962007815 -2.168404345e-19) 110
(0.2943710497 0.2213621977 -1.084202172e-19) 232
(0.258298416 0.2425225749 -2.168404345e-19) 377
(0.2907572326 0.2859824362 -2.168404345e-19) 592
(0.2909447011 0.2371704531 0) 322
(0.2933272161 0.2131875359 -2.303929617e-19) 202
(0.2880714885 0.1715130142 0) 3
(0.2542223611 0.2431769689 1.084202172e-19) 377
(0.3004764289 0.1859133427 0) 54
(0.2803938645 0.2460535627 -5.421010862e-20) 380
(0.264063554 0.1765387168 0) 27
(0.2884895386 0.2472117471 -4.33680869e-19) 381
(0.2825002889 0.2726572138 8.131516294e-20) 531
(0.2909727575 0.2192454444 2.168404345e-19) 232
(0.2526977999 0.2289193593 0) 287
(0.3022893819 0.2297934671 -4.33680869e-19) 293
(0.3021174524 0.248813821 1.084202172e-19) 383
(0.2793338754 0.2209249411 -5.421010862e-19) 230
(0.2439023699 0.1800118207 -1.084202172e-19) 47
(0.2771792308 0.1745810913 1.084202172e-19) 13
(0.2849390924 0.268952667 0) 501
(0.2821203342 0.1827691316 0) 52
(0.2760150796 0.2117413272 -5.421010862e-19) 200
(0.2713626281 0.2047942216 2.168404345e-19) 169
(0.2996574296 0.2073003582 0) 173
(0.2853846908 0.2352275784 -2.168404345e-19) 321
(0.2789819433 0.221836861 2.168404345e-19) 260
(0.3016963313 0.2273641831 0) 263
(0.2874683383 0.2023976063 4.065758147e-20) 141
(0.2928413658 0.195560904 -2.168404345e-19) 112
(0.2871788908 0.2560254813 0) 441
(0.2821925349 0.1998678912 2.168404345e-19) 141
(0.3003156113 0.2362746057 3.794707604e-19) 323
(0.3001145115 0.2517590976 0) 413
(0.3013689684 0.2138991193 1.084202172e-19) 203
(0.2843401993 0.1842912844 1.694065895e-20) 52
(0.2955899558 0.2549484953 2.168404345e-19) 412
(0.2855475474 0.2666577598 -1.897353802e-19) 501
(0.2770063098 0.2788084774 4.33680869e-19) 560
(0.2846293909 0.2622398256 -1.084202172e-19) 471
(0.2838676676 0.2172302616 0) 231
(0.292795683 0.2775781823 0) 532
(0.2810120386 0.2093264406 0) 170
(0.2810283286 0.2913848477 5.421010862e-20) 620
(0.2854488869 0.2387422353 -4.065758147e-19) 351
(0.2686961601 0.2900565463 0) 619
(0.2521880899 0.2407545979 0) 347
(0.2587153908 0.2420259984 2.168404345e-19) 347
(0.2934274706 0.2122792994 -2.168404345e-19) 202
(0.3013263957 0.2580773855 -1.084202172e-19) 443
(0.3012587974 0.2281098473 -3.252606517e-19) 263
(0.2859507192 0.2200540014 3.794707604e-19) 231
(0.2902472638 0.2603694026 -2.168404345e-19) 442
(0.2914843111 0.1849833962 2.57498016e-19) 53
(0.2791422285 0.207266955 2.168404345e-19) 170
(0.2927611672 0.2206391546 2.168404345e-19) 232
(0.2551994785 0.2306799617 2.236166981e-19) 317
(0.2773194987 0.202503321 0) 140
(0.2744857862 0.2085831219 0) 170
(0.2459476776 0.2343122102 -1.355252716e-19) 316
(0.2920028342 0.2174557382 -1.084202172e-19) 232
(0.2615332954 0.1893660929 1.626303259e-19) 78
(0.2786341957 0.2521965544 -1.084202172e-19) 410
(0.27426544 0.2961070129 -4.33680869e-19) 649
(0.2823271939 0.205449277 -2.710505431e-19) 171
(0.274690196 0.2153532223 0) 230
(0.2433289532 0.2906739341 -4.33680869e-19) 615
(0.2925919747 0.2999196599 2.168404345e-19) 652
(0.3009659356 0.2692037667 2.507217524e-19) 503
(0.3033714483 0.2337730229 2.168404345e-19) 293
(0.2780736409 0.1973749328 0) 110
(0.3004401401 0.2868700245 -1.355252716e-19) 593
(0.2778952302 0.2187852074 1.626303259e-19) 230
(0.2743389998 0.2268729751 -1.626303259e-19) 290
(0.2964642795 0.2812131942 0) 562
(0.3047256122 0.2186543799 0) 233
(0.2745163375 0.2597066278 -2.168404345e-19) 440
(0.2757540472 0.1954625912 -1.016439537e-20) 110
(0.3017748321 0.2277268514 -3.252606517e-19) 263
(0.2501247636 0.2264407659 0) 286
(0.2432580958 0.2470233253 2.168404345e-19) 375
(0.2812943633 0.2654444871 -2.168404345e-19) 470
(0.3002502508 0.2696265166 -8.131516294e-19) 503
(0.2454249011 0.2941715976 0) 646
(0.2621789565 0.2078170253 0) 168
(0.3018010256 0.1994793165 4.878909776e-19) 113
(0.2786977459 0.2868626998 1.084202172e-19) 590
(0.270830433 0.2467132805 2.710505431e-20) 379
(0.2894409136 0.2725202148 2.168404345e-19) 531
(0.2750898581 0.2878601821 0) 590
(0.2835453318 0.207246221 2.168404345e-19) 171
(0.2777623838 0.2086287487 0) 170
(0.2629190917 0.2602459512 6.505213035e-19) 468
(0.287001873 0.2545619228 4.33680869e-19) 411
(0.2485166376 0.2669681662 -1.084202172e-19) 496
(0.2400952675 0.2884493679 0) 615
(0.2779222884 0.2106091083 -3.117081246e-19) 200
(0.279832424 0.2624155779 0) 470
(0.26967379 0.2079878814 3.252606517e-19) 169
(0.2770023048 0.2414243414 -2.168404345e-19) 350
(0.3007169489 0.2266063214 1.084202172e-19) 263
(0.2757219157 0.2097646795 -4.33680869e-19) 200
(0.2718103801 0.196207089 1.084202172e-19) 109
(0.2268804535 0.1917806551 0) 103
(0.2972875043 0.2365653714 0) 323
(0.2649886768 0.2514641331 -2.168404345e-19) 408
(0.2897708661 0.2301881023 0) 292
(0.288560477 0.1976990414 -4.33680869e-19) 111
(0.2960672267 0.2470444923 5.421010862e-20) 382
(0.267126461 0.2452884909 0) 379
(0.2796857565 0.1959569229 0) 110
(0.2858691754 0.2157647039 -7.453889936e-19) 201
(0.2630959745 0.1999495049 -4.607859233e-19) 138
(0.2749325392 0.2559178003 -1.084202172e-19) 440
(0.2804294764 0.2802903761 -2.439454888e-19) 560
(0.2931240919 0.1988669553 0) 112
(0.2626510444 0.2715805832 0) 528
(0.2220733127 0.232756914 0) 313
(0.2822095271 0.2075147422 6.776263578e-21) 171
(0.3014976419 0.2446339552 3.252606517e-19) 353
(0.2807948387 0.2403388191 1.084202172e-19) 350
(0.2603499113 0.2933012033 7.453889936e-20) 618
(0.2827525304 0.2439203575 -2.710505431e-19) 351
(0.2462070374 0.2048432187 -4.33680869e-19) 166
(0.2945647486 0.199753331 -4.33680869e-19) 112
(0.2710250182 0.191305095 1.626303259e-19) 79
(0.2855906233 0.2303659995 1.626303259e-19) 291
(0.2988439778 0.2751549851 -2.168404345e-19) 533
(0.2774997882 0.2202891051 2.168404345e-19) 230
(0.2521182499 0.2170384657 0) 227
(0.2976301058 0.1893136468 0) 54
(0.2695487001 0.1820850548 -2.168404345e-19) 50
(0.2659800274 0.2380608303 0) 348
(0.2874018967 0.2585477602 1.084202172e-19) 441
(0.2984283651 0.2250010926 0) 263
(0.2580213288 0.2598549439 2.168404345e-19) 467
(0.3046700264 0.2446850487 -4.33680869e-19) 353
(0.2632914296 0.227359472 3.252606517e-19) 288
(0.2949477367 0.2343845762 0) 322
(0.2340708899 0.1981752808 5.421010862e-19) 134
(0.3007669049 0.1793540127 -8.131516294e-20) 32
(0.2683681404 0.2738863132 1.084202172e-19) 529
(0.2635484195 0.2353223507 -5.421010862e-20) 318
(0.2605812495 0.2675489908 2.168404345e-19) 498
(0.2759038718 0.2311248956 1.355252716e-20) 290
(0.2750278745 0.2045162891 2.439454888e-19) 170
(0.2635202737 0.2301502908 5.421010862e-20) 288
(0.2963140714 0.2330521803 4.33680869e-19) 292
(0.2498710398 0.2445115692 3.523657061e-19) 376
(0.297491392 0.2153723278 1.084202172e-19) 203
(0.2994763133 0.2307489888 -2.710505431e-19) 293
(0.2941948719 0.211404017 5.963111949e-19) 172
(0.2680158132 0.2826645999 -4.33680869e-19) 559
(0.2806366131 0.2380015988 2.168404345e-19) 320
(0.2883537688 0.1952145895 -4.33680869e-19) 111
(0.2785886913 0.2395797532 0) 350
(0.3005154498 0.1822388775 -4.607859233e-19) 32
(0.2645472297 0.2571498796 3.252606517e-19) 438
(0.2835489322 0.2810366176 1.626303259e-19) 561
(0.2759187708 0.2169861029 -1.084202172e-19) 230
(0.2851192576 0.2360496852 -2.710505431e-19) 321
(0.2593120746 0.2449983658 -2.168404345e-19) 378
(0.3011112747 0.202607521 0) 143
(0.2717270214 0.2655791734 -3.252606517e-19) 469
(0.2962991715 0.1984858833 2.168404345e-19) 112
(0.2864173111 0.2290941937 1.084202172e-19) 291
(0.2752212669 0.2293966637 0) 290
(0.2856749606 0.2815657516 0) 561
(0.2336090559 0.2186224942 2.168404345e-19) 254
(0.2532856177 0.2349884428 1.355252716e-19) 317
(0.2837216829 0.2278715543 2.168404345e-19) 291
(0.3034246918 0.2114090066 0) 173
(0.3011458389 0.239941434 -6.505213035e-19) 353
(0.2951625129 0.2072511457 -2.168404345e-19) 172
(0.2627245699 0.2694343029 0) 498
(0.3016274894 0.2622424529 -8.67361738e-19) 473
(0.285998385 0.2329644881 1.626303259e-19) 291
(0.2952411355 0.2926967169 -2.168404345e-19) 622
(0.2816914934 0.2833558116 8.67361738e-19) 590
(0.2522406285 0.2056970197 2.168404345e-19) 167
(0.2639132044 0.2500547358 -1.084202172e-19) 408
(0.256123247 0.2559883156 5.421010862e-20) 437
(0.2763691222 0.275625292 0) 530
(0.2535921665 0.2386545295 -2.168404345e-19) 347
(0.2836892559 0.201311283 2.168404345e-19) 141
(0.2313682981 0.2136050992 -1.084202172e-19) 224
(0.2994881999 0.2362534308 -2.168404345e-19) 323
(0.3047221791 0.2598084642 -4.33680869e-19) 443
(0.3006236889 0.2886366748 0) 593
(0.277095647 0.2148626215 0) 200
(0.2926186698 0.2545758229 2.168404345e-19) 412
(0.2417203839 0.2536741591 -2.168404345e-19) 435
(0.2731899013 0.1934684549 0) 109
(0.2878413828 0.2188781519 -1.084202172e-19) 231
(0.2639012183 0.1952576047 1.084202172e-19) 108
(0.2917494938 0.2129212896 3.388131789e-20) 202
(0.2308665035 0.1686161531 -1.084202172e-19) 7
(0.2958825275 0.2585093354 -6.776263578e-20) 442
(0.2891109003 0.2846971123 -4.33680869e-19) 591
(0.2684503873 0.2749080766 3.794707604e-19) 529
(0.291518867 0.2555525948 2.168404345e-19) 412
(0.2999787111 0.2517822827 -2.168404345e-19) 413
(0.2771469103 0.2872723627 1.626303259e-19) 590
(0.282009367 0.2025888044 1.084202172e-19) 141
(0.2434618794 0.1821522846 0) 46
(0.2995616958 0.2537693685 -1.084202172e-19) 413
(0.27978632 0.2420312202 -1.084202172e-19) 350
(0.2983209334 0.2653133762 1.084202172e-19) 473
(0.2861125678 0.2428907617 2.439454888e-19) 351
(0.271382192 0.2165055049 0) 229
(0.3000849955 0.2371758531 3.523657061e-19) 323
(0.301929337 0.2567386788 -2.168404345e-19) 443
(0.2669888208 0.210402717 -2.168404345e-19) 199
(0.2606165275 0.2747054495 1.084202172e-19) 528
(0.2528983912 0.2336762705 -2.710505431e-19) 317
(0.2823928522 0.2383922811 0) 351
(0.2963155739 0.2752466014 0) 532
(0.2961219465 0.2830869879 2.168404345e-19) 562
(0.2965935288 0.2625402227 2.168404345e-19) 472
(0.2590438786 0.2747741521 4.33680869e-19) 527
(0.2980821971 0.2666426124 1.626303259e-19) 473
(0.2612917188 0.2061949529 3.252606517e-19) 168
(0.2663165544 0.2560939198 4.33680869e-19) 438
(0.3031539137 0.2197531334 3.252606517e-19) 233
(0.2788187211 0.2760857889 0) 530
(0.2784486339 0.2495095855 0) 410
(0.2852579559 0.1909869164 2.168404345e-19) 81
(0.251681852 0.1913151565 0) 107
(0.2595232804 0.2150390114 -1.084202172e-19) 228
(0.2545789709 0.1996128767 -5.421010862e-20) 137
(0.2251134996 0.2429649093 -6.776263578e-20) 373
(0.3012306292 0.2190650484 0) 233
(0.2610993761 0.2360399665 1.084202172e-19) 318
(0.2893456826 0.2613424834 -4.33680869e-19) 471
(0.2861658231 0.1920066637 -2.710505431e-20) 81
(0.2552755328 0.2126512853 -9.867933836e-20) 197
(0.2762060162 0.2851962523 -2.168404345e-19) 590
(0.2782110376 0.2868500316 -1.423015351e-19) 590
(0.2647459938 0.2437958396 4.33680869e-19) 378
(0.2396233656 0.2476187 -1.626303259e-19) 405
(0.2897876376 0.2161484131 2.168404345e-19) 202
(0.2880666663 0.2632531225 5.421010862e-20) 471
(0.2544079565 0.2345724261 5.421010862e-20) 317
(0.2957580472 0.2605418771 0) 442
(0.2776698435 0.2644480077 -2.168404345e-19) 470
(0.2616952836 0.243077622 1.084202172e-19) 378
(0.2984277451 0.2622534955 2.168404345e-19) 473
(0.2887767426 0.2731998296 4.33680869e-19) 531
(0.2992668653 0.2486890742 3.252606517e-19) 383
(0.2947658968 0.2262334571 1.084202172e-19) 262
(0.3044365547 0.2879491989 -4.33680869e-19) 593
(0.2941007628 0.2879851889 7.047314121e-19) 592
(0.2798804131 0.2210021007 1.084202172e-19) 230
(0.2921130071 0.2734964369 -1.084202172e-19) 532
(0.2933936233 0.2362335367 -6.776263578e-20) 322
(0.2791246176 0.2404041309 0) 350
(0.2235775821 0.2901210764 -1.355252716e-19) 613
(0.2873059179 0.2356029697 -8.131516294e-20) 321
(0.2844477132 0.2395589036 2.168404345e-19) 351
(0.2660105887 0.2037362064 -6.505213035e-19) 168
(0.2888311431 0.2093372704 0) 171
(0.2897196095 0.230085897 -2.168404345e-19) 292
(0.2671649301 0.294737836 -1.355252716e-20) 649
(0.290298431 0.2145479091 2.168404345e-19) 202
(0.2526098766 0.2320257861 2.168404345e-19) 317
(0.2511911617 0.1968118636 2.168404345e-19) 136
(0.2577768887 0.2597378589 0) 467
(0.2881942823 0.2806297407 -4.33680869e-19) 561
(0.2995424003 0.2011409971 3.252606517e-19) 143
(0.2992428162 0.1892025146 5.421010862e-20) 54
(0.288672518 0.2656641053 2.168404345e-19) 471
(0.2674539848 0.2956058048 -1.084202172e-19) 649
(0.2448583295 0.2858162624 -2.710505431e-19) 586
(0.2967358439 0.1960551159 0) 112
(0.2959100703 0.2748283495 -5.421010862e-20) 532
(0.2617511597 0.2471663917 0) 378
(0.2467154161 0.2518265372 0) 406
(0.2725433367 0.2692361511 -2.168404345e-19) 499
(0.2950078234 0.2583211527 2.710505431e-20) 442
(0.3027766467 0.2549868935 6.505213035e-19) 413
(0.2876723589 0.2389458829 2.168404345e-19) 351
(0.269633058 0.2571681834 0) 439
(0.2754620572 0.1932310539 0) 110
(0.2902313311 0.2669034506 -2.168404345e-19) 502
(0.2817158664 0.2247018051 0) 260
(0.2776920607 0.2269872644 -5.421010862e-20) 290
(0.2788876173 0.2813915854 -1.084202172e-19) 560
(0.2289113885 0.230157829 4.33680869e-19) 314
(0.2818342513 0.1940686372 4.33680869e-19) 110
(0.2849603599 0.2588940177 -5.963111949e-19) 441
(0.2864871732 0.2329557924 -2.168404345e-19) 291
(0.2860168329 0.2782600913 0) 561
(0.2876298616 0.2309910465 0) 291
(0.3011567794 0.2035137137 1.084202172e-19) 143
(0.2627171058 0.211743125 5.421010862e-20) 198
(0.2675294673 0.2019046456 -2.168404345e-19) 139
(0.2875625678 0.1842627969 0) 52
(0.2737125307 0.2184365662 -2.168404345e-19) 229
(0.2987484031 0.2027273089 0) 143
(0.2572345122 0.2471406863 2.168404345e-19) 377
(0.2614691119 0.2530696823 0) 408
(0.2678240757 0.2028018605 -2.168404345e-19) 139
(0.2657632878 0.2526084258 0) 408
(0.2618523578 0.1681454636 1.084202172e-19) 11
(0.2258457085 0.1878318586 2.168404345e-19) 103
(0.2651745642 0.1835180965 0) 49
(0.2592722389 0.2775784364 2.168404345e-19) 558
(0.2689553497 0.2960202315 1.28749008e-19) 649
(0.2819610808 0.2522497017 -8.67361738e-19) 411
(0.2924020373 0.2160154029 -1.084202172e-19) 202
(0.2652316731 0.1899701335 0) 78
(0.2441655923 0.2649289039 -2.168404345e-19) 496
(0.2585391557 0.194523719 -6.505213035e-19) 107
(0.2772799287 0.2583588202 -1.016439537e-19) 440
(0.2753747275 0.2073018595 2.168404345e-19) 170
(0.2876087245 0.2153337707 -4.33680869e-19) 201
(0.303252576 0.2246745984 0) 263
(0.2929033918 0.2056231923 -2.168404345e-19) 142
(0.264790752 0.1964681469 0) 108
(0.2851167786 0.2200842677 2.168404345e-19) 231
(0.2859766087 0.2195533094 0) 231
(0.291479814 0.2162073644 2.168404345e-19) 202
(0.2930831237 0.2266614712 3.252606517e-19) 262
(0.2738912241 0.2213867234 -2.168404345e-19) 259
(0.2705302159 0.2784285613 -2.168404345e-19) 559
(0.2838304363 0.2489603572 -3.252606517e-19) 381
(0.2489869744 0.2234900216 -2.168404345e-19) 256
(0.261973391 0.2648244395 0) 468
(0.2645588703 0.265862928 0) 498
(0.2777066225 0.2182514102 1.11808349e-19) 230
(0.2773186833 0.1739372918 -6.234162492e-19) 13
(0.2627259567 0.2330904962 -1.355252716e-19) 318
(0.2897800093 0.2096335702 0) 172
(0.2851127702 0.2091379943 4.33680869e-19) 171
(0.295507358 0.2015116423 -2.168404345e-19) 142
(0.2752012416 0.2430783993 -1.355252716e-19) 350
(0.2900352664 0.1973924068 -2.710505431e-20) 112
(0.265867069 0.2537159201 -2.168404345e-19) 408
(0.2889613868 0.281922696 -2.168404345e-19) 561
(0.2625221906 0.2350175712 3.252606517e-19) 318
(0.2648320617 0.2522853933 -2.168404345e-19) 408
(0.2730529888 0.208365139 0) 169
(0.2935454153 0.2308232691 -3.743885627e-19) 292
(0.2868970902 0.2654807781 1.084202172e-19) 471
(0.2988140522 0.2574055603 -1.084202172e-19) 443
(0.2888634029 0.2384693396 2.168404345e-19) 321
(0.2751305497 0.2008239175 -4.33680869e-19) 140
(0.2994440978 0.2210325088 -2.168404345e-19) 233
(0.2768904981 0.2661115675 0) 470
(0.2937908651 0.2930984324 1.084202172e-19) 622
(0.301626332 0.2092111918 -5.421010862e-20) 173
(0.2544540697 0.2382549367 0) 347
(0.2873407821 0.1988121452 -2.168404345e-19) 111
(0.3009284434 0.2029889327 1.084202172e-19) 143
(0.2767931236 0.2404065156 -5.421010862e-19) 350
(0.2988168759 0.197051804 0) 113
(0.2987845323 0.2539556944 -3.252606517e-19) 413
(0.2856979129 0.2866046004 0) 591
(0.2588239796 0.2754763134 0) 527
(0.2388418535 0.2457536459 1.084202172e-19) 375
(0.2682324653 0.1875788071 3.252606517e-19) 79
(0.2839217152 0.2713649241 -1.084202172e-19) 501
(0.2624445911 0.2243679411 -2.168404345e-19) 258
(0.2894038191 0.1855770451 -1.084202172e-19) 52
(0.2583765103 0.1952470997 -4.33680869e-19) 107
(0.2569963796 0.2285164152 -2.168404345e-19) 287
(0.2620744835 0.2041827497 5.421010862e-20) 168
(0.2550200249 0.1836336598 0) 48
(0.3011414166 0.2681267208 -2.168404345e-19) 503
(0.2824843587 0.1781832983 -3.252606517e-19) 30
(0.2660034581 0.2781515271 0) 558
(0.2609112733 0.2337901845 0) 318
(0.2830869112 0.2420295443 -1.084202172e-19) 351
(0.2837113009 0.2537927361 0) 411
(0.2679878931 0.2583935936 0) 439
(0.2533875455 0.2850984151 -1.084202172e-19) 587
(0.2550930252 0.1995780243 0) 137
(0.260351881 0.2654754519 0) 498
(0.2730053394 0.2033388667 -4.33680869e-19) 139
(0.2459208481 0.2004947078 -2.168404345e-19) 136
(0.255641333 0.217778909 -3.523657061e-19) 227
(0.290968655 0.2585333949 -1.355252716e-19) 442
(0.27846046 0.2160117084 2.168404345e-19) 230
(0.2703586015 0.25280573 4.33680869e-19) 409
(0.2915860817 0.2465799354 5.421010862e-20) 382
(0.2489023548 0.1967406404 -3.252606517e-19) 136
(0.2934998457 0.2600434261 2.168404345e-19) 442
(0.2696595963 0.2588266322 2.168404345e-19) 439
(0.2744632345 0.2847201564 -2.168404345e-19) 590
(0.2641946553 0.2366788427 -2.168404345e-19) 318
(0.2626459039 0.2838947486 -2.710505431e-19) 588
(0.3043949896 0.226923063 0) 263
(0.2825865334 0.2947003627 0) 651
(0.2810559228 0.2637928 0) 470
(0.2603831624 0.2005736962 1.084202172e-19) 138
(0.2904789698 0.2494625657 -2.032879073e-19) 382
(0.2933266692 0.2423727149 2.710505431e-19) 352
(0.274450959 0.2683013909 2.168404345e-19) 500
(0.2586324116 0.1859902077 2.168404345e-19) 77
(0.3018535196 0.2959309637 -2.168404345e-19) 653
(0.2955062116 0.1927738319 0) 82
(0.2718105889 0.2548362518 0) 439
(0.256268198 0.2824510853 2.168404345e-19) 557
(0.2424326222 0.2278268886 2.168404345e-19) 285
(0.2772395171 0.2248097692 -3.252606517e-19) 260
(0.2644003742 0.2303530868 0) 288
(0.2653411123 0.2491696747 -4.33680869e-19) 408
(0.2658076514 0.2093445125 0) 198
(0.2792442254 0.1924541603 4.33680869e-19) 80
(0.2820149326 0.214630256 -2.168404345e-19) 201
(0.2826410246 0.2240709432 2.168404345e-19) 261
(0.2854346543 0.230494854 8.131516294e-20) 291
(0.3038625774 0.2617475536 0) 443
(0.2711175095 0.1992030511 -4.33680869e-19) 139
(0.266285484 0.2944319768 0) 648
(0.2591011702 0.2282821489 1.626303259e-19) 288
(0.2867687521 0.2805753428 0) 561
(0.2814316498 0.2930872232 2.168404345e-19) 620
(0.2864311845 0.2804250091 2.778268067e-19) 561
(0.299939542 0.2492194359 2.710505431e-19) 383
(0.276406163 0.2669250665 0) 500
(0.2645531967 0.2074613678 0) 168
(0.2542701919 0.2670097414 -2.168404345e-19) 497
(0.2583733926 0.2120989931 0) 197
(0.245851647 0.2466315716 1.084202172e-19) 376
(0.2826699546 0.2766788648 2.168404345e-19) 531
(0.1794093624 0.2375347165 -6.505213035e-19) 367
(0.2988413313 0.2975935351 -5.421010862e-20) 653
(0.2719530997 0.2189190954 -2.168404345e-19) 229
(0.2652980802 0.2418044416 2.168404345e-19) 348
(0.271160199 0.2323329617 0) 319