/*--------------------------------*- C++ -*----------------------------------*\
| =========                 |                                                 |
| \\      /  F ield         | OpenFOAM: The Open Source CFD Toolbox           |
|  \\    /   O peration     | Version:  2406                                  |
|   \\  /    A nd           | Website:  www.openfoam.com                      |
|    \\/     M anipulation  |                                                 |
\*---------------------------------------------------------------------------*/
FoamFile
{
    version     2.0;
    format      ascii;
    arch        "LSB;label=32;scalar=64";
    class       vectorField;
    location    "0.004/lagrangian/dsmc";
    object      U;
}
// * * * * * * * * * * * * * * * * * * * * * * * * * * * * * * * * * * * * * //


6203
(
(837.6807055 121.2469069 -120.6752024)
(2301.9429 168.574303 269.9483387)
(1469.359072 229.3414324 -918.214244)
(2109.559656 1554.991227 -409.1566366)
(1490.16395 396.2589656 574.28162)
(1350.486427 -269.5327578 -165.2658732)
(731.0435217 -153.6523269 -259.1533438)
(1200.727379 295.294514 -905.6644223)
(1426.476561 231.1602484 481.3668876)
(484.0641179 550.3001821 848.7223934)
(1317.457115 252.0484886 -359.6691794)
(892.701628 1229.057732 39.19220262)
(1631.702954 180.3401387 439.1302392)
(1622.20533 688.6600874 243.6527324)
(1521.905651 475.3643898 -203.2200093)
(1250.553399 -235.8595334 437.5870402)
(1403.247065 -6.593903204 507.3877868)
(1652.603869 415.1513632 -180.1479319)
(1229.806591 522.6683989 663.0353456)
(1744.602887 -243.9405328 99.73057156)
(1426.029402 49.01085747 -110.7668483)
(272.706157 758.321852 20.13266875)
(1512.160446 -114.8257639 -78.72719277)
(834.8758896 396.8879779 -290.2792144)
(922.0010134 -141.5469634 -156.9014714)
(1733.213014 1365.844491 293.2321532)
(785.2232963 -723.7494729 363.1537694)
(1185.415903 447.2240541 896.9338111)
(1330.335026 -580.4406134 517.9556429)
(1816.507575 -24.13187274 -532.6319355)
(2008.76907 493.2686927 267.0258252)
(348.1445486 326.0236678 93.61257939)
(566.8245016 -0.513131234 -547.0297961)
(1203.274722 127.262637 -41.94433737)
(945.3653405 539.0783615 577.1060546)
(1543.310648 302.655074 -153.4546295)
(1096.703162 723.6885637 -130.9508601)
(1164.435873 8.705559397 44.96904284)
(1469.935594 959.5708638 -1666.739322)
(1420.703545 289.1840017 518.4454588)
(1859.3182 58.88588423 -353.6483329)
(699.822219 -20.95176242 128.6633476)
(1281.769121 494.8836738 168.8769012)
(1451.469197 -14.37846559 -549.0372888)
(504.5024312 976.4580772 -719.1325766)
(881.345236 840.9222587 315.9772967)
(1436.011991 715.3990301 -270.1645792)
(638.9071613 662.8735717 -638.408682)
(2017.05212 445.7910356 542.0414783)
(1613.965765 -51.98330628 27.33212446)
(1948.257344 -92.30159499 -59.4824013)
(1444.533265 14.62459119 129.2178424)
(839.4634006 141.7129852 -474.6794325)
(1538.829159 553.2669164 -16.48423897)
(1259.976726 182.6198407 99.6781321)
(1379.612828 481.4407425 -237.1394034)
(746.3559111 480.8538308 -113.8543575)
(1140.832585 643.5208453 157.8231447)
(1960.534507 306.8200194 -444.4527397)
(1387.919076 1020.963313 -297.1659823)
(2169.609078 -267.6156782 -422.305939)
(1137.211397 -363.1789618 -372.0826112)
(1028.366665 639.0382685 -71.54920705)
(1373.712791 851.0494178 -487.47672)
(1558.525382 82.39841247 -391.1533103)
(1143.809198 -325.6512324 -312.9104207)
(825.8122626 133.4978621 119.9877135)
(1014.946953 484.9553288 -328.6566645)
(1342.667886 -232.4782218 -217.5037949)
(1558.513902 -338.6938671 0.455610533)
(1069.619934 324.2993389 134.7750915)
(1731.579085 178.5663146 -580.2978299)
(1225.168226 435.9099462 39.10263438)
(1435.651911 -276.9021635 28.99945456)
(1772.092789 565.9662953 -343.4604166)
(1382.490173 560.9390444 408.152804)
(1165.585772 630.1886701 268.6695828)
(1507.40611 236.6117653 397.1720212)
(1643.771501 235.5017868 12.2223636)
(1754.301655 223.201461 -784.0558486)
(1067.433506 713.7667734 -74.59646407)
(1715.565059 108.0441026 -562.018095)
(1846.522324 512.4824653 89.1646539)
(1460.266591 108.9038868 -336.7870601)
(622.1332798 826.8756654 -229.1782677)
(635.4320748 1353.09026 170.3180721)
(947.6499302 376.9086272 169.0662833)
(1766.889742 167.504016 -138.9583658)
(1131.917714 321.5127826 148.8015224)
(1669.0507 -26.91101443 -89.6624076)
(2002.739682 17.24954531 302.8223842)
(1381.514478 97.19046789 738.6117197)
(1055.159215 626.7322492 183.6664493)
(1007.0868 213.7810734 193.9871207)
(1608.564025 923.2831368 -227.0697089)
(1734.570291 163.6684158 -239.7744177)
(2048.334822 118.7807152 -44.26601057)
(1476.075076 -54.61292413 370.4745173)
(1597.935013 -277.4972964 -17.50187006)
(1309.487217 179.2641736 430.6494819)
(1526.944851 -460.018975 146.6242733)
(416.4571844 317.325237 -392.2881596)
(1556.197174 683.624452 448.3213875)
(1106.275243 650.7814846 609.1882983)
(1382.015655 444.7841616 -71.15607716)
(537.7286838 88.10903182 -236.9878763)
(1688.416658 265.7808875 -193.0836412)
(807.38204 68.26176668 -256.6675025)
(1184.15571 523.8685911 565.1228323)
(1403.159738 156.8511121 -180.4287048)
(1223.942675 216.3273066 345.7731149)
(1163.537141 1187.60551 -46.5482383)
(1454.650779 -242.4721577 -252.9347481)
(1839.240498 162.6347003 -306.1824382)
(1669.203627 -522.4307835 -118.9013342)
(764.956424 358.8104462 -88.53252677)
(1612.641241 -6.175073801 275.5577456)
(1975.106845 312.2635408 -184.9089854)
(1431.726381 421.9044511 -825.9657985)
(1267.85372 -155.3030468 217.9657813)
(1043.429883 137.9531215 74.89928507)
(1540.042575 735.5354209 -244.6008422)
(1150.849717 161.8389851 -200.3970374)
(1683.520538 -585.3344971 635.9363963)
(1584.720983 -568.3824139 -263.3093253)
(360.1498083 1144.531107 748.6806586)
(1726.530134 682.2050867 2.992057907)
(1720.106061 468.0084946 -427.7486925)
(2083.594695 470.4301387 -80.687295)
(896.8586478 451.0528147 -185.8857692)
(716.4846576 291.9238662 89.75994191)
(1535.757271 162.0121741 500.6853138)
(1880.487479 219.2210189 -253.3459806)
(3082.869498 1029.589419 -156.8382826)
(1466.036855 475.6428201 -240.9324982)
(1497.062301 -78.97170233 426.5850476)
(1404.961109 338.0296265 77.11591915)
(1046.479005 375.1801551 91.39987392)
(1481.251817 141.6206796 -287.0354575)
(1461.14975 161.5991476 135.3100762)
(1629.600216 -16.26690088 -492.3470048)
(1139.074573 310.0856931 96.574529)
(1765.985013 -264.4730124 -487.6814327)
(1334.220999 -237.9196848 -195.370451)
(1477.700497 20.73274079 -41.94506138)
(1566.820953 151.8941983 263.3264417)
(1652.023225 65.65459337 49.395055)
(1871.259466 -43.00086839 -292.1843438)
(1360.141985 -110.788329 -300.8319502)
(1728.632805 -99.97591964 -301.0428773)
(1876.842529 133.2944456 -2.307539357)
(1122.62322 342.4741408 -113.8517093)
(1424.095522 44.9345739 463.7894889)
(1825.069274 707.7890547 -394.8938469)
(1301.05892 255.2026 180.3964623)
(1459.593364 315.6797584 -93.58814882)
(1647.641987 505.7337366 -213.8117501)
(1058.514533 569.0283933 -374.5306646)
(2430.020007 299.819086 -795.6063856)
(1385.227048 249.8642845 288.6492819)
(1610.263533 290.0640341 38.0582755)
(1605.743211 159.503267 430.8856907)
(1530.604763 742.9067868 9.049126105)
(1709.447308 659.4556971 -383.7297453)
(1708.015956 272.7180677 77.72950782)
(1773.228845 447.0000431 -417.4221563)
(1511.161453 490.5377673 554.0930497)
(739.2185477 10.36899801 269.3736508)
(1874.881719 -269.7757552 -303.3811232)
(898.8494551 99.33358681 686.1685692)
(1831.681939 180.8789525 -830.8852779)
(1121.462394 360.4037945 308.8671344)
(755.2989811 -818.9995265 -812.0289185)
(1349.720132 7.973135672 -70.60397482)
(1370.27126 109.3183682 -284.927156)
(1136.705941 265.4004126 227.3198078)
(800.5969425 697.4033083 261.8522298)
(1503.794641 -32.8712792 -76.10144714)
(972.5481953 573.7885905 23.27182184)
(1280.343769 -37.89912689 -678.2750533)
(1188.91395 561.0598132 413.9487582)
(1633.144051 -26.40930726 -222.788476)
(2008.453308 72.39210164 -118.4251222)
(1099.317301 140.193901 547.9079623)
(1314.272166 -340.8301905 82.69793799)
(1564.151499 -239.7221676 -135.5597635)
(1731.808252 -351.1358357 -448.5869084)
(1284.770617 40.36890233 185.5309527)
(1817.134357 -439.8046437 261.6124084)
(1823.192051 690.8518885 346.6482878)
(251.0349423 776.9420986 -455.6739793)
(1303.871883 -281.2239241 -428.9150193)
(1328.293529 362.1952908 735.704357)
(1078.08382 386.7616073 317.7773129)
(1630.036226 269.599232 14.16333086)
(978.3929104 908.1452983 -811.5091595)
(1613.490776 -4.041441174 111.4657006)
(711.0143104 1250.146138 -711.1496423)
(398.6037131 -395.4708547 4.656056286)
(1176.191039 387.4498193 -81.50565367)
(1765.278505 551.9010718 -256.9525563)
(1492.838937 1077.888229 485.9020701)
(1138.883551 633.7616454 432.5748384)
(1014.232318 1142.893164 -198.6811351)
(1901.817848 -158.5638879 -66.56609551)
(1334.001638 690.2252531 567.810014)
(1321.945751 235.0701146 680.4696975)
(1369.614831 695.1783273 -48.37058289)
(1260.58997 -341.9037672 284.7204755)
(1709.800032 978.4378241 1087.673285)
(1485.239044 -208.4886935 -156.1436755)
(1738.638394 -246.6984756 37.43865756)
(1545.737784 -27.51610822 -275.1693368)
(1755.514263 376.7516326 -640.0413334)
(1715.566355 206.9520242 530.1052223)
(2035.016174 -333.5964375 -207.7138037)
(2008.37266 300.2326727 370.1025883)
(1775.041888 -47.80449327 63.37765077)
(1368.780286 120.1213122 179.6898794)
(1748.501014 488.8040368 -63.69703078)
(1371.216147 100.2666965 -166.6651787)
(1153.679152 -168.1842194 -45.76900545)
(1230.011638 -145.0202784 -257.1537401)
(1582.620228 869.0473827 25.38012521)
(818.1380306 89.25853793 -391.3608341)
(2011.267017 46.04701681 68.84679577)
(1138.29396 -267.3681253 -325.9131847)
(1214.365244 359.4752777 -215.2675336)
(1055.536816 -93.9017338 464.6586141)
(938.7936607 1191.235119 231.498218)
(2293.985246 -390.3106637 732.5909297)
(1319.251663 -4.580531383 -615.8403504)
(1307.435061 413.0492306 316.9082443)
(1267.044783 985.9356388 242.5601457)
(1013.079398 488.3247283 388.0642346)
(856.2668252 254.2108253 -316.0494887)
(799.4677852 1063.018558 596.2969958)
(1339.372781 520.1726824 23.25936266)
(1448.349802 880.7562089 -383.6084808)
(1621.973461 499.5956723 304.6577124)
(1067.969498 66.76155707 -723.1117246)
(1031.191835 9.15255857 -1084.166192)
(1615.581384 -45.10664395 298.5280061)
(1039.306847 -239.4371595 -531.6526223)
(1363.237287 139.2585199 211.4169835)
(1326.532715 202.6632854 -299.8822276)
(1261.375869 497.7650991 643.7402771)
(1456.294552 1409.362191 -115.984849)
(1538.049474 -84.73820257 527.8790588)
(576.4509207 229.9560221 -182.283369)
(1245.745101 152.3482042 -830.1462339)
(2007.784937 552.1517184 231.6861104)
(1800.288903 39.00937922 46.88502777)
(1066.837306 299.8241177 -146.979113)
(2087.82332 46.36781747 552.5715918)
(1197.125588 -83.07212886 -406.1349474)
(1929.673693 837.269245 28.27642101)
(1943.134171 131.6380002 474.2046722)
(1505.092393 334.2302674 -285.6825947)
(1096.801968 784.9899295 0.5470783881)
(1309.507898 53.4978013 88.20791373)
(1788.791305 479.5416033 -426.0868893)
(1141.876459 476.1599493 -163.1339631)
(1591.353242 -161.9397496 494.1223121)
(1112.082867 1187.581048 -466.9295784)
(1749.391535 237.5377073 -240.1188574)
(2163.180307 -11.28194253 47.79773994)
(1411.351029 63.30272902 194.7172129)
(1303.398205 12.92455514 -391.2254063)
(1258.429284 -385.431705 -361.0873519)
(2339.221784 22.6464044 329.3916744)
(1816.310083 526.0201381 -640.3532739)
(1820.684494 766.1111147 -122.8922895)
(1292.236057 270.4205091 249.5792103)
(868.4047602 631.3503688 202.1908604)
(1665.721368 239.3914727 414.5976238)
(2171.031385 -746.5048493 -245.8182079)
(1929.478366 192.6948387 -213.4330717)
(746.7915302 398.3392721 398.7031706)
(1329.037757 742.1376176 -107.8354147)
(1586.150237 210.5759183 -71.86134491)
(1344.731374 262.8227116 -634.4956451)
(1765.056757 -310.8675073 -221.9984208)
(868.7074537 -234.2022636 752.6559693)
(1852.075991 -295.5725951 521.368963)
(1295.44309 91.32252522 -134.7745932)
(2145.867381 953.2208997 49.3071243)
(1311.595817 339.2039341 172.3936678)
(1166.557579 -19.38098129 40.14334624)
(1657.464823 26.40936868 300.3291729)
(1723.897172 -223.9987944 51.50056423)
(1565.818999 -534.2162465 -440.4245856)
(720.9891696 424.1850988 174.3694788)
(1255.31982 -19.8150481 -233.2195771)
(1299.557114 1368.093236 1044.070179)
(1729.081574 -400.6485279 -45.77708191)
(1112.522651 -493.0387845 128.9272755)
(1723.275817 169.3468544 80.1043817)
(1342.247391 258.4154922 -272.0749636)
(1576.9307 229.6322113 95.20354948)
(1303.101339 -113.3537693 -104.9538633)
(1078.767707 -28.86024905 145.6731468)
(1439.265951 -284.2109926 -1079.930134)
(1551.807193 -41.9518599 169.8977135)
(1697.288345 87.46152606 -47.48746316)
(1259.170577 97.25331134 485.2780616)
(1212.703309 446.6745833 -1050.155525)
(1361.567234 446.9398262 -16.47463505)
(1439.623901 493.5923097 115.2859412)
(1734.063182 -64.33879843 670.8742417)
(1317.38579 -274.572008 -240.7074971)
(1324.765196 556.6595894 250.0667336)
(1342.900209 1021.846192 -458.2060084)
(1555.034035 615.7951604 407.6432568)
(1304.547182 134.0262721 399.6838391)
(1952.819607 125.6953833 -191.7063622)
(1292.759746 -114.0528237 209.3564364)
(741.0346692 658.7925802 428.9197165)
(1249.835874 645.4499381 -595.3313496)
(1201.56558 722.9156177 669.0506097)
(1943.821085 249.2992178 580.7285598)
(1623.164318 -834.7268591 -398.6947288)
(1590.018953 20.51321074 401.1890534)
(1654.822923 805.3679177 -403.3515022)
(908.1980466 -27.62162775 367.7313251)
(688.2929509 386.3266044 275.4641138)
(1671.205935 190.6812723 -110.7401927)
(1162.005928 -86.90065094 331.1488386)
(1672.416575 -763.0519911 3.39727949)
(1547.504248 -288.9841376 -28.62544754)
(1003.77466 171.5137718 169.6528406)
(1630.731972 -234.6021238 -238.6606588)
(2151.519297 -57.58699023 204.5609759)
(1584.229936 223.4905232 -498.111028)
(1687.448336 134.4194291 -81.66346078)
(1937.49135 366.1622306 -39.79717468)
(1504.685431 70.32108271 124.0988639)
(1241.401542 -81.49931271 -87.86173825)
(1242.137912 632.6567038 395.4870596)
(1788.539386 494.1295691 -113.0056399)
(1618.260164 355.6945628 -672.7620657)
(373.8809294 707.7604886 97.2107159)
(1783.787601 -123.5988482 -609.1806305)
(1425.02551 193.5568694 -202.8150988)
(1759.754003 -469.838 516.5699822)
(924.4691463 527.7679474 -370.7290392)
(1569.683554 301.2026557 -80.71957366)
(1183.585305 -18.27914617 392.9396973)
(1891.52831 390.8085705 -269.7987777)
(1378.178966 308.9378221 390.5892639)
(1538.133681 728.9971304 -900.9232276)
(1340.427301 -29.47313789 671.8902193)
(1822.714621 -0.4711706195 -135.7395331)
(1242.665099 233.0996347 1102.382902)
(2150.900652 172.5904561 -289.8341946)
(1632.62527 -285.0065031 44.43563672)
(1743.619636 534.3707282 402.2571564)
(1350.724088 -170.8556219 -375.7716011)
(1823.37528 268.7627181 171.0872439)
(1792.033227 258.2157852 228.0701885)
(1920.955729 503.2127551 226.2177086)
(916.7872164 216.1111229 799.3595367)
(2152.682991 406.0996949 46.8768061)
(1546.620919 546.7460594 520.6764032)
(1429.916901 -45.25363266 265.7519494)
(1446.657535 34.02650775 70.67154819)
(1486.936699 1428.059952 352.5523773)
(1303.740646 1463.73397 -6.492543493)
(1124.395871 342.6171712 371.0333335)
(1160.508327 513.8333386 684.9138549)
(1831.745926 289.1795243 44.02035517)
(1773.493104 267.639002 747.9999749)
(1903.304617 -83.2885955 -147.6866333)
(1169.116063 -561.7221215 47.2840652)
(1342.084173 -1.605044129 -145.1819098)
(1735.44936 -75.06644565 -316.1658929)
(566.6429919 173.6031507 298.7763938)
(1536.337771 1552.609974 -181.9346857)
(1738.013511 -182.9242133 740.7689782)
(1762.253255 -581.8446226 -196.9860095)
(1505.053257 144.3386163 -736.1781244)
(1511.33736 97.39842979 -101.1793812)
(1604.936871 50.4415052 -81.88411146)
(1571.500466 -487.4011756 -91.56803413)
(837.3689107 329.6686473 -448.2010143)
(1843.380821 -503.5437284 -583.032837)
(1747.484214 -50.33890508 92.61230279)
(513.850937 -335.0855216 -186.9275826)
(1483.543928 -131.4863184 353.4671139)
(1420.014034 218.3609794 329.0027878)
(1404.384431 335.8587001 84.82764857)
(2285.017999 48.09089005 -119.5648361)
(1617.373296 241.0049754 -439.5321901)
(1868.193604 1274.35272 256.275155)
(2113.496947 716.4693202 -387.9078605)
(1776.603813 -298.2049969 -193.8090447)
(949.2601187 -83.00121064 255.5803659)
(1734.500663 -323.7262074 235.07709)
(2159.723605 -185.8394348 466.3101538)
(1493.100409 51.54621005 148.8455147)
(1552.348657 474.7656576 -521.4078922)
(1487.831267 978.1683021 442.1241967)
(1702.675103 1322.103915 172.1363548)
(1377.405469 -424.8642784 93.37391695)
(1454.425849 10.02214387 -253.5240582)
(1131.939224 623.6125226 -316.4047952)
(2215.325659 165.5124181 572.8940917)
(760.5479324 -338.1433406 -316.5895471)
(1910.397311 589.3705136 106.6189118)
(1754.405977 -318.2114808 -266.2234808)
(1393.983876 197.2548334 -291.8782137)
(1222.333034 -88.43662716 450.4204091)
(2045.197425 -91.97243121 221.4346533)
(1324.475519 271.305726 -277.0442763)
(1596.205598 85.32904374 -134.4764209)
(1764.207472 758.2054702 232.7992401)
(1042.141296 987.7407138 -283.9247006)
(1785.567076 -579.0068289 -60.15306583)
(1365.410661 -191.1465755 397.9598758)
(1689.825353 -359.9959185 19.52159051)
(1335.285245 230.6248713 640.8978688)
(1628.683315 298.1497053 -289.3676601)
(2165.447866 72.4793939 -193.9190561)
(1840.350021 -504.7921841 650.2960888)
(1451.349777 132.9849185 410.7745975)
(957.4231972 842.5852163 1038.797274)
(1478.427788 762.2952713 360.5413669)
(1466.197161 820.3060525 768.0793517)
(1187.349562 377.24109 -441.7105349)
(1981.355252 779.6401258 725.4179749)
(1669.032414 237.8643895 319.0534123)
(1372.315674 223.118962 -477.372753)
(1742.488132 -442.7314225 -72.10675731)
(1527.540205 167.9915867 804.4762972)
(1838.101189 -274.5375866 -268.6779725)
(1486.144587 -148.3110569 99.10570277)
(1632.780297 303.0913336 62.17760725)
(1315.004042 584.0360963 215.9106737)
(1676.818722 242.1410068 -30.92388571)
(1909.234703 -394.3701765 82.63219337)
(1992.763317 -302.5455171 -310.5291233)
(903.3354313 -360.2463649 632.225694)
(2219.907779 -258.7350319 414.4754643)
(1662.556038 314.1588061 5.842182844)
(1878.72983 -286.5362573 663.1658752)
(370.4033409 881.4158929 830.9134921)
(1506.974173 556.1244392 -53.50526516)
(1652.35492 -169.2437229 -73.70606094)
(1481.833332 697.0332239 26.20123885)
(1522.129317 952.758795 -742.3440107)
(1303.435 -104.4471053 147.5029062)
(1323.617519 402.1981738 -90.63967915)
(1139.849305 209.197381 -564.5731036)
(1516.02483 672.6614434 -454.1406831)
(1282.320131 663.8095614 -292.7258384)
(1631.978867 -345.3170005 -51.12357883)
(1681.638592 -18.18627089 -519.4120475)
(1594.773875 119.7208764 105.0466307)
(1956.2359 89.38736831 -139.5649497)
(1449.878171 92.0727827 322.844246)
(1672.928086 -675.6355737 -46.64452169)
(1632.694702 65.09740925 252.7542923)
(1728.643842 464.9031725 -370.4635454)
(1799.703264 -17.06273873 -105.4473179)
(1744.894786 -259.236351 -428.8134461)
(1362.242297 -146.4600573 270.5240823)
(1634.834763 290.363201 -137.8274574)
(1446.565199 -34.99253494 230.3749023)
(1500.973576 -203.415006 256.2590882)
(1776.470805 631.9117896 -588.7859061)
(2031.575573 -42.45105568 11.9122254)
(650.6089257 361.0994218 -52.65472104)
(1864.696514 273.109795 297.5347943)
(1827.33779 -227.3615503 457.2681611)
(2203.017385 31.84180037 367.5671274)
(1814.804058 81.59474643 -180.8992389)
(1535.81225 -291.8233546 139.1378973)
(1270.781954 11.14376679 2.373695501)
(692.1450622 587.9654396 -607.3422459)
(1658.55446 277.2160544 349.2620332)
(1793.463194 -181.9349233 336.1791195)
(1518.319719 186.3298599 9.865153375)
(1136.030798 397.9007137 -342.6777979)
(1580.869599 414.4246175 -484.3728295)
(1578.317951 210.2336172 -200.2590488)
(2003.273493 451.5917566 -794.3214063)
(1593.743839 -259.8409358 -22.60434313)
(1489.884288 174.2462189 -658.6784215)
(1487.206847 -221.7643125 233.791548)
(1133.089309 116.0829927 -360.2089903)
(749.055783 291.7714178 -410.9232862)
(1978.939291 233.9144587 -166.9815196)
(1547.478831 695.5451704 -133.7420227)
(1446.250771 401.6547737 -131.6417772)
(1747.754066 353.3172569 300.0041216)
(884.4455504 896.0834229 -440.5186081)
(2352.669031 -289.7150099 216.5280656)
(1128.266884 59.00392691 506.9220173)
(1558.181502 -221.7998098 -206.6661867)
(1819.418257 52.7936171 -575.4399066)
(1332.826412 203.8089288 265.4265194)
(1883.730033 123.6725739 -226.6235907)
(1632.170142 -405.3601756 -67.11107627)
(1736.979029 132.1208263 463.954293)
(1475.442539 159.4637248 330.0945731)
(1629.601867 839.850679 580.0930953)
(1582.839595 449.9010218 4.935901486)
(1237.992478 129.211175 -130.7948373)
(1591.456084 -4.752838555 -637.654305)
(1834.391898 -94.26399527 -65.780563)
(1733.638013 -155.1222321 194.7582022)
(1372.925256 62.08787775 146.8289198)
(1698.2852 -273.7571449 -312.6022617)
(2033.91517 66.35343005 -350.9714481)
(1941.143211 1.673203837 175.8080097)
(1633.725549 665.0987841 -233.0911248)
(1899.406462 -287.9485055 469.3157535)
(1797.455017 -108.0609167 -769.9498628)
(2065.184728 -20.34252013 554.092315)
(1223.553576 -84.78724185 405.9617464)
(1747.707581 137.4249073 -31.66432455)
(877.1976084 715.2384642 -791.8658003)
(770.6516456 -82.96541528 -83.7435893)
(1380.079437 881.7001912 229.9517917)
(1483.104366 -380.0532065 -20.59162679)
(668.3478379 -265.4530805 98.13750673)
(1428.180689 46.13524792 -195.301553)
(805.8839873 -108.759076 -333.023499)
(1698.575691 48.77498297 241.7242438)
(1650.239052 36.85875653 -43.58440659)
(1801.134514 -308.3812414 309.5932682)
(1658.019986 656.9158337 219.0069831)
(1986.974455 457.6878174 -898.5865659)
(1124.579652 165.6846942 44.27570358)
(1615.93391 62.72258597 468.2205221)
(1487.687008 -21.50573397 -388.0436618)
(1224.271426 629.3979433 196.5532227)
(1327.686091 236.1411518 -766.450157)
(1700.71931 240.4591441 -181.5646429)
(1925.898206 -442.7171306 427.7099535)
(1748.619451 -190.7915567 18.00011303)
(1863.181979 11.3057786 52.55958665)
(1509.873048 701.1755751 358.3953212)
(1496.046471 255.6784002 -860.0771582)
(1553.41651 -451.1883949 -372.710543)
(1242.538031 -79.21112876 -126.8918863)
(1551.3986 -150.183842 -218.5645148)
(1281.060392 439.5431762 -462.2376774)
(1772.178597 405.5204361 -111.3735311)
(1562.899512 354.471009 -842.2475307)
(1558.970008 -38.64269229 -63.58502889)
(1480.829791 524.4465368 -618.1418951)
(1174.867044 1096.57532 777.1998109)
(729.161901 -164.2943308 -33.13986145)
(1957.82771 -390.0238666 55.27622968)
(1748.545888 -115.7221845 184.2591748)
(851.3964781 55.0919774 431.3396274)
(1594.541583 20.02524823 545.7498318)
(1441.916157 -567.5735283 47.66443323)
(1262.886785 191.3054058 81.16434106)
(1765.273534 -74.57117705 213.0992695)
(1603.89837 1068.594403 -331.773214)
(1573.338922 -151.5916911 476.2142283)
(1012.451457 483.7079623 -286.5057886)
(1783.900698 -572.7026896 -145.6430633)
(1786.147099 -225.0221121 -36.90438636)
(1905.847462 179.1571262 480.2415524)
(1991.033347 -237.1405865 199.8087396)
(1466.196592 -101.4295082 -451.7208897)
(1632.540469 1071.559028 53.24417755)
(1573.686665 568.4740405 -178.5345252)
(1694.138942 39.06734732 70.11668492)
(645.5214154 553.553518 -751.7001949)
(1703.877132 151.7002177 593.0305975)
(1418.314385 1584.194852 362.1229219)
(745.509585 -494.2572688 -619.1621659)
(1688.852084 -320.208885 606.4935046)
(1823.761787 1053.775568 320.2888235)
(1097.064462 179.4843054 114.7087299)
(1625.40663 507.6753988 145.9961435)
(2451.065574 -26.95724684 -547.7813892)
(987.3338182 303.1395734 -445.2517646)
(1705.741308 -331.5554854 165.6873243)
(1856.292695 -200.6053761 -69.69624599)
(1396.722444 -588.3992859 -194.9933344)
(1619.44311 381.1756266 150.7365767)
(863.182359 120.2642136 -15.31499883)
(1516.979641 -405.5284522 -230.0805209)
(2160.859023 -99.26851326 -412.2015694)
(859.4877719 425.3436408 -436.9807185)
(2061.57665 205.4398667 293.5215211)
(1010.847542 284.5891256 -334.5629913)
(1705.863941 -308.4050773 138.6774003)
(1715.020567 -136.4978332 358.2367796)
(1900.498439 -127.9894105 573.8806972)
(1768.242314 -334.9740311 -273.6004657)
(1766.623594 -276.0405597 51.84192013)
(1566.346959 59.86693502 236.9453447)
(-15.45798059 -241.7812391 -182.9458021)
(1037.684648 492.6658716 -317.1904975)
(1271.330093 550.4391393 688.6337396)
(1913.81386 -596.3379341 -210.9399614)
(1603.759773 164.1496797 -364.9812079)
(1716.219804 -99.14983882 -122.0175842)
(1772.610189 229.4279666 -283.970264)
(1684.461 -201.7934015 300.6561884)
(1883.808777 -81.46913276 73.01693314)
(1279.417919 550.8527571 -66.14865124)
(1629.81005 -232.3491753 -354.9336151)
(965.1786033 731.6173556 -351.323187)
(1645.670802 595.112865 239.2796348)
(1548.487423 325.471057 -339.2464641)
(1531.417721 245.5576899 -107.6230306)
(2501.02203 118.7787206 -281.5201624)
(1766.545164 82.64090305 -281.5183024)
(1673.714019 418.4134917 192.2901151)
(2286.376651 192.1677894 285.2216604)
(1473.342726 569.8632159 46.20489657)
(1247.738386 76.13655243 -28.93240819)
(1329.79067 -210.4657771 107.0754958)
(1447.763357 361.9187431 389.8264373)
(1810.913876 35.0810882 130.799448)
(1506.053601 866.4934689 178.3204441)
(2003.088873 -149.5058207 -351.3815149)
(1439.873881 79.82328052 -21.57967361)
(1104.810612 -130.9939993 -3.553593836)
(1407.578013 144.592192 -16.18624231)
(1070.579106 1096.958333 46.60079842)
(1726.8001 460.2140983 -55.38750786)
(1276.034861 599.544606 -373.9256018)
(1548.141511 889.0094056 619.8550046)
(1633.14371 -128.5213747 -465.8016461)
(1660.185342 243.7390732 399.1516328)
(879.7510724 123.5100932 -390.5559939)
(1286.330731 -249.2238362 421.1970045)
(840.1465871 86.74525768 -1031.454331)
(1846.069442 179.0494572 23.17271523)
(1804.890538 -209.7539877 313.7570659)
(1979.049727 -272.6368647 28.06934247)
(1505.321664 335.3574758 33.31780797)
(1753.497434 78.197627 -57.42397592)
(1942.647639 -206.3545744 -447.0770027)
(1947.627281 -168.9680306 -197.935723)
(1741.112032 551.5065181 -376.9444098)
(1687.884888 150.8604313 -21.6272909)
(1536.463354 -171.3088401 128.134123)
(1543.158135 -94.70928154 237.8874878)
(1520.736145 696.2179884 325.836513)
(1661.624985 -130.5460852 -804.5188158)
(1577.97847 125.0838731 436.1741429)
(1649.393497 1092.755067 438.3574984)
(1751.733165 104.1504616 87.32642454)
(1488.803802 442.4714998 -447.267274)
(1667.795065 676.1433621 97.41065661)
(1513.882493 323.597244 7.523439881)
(2048.749221 256.9889298 -250.596274)
(1596.980415 -272.4471614 63.91562323)
(1724.638827 370.3439343 32.73386483)
(1550.706226 862.7413945 -35.38847092)
(1554.273766 -490.5136329 -205.466979)
(2034.30667 114.3526587 333.2412277)
(1484.073403 826.0303442 190.9053713)
(1136.147513 375.1393232 504.1271771)
(1674.62258 -148.2641297 -321.1353785)
(1565.382514 116.9267997 -592.5103501)
(1685.234867 -10.09990921 -486.6317525)
(1990.396134 -187.8592703 -48.81904807)
(1741.032567 -194.5516665 207.0947831)
(2183.404762 140.503294 -23.24269501)
(1144.531144 292.8586745 -1.719492631)
(1735.899137 -70.29862719 -69.42137998)
(1724.019548 -77.27745147 292.3459174)
(1754.877277 686.4905077 961.1956494)
(1173.178173 561.5941715 -225.9225931)
(1372.164046 -124.7927238 151.4527288)
(1267.312976 -703.0724917 55.93694361)
(1258.035615 475.4074891 421.8488844)
(1790.379015 -292.5413312 -205.5001684)
(1394.221575 223.2972589 533.4300041)
(713.5137537 168.6357609 -370.3280415)
(1729.349046 -276.5374228 550.3464382)
(1907.563774 32.83560021 222.1028994)
(1674.06403 -480.2289989 582.0797258)
(1618.831902 -81.51176517 -81.80617405)
(1674.498004 117.5415325 281.3943314)
(1518.05366 -328.4515431 153.6343224)
(782.9128055 274.3989382 -348.732963)
(1957.762019 73.78065735 81.07191201)
(1648.979107 636.3166232 179.2107481)
(1718.587026 126.737436 124.1282397)
(2040.902845 448.5063426 -717.6401346)
(1492.043702 -651.1722503 -454.804897)
(1826.243869 505.0537169 -47.88400362)
(2060.553221 1067.139025 -738.3408638)
(1033.667 332.9046171 -214.06684)
(1776.601317 -134.636531 322.7818097)
(2038.595425 385.7472275 80.0358707)
(1979.296258 23.34683817 249.1096453)
(1126.694955 129.4981325 -63.432193)
(737.3677963 334.8173733 -744.5993258)
(1671.271086 -57.80064078 580.1976647)
(1664.173143 -247.8274274 -529.7070349)
(1764.423478 -59.73110664 -356.8031074)
(1047.015075 134.5196092 -59.19234751)
(1891.80831 491.4090641 -378.7614191)
(1323.514087 -381.2418703 -162.656696)
(1952.884393 -62.2757957 -241.047459)
(1671.693042 331.6489763 305.864703)
(1898.913908 34.88954868 -318.590244)
(1825.404435 59.15718078 -83.658542)
(1522.804763 -209.1993747 -56.61551265)
(2072.788041 286.9690647 -353.3510753)
(1696.741257 767.2422718 -101.4441174)
(1767.471614 -476.913131 247.4555728)
(1553.252145 -115.1083527 113.7023322)
(1890.281154 452.2862863 -187.6936455)
(1369.766368 241.9413185 328.5851858)
(1697.536273 -283.9223797 439.6525394)
(1478.163043 241.5955688 129.6855784)
(1760.086963 269.0714941 -185.48404)
(1712.820239 -43.60562371 246.4005639)
(1399.854346 19.58398911 444.9403812)
(1527.712451 416.1243343 -680.5418798)
(1260.641865 -439.3920621 547.9373336)
(570.62935 535.0084208 448.9705646)
(1872.402615 25.82048924 -153.2382053)
(1827.738521 -75.99038558 74.89078621)
(1991.230973 56.4560702 265.1267986)
(2159.34872 390.838658 -139.2862405)
(596.9691865 35.16473511 450.076489)
(1728.791718 689.6673833 -418.5601113)
(1392.423249 -222.7834397 -564.8684738)
(1092.336532 317.4725827 539.6436522)
(1970.172217 -388.7511438 -64.15874328)
(2035.306701 247.9901928 -458.1598761)
(1704.070175 -154.4461716 154.2749597)
(1767.933917 -23.33739787 98.81857907)
(1545.932505 118.7982506 -40.89578408)
(1033.588303 1179.747132 -1013.185764)
(1625.046962 639.0438465 40.81353585)
(2079.336182 -188.5029426 677.3096011)
(1539.298702 464.7857481 281.130589)
(1409.699641 96.33374477 -373.8804979)
(1830.750647 300.17085 430.8734208)
(1813.824174 29.99950039 -135.2184496)
(1665.494099 -268.1607028 -587.9959575)
(1280.610687 -396.3544084 -14.49036869)
(864.4352885 1233.619696 -568.9900515)
(1603.549045 24.19450854 -141.3508354)
(1566.230331 102.1593559 -149.5682762)
(1623.956135 234.7534881 -337.4279842)
(1697.309414 -51.57891127 -63.20607543)
(1589.368103 -130.7294533 872.6606178)
(1036.402713 712.3240518 502.428292)
(2001.804212 -366.4749406 -124.8588675)
(1250.154209 -121.5102209 -113.2498219)
(1059.108599 355.2717041 -264.3389076)