/*--------------------------------*- C++ -*----------------------------------*\
| =========                 |                                                 |
| \\      /  F ield         | OpenFOAM: The Open Source CFD Toolbox           |
|  \\    /   O peration     | Version:  2406                                  |
|   \\  /    A nd           | Website:  www.openfoam.com                      |
|    \\/     M anipulation  |                                                 |
\*---------------------------------------------------------------------------*/
FoamFile
{
    version     2.0;
    format      ascii;
    arch        "LSB;label=32;scalar=64";
    class       volScalarField;
    location    "0.007";
    object      dsmcRhoNMean;
}
// * * * * * * * * * * * * * * * * * * * * * * * * * * * * * * * * * * * * * //

dimensions      [0 -3 0 0 0 0 0];

internalField   nonuniform List<scalar> 
546
(
7.415714286
9.565428571
9.668571429
9.615428571
9.614857143
9.598285714
9.588857143
9.559714286
9.517428571
9.561142857
9.598285714
9.671428571
9.628
9.562857143
9.586857143
9.550571429
9.574571429
9.532857143
9.453714286
9.468285714
7.466571429
9.560571429
9.625428571
9.652857143
9.669714286
9.662571429
9.641714286
9.639714286
9.588
9.552857143
9.569714286
9.542
9.596857143
9.565142857
9.570285714
9.553428571
9.58
9.676
9.717142857
9.702
7.408857143
9.515428571
9.547428571
9.534571429
9.536
9.573142857
9.623428571
9.621142857
9.604285714
9.677142857
9.617428571
9.646
9.608857143
9.596857143
9.599714286
9.603428571
9.538
9.559142857
9.534285714
9.515142857
7.432571429
9.603714286
9.640285714
9.563428571
9.562857143
9.514857143
9.529142857
9.539428571
9.6
9.521142857
9.604
9.610285714
9.640571429
9.586857143
9.627428571
9.588
9.550857143
9.544571429
9.636
9.646
7.459714286
9.614285714
9.651714286
9.673428571
9.661142857
9.649714286
9.564857143
9.587142857
9.53
9.433142857
9.435714286
9.415714286
9.446
9.493714286
9.554285714
9.594571429
9.682857143
9.672857143
9.606
9.588285714
7.443142857
9.546571429
9.548285714
9.557428571
9.574857143
9.584
9.587714286
9.583142857
9.647714286
9.690571429
9.748
9.706285714
9.635714286
9.610857143
9.634571429
9.675142857
9.656
9.590857143
9.667714286
9.687142857
7.413714286
9.524
9.588857143
9.639428571
9.598857143
9.642571429
9.643142857
9.685714286
9.616571429
9.680857143
9.654
9.703428571
9.763142857
9.706285714
9.687142857
9.626571429
9.676857143
9.615714286
9.595142857
9.606285714
7.435428571
9.601142857
9.683428571
9.661142857
9.672
9.670857143
9.686
9.670571429
9.71
9.636857143
9.639714286
9.587142857
9.564571429
9.597142857
9.606
9.670571429
9.632285714
9.685714286
9.743142857
9.750285714
7.465428571
9.594857143
9.566571429
9.574
9.575142857
9.498857143
9.512571429
9.570285714
9.541142857
9.646571429
9.683428571
9.695142857
9.674571429
9.656
9.654285714
9.562285714
9.588
9.571428571
9.519142857
9.498857143
7.416285714
9.517714286
9.553428571
9.612857143
9.538857143
9.601142857
9.611142857
9.641142857
9.588
9.519142857
9.493428571
9.510285714
9.564
9.583714286
9.588857143
9.605428571
9.551714286
9.517142857
9.492
9.476857143
7.469142857
9.617428571
9.620571429
9.620857143
9.633714286
9.576857143
9.611428571
9.525142857
9.574285714
9.653428571
9.608285714
9.620571429
9.614571429
9.590571429
9.485142857
9.514571429
9.554571429
9.64
9.690571429
9.718857143
7.398285714
9.566571429
9.594
9.611142857
9.570285714
9.546571429
9.582571429
9.513142857
9.506571429
9.492
9.457714286
9.521428571
9.512857143
9.582
9.661428571
9.64
9.704
9.613428571
9.644857143
9.621714286
7.443428571
9.616285714
9.668285714
9.637142857
9.640857143
9.621142857
9.580857143
9.615428571
9.656
9.624857143
9.622857143
9.649714286
9.652857143
9.614
9.558857143
9.61
9.479428571
9.538857143
9.557142857
9.518857143
7.406571429
9.453428571
9.549428571
9.544
9.569714286
9.570285714
9.600857143
9.617142857
9.603428571
9.647142857
9.59
9.515428571
9.462857143
9.483142857
9.463428571
9.509428571
9.545142857
9.531142857
9.530571429
9.546285714
7.482
9.6
9.590285714
9.517428571
9.565714286
9.542285714
9.558857143
9.602571429
9.57
9.502571429
9.506857143
9.542857143
9.626
9.579714286
9.641142857
9.614857143
9.569142857
9.561142857
9.612571429
9.628285714
7.402
9.559714286
9.615428571
9.683428571
9.722
9.653428571
9.57
9.531428571
9.556571429
9.590285714
9.580571429
9.578571429
9.547714286
9.58
9.642857143
9.635142857
9.658
9.574857143
9.544857143
9.56
7.478285714
9.684285714
9.732571429
9.651714286
9.562
9.658285714
9.732285714
9.758
9.718857143
9.759714286
9.721714286
9.721142857
9.764
9.696285714
9.653714286
9.599714286
9.616571429
9.589142857
9.660285714
9.636285714
7.300285714
9.333714286
9.402857143
9.500571429
9.484571429
9.495428571
9.521142857
9.535142857
9.539428571
9.552571429
9.627142857
9.584285714
9.564571429
9.563142857
9.569142857
9.557142857
9.542
9.533428571
9.565714286
9.484571429
9.385714286
9.305142857
9.257142857
9.203428571
9.153428571
9.143714286
9.478285714
9.454857143
9.453714286
9.340571429
9.338285714
9.324
9.318285714
9.268571429
9.126857143
9.040857143
9.66
9.611428571
9.572
9.498285714
9.370571429
9.311428571
9.256857143
9.156
9.129714286
9.155714286
9.512
9.447714286
9.413142857
9.307714286
9.305142857
9.204
9.141714286
9.123428571
9.078857143
9.078571429
9.651142857
9.585714286
9.456857143
9.464285714
9.379714286
9.293428571
9.189142857
9.121714286
9.008571429
8.952
9.537714286
9.466
9.401428571
9.322857143
9.272285714
9.225428571
9.227714286
9.241714286
9.085428571
9.017714286
9.625428571
9.516571429
9.481428571
9.443428571
9.473714286
9.363714286
9.212857143
9.124857143
9.113428571
9.081714286
9.603714286
9.539714286
9.457714286
9.377428571
9.261142857
9.258571429
9.228
9.162
9.038
8.929428571
9.743428571
9.686285714
9.561714286
9.379142857
9.258285714
9.173142857
9.103428571
9.005428571
8.92
8.870571429
9.384857143
9.307714286
9.261142857
9.192
9.216571429
9.150571429
9.108
8.971428571
8.952571429
8.928857143
9.432857143
9.473428571
9.456
9.421142857
9.310285714
9.244857143
9.242571429
9.17
9.142857143
8.968
9.643428571
9.548571429
9.409428571
9.366571429
9.358571429
9.308571429
9.153714286
9.107428571
9.079428571
9.05
9.623428571
9.532571429
9.489714286
9.380857143
9.204571429
9.135142857
9.107428571
9.099428571
9.055142857
9.006
9.469428571
9.441142857
9.383428571
9.363142857
9.311714286
9.299142857
9.203428571
9.126285714
9.022571429
8.936857143
9.548
9.554571429
9.469142857
9.455428571
9.423714286
9.323714286
9.226571429
9.148285714
9.043428571
8.913142857
9.560285714
9.506285714
9.445142857
9.351428571
9.291714286
9.179142857
9.085142857
9.058
9.073142857
9.056857143
9.521714286
9.456
9.403142857
9.344
9.303428571
9.229428571
9.200857143
9.118
9.081428571
9.028
9.562857143
9.481428571
9.410571429
9.305142857
9.250571429
9.236857143
9.196571429
9.176
9.128857143
9.037714286
9.512857143
9.401142857
9.345428571
9.341428571
9.190857143
9.137428571
9.073142857
8.95
8.815428571
8.784571429
)
;

boundaryField
{
    flow
    {
        type            calculated;
        value           nonuniform List<scalar> 
48
(
7.415714286
7.466571429
7.408857143
7.432571429
7.459714286
7.443142857
7.413714286
7.435428571
7.465428571
7.416285714
7.469142857
7.398285714
7.443428571
7.406571429
7.482
7.402
7.478285714
7.300285714
7.300285714
9.333714286
9.402857143
9.500571429
9.484571429
9.495428571
9.521142857
9.535142857
9.539428571
9.552571429
9.627142857
9.584285714
9.564571429
9.563142857
9.569142857
9.557142857
9.542
9.533428571
9.565714286
9.484571429
9.512857143
9.401142857
9.345428571
9.341428571
9.190857143
9.137428571
9.073142857
8.95
8.815428571
8.784571429
)
;
    }
    obstacle
    {
        type            calculated;
        value           nonuniform List<scalar> 0();
    }
    frontAndBack
    {
        type            empty;
    }
    procBoundary2to0
    {
        type            processor;
        value           nonuniform List<scalar> 
31
(
7.438571429
9.533428571
9.578
9.498
9.546857143
9.508857143
9.609714286
9.667714286
9.758
9.746285714
9.650285714
9.601714286
9.589714286
9.637428571
9.633714286
9.612285714
9.617428571
9.611142857
9.650571429
9.651142857
9.255428571
9.151714286
9.067714286
9.049714286
9.148571429
9.07
9.612
9.504571429
9.442285714
9.423714286
9.423714286
)
;
    }
    procBoundary2to3
    {
        type            processor;
        value           nonuniform List<scalar> 
19
(
9.094571429
9.027142857
9.051714286
9.048285714
8.860571429
8.917142857
9.079428571
8.838
8.796
8.833142857
8.934857143
8.968285714
8.966285714
8.878
8.921714286
8.918
9.052
8.946285714
8.68
)
;
    }
}


// ************************************************************************* //
