/*--------------------------------*- C++ -*----------------------------------*\
| =========                 |                                                 |
| \\      /  F ield         | OpenFOAM: The Open Source CFD Toolbox           |
|  \\    /   O peration     | Version:  2406                                  |
|   \\  /    A nd           | Website:  www.openfoam.com                      |
|    \\/     M anipulation  |                                                 |
\*---------------------------------------------------------------------------*/
FoamFile
{
    version     2.0;
    format      ascii;
    arch        "LSB;label=32;scalar=64";
    class       volScalarField;
    location    "0.007";
    object      iDofMean;
}
// * * * * * * * * * * * * * * * * * * * * * * * * * * * * * * * * * * * * * //

dimensions      [0 -3 0 0 0 0 0];

internalField   nonuniform List<scalar> 
546
(
1.544544687e+20
1.992287095e+20
2.013769686e+20
2.002701094e+20
2.002582076e+20
1.99913058e+20
1.997166797e+20
1.991096924e+20
1.982289657e+20
1.991394467e+20
1.99913058e+20
2.014364771e+20
2.00531947e+20
1.991751518e+20
1.996750238e+20
1.98919265e+20
1.994191369e+20
1.98550312e+20
1.969019248e+20
1.972054185e+20
1.55513721e+20
1.99127545e+20
2.004783893e+20
2.010496715e+20
2.01400772e+20
2.012520006e+20
2.008175881e+20
2.007759321e+20
1.996988272e+20
1.989668719e+20
1.993179724e+20
1.987407394e+20
1.998833037e+20
1.992227587e+20
1.993298741e+20
1.989787736e+20
1.995322032e+20
2.015316908e+20
2.023886141e+20
2.020732187e+20
1.543116481e+20
1.981873097e+20
1.988538056e+20
1.985860171e+20
1.986157714e+20
1.993893827e+20
2.004367333e+20
2.003891265e+20
2.00038026e+20
2.015554943e+20
2.003117653e+20
2.00906851e+20
2.001332397e+20
1.998833037e+20
1.999428123e+20
2.000201734e+20
1.986574274e+20
1.990977907e+20
1.985800662e+20
1.981813589e+20
1.548055692e+20
2.000261243e+20
2.007878338e+20
1.991870536e+20
1.991751518e+20
1.98175408e+20
1.984729508e+20
1.986871816e+20
1.999487631e+20
1.983063269e+20
2.000320751e+20
2.001629939e+20
2.007937847e+20
1.996750238e+20
2.005200453e+20
1.996988272e+20
1.989252159e+20
1.987942971e+20
2.00698571e+20
2.00906851e+20
1.553709005e+20
2.002463059e+20
2.010258681e+20
2.014781331e+20
2.012222463e+20
2.009842121e+20
1.992168078e+20
1.996809746e+20
1.984908034e+20
1.964734632e+20
1.965270209e+20
1.96110461e+20
1.967412517e+20
1.977350447e+20
1.989966262e+20
1.998356969e+20
2.016745114e+20
2.014662314e+20
2.000737311e+20
1.99704778e+20
1.550257508e+20
1.98835953e+20
1.988716582e+20
1.990620856e+20
1.994250878e+20
1.996155152e+20
1.996928763e+20
1.995976626e+20
2.009425561e+20
2.018351845e+20
2.030313066e+20
2.021624816e+20
2.006926201e+20
2.001748957e+20
2.006688167e+20
2.015138383e+20
2.011151309e+20
1.997583357e+20
2.01359116e+20
2.017637742e+20
1.544128127e+20
1.983658354e+20
1.997166797e+20
2.007699813e+20
1.999249597e+20
2.008354407e+20
2.008473424e+20
2.017340199e+20
2.002939128e+20
2.016328554e+20
2.010734749e+20
2.02102973e+20
2.033467019e+20
2.021624816e+20
2.017637742e+20
2.005021927e+20
2.015495434e+20
2.002760602e+20
1.998475986e+20
2.00079682e+20
1.548650777e+20
1.999725666e+20
2.016864131e+20
2.012222463e+20
2.014483789e+20
2.014245754e+20
2.017399708e+20
2.014186246e+20
2.022398427e+20
2.007164236e+20
2.007759321e+20
1.996809746e+20
1.99210857e+20
1.998892546e+20
2.000737311e+20
2.014186246e+20
2.006212099e+20
2.017340199e+20
2.02930142e+20
2.030789134e+20
1.554899176e+20
1.998416477e+20
1.99252513e+20
1.994072352e+20
1.994310387e+20
1.978421601e+20
1.981278012e+20
1.993298741e+20
1.987228868e+20
2.009187527e+20
2.016864131e+20
2.019303982e+20
2.015019366e+20
2.011151309e+20
2.010794258e+20
1.991632501e+20
1.996988272e+20
1.993536775e+20
1.982646709e+20
1.978421601e+20
1.544663704e+20
1.982349166e+20
1.989787736e+20
2.002165517e+20
1.986752799e+20
1.999725666e+20
2.001808465e+20
2.008056864e+20
1.996988272e+20
1.982646709e+20
1.977290938e+20
1.980801943e+20
1.991989553e+20
1.996095643e+20
1.997166797e+20
2.000618294e+20
1.989430685e+20
1.982230149e+20
1.976993395e+20
1.973839442e+20
1.555672787e+20
2.003117653e+20
2.003772248e+20
2.003831756e+20
2.006509641e+20
1.994667438e+20
2.001867974e+20
1.983896388e+20
1.994131861e+20
2.010615732e+20
2.00121338e+20
2.003772248e+20
2.002522568e+20
1.997523849e+20
1.97556519e+20
1.981694572e+20
1.99002577e+20
2.00781883e+20
2.018351845e+20
2.024243192e+20
1.540914664e+20
1.99252513e+20
1.998237952e+20
2.001808465e+20
1.993298741e+20
1.98835953e+20
1.995857609e+20
1.981397029e+20
1.980028332e+20
1.976993395e+20
1.969852368e+20
1.983122777e+20
1.98133752e+20
1.995738592e+20
2.012281972e+20
2.00781883e+20
2.021148747e+20
2.002284534e+20
2.008830475e+20
2.004010282e+20
1.550317017e+20
2.002879619e+20
2.013710177e+20
2.007223744e+20
2.007997355e+20
2.003891265e+20
1.995500558e+20
2.002701094e+20
2.011151309e+20
2.004664876e+20
2.004248316e+20
2.009842121e+20
2.010496715e+20
2.002403551e+20
1.990918399e+20
2.001570431e+20
1.974375019e+20
1.986752799e+20
1.990561347e+20
1.9825872e+20
1.542640413e+20
1.96895974e+20
1.988954616e+20
1.987823953e+20
1.993179724e+20
1.993298741e+20
1.999666157e+20
2.003058145e+20
2.000201734e+20
2.009306544e+20
1.997404832e+20
1.981873097e+20
1.970923522e+20
1.97514863e+20
1.971042539e+20
1.980623418e+20
1.988061988e+20
1.985146068e+20
1.985027051e+20
1.988300022e+20
1.558350673e+20
1.999487631e+20
1.99746434e+20
1.982289657e+20
1.992346604e+20
1.987466902e+20
1.990918399e+20
2.000023208e+20
1.993239232e+20
1.979195212e+20
1.980087841e+20
1.987585919e+20
2.00490291e+20
1.995262524e+20
2.008056864e+20
2.002582076e+20
1.993060707e+20
1.991394467e+20
2.002106008e+20
2.005378979e+20
1.541688276e+20
1.991096924e+20
2.002701094e+20
2.016864131e+20
2.024897787e+20
2.010615732e+20
1.993239232e+20
1.985205577e+20
1.99044233e+20
1.99746434e+20
1.995441049e+20
1.995024489e+20
1.988597565e+20
1.995322032e+20
2.008413915e+20
2.006807184e+20
2.011567869e+20
1.994250878e+20
1.988002479e+20
1.991156433e+20
1.557577061e+20
2.017042657e+20
2.027099603e+20
2.010258681e+20
1.991572993e+20
2.011627378e+20
2.027040095e+20
2.032395865e+20
2.024243192e+20
2.032752917e+20
2.024838278e+20
2.024719261e+20
2.033645545e+20
2.019542016e+20
2.010675241e+20
1.999428123e+20
2.002939128e+20
1.997226306e+20
2.012043938e+20
2.007045218e+20
1.520503228e+20
1.944025653e+20
1.958426725e+20
1.978778652e+20
1.975446173e+20
1.977707498e+20
1.983063269e+20
1.985979188e+20
1.986871816e+20
1.98960921e+20
2.005140945e+20
1.99621466e+20
1.99210857e+20
1.991811027e+20
1.993060707e+20
1.990561347e+20
1.987407394e+20
1.985622137e+20
1.992346604e+20
1.975446173e+20
2.016883009e+20
2.013707233e+20
2.017585139e+20
2.020264329e+20
2.023803447e+20
2.03636595e+20
1.981137777e+20
1.989829621e+20
2.003364442e+20
1.993188267e+20
2.00669115e+20
2.01778807e+20
2.030911179e+20
2.034563977e+20
2.017928546e+20
2.013458981e+20
2.019119452e+20
2.022780987e+20
2.028430716e+20
2.026842982e+20
2.013628968e+20
2.015067526e+20
2.017522882e+20
2.009853181e+20
2.018560269e+20
2.03903843e+20
1.988184689e+20
1.988326365e+20
1.994766831e+20
1.986176868e+20
1.999569128e+20
1.991819111e+20
1.99242761e+20
2.002703371e+20
2.007315849e+20
2.021858189e+20
2.017268131e+20
2.017369253e+20
2.004030454e+20
2.019587722e+20
2.015593678e+20
2.011172168e+20
2.002764606e+20
2.002327037e+20
1.991775829e+20
1.993669905e+20
1.993559452e+20
1.992174686e+20
1.992284422e+20
1.989408222e+20
1.992508503e+20
1.996456425e+20
2.011171225e+20
2.028668522e+20
2.008768792e+20
2.008304913e+20
2.011893367e+20
2.002817751e+20
2.009237458e+20
2.015136994e+20
2.035793206e+20
2.026382572e+20
2.007933125e+20
2.003016946e+20
2.014959532e+20
2.022558153e+20
2.007354692e+20
2.007688299e+20
2.004212093e+20
2.001053241e+20
1.99011403e+20
2.003628804e+20
2.011233496e+20
2.011170254e+20
1.998282423e+20
1.988643097e+20
2.036557559e+20
2.038535108e+20
2.026251054e+20
2.001419053e+20
1.989500062e+20
1.985141379e+20
1.984083262e+20
1.976800924e+20
1.97219289e+20
1.97553522e+20
1.96160947e+20
1.958862538e+20
1.96255605e+20
1.961484537e+20
1.980536124e+20
1.980256755e+20
1.985079628e+20
1.969337525e+20
1.979394363e+20
1.988515836e+20
1.971642362e+20
1.993738086e+20
2.003848828e+20
2.01038145e+20
2.000674283e+20
2.000660937e+20
2.014409311e+20
2.012926337e+20
2.021466112e+20
1.997233211e+20
2.015655715e+20
2.009552337e+20
1.993979726e+20
1.998736431e+20
2.011050319e+20
2.014449204e+20
1.995042998e+20
1.999191177e+20
2.007442205e+20
2.015495156e+20
2.01147533e+20
2.00618503e+20
2.010993294e+20
2.001784852e+20
1.977957474e+20
1.976917876e+20
1.984955058e+20
1.997435066e+20
2.002072686e+20
2.005696064e+20
1.97928647e+20
1.986943369e+20
1.988470002e+20
1.998004807e+20
2.000981253e+20
2.012408799e+20
2.005878192e+20
2.003330549e+20
1.994871199e+20
1.990297475e+20
1.995709358e+20
2.010815058e+20
2.006633942e+20
2.017697679e+20
2.025048776e+20
2.017726239e+20
2.010922126e+20
2.008159788e+20
1.999482668e+20
1.985016175e+20
1.9982773e+20
2.000653062e+20
2.001548059e+20
1.995505077e+20
1.996683467e+20
1.986439827e+20
1.980097923e+20
1.988341005e+20
2.006052447e+20
2.017022287e+20
1.990215168e+20
1.990070142e+20
1.992647701e+20
1.993919905e+20
1.999200747e+20
1.997322057e+20
2.005317723e+20
2.00151172e+20
2.007884401e+20
2.01059561e+20
1.998814777e+20
1.995421732e+20
1.994221912e+20
1.98562815e+20
1.98784235e+20
1.998929673e+20
2.004383684e+20
2.014243424e+20
2.018370742e+20
2.012759046e+20
1.988363848e+20
1.978525124e+20
1.980417297e+20
1.993371187e+20
1.975010431e+20
1.977412523e+20
1.977482521e+20
1.96463368e+20
1.949072371e+20
1.956382449e+20
)
;

boundaryField
{
    flow
    {
        type            calculated;
        value           nonuniform List<scalar> 
48
(
1.544544687e+20
1.55513721e+20
1.543116481e+20
1.548055692e+20
1.553709005e+20
1.550257508e+20
1.544128127e+20
1.548650777e+20
1.554899176e+20
1.544663704e+20
1.555672787e+20
1.540914664e+20
1.550317017e+20
1.542640413e+20
1.558350673e+20
1.541688276e+20
1.557577061e+20
1.520503228e+20
1.520503228e+20
1.944025653e+20
1.958426725e+20
1.978778652e+20
1.975446173e+20
1.977707498e+20
1.983063269e+20
1.985979188e+20
1.986871816e+20
1.98960921e+20
2.005140945e+20
1.99621466e+20
1.99210857e+20
1.991811027e+20
1.993060707e+20
1.990561347e+20
1.987407394e+20
1.985622137e+20
1.992346604e+20
1.975446173e+20
1.988363848e+20
1.978525124e+20
1.980417297e+20
1.993371187e+20
1.975010431e+20
1.977412523e+20
1.977482521e+20
1.96463368e+20
1.949072371e+20
1.956382449e+20
)
;
    }
    obstacle
    {
        type            calculated;
        value           nonuniform List<scalar> 0();
    }
    frontAndBack
    {
        type            empty;
    }
    procBoundary2to0
    {
        type            processor;
        value           nonuniform List<scalar> 
31
(
1.549305371e+20
1.985622137e+20
1.994905472e+20
1.978243075e+20
1.988419039e+20
1.980504401e+20
2.001510922e+20
2.01359116e+20
2.032395865e+20
2.029956014e+20
2.009961138e+20
1.999844683e+20
1.997345323e+20
2.007283253e+20
2.006509641e+20
2.002046499e+20
2.003117653e+20
2.001808465e+20
2.010020646e+20
2.010139664e+20
1.988886095e+20
1.980504065e+20
1.976299383e+20
1.98652219e+20
2.022729543e+20
2.019949289e+20
2.009086547e+20
2.000292267e+20
2.000942579e+20
2.010930168e+20
2.010930168e+20
)
;
    }
    procBoundary2to3
    {
        type            processor;
        value           nonuniform List<scalar> 
19
(
2.040267246e+20
2.025140386e+20
2.030652731e+20
2.029883554e+20
1.987771915e+20
2.000463108e+20
2.036870127e+20
1.982708263e+20
1.973286038e+20
1.981618616e+20
2.004437099e+20
2.011936447e+20
2.011487754e+20
1.991681824e+20
2.001488673e+20
2.000655385e+20
2.030716813e+20
2.007000988e+20
1.947262698e+20
)
;
    }
}


// ************************************************************************* //
