/*--------------------------------*- C++ -*----------------------------------*\
| =========                 |                                                 |
| \\      /  F ield         | OpenFOAM: The Open Source CFD Toolbox           |
|  \\    /   O peration     | Version:  2406                                  |
|   \\  /    A nd           | Website:  www.openfoam.com                      |
|    \\/     M anipulation  |                                                 |
\*---------------------------------------------------------------------------*/
FoamFile
{
    version     2.0;
    format      ascii;
    arch        "LSB;label=32;scalar=64";
    class       volScalarField;
    location    "0.007";
    object      iDof;
}
// * * * * * * * * * * * * * * * * * * * * * * * * * * * * * * * * * * * * * //

dimensions      [0 -3 0 0 0 0 0];

internalField   nonuniform List<scalar> 
546
(
1.457959731e+20
1.457959731e+20
2.082799616e+20
2.082799616e+20
1.874519654e+20
2.707639501e+20
1.24967977e+20
1.874519654e+20
2.707639501e+20
3.124199424e+20
2.499359539e+20
1.24967977e+20
1.874519654e+20
1.24967977e+20
2.082799616e+20
3.124199424e+20
2.082799616e+20
2.291079578e+20
1.874519654e+20
1.24967977e+20
1.041399808e+20
1.041399808e+20
1.874519654e+20
1.874519654e+20
2.082799616e+20
2.291079578e+20
2.499359539e+20
2.082799616e+20
1.041399808e+20
1.666239693e+20
2.499359539e+20
1.666239693e+20
1.457959731e+20
1.874519654e+20
1.666239693e+20
2.499359539e+20
1.041399808e+20
3.332479385e+20
2.499359539e+20
1.874519654e+20
2.291079578e+20
2.291079578e+20
1.874519654e+20
1.666239693e+20
2.082799616e+20
2.291079578e+20
1.666239693e+20
2.915919462e+20
1.666239693e+20
2.499359539e+20
1.874519654e+20
2.915919462e+20
2.291079578e+20
3.332479385e+20
1.874519654e+20
1.457959731e+20
1.874519654e+20
2.082799616e+20
3.749039309e+20
1.041399808e+20
1.24967977e+20
2.499359539e+20
1.457959731e+20
2.291079578e+20
1.874519654e+20
2.082799616e+20
8.331198464e+19
1.874519654e+20
1.457959731e+20
1.666239693e+20
1.874519654e+20
2.499359539e+20
2.499359539e+20
2.499359539e+20
1.457959731e+20
2.291079578e+20
2.499359539e+20
1.457959731e+20
1.666239693e+20
2.707639501e+20
1.874519654e+20
1.24967977e+20
2.707639501e+20
8.331198464e+19
2.915919462e+20
2.499359539e+20
2.082799616e+20
1.666239693e+20
2.291079578e+20
2.291079578e+20
2.082799616e+20
1.457959731e+20
2.082799616e+20
2.291079578e+20
2.915919462e+20
2.291079578e+20
1.666239693e+20
1.457959731e+20
1.041399808e+20
2.499359539e+20
1.666239693e+20
2.082799616e+20
1.666239693e+20
2.915919462e+20
1.666239693e+20
1.666239693e+20
1.041399808e+20
1.666239693e+20
2.082799616e+20
2.707639501e+20
1.666239693e+20
1.24967977e+20
2.499359539e+20
1.666239693e+20
2.499359539e+20
8.331198464e+19
1.666239693e+20
1.874519654e+20
1.457959731e+20
1.457959731e+20
1.666239693e+20
2.499359539e+20
1.874519654e+20
2.291079578e+20
1.24967977e+20
1.457959731e+20
3.749039309e+20
2.082799616e+20
1.666239693e+20
1.874519654e+20
2.291079578e+20
1.24967977e+20
2.082799616e+20
1.24967977e+20
1.24967977e+20
2.291079578e+20
1.666239693e+20
1.874519654e+20
2.499359539e+20
1.666239693e+20
1.457959731e+20
2.082799616e+20
2.082799616e+20
2.499359539e+20
1.666239693e+20
1.666239693e+20
1.457959731e+20
2.915919462e+20
2.082799616e+20
1.24967977e+20
1.24967977e+20
1.666239693e+20
2.707639501e+20
3.540759347e+20
2.499359539e+20
2.082799616e+20
2.082799616e+20
1.457959731e+20
1.457959731e+20
3.124199424e+20
1.666239693e+20
1.457959731e+20
2.082799616e+20
1.874519654e+20
2.082799616e+20
1.666239693e+20
1.457959731e+20
2.707639501e+20
1.457959731e+20
2.707639501e+20
1.24967977e+20
2.082799616e+20
2.499359539e+20
1.666239693e+20
1.874519654e+20
2.499359539e+20
2.082799616e+20
1.041399808e+20
2.291079578e+20
2.082799616e+20
1.24967977e+20
1.874519654e+20
2.291079578e+20
2.082799616e+20
2.707639501e+20
2.915919462e+20
1.666239693e+20
2.082799616e+20
1.666239693e+20
2.291079578e+20
2.082799616e+20
2.082799616e+20
1.666239693e+20
2.499359539e+20
2.291079578e+20
2.291079578e+20
2.082799616e+20
2.499359539e+20
2.082799616e+20
1.874519654e+20
1.666239693e+20
2.915919462e+20
1.041399808e+20
1.666239693e+20
1.041399808e+20
1.457959731e+20
1.041399808e+20
2.082799616e+20
2.082799616e+20
2.082799616e+20
3.332479385e+20
2.499359539e+20
1.666239693e+20
2.915919462e+20
1.874519654e+20
1.666239693e+20
2.082799616e+20
2.291079578e+20
3.124199424e+20
2.082799616e+20
1.457959731e+20
1.874519654e+20
2.499359539e+20
1.666239693e+20
3.124199424e+20
1.874519654e+20
2.915919462e+20
2.291079578e+20
2.082799616e+20
1.874519654e+20
6.248398848e+19
2.707639501e+20
1.666239693e+20
1.457959731e+20
1.666239693e+20
1.666239693e+20
3.124199424e+20
2.082799616e+20
3.749039309e+20
1.666239693e+20
1.666239693e+20
2.082799616e+20
1.874519654e+20
2.082799616e+20
2.291079578e+20
2.082799616e+20
2.499359539e+20
1.24967977e+20
2.082799616e+20
1.874519654e+20
4.165599232e+19
1.666239693e+20
1.666239693e+20
2.707639501e+20
1.24967977e+20
2.291079578e+20
1.24967977e+20
1.041399808e+20
2.499359539e+20
2.082799616e+20
1.457959731e+20
1.666239693e+20
1.24967977e+20
2.291079578e+20
1.874519654e+20
1.24967977e+20
1.457959731e+20
1.24967977e+20
2.499359539e+20
1.666239693e+20
1.666239693e+20
1.874519654e+20
2.291079578e+20
1.24967977e+20
2.291079578e+20
2.082799616e+20
2.499359539e+20
1.666239693e+20
1.666239693e+20
1.041399808e+20
1.666239693e+20
2.707639501e+20
1.666239693e+20
2.082799616e+20
2.291079578e+20
1.24967977e+20
2.291079578e+20
1.457959731e+20
2.915919462e+20
8.331198464e+19
1.457959731e+20
3.95731927e+20
2.082799616e+20
2.915919462e+20
2.499359539e+20
1.457959731e+20
3.124199424e+20
2.915919462e+20
1.457959731e+20
2.499359539e+20
2.082799616e+20
2.082799616e+20
1.24967977e+20
2.707639501e+20
1.457959731e+20
1.666239693e+20
1.457959731e+20
2.707639501e+20
1.457959731e+20
2.707639501e+20
1.874519654e+20
2.082799616e+20
1.041399808e+20
2.082799616e+20
1.041399808e+20
1.666239693e+20
2.915919462e+20
1.457959731e+20
2.499359539e+20
2.082799616e+20
1.24967977e+20
1.666239693e+20
2.707639501e+20
2.707639501e+20
2.499359539e+20
3.124199424e+20
2.082799616e+20
1.666239693e+20
1.24967977e+20
2.082799616e+20
1.666239693e+20
1.874519654e+20
2.707639501e+20
2.291079578e+20
1.666239693e+20
1.874519654e+20
2.291079578e+20
1.874519654e+20
1.874519654e+20
1.874519654e+20
1.666239693e+20
1.874519654e+20
1.666239693e+20
2.707639501e+20
1.874519654e+20
1.457959731e+20
1.457959731e+20
2.082799616e+20
2.291079578e+20
2.291079578e+20
2.291079578e+20
2.082799616e+20
1.666239693e+20
1.457959731e+20
2.082799616e+20
2.499359539e+20
2.082799616e+20
1.874519654e+20
1.24967977e+20
3.124199424e+20
2.578663208e+20
1.298447921e+20
1.743592096e+20
1.975609287e+20
1.326587145e+20
2.449773118e+20
1.463130028e+20
2.315013913e+20
1.907216511e+20
2.560684792e+20
2.578663208e+20
3.246119803e+20
2.179490135e+20
1.975609287e+20
2.653174272e+20
1.55894653e+20
2.717241498e+20
2.104558102e+20
2.331042402e+20
1.920513594e+20
6.446657977e+19
2.164079884e+20
1.743592108e+20
2.634145716e+20
2.432076433e+20
2.672479765e+20
2.508222905e+20
1.683646482e+20
2.966781239e+20
2.774075191e+20
1.504220205e+20
2.164079869e+20
2.833337175e+20
1.097560723e+20
2.432076416e+20
2.672479746e+20
2.926260055e+20
1.894102279e+20
1.695303565e+20
2.56068481e+20
1.289331604e+20
3.246119803e+20
1.525643084e+20
1.097560707e+20
2.874272128e+20
2.004359824e+20
1.463130028e+20
2.104558088e+20
1.48339062e+20
1.707123206e+20
6.446658021e+19
6.492239607e+19
1.743592108e+20
2.41463359e+20
2.210978576e+20
2.672479765e+20
1.881167178e+20
1.894102292e+20
1.695303565e+20
2.347294393e+20
1.504220205e+20
1.514855919e+20
2.833337175e+20
1.536585001e+20
2.432076433e+20
2.895186433e+20
8.360743071e+19
1.052279051e+20
1.059564728e+20
2.133904008e+20
1.719108806e+20
2.380487856e+20
2.615388162e+20
8.78048572e+19
1.547684992e+20
2.449773118e+20
2.090185754e+20
2.525469723e+20
1.907216524e+20
2.133904008e+20
4.297772014e+19
1.731263895e+20
3.051286167e+20
1.975609287e+20
2.432076433e+20
3.117893059e+20
2.508222905e+20
2.525469706e+20
8.476517769e+19
1.493732785e+20
1.504220195e+20
1.514855919e+20
2.397439165e+20
1.975609301e+20
1.105489288e+20
3.117893059e+20
2.508222905e+20
2.104558102e+20
2.119129471e+20
2.56068481e+20
1.289331613e+20
1.082039942e+20
1.307694072e+20
2.853657839e+20
1.547684992e+20
6.681199412e+19
1.672148614e+20
2.525469723e+20
1.907216511e+20
1.920513607e+20
3.223329011e+20
1.514855908e+20
2.615388162e+20
2.634145734e+20
1.989880718e+20
1.781653177e+20
1.463130028e+20
1.894102279e+20
1.48339061e+20
2.347294393e+20
1.933997406e+20
1.947671882e+20
1.525643084e+20
1.756097144e+20
1.768782861e+20
2.895186412e+20
1.672148603e+20
2.315013913e+20
1.271477683e+20
2.133904008e+20
1.504220205e+20
2.164079884e+20
2.61538818e+20
2.41463359e+20
8.84391424e+19
8.908265819e+19
1.463130028e+20
2.315013897e+20
1.695303554e+20
1.707123195e+20
3.00844041e+20
1.731263895e+20
4.358980239e+20
1.756097132e+20
2.432076416e+20
1.558946541e+20
2.299204329e+20
2.104558102e+20
2.119129471e+20
2.774075191e+20
6.446657977e+19
1.731263895e+20
2.179490135e+20
1.536585012e+20
1.989880718e+20
1.55894653e+20
2.717241498e+20
2.315013913e+20
1.695303565e+20
1.707123206e+20
3.00844041e+20
2.164079869e+20
1.307694072e+20
1.975609287e+20
1.989880718e+20
1.781653177e+20
3.344297206e+20
1.052279051e+20
1.48339062e+20
2.774075191e+20
1.933997406e+20
2.813303849e+20
1.30769409e+20
2.19512143e+20
1.547684992e+20
8.908265883e+19
3.135278631e+20
1.894102279e+20
2.754868294e+20
3.200856012e+20
1.289331604e+20
1.514855908e+20
1.743592096e+20
2.414633573e+20
2.653174291e+20
1.113533235e+20
)
;

boundaryField
{
    flow
    {
        type            zeroGradient;
    }
    obstacle
    {
        type            calculated;
        value           nonuniform List<scalar> 0();
    }
    frontAndBack
    {
        type            empty;
    }
    procBoundary2to0
    {
        type            processor;
        value           nonuniform List<scalar> 
31
(
1.457959731e+20
2.082799616e+20
2.082799616e+20
1.874519654e+20
3.124199424e+20
2.082799616e+20
1.666239693e+20
1.457959731e+20
1.24967977e+20
2.915919462e+20
2.915919462e+20
2.707639501e+20
2.291079578e+20
1.874519654e+20
1.874519654e+20
3.124199424e+20
1.24967977e+20
2.915919462e+20
2.082799616e+20
1.874519654e+20
1.289331604e+20
3.895343764e+20
2.179490135e+20
2.41463359e+20
2.653174291e+20
1.113533235e+20
2.299204329e+20
2.946381323e+20
1.695303565e+20
1.493732806e+20
1.493732806e+20
)
;
    }
    procBoundary2to3
    {
        type            processor;
        value           nonuniform List<scalar> 
19
(
2.916407266e+20
4.486780409e+19
1.346034132e+20
2.019051184e+20
1.346034123e+20
1.346034132e+20
2.019051199e+20
3.140746287e+20
2.467729243e+20
2.243390205e+20
3.140746287e+20
1.570373155e+20
1.794712164e+20
1.794712164e+20
2.692068284e+20
2.467729225e+20
3.813763348e+20
1.346034132e+20
2.243390205e+20
)
;
    }
}


// ************************************************************************* //
