/*--------------------------------*- C++ -*----------------------------------*\
| =========                 |                                                 |
| \\      /  F ield         | OpenFOAM: The Open Source CFD Toolbox           |
|  \\    /   O peration     | Version:  2406                                  |
|   \\  /    A nd           | Website:  www.openfoam.com                      |
|    \\/     M anipulation  |                                                 |
\*---------------------------------------------------------------------------*/
FoamFile
{
    version     2.0;
    format      ascii;
    arch        "LSB;label=32;scalar=64";
    class       volScalarField;
    location    "0.007";
    object      internalE;
}
// * * * * * * * * * * * * * * * * * * * * * * * * * * * * * * * * * * * * * //

dimensions      [1 -1 -2 0 0 0 0];

internalField   nonuniform List<scalar> 
546
(
0.3199564388
0.3797718979
0.5863122176
0.5852525494
0.3869187322
0.2391572969
0.2520779515
0.1573579895
0.8237748123
0.5462516293
0.5430123445
0.09662364307
0.2715919406
0.1627152602
0.5041108462
0.9202789608
0.5769041981
0.5105768258
0.3693578446
0.1924255041
0.4087586017
0.2896884873
0.6593442624
0.3361751388
0.3877931775
0.3605663328
0.6531470763
0.3573631939
0.09085915687
0.4112702335
0.5070618028
0.1861286683
0.3380647865
0.3658420004
0.3294904119
0.6023933213
0.2694243343
0.7810663014
0.3432024499
0.2949436515
0.3452257725
0.2923175278
0.3723999755
0.2008547293
0.4600412804
0.3927295011
0.2645070459
0.9352535715
0.5270202532
0.6065001433
0.298198215
0.6512566186
0.8419673005
0.6024393974
0.4891444358
0.1915722252
0.6377978337
0.3742115915
0.8638601834
0.09038636132
0.2320939912
0.6539017085
0.2999726963
0.3911177616
0.2512869849
0.3591121586
0.136365238
0.4503484174
0.2750352246
0.409114471
0.5721669871
0.3339023232
0.8565109577
0.2973952169
0.1117433668
0.4838425025
0.7315335802
0.2759433487
0.4197750575
0.6609695635
0.2821630103
0.2328092948
0.5082944997
0.07808910227
0.8390782524
0.4538066111
0.4384109797
0.379263771
0.6478410538
0.391161511
0.4065964684
0.7495092072
0.4522002049
0.6986257739
0.6386763966
0.2961981629
0.2673513631
0.2670043722
0.2013919937
0.3620776941
0.2283658508
0.3249794367
0.2275291834
0.4223399512
0.5160990081
0.3660435462
0.2273256849
0.4272109442
0.4114055299
0.3139621822
0.2214169772
0.2489762351
0.3914593645
0.2285155839
0.4877099252
0.3114808386
0.3632194255
0.4463813924
0.2916821573
0.3245479984
0.3312988187
0.8450377395
0.2296595141
0.2411574805
0.1087595658
0.5536227783
0.9026412177
0.5975416528
0.2919829971
0.2691353608
0.4029389132
0.2925443156
0.3588794891
0.1181232953
0.2500466542
0.5221511665
0.3278123456
0.2984645287
0.4139522379
0.7197247551
0.4376957804
0.3203362647
0.2666528622
0.3962427126
0.1878583678
0.2344810456
0.2969849005
0.3356064436
0.269947268
0.1366772405
0.3816761648
0.4320702585
0.4406451642
0.9085511028
0.3706649997
0.5282153535
0.3122655335
0.3556434207
0.3087933392
0.5603401899
0.3796871336
0.2096667865
0.4886403825
0.2856998731
0.5441102174
0.4873080548
0.3131318937
0.8324531153
0.2395130719
0.635205403
0.1655382662
0.5194504362
0.634898987
0.2774247255
0.4048837909
0.6224013524
0.4951052406
0.2752917072
0.7949061799
0.3213582613
0.2600455342
0.3874889834
0.3473709141
0.324475677
0.4279301388
0.8320600323
0.7181282189
0.2614657342
0.4140213127
0.6252817684
0.4360114509
0.4231908461
0.2491122216
0.4757962168
0.4390582871
0.6014462098
0.4330146375
0.432899621
0.4663003206
0.338882104
0.533434015
0.9111096207
0.1822442437
0.316572214
0.2739644032
0.3187510882
0.2303139049
0.388782757
0.4445355255
0.4368280108
1.073135545
0.4290236906
0.2167630331
0.5910416093
0.2860230311
0.2435716884
0.3562625507
0.4935244569
0.5102349819
0.3753337937
0.1843687171
0.2283855724
0.3665864642
0.2380721284
0.4812046832
0.470969089
0.4086904085
0.449248968
0.4575789705
0.5146824076
0.156428705
0.7417452417
0.4271336047
0.5942311295
0.150471173
0.316081746
0.5358390404
0.282060195
0.7173838238
0.2422841644
0.4061570555
0.3724265959
0.4314347563
0.455432356
0.3754130748
0.7617750762
0.9142251311
0.1715147475
0.5746817787
0.4075930103
0.143230449
0.27085092
0.3215831057
0.5200757057
0.4206788434
0.5905669071
0.2354811295
0.2139280217
0.755000615
0.3312260339
0.1816036389
0.2285171795
0.1775008636
0.3271478639
0.3634485641
0.2837061016
0.370859448
0.2808450104
0.7102473616
0.1839653033
0.6241183333
0.6717321449
0.494008921
0.06645361833
0.391931575
0.4006088909
0.615839454
0.3118754444
0.4026630306
0.1545754954
0.3576287925
0.6204667671
0.6146632702
0.4268734075
0.3665958297
0.2326268906
0.4615054326
0.4035714427
0.7230042345
0.2117799343
0.3124812201
1.231422353
0.5041607021
0.3549787022
0.6012799354
0.3580942721
0.574108966
0.4334629596
0.3126310822
0.2976512617
0.5143108969
0.274611431
0.2162815403
0.5993434732
0.3177135724
0.2696161204
0.3743548286
0.6438983066
0.4195262707
0.8087241109
0.1856670336
0.2895413093
0.2756825553
0.5964735371
0.1497971745
0.5044443493
0.7330211047
0.3843231296
0.6981303148
0.3136219308
0.1423056522
0.3367176227
0.8130128988
0.4799366459
0.7726885915
0.7047246931
0.3975667352
0.2195256537
0.3558142819
0.6884032407
0.36192737
0.33379387
0.4328326047
0.4980937102
0.5341432185
0.3522767776
0.4424177093
0.393009378
0.3334200729
0.377920323
0.1845982603
0.2655776049
0.7644754592
0.8209356252
0.4157047838
0.2670732446
0.1201424585
0.545412735
0.2781436942
0.464084343
0.4076642517
0.515808592
0.2451369646
0.3396737665
0.6294497916
0.4596721162
0.5055118935
0.4241095446
0.1363743805
0.6640162678
0.6891739879
0.3485123801
0.508581586
0.6305142797
0.2680344465
0.6211480692
0.3192280331
1.047492518
0.2595527207
0.6584965562
0.5297604621
0.5966819453
0.3364498027
0.6185183499
0.5969139306
0.3916198758
0.4039883988
0.5899977646
0.7120351842
0.592861409
0.1518959206
0.259510053
0.1877535146
0.5450680023
0.5649537537
0.7323618202
0.2755226715
0.5115982029
0.6503880325
0.6821611873
0.3010814282
0.4126085779
0.806862894
0.2369766475
0.4076037282
0.499014187
0.5822038148
0.4894049968
0.4884875893
0.5449114074
0.1755239773
0.8371887888
0.365284264
0.2251867626
0.4880002769
0.4414025425
0.3198161522
0.2605998312
0.2448363946
0.2550306804
0.2344099817
0.07131129157
0.3430914903
0.3626151069
0.3532915844
0.6651981252
0.3346228222
0.4854287587
0.2240409563
0.4377579078
0.5161076503
0.3061771556
0.5690846787
0.1942516599
0.3319845011
0.737266527
0.272521555
0.1620097638
0.2326482827
0.4382061829
0.4040962956
0.3657007515
0.5646593948
0.1458842912
0.2916262421
0.4557421809
0.4727262876
0.3714566206
0.4670197133
0.6771535153
0.1661188043
0.1660264124
0.7309278033
0.285781024
0.2044151449
0.7669978697
0.3656363095
0.5502151684
0.1617680073
0.35391226
0.3706344999
0.2540485699
0.5649647731
0.1539224217
0.2271824436
0.6807593129
0.3916195507
0.2969163705
0.4505949861
0.3678430409
0.286807461
0.18017214
0.1322706417
0.711756575
0.2415031833
0.1782915647
0.2390491796
0.5353366704
0.3938504735
0.3574650103
0.5315580078
0.348992059
0.759739762
0.7454955385
0.5016254103
0.3670740139
0.3704029927
0.2237759184
0.2995605616
0.5699982583
0.3317331597
0.4402453996
0.273736782
0.3244285022
0.1641923421
0.8173758536
0.1048473136
0.6909089358
0.1936148091
0.4814227808
0.1872579983
0.4263419116
0.5843908054
0.58641564
0.1476658304
0.08391737263
0.5126920884
0.3993124237
0.2348338264
0.4031386728
0.365504764
0.2355811461
1.274896849
0.3407105609
0.4879067358
0.3784680922
0.447872608
0.3438652749
0.5489354362
0.5100007643
0.1924836908
0.1773313134
0.3286925934
0.1611966406
0.2661734211
0.3661298264
0.4412066003
0.4633456753
0.3973601992
0.5636578629
0.4925419373
0.2943670519
0.2104099417
0.3597951083
0.5299196195
0.4221656479
0.728797641
0.2048906553
0.4062742337
0.6863837132
0.5546602744
0.6676641498
0.4393865457
0.7147081757
0.5027213958
0.2056103586
0.5244652471
0.1250866625
0.4854486327
0.6457239838
0.4215713156
0.5657893063
0.2270831256
0.4781887057
0.8186189109
0.2685676357
)
;

boundaryField
{
    flow
    {
        type            zeroGradient;
    }
    obstacle
    {
        type            calculated;
        value           nonuniform List<scalar> 0();
    }
    frontAndBack
    {
        type            empty;
    }
    procBoundary2to0
    {
        type            processor;
        value           nonuniform List<scalar> 
31
(
0.2404679559
0.3238924465
0.5368129975
0.2592481085
0.5608415531
0.6427303662
0.4220558924
0.3734103816
0.4004779613
0.6503893948
0.5572834968
0.5493974476
0.5306648178
0.2712650433
0.2528599183
0.5395329525
0.1374383769
0.7460396286
0.7849939064
0.3870801981
0.2739352643
0.8243037519
0.3326679016
0.4714824088
0.5737571774
0.251976264
0.7832548222
0.3346791176
0.6406626701
0.2277262745
0.2277262745
)
;
    }
    procBoundary2to3
    {
        type            processor;
        value           nonuniform List<scalar> 
19
(
0.4730768122
0.02721183354
0.2694232039
0.3028467185
0.1649352216
0.1678792334
0.3830612488
0.5774399695
0.8078739832
0.5415944268
0.5230106747
0.3862916131
0.167067524
0.4082160957
0.5242132427
0.4647332218
0.8533162317
0.1780257011
0.4715456181
)
;
    }
}


// ************************************************************************* //
