/*--------------------------------*- C++ -*----------------------------------*\
| =========                 |                                                 |
| \\      /  F ield         | OpenFOAM: The Open Source CFD Toolbox           |
|  \\    /   O peration     | Version:  2406                                  |
|   \\  /    A nd           | Website:  www.openfoam.com                      |
|    \\/     M anipulation  |                                                 |
\*---------------------------------------------------------------------------*/
FoamFile
{
    version     2.0;
    format      ascii;
    arch        "LSB;label=32;scalar=64";
    class       volScalarField;
    location    "0.007";
    object      internalT;
}
// * * * * * * * * * * * * * * * * * * * * * * * * * * * * * * * * * * * * * //

dimensions      [1 2 -2 0 0 0 0];

internalField   nonuniform List<scalar> 
546
(
301.8383928
304.8035325
304.4156474
302.0740179
300.8090268
299.0433975
298.7787554
298.477343
298.2367106
297.834189
298.2063217
299.7935887
298.9854906
297.7660324
298.1717078
296.7199498
294.0463126
294.4246943
295.0569023
295.6775932
302.8325164
302.1781231
301.869259
301.9908168
301.0341387
299.5509161
299.0081893
298.2736811
297.9619822
298.3038829
297.0488874
293.9722842
297.1925866
297.1223637
298.4089519
299.2136347
301.9132149
302.9711712
301.181434
302.2902595
297.475255
298.7549278
298.4203964
297.4733377
301.6928994
303.3209632
304.7979494
303.9753144
303.3807973
301.3372471
300.1651864
300.0868894
299.3718164
298.5292497
297.8871198
300.2538231
299.4284438
301.5284107
304.3865175
303.5001922
298.4066765
298.0571119
299.077248
299.2562329
297.9754675
297.3008167
299.2105439
299.3510881
298.985553
299.0485157
300.9436887
302.0874369
303.094011
304.4446037
302.676604
300.5696217
300.337215
298.196146
298.7876504
297.6463035
301.6922556
301.9083877
302.7400629
303.2704872
302.3634227
303.1355118
300.8599864
299.2083028
301.885143
302.5872596
301.8687238
301.274597
299.048282
299.5074053
298.7043666
300.6548304
300.0668644
300.4318711
298.0298535
299.735671
300.9100615
301.6149475
300.6000685
302.2717513
301.8952734
302.465123
303.9602503
303.5979154
303.8828417
303.895082
301.0970684
301.3975269
300.4394689
301.7810386
298.9752102
298.2379713
298.3426908
299.7975464
299.0624061
299.9070805
298.7776551
299.1708359
298.9646566
300.2516937
301.5175459
299.7055661
301.8031698
301.6394926
299.7640714
298.2697181
301.9751483
301.4659505
301.3203996
301.2710684
301.5775825
300.9127919
298.6234963
298.6888654
300.9643476
302.2555697
300.9958965
302.0655088
300.9232307
301.3395416
302.6113828
302.5431581
301.2286224
298.6905601
298.8207876
298.7971796
299.0649013
299.147673
300.8859766
300.05167
299.8959522
300.2802009
300.4952301
300.7102674
299.1825272
299.122098
303.699316
305.4172376
305.2562664
303.807856
304.0782427
302.6430526
302.3336662
304.2382901
302.3724979
304.607591
302.5030418
303.463437
302.9136112
302.7869695
301.7823244
300.7260746
301.7966525
300.111518
302.2298264
300.4760265
301.0438063
300.7351591
299.4388736
298.8402597
297.3304056
296.8562421
297.8292655
299.612914
301.9604133
302.0080554
303.6157156
302.2206101
302.8742616
300.8879781
300.8661623
300.4314625
299.767137
301.2526129
299.2504985
298.2180038
297.0595423
298.0442701
299.8264207
301.7537292
301.3548122
302.142437
301.5822183
299.4493947
300.0508306
299.3184827
298.4073177
298.3967417
296.2075866
299.2614425
298.5144273
298.1169356
300.1590898
299.1541981
300.8714045
301.2283909
301.5416932
301.5200557
300.3358364
300.3227366
298.9776862
300.1631106
297.55467
299.6179515
297.575248
297.5060718
296.2614691
297.858452
298.1941932
298.7097305
298.782475
299.5817771
299.7411497
299.7788522
299.8782256
299.27641
298.65449
300.4258724
300.3843843
302.5411991
303.0842482
303.7252107
301.6149899
299.1378004
299.467008
298.3036469
301.265646
300.0947638
300.3212771
302.2488687
301.5394886
301.6220819
302.4964252
302.1775274
302.2782819
301.8099872
302.095698
301.0301615
302.5639142
300.1104742
300.9288551
301.1519312
302.2666531
304.3556612
303.7979554
302.8677564
300.1238067
300.3987549
299.4344846
297.3281111
298.4510104
298.4575902
295.5941949
299.1851032
299.3522144
300.0188994
304.3660552
304.8186545
304.0616655
305.3719165
304.7606493
305.2773961
305.9773635
303.7152664
302.4074185
303.633839
306.2618476
304.2827152
304.7483308
305.7857599
304.4641334
302.1028612
304.4457649
304.2869921
302.4535861
301.6196084
297.3008826
298.9624299
300.0933014
299.6495279
300.8948773
300.8459372
302.7390933
301.7712932
301.8743173
300.9868409
301.5755666
300.5541903
301.4580886
301.4760702
299.1975723
300.8043514
300.5142092
299.635115
296.517561
299.0962211
299.6234983
301.3655719
302.6433155
300.7703997
301.4148161
301.0415886
299.1086785
299.429592
300.2929193
298.7057727
298.7436914
298.1990899
298.5468549
299.141132
299.7725275
299.7814651
300.0274042
298.9422357
297.9737407
297.7139416
299.7479929
298.0382977
299.4089415
300.5679223
300.3933909
298.6111077
298.7584366
298.791388
297.8175078
295.8992936
296.4527473
296.9367745
296.3422579
294.2064568
293.1366388
291.7065225
293.8522344
294.5028916
293.8269922
297.1624225
304.0153388
303.9548903
304.5816785
303.0887478
302.8681569
301.7993273
295.6505078
297.4301763
298.1606309
298.8099667
298.2687514
299.6310174
299.5613512
300.2619363
300.259208
302.0915786
299.7939996
302.6918447
302.1273895
301.9500723
303.1079004
303.4715472
302.8330716
302.9676318
303.7050068
305.6119479
308.2301888
305.4496995
301.1920793
301.0197471
298.6502424
298.6824495
298.3705369
300.6389937
298.8295672
298.9275405
294.5713493
295.3590531
297.0864873
297.8495864
296.3095888
297.9669141
297.9252855
296.5836031
296.1719208
296.7134686
299.3352782
299.0278509
299.2812496
298.6761299
299.3290932
300.1281602
300.6234944
302.9551948
301.9840274
301.9520059
298.9218227
300.5211954
300.5263823
300.6988977
298.3301526
297.5514563
299.3988596
297.5922725
297.4732382
297.5326801
302.643245
300.6186585
298.7196618
297.8987813
299.1169392
301.2363466
298.259688
299.6668141
300.0169853
299.4638023
298.1759805
300.4353135
303.2729634
302.5690109
304.6082034
301.316421
304.6622898
302.7774166
301.3908077
301.2147505
301.8686448
300.4819781
300.5921884
300.0747172
297.9958109
299.2632351
300.5643916
300.4246651
300.5162721
301.9842005
298.5358591
299.2660421
299.3972723
301.3263819
300.1951538
300.9718537
299.2863634
299.7194359
299.3598036
297.8760583
302.1551774
300.3126698
300.0886118
300.7576869
300.4173357
299.261276
299.7352629
298.5932903
298.7114885
299.4300224
300.120424
301.3605412
299.9166533
300.3320145
299.7447534
301.6015149
302.9686468
302.9554465
303.1759052
305.3517088
300.5319784
300.264874
299.0332925
297.3472932
301.795734
300.7843542
303.1291914
305.0877777
304.9362178
302.2515239
299.7777163
301.067139
302.0996046
302.0254757
301.7626895
301.1946017
300.6926399
299.0639358
301.466233
303.4791399
299.514161
300.4013034
299.5204161
299.4066679
298.1546367
296.7815062
297.0621749
298.6659977
297.4196136
298.3528026
299.0475505
299.4203832
298.7771105
299.9171607
299.1806996
299.4249882
299.6878961
300.3531431
299.5288639
298.4573511
300.445944
299.5719453
297.2895703
297.0725549
297.5279341
297.6478299
298.7250957
301.2949992
300.8975931
299.9855851
296.5794716
297.281329
298.620474
299.1075793
298.4500772
298.0445188
297.5700908
295.3155185
298.7435381
298.6049688
)
;

boundaryField
{
    flow
    {
        type            calculated;
        value           nonuniform List<scalar> 
48
(
301.8383928
302.8325164
297.475255
298.4066765
301.6922556
300.9100615
298.7776551
300.9958965
303.699316
301.0438063
297.0595423
301.5416932
298.65449
302.095698
304.3660552
297.3008826
299.6234983
299.7479929
299.7479929
298.0382977
299.4089415
300.5679223
300.3933909
298.6111077
298.7584366
298.791388
297.8175078
295.8992936
296.4527473
296.9367745
296.3422579
294.2064568
293.1366388
291.7065225
293.8522344
294.5028916
293.8269922
297.1624225
296.5794716
297.281329
298.620474
299.1075793
298.4500772
298.0445188
297.5700908
295.3155185
298.7435381
298.6049688
)
;
    }
    obstacle
    {
        type            calculated;
        value           nonuniform List<scalar> 0();
    }
    frontAndBack
    {
        type            empty;
    }
    procBoundary2to0
    {
        type            processor;
        value           nonuniform List<scalar> 
31
(
300.5667696
299.9496321
300.1939248
302.1086521
302.9149618
303.2445395
303.4135081
302.99249
301.9130786
301.3276641
302.5709469
301.4078629
299.4272844
301.5973933
301.2639225
300.1460901
299.3302481
298.0870909
297.7030219
297.0739194
302.4353273
302.1192189
306.5188377
306.6310703
307.4942748
308.4825231
298.6830042
297.3353567
298.4025414
300.5061227
300.5061227
)
;
    }
    procBoundary2to3
    {
        type            processor;
        value           nonuniform List<scalar> 
19
(
304.1861269
302.1378799
304.6231471
301.34716
298.29109
300.1922517
296.7918022
302.5865242
301.0633319
301.6385144
298.2561733
300.6220517
303.0916172
301.7216866
302.8031178
296.8073432
298.202067
301.7333142
299.8132171
)
;
    }
}


// ************************************************************************* //
