/*--------------------------------*- C++ -*----------------------------------*\
| =========                 |                                                 |
| \\      /  F ield         | OpenFOAM: The Open Source CFD Toolbox           |
|  \\    /   O peration     | Version:  2406                                  |
|   \\  /    A nd           | Website:  www.openfoam.com                      |
|    \\/     M anipulation  |                                                 |
\*---------------------------------------------------------------------------*/
FoamFile
{
    version     2.0;
    format      ascii;
    arch        "LSB;label=32;scalar=64";
    class       volScalarField;
    location    "0.007";
    object      internalEMean;
}
// * * * * * * * * * * * * * * * * * * * * * * * * * * * * * * * * * * * * * //

dimensions      [1 -1 -2 0 0 0 0];

internalField   nonuniform List<scalar> 
546
(
0.3218315072
0.419204098
0.4231851042
0.4176217498
0.4158481664
0.4126947862
0.4119245281
0.4102582971
0.4081143046
0.4094354549
0.4115395798
0.4168828796
0.4138922411
0.4094151532
0.4110018523
0.4074526946
0.404795962
0.4035509817
0.4010599929
0.4025231472
0.3251058766
0.4153822748
0.4177726979
0.4191318904
0.4185337475
0.4161639529
0.4145132633
0.4134092469
0.4107617266
0.40972577
0.4087219787
0.4033173357
0.4100795311
0.408627784
0.4106178657
0.410999914
0.4158615063
0.4215006571
0.4207923879
0.421683409
0.3168860761
0.408737535
0.409652879
0.4078029034
0.4136494219
0.4175015159
0.4217382179
0.4205000677
0.4189423362
0.4192770192
0.4150690784
0.4161935735
0.4136030565
0.4119239183
0.4111602517
0.4145872548
0.4106307438
0.4144272282
0.4172676007
0.4152172369
0.3188957401
0.4115663038
0.4145475681
0.4114887002
0.4097031173
0.406723686
0.4099508789
0.4105861467
0.4126886522
0.4093849031
0.4155645395
0.417416925
0.4201276088
0.4196484534
0.4189770632
0.4143565425
0.4124322229
0.4092225423
0.4139620461
0.4128086999
0.3235843034
0.4173431538
0.4201220196
0.4218049467
0.4200092424
0.4205836265
0.4137557193
0.4124429932
0.4136525741
0.4104007448
0.4095377982
0.4078654107
0.4061536341
0.4088319353
0.4103371958
0.4147580812
0.4177559604
0.4178321627
0.4116266097
0.4132191955
0.3220283854
0.4140009878
0.4126820428
0.4153743873
0.4156135585
0.4167956708
0.4190182777
0.4183192383
0.42153312
0.4234227119
0.4220103847
0.4206238033
0.416238253
0.4170183459
0.4141604951
0.4148789623
0.4142034863
0.4134153395
0.4157064095
0.4177183116
0.3184821159
0.4096752545
0.4121808289
0.4161384507
0.416134007
0.4155169686
0.4184499187
0.4200693028
0.4144774725
0.4151681852
0.4191597649
0.4205954509
0.4229794511
0.4204473206
0.4200450299
0.4164984392
0.4154888715
0.4129539972
0.4152097924
0.4174754124
0.3217863898
0.4169895396
0.4189729258
0.4185869821
0.420826072
0.4206814813
0.419509491
0.4153122343
0.4171873454
0.4140120726
0.4145058832
0.4123594182
0.4137791016
0.4140369477
0.4142039888
0.4175225394
0.4161673733
0.4187752448
0.4191180715
0.4193406179
0.3259865253
0.4213404437
0.4198769145
0.4182091336
0.418631303
0.4133359269
0.4135095383
0.4186391747
0.4148048032
0.4224884074
0.4211724838
0.4230207546
0.4213583594
0.4203736919
0.418904511
0.4134603728
0.4160480915
0.413009952
0.4136530746
0.4103763025
0.3210090229
0.411545596
0.4113093023
0.4130405439
0.4077901754
0.409798352
0.4115697941
0.4153269731
0.4162738474
0.4133495432
0.4144273656
0.4132555862
0.4164885115
0.4146100111
0.4148024237
0.41491893
0.411686318
0.4122289625
0.408407494
0.4063490823
0.3190181293
0.4121362706
0.4147361188
0.4174144723
0.4174197401
0.4160407086
0.4167683827
0.4101059101
0.4130496963
0.4154475604
0.412246017
0.4127585094
0.4094748179
0.4126637683
0.4071086146
0.4078279345
0.4123479138
0.4146419385
0.4192097654
0.4209322404
0.320759523
0.4147377943
0.4142933482
0.4150155178
0.4114004577
0.4120081758
0.4099679689
0.4098198022
0.4067446136
0.4060267565
0.4028677031
0.4077679918
0.4078601245
0.4115348582
0.4150472669
0.4152345833
0.4182136919
0.4143624448
0.4158548993
0.4140244916
0.3196267832
0.4153801892
0.4175686816
0.4192121981
0.420126527
0.4201540902
0.4154878962
0.4135623862
0.4157644299
0.4128135516
0.4168259416
0.4163647581
0.4168147427
0.4178014013
0.4144300666
0.4167615182
0.4122906592
0.4144380279
0.4153709439
0.4130660546
0.3217087304
0.409166858
0.4154278472
0.4118249689
0.4140605885
0.414392271
0.4172547942
0.4208511731
0.4194809547
0.4201001539
0.4138282591
0.4109865149
0.4074039065
0.4054052377
0.4060903342
0.4080732616
0.4056761014
0.4100020566
0.4102064702
0.4117979047
0.3274273928
0.4207400607
0.4192705
0.4178782923
0.4191576393
0.4188400041
0.4205293963
0.4193293485
0.4161074286
0.4148512508
0.418630587
0.4175003039
0.4217822346
0.4211830681
0.422051791
0.4176368052
0.4188746382
0.4183061839
0.4180222597
0.4175510994
0.3164072089
0.4109250511
0.4148833802
0.4171995599
0.4206021625
0.4175676341
0.4165638073
0.4135585578
0.4147910401
0.4150306257
0.4154212002
0.4139278235
0.413835217
0.4152593741
0.4148249683
0.4167190584
0.417304726
0.4125020409
0.4069311562
0.4111212345
0.3221654879
0.4196259343
0.4235062035
0.4173886554
0.4143949231
0.4180494306
0.4185476951
0.4201038124
0.4196250258
0.4191619096
0.4175828816
0.4167971393
0.4191228722
0.4170447202
0.4160900795
0.4137749317
0.4148415772
0.412162198
0.4138748676
0.4124866823
0.3146279002
0.3999702295
0.4047861965
0.410575894
0.4096464308
0.4076820782
0.4089877969
0.4096343528
0.4084827075
0.4064108675
0.4103495734
0.4091898279
0.407530569
0.4045329799
0.4033148681
0.400843927
0.4031526325
0.4036823587
0.4041198517
0.4052403597
0.4232820044
0.4225314761
0.4242181519
0.4226993798
0.4231316849
0.4242557095
0.4043401894
0.4085587552
0.4123479705
0.4111468836
0.4131824753
0.417364898
0.4199816471
0.4217210054
0.4182690407
0.4198894922
0.4178674572
0.4226717136
0.4230618636
0.4224826173
0.4213376883
0.422144548
0.4217696956
0.4203530155
0.4232015737
0.4301791347
0.4230439601
0.41925763
0.4147527616
0.4127304469
0.4122426262
0.4106891231
0.4103855766
0.4156382806
0.414088225
0.4172249024
0.4102114073
0.4113289586
0.4109990492
0.415253522
0.4122895193
0.413686068
0.4118991289
0.4099545869
0.4072282905
0.4083608651
0.411946386
0.411237451
0.4116086087
0.4101833479
0.4117207118
0.4136377654
0.4173741685
0.424270754
0.4187622523
0.4186211546
0.415160649
0.4154991513
0.4168381608
0.4183020698
0.4192609485
0.4162335887
0.4150046738
0.4114905584
0.4137784144
0.4154218096
0.4193809545
0.4166446619
0.4132958923
0.4115105483
0.4109344688
0.4166565754
0.4141051715
0.4160457494
0.4138627247
0.4111069163
0.4192016145
0.4227881203
0.4242096563
0.418038304
0.4183494032
0.4129218305
0.417284446
0.4131806896
0.4103297378
0.4107850351
0.408774839
0.4063272902
0.4072427492
0.4063197157
0.4074239253
0.4090990506
0.4118784425
0.4084222031
0.4106330714
0.4145404146
0.4063293999
0.4118880069
0.4141583252
0.4181857471
0.4146041723
0.4156741117
0.4161867512
0.4164821476
0.4177472041
0.4106936415
0.4204360973
0.4166070143
0.4130701898
0.4149787575
0.4170628715
0.4161601062
0.4128038139
0.4120861065
0.4139506589
0.4166109716
0.4167387296
0.4173601446
0.4163559787
0.4150234433
0.4092815259
0.4116003625
0.4151470604
0.4177390127
0.4190136057
0.4227845209
0.4106321488
0.4118543153
0.4104801761
0.4101229945
0.4168787117
0.4178544688
0.4197453748
0.4219208863
0.4199305502
0.4152791175
0.4130001812
0.417916084
0.4184773072
0.4206813636
0.4218466762
0.4195300048
0.4174184607
0.4145872219
0.4161116929
0.4158593745
0.4131680373
0.4148844881
0.413852949
0.4124467699
0.4109645785
0.4069732366
0.4060575838
0.4099493978
0.4118750549
0.415426714
0.41086002
0.4113422763
0.4109901817
0.4128218031
0.4128987617
0.4128475777
0.4148642353
0.4149960089
0.4151748013
0.4142481826
0.414564871
0.4126572113
0.4092670288
0.4072058927
0.4082848707
0.4107275524
0.4133387953
0.4189454513
0.4192501798
0.4168173375
0.4070901056
0.406034377
0.4082534777
0.4115941525
0.4069065594
0.406847846
0.4062146037
0.4005174623
0.4019574542
0.4032778691
)
;

boundaryField
{
    flow
    {
        type            calculated;
        value           nonuniform List<scalar> 
48
(
0.3218315072
0.3251058766
0.3168860761
0.3188957401
0.3235843034
0.3220283854
0.3184821159
0.3217863898
0.3259865253
0.3210090229
0.3190181293
0.320759523
0.3196267832
0.3217087304
0.3274273928
0.3164072089
0.3221654879
0.3146279002
0.3146279002
0.3999702295
0.4047861965
0.410575894
0.4096464308
0.4076820782
0.4089877969
0.4096343528
0.4084827075
0.4064108675
0.4103495734
0.4091898279
0.407530569
0.4045329799
0.4033148681
0.400843927
0.4031526325
0.4036823587
0.4041198517
0.4052403597
0.4070901056
0.406034377
0.4082534777
0.4115941525
0.4069065594
0.406847846
0.4062146037
0.4005174623
0.4019574542
0.4032778691
)
;
    }
    obstacle
    {
        type            calculated;
        value           nonuniform List<scalar> 0();
    }
    frontAndBack
    {
        type            empty;
    }
    procBoundary2to0
    {
        type            processor;
        value           nonuniform List<scalar> 
31
(
0.3214634429
0.4111483399
0.4134069963
0.4125688352
0.4157978499
0.4145934175
0.4192243285
0.4211693531
0.4235881781
0.4222593104
0.4198251835
0.4161064492
0.4128555528
0.4179168159
0.4172938448
0.4148207305
0.4139145238
0.4119260826
0.4130830386
0.4122345243
0.4152369883
0.4130548187
0.4181802392
0.4204972706
0.4293667929
0.4301546604
0.4142502297
0.4105760505
0.4121836351
0.4171612077
0.4171612077
)
;
    }
    procBoundary2to3
    {
        type            processor;
        value           nonuniform List<scalar> 
19
(
0.4284301859
0.4223902781
0.4270238794
0.4222715568
0.4093176131
0.4145564023
0.4173196566
0.414154134
0.4101110852
0.4126296849
0.4127009565
0.4175309698
0.4208670439
0.4148394868
0.4183763057
0.4099213425
0.4180359347
0.4180463645
0.4030221547
)
;
    }
}


// ************************************************************************* //
