/*--------------------------------*- C++ -*----------------------------------*\
| =========                 |                                                 |
| \\      /  F ield         | OpenFOAM: The Open Source CFD Toolbox           |
|  \\    /   O peration     | Version:  2406                                  |
|   \\  /    A nd           | Website:  www.openfoam.com                      |
|    \\/     M anipulation  |                                                 |
\*---------------------------------------------------------------------------*/
FoamFile
{
    version     2.0;
    format      ascii;
    arch        "LSB;label=32;scalar=64";
    class       volScalarField;
    location    "0.007";
    object      linearKE;
}
// * * * * * * * * * * * * * * * * * * * * * * * * * * * * * * * * * * * * * //

dimensions      [1 -1 -2 0 0 0 0];

internalField   nonuniform List<scalar> 
546
(
5.028338767
5.401818409
8.152625352
8.9511902
7.199842668
9.645558891
5.79654484
7.175631525
12.22411852
12.47579901
10.37155647
5.541569574
5.592021929
5.822948723
8.17855005
12.33973975
7.914820042
9.54646
6.215066598
5.126442864
4.441159577
4.79253252
7.815807963
7.811056252
8.228554289
9.659215673
10.51346533
8.051385973
4.37221643
6.016068597
10.87350932
5.843983009
5.609787627
6.451858844
6.62827868
9.687961482
3.528812102
12.9563234
10.30422506
8.209390396
9.361716337
9.655983787
7.741866629
5.039532926
8.334581707
10.01810852
6.953755974
12.34575661
5.165775237
9.685941888
6.3765475
14.54537829
9.864981782
13.43699001
6.577864982
5.26192164
7.925477378
8.954079103
15.73797713
3.110505088
4.066583243
9.731431085
5.671860371
9.775067613
7.492372136
7.638292996
2.705654645
6.073111092
4.926372333
7.199439647
6.37846834
10.90736244
9.432797086
9.895505687
7.364100797
8.793810526
9.915516904
5.166055733
5.661066411
12.04328728
9.013399008
5.418942299
11.16022126
2.480143788
12.81073628
9.169513534
8.693482824
5.00213161
8.956616028
7.325013768
8.636918555
4.973825008
7.672143601
7.999333563
11.03429067
7.595916343
5.808373701
5.940194127
3.322231277
8.064394425
5.901571927
8.719687321
6.095647929
11.82966899
6.602086966
6.232583737
4.025951207
6.700257199
7.325304729
10.31063548
7.184461199
4.991281468
9.286406602
5.528908145
8.98890386
2.364798873
6.362901756
6.547587753
5.063493136
6.354216239
5.77659128
9.65102262
7.538611856
8.722211929
4.852230906
6.129681302
14.25782174
8.768948743
5.981607191
8.248283636
9.325401639
3.815448696
8.791230837
5.142377748
4.033412989
7.577283639
5.346329183
6.92015569
9.245068276
7.399293677
4.815355211
8.941527031
7.153861186
9.510127579
6.480102345
7.091313606
5.871052817
12.72522964
8.843159995
4.707449256
5.292134979
6.30742496
10.54790328
14.95741348
11.7500789
8.819701519
9.509055563
6.774549301
4.453285537
11.639632
6.95968361
6.22078904
9.04481703
8.519079229
7.381302505
6.946857096
5.408479049
11.00732934
4.315197529
10.86338204
4.226658137
7.887964362
8.380130297
6.865372336
6.097000278
10.33366193
8.680732016
3.351225085
9.61698402
6.804349427
3.128521616
8.979437399
9.740801509
8.474826738
11.32526799
10.22457699
7.318921012
6.951316335
6.833857892
9.149322726
8.924648675
7.516090634
6.063890016
9.97857088
8.617672225
8.592961418
8.368110198
10.82249244
8.493907026
8.089395952
6.160335853
11.90143796
4.470335217
5.817137746
4.864136658
4.611122151
4.096752202
7.627636343
8.903482179
7.726527246
12.38792324
8.904167823
6.650569944
11.19908543
6.854396851
6.922542381
8.408739382
9.271051104
12.40128924
9.276030719
5.95285562
6.742216747
10.02927449
6.820912249
14.10520039
7.676891386
10.00306476
9.188848739
7.737902585
8.200400203
2.552964918
10.44064256
7.828781221
6.527731171
6.986683467
5.489926307
12.89158736
7.490778889
14.903902
6.854342645
6.205197297
7.960208755
8.402054998
8.174698833
8.689957383
7.891758251
10.42975878
3.906050127
8.131833309
6.426558272
1.470358481
7.007435217
7.947160355
14.21446812
4.651460219
8.398960404
5.369937397
4.244310898
9.31017251
9.161236897
5.860468399
7.32773643
4.770902915
9.759903015
6.87628738
5.007753143
5.764178446
5.054002142
10.44618215
8.720963056
6.671271578
6.744467643
8.6735786
4.618868763
10.25146927
8.607405797
9.207227964
6.732878574
5.827549194
4.780008166
5.362565685
9.675356871
5.42731463
8.085577491
7.509442086
4.290979697
8.29977484
6.366460952
13.34145286
4.298755553
5.818830665
16.83949974
9.069512131
10.50016655
10.29597278
6.547099267
11.47325298
10.77263157
5.519613494
8.657476694
7.792609563
8.194263299
4.785351807
11.61625938
5.816872128
7.035475877
4.591118124
9.931440164
5.707675528
10.70722625
7.171326576
8.221228551
3.67892772
10.66774338
3.776604939
5.771758486
11.37026699
6.086473152
10.80036005
9.743586199
4.736604914
7.579497665
10.37373368
11.02685749
8.992568679
11.34105869
9.000877867
6.083599735
5.134255899
6.717438956
6.304344426
6.958604799
10.75012142
8.382068339
6.91076654
8.603139001
9.482432751
6.840753258
8.116954434
7.394250322
5.731488097
6.930947423
5.746848262
9.846946378
5.580550152
5.72375325
5.207526058
9.39339048
9.632987644
9.60688395
8.169306188
6.881575914
7.007283432
5.027508942
10.24288217
9.480319816
9.106623214
5.8454867
5.782745263
12.02136494
10.46402775
4.450186648
7.070882519
7.426190784
5.353180573
8.537079916
5.746499022
9.084738625
8.190392323
9.221706114
8.53057427
10.95007192
7.833455584
7.541635085
9.276908983
8.196720818
9.579864987
7.61664675
9.245264633
7.989846828
2.334605257
9.496367065
6.405175193
10.03573669
10.5056235
11.26971424
9.915000117
6.39914881
8.640251056
9.521132838
6.736621906
8.299417679
10.08795364
3.714353546
10.09070808
9.174248573
10.94689647
8.133415754
7.155996153
10.92243392
4.155499303
13.68832038
6.523502977
4.543195577
11.22590085
6.947398867
6.079822275
8.960524409
6.087300889
6.873245545
2.591638775
2.211259756
5.966459095
9.839189989
8.287706235
10.83869401
7.183527545
6.984654527
7.265373687
9.677413106
6.353711587
5.521642787
10.68295334
6.202764523
10.31196087
12.60597924
2.348641834
3.444323007
4.395205127
9.186302249
7.884861453
8.467546505
8.291364087
3.415801167
6.866041234
7.632674114
6.818179776
10.39473059
8.683967541
9.650484705
1.69178656
6.214847538
11.5512697
7.336284823
11.58289
13.9372073
10.20356276
10.11574752
3.239737825
5.351748463
5.861809177
4.582164247
9.607392321
7.354580766
5.392485745
12.07537569
9.985915041
9.308580166
8.982100484
9.850565118
5.180249131
4.528915771
5.584219287
12.06278329
5.034974271
3.029870314
7.023662616
10.33095518
7.938128174
8.281179037
14.34042794
5.311332134
9.846841385
9.906726732
7.503277013
7.19618232
6.614234548
7.807331804
5.496494345
9.921329396
9.382166001
7.321635156
6.162806687
6.384703575
6.744006998
11.22462965
6.459970535
8.437253982
5.843446432
8.837229963
6.113089878
8.594801596
12.58304516
9.976777044
4.264339992
3.261595355
6.217802389
7.979184717
6.534025433
6.928458727
10.56303313
6.77453645
17.03304471
7.023395391
9.626403408
5.646228204
8.686576431
7.64557225
9.036963331
12.02279375
2.21525317
6.917180817
10.06084581
5.104632662
9.0766007
5.507914572
10.16387769
8.083313737
5.27307671
7.734935593
11.12483432
8.231635201
5.497796092
5.839182577
7.395434036
5.927877706
14.88227967
3.20664905
6.137917275
10.27602347
7.053640323
8.90842321
5.51165952
8.53375981
7.092923791
3.069607927
12.99031206
7.914000049
9.7470794
11.89627298
4.185216686
4.908256149
6.77811627
9.132346209
9.022600958
5.29128305
)
;

boundaryField
{
    flow
    {
        type            zeroGradient;
    }
    obstacle
    {
        type            calculated;
        value           nonuniform List<scalar> 0();
    }
    frontAndBack
    {
        type            empty;
    }
    procBoundary2to0
    {
        type            processor;
        value           nonuniform List<scalar> 
31
(
5.745721637
9.773081928
8.612717371
7.439213526
13.48714944
8.043637681
6.699677589
6.53584695
5.822214374
11.46050539
14.04237052
10.47146194
10.48120789
7.806363445
8.884585969
12.13650168
5.744945939
10.95379912
8.187822518
6.76450613
5.665181758
13.05583542
8.275908481
9.803732456
11.48188579
5.624587454
7.335511735
12.08245091
7.852953792
6.75610056
6.75610056
)
;
    }
    procBoundary2to3
    {
        type            processor;
        value           nonuniform List<scalar> 
19
(
10.77907555
1.53045653
4.944061253
7.667741162
5.427760728
4.357151361
10.122944
12.16877031
7.790931969
10.38618732
13.65017428
5.753324998
7.493014704
6.261693278
9.264094775
9.481983156
14.33579927
5.64191226
9.409684033
)
;
    }
}


// ************************************************************************* //
