/*--------------------------------*- C++ -*----------------------------------*\
| =========                 |                                                 |
| \\      /  F ield         | OpenFOAM: The Open Source CFD Toolbox           |
|  \\    /   O peration     | Version:  2406                                  |
|   \\  /    A nd           | Website:  www.openfoam.com                      |
|    \\/     M anipulation  |                                                 |
\*---------------------------------------------------------------------------*/
FoamFile
{
    version     2.0;
    format      ascii;
    arch        "LSB;label=32;scalar=64";
    class       volScalarField;
    location    "0.007";
    object      linearKEMean;
}
// * * * * * * * * * * * * * * * * * * * * * * * * * * * * * * * * * * * * * //

dimensions      [1 -1 -2 0 0 0 0];

internalField   nonuniform List<scalar> 
546
(
5.870972828
7.874012336
7.870736335
7.813395514
7.829832515
7.828993489
7.824201945
7.802403867
7.784646988
7.830879952
7.861990325
7.936057451
7.909756995
7.838387375
7.850202928
7.823390409
7.840111765
7.81987125
7.76309836
7.767562886
5.925051724
7.933082526
7.913697359
7.920695989
7.908204036
7.883079295
7.882161576
7.87277624
7.831410199
7.80008882
7.82522278
7.805613969
7.845878979
7.842963195
7.846536914
7.827190378
7.848277059
7.913676176
7.941728302
7.935740002
5.873314874
7.875499126
7.83495421
7.812006677
7.845881014
7.888399762
7.912545907
7.91990391
7.904205312
7.933792309
7.88243506
7.895939578
7.835788029
7.836443682
7.846966665
7.858619453
7.807234639
7.825467921
7.814426827
7.795270279
5.898260908
7.966604083
7.916649829
7.85202892
7.858611305
7.819590529
7.823391339
7.829685071
7.872091827
7.813402016
7.888498275
7.90257405
7.940513523
7.877922789
7.909675972
7.873413686
7.840832307
7.827542778
7.896794946
7.907474683
5.930898512
7.958662937
7.897042116
7.892187651
7.893086142
7.86419827
7.802600655
7.833882259
7.790989045
7.719405577
7.746456935
7.724384948
7.754958732
7.788215264
7.82381743
7.853199039
7.921687912
7.91129184
7.848862782
7.830718695
5.899315655
7.897417819
7.817295203
7.821821032
7.829564831
7.844923358
7.844942489
7.840585893
7.883375782
7.923830288
7.95073256
7.911843256
7.85798331
7.851253483
7.878663806
7.905021554
7.887451827
7.831568875
7.887541381
7.928015798
5.864725258
7.873496029
7.841087006
7.888766481
7.858015151
7.884112999
7.887692741
7.937688061
7.878422269
7.908711092
7.90974729
7.931735118
7.976991814
7.937281924
7.906134499
7.859867514
7.887557539
7.850885019
7.826888707
7.842680911
5.896750016
7.943826432
7.922820293
7.902968745
7.904655894
7.913073936
7.917225706
7.896773284
7.931791795
7.884345553
7.878057452
7.828941438
7.8046985
7.837918522
7.848348731
7.887266889
7.879266339
7.919676354
7.946666155
7.95646816
5.901110374
7.915908457
7.800840557
7.797473326
7.796657797
7.73746251
7.758669223
7.815058083
7.791037181
7.875903381
7.892702596
7.915963096
7.901745561
7.891797861
7.895122477
7.808412758
7.821413106
7.802191595
7.777991411
7.774529076
5.870126594
7.866078195
7.813164366
7.876898174
7.82185938
7.849610508
7.862512285
7.875508713
7.846976276
7.798705399
7.757779699
7.775256496
7.808043321
7.821842569
7.827861456
7.846841418
7.800149471
7.757009401
7.741641629
7.745689866
5.922112903
7.974603311
7.903667586
7.889978947
7.904838999
7.834509272
7.856538692
7.800971009
7.831254189
7.867495131
7.838045243
7.850121165
7.831571474
7.824253618
7.750943885
7.775145641
7.823230177
7.896498105
7.948480143
7.969435688
5.869986199
7.918846396
7.853354482
7.867109269
7.842190841
7.82391305
7.847234132
7.800856838
7.808784111
7.790625928
7.770932663
7.818522524
7.832968624
7.888229529
7.938979996
7.912869868
7.941315921
7.862382772
7.884122638
7.84366873
5.915937198
7.96254106
7.904101596
7.88221162
7.88747209
7.882053621
7.855390673
7.873001471
7.894557191
7.883131165
7.867740159
7.898834184
7.904214656
7.869822265
7.821911177
7.855133156
7.758904438
7.804777846
7.825994516
7.788738986
5.85975752
7.844714972
7.829434467
7.809027929
7.826960452
7.80342708
7.836747689
7.825124248
7.848311629
7.883968025
7.830067467
7.762171533
7.720700551
7.716588218
7.709314521
7.756921057
7.795982037
7.789565098
7.806121075
7.803736742
5.893002838
7.876302264
7.788438975
7.747199357
7.783482226
7.760010615
7.795171463
7.82681439
7.794235611
7.734082718
7.716886081
7.756836257
7.825551082
7.800349469
7.848855499
7.826289459
7.798809791
7.78033047
7.834613211
7.85185533
5.853376007
7.894836542
7.86790776
7.92542318
7.950302986
7.903428145
7.817809698
7.789424363
7.835472569
7.85483809
7.871161029
7.84805564
7.820853967
7.831384655
7.877522109
7.867811353
7.896527691
7.811863502
7.787449915
7.80876846
5.91346437
8.022374137
7.97379341
7.904715273
7.845393705
7.915714607
7.968932051
8.011270469
7.934152003
7.977082167
7.933807894
7.946527908
7.982407951
7.921753671
7.907275047
7.850568023
7.874673759
7.851635467
7.91289375
7.886784328
5.789796242
7.71275915
7.681634294
7.743175688
7.741899845
7.763619161
7.766643936
7.776112695
7.770447846
7.784609117
7.838391902
7.801204885
7.797617856
7.805858414
7.806271693
7.800855576
7.779437713
7.767971522
7.81091121
7.760480732
7.913713965
7.894941086
7.909647491
7.920974345
7.936368394
7.993009047
7.795530891
7.846458826
7.906467027
7.842873458
7.887336643
7.929232737
7.976916083
7.996413763
7.937170838
7.93384203
7.936977475
7.941156059
7.942818518
7.951835886
7.900841092
7.909600355
7.938050798
7.899469395
7.941392041
7.988619201
7.807141761
7.8051949
7.835262783
7.817130854
7.861079731
7.829298776
7.832282575
7.868336723
7.88553738
7.927123948
7.937977563
7.947278251
7.887839253
7.924951681
7.914449105
7.87588892
7.840290982
7.837606328
7.787730363
7.788890376
7.81018128
7.80157587
7.809492797
7.815332758
7.846880916
7.853909607
7.896005261
7.961744308
7.879874926
7.879072554
7.9215044
7.884612664
7.907367718
7.887549313
7.961760962
7.911546336
7.861280002
7.853953559
7.913484333
7.911152569
7.837622247
7.83165809
7.818855462
7.826114668
7.786221425
7.850679909
7.885273843
7.891740223
7.846501393
7.835630859
7.976324074
7.994166266
7.964037252
7.852307796
7.818635008
7.794092423
7.788762397
7.764047234
7.747304648
7.728027747
7.698618482
7.675657121
7.720172037
7.705033102
7.761012436
7.768026013
7.750324258
7.689221621
7.747487042
7.78608768
7.755931348
7.837998606
7.856330871
7.874254171
7.831800641
7.852192714
7.905977921
7.909291687
7.933612929
7.840873261
7.920076886
7.889459417
7.844119407
7.879458802
7.92366329
7.927287775
7.850997181
7.861706654
7.881282384
7.915222663
7.885008078
7.875530703
7.877786893
7.847053571
7.751595121
7.748453379
7.793714563
7.834719543
7.863118468
7.886213937
7.76277562
7.779777266
7.800081508
7.822423637
7.849748922
7.892250688
7.860187138
7.855853378
7.82316281
7.804801872
7.855438577
7.898006756
7.87177062
7.90898567
7.924264321
7.895436474
7.870733625
7.87155458
7.838754958
7.791635819
7.830594229
7.834979809
7.839438437
7.826521916
7.846852211
7.809193231
7.77289153
7.816280593
7.844802162
7.888343829
7.794731427
7.798004398
7.814894846
7.814565878
7.837578799
7.815957017
7.848509811
7.815514113
7.850041945
7.854263474
7.818491486
7.794265546
7.800383374
7.774750435
7.780695176
7.825549424
7.85966002
7.893046854
7.921278177
7.903908859
7.821781584
7.797943685
7.806676696
7.856809181
7.793250956
7.794096371
7.803697418
7.743761821
7.670520135
7.708603245
)
;

boundaryField
{
    flow
    {
        type            calculated;
        value           nonuniform List<scalar> 
48
(
5.870972828
5.925051724
5.873314874
5.898260908
5.930898512
5.899315655
5.864725258
5.896750016
5.901110374
5.870126594
5.922112903
5.869986199
5.915937198
5.85975752
5.893002838
5.853376007
5.91346437
5.789796242
5.789796242
7.71275915
7.681634294
7.743175688
7.741899845
7.763619161
7.766643936
7.776112695
7.770447846
7.784609117
7.838391902
7.801204885
7.797617856
7.805858414
7.806271693
7.800855576
7.779437713
7.767971522
7.81091121
7.760480732
7.821781584
7.797943685
7.806676696
7.856809181
7.793250956
7.794096371
7.803697418
7.743761821
7.670520135
7.708603245
)
;
    }
    obstacle
    {
        type            calculated;
        value           nonuniform List<scalar> 0();
    }
    frontAndBack
    {
        type            empty;
    }
    procBoundary2to0
    {
        type            processor;
        value           nonuniform List<scalar> 
31
(
5.883044351
7.896869342
7.848191362
7.799965681
7.822471034
7.793245016
7.858627815
7.922635451
7.972066237
7.946010862
7.859855782
7.811195499
7.803711427
7.848155194
7.857976615
7.862490635
7.848152997
7.851825974
7.894550444
7.896545791
7.821500868
7.772919585
7.752174882
7.769813613
7.898140849
7.878669411
7.882161533
7.854837966
7.828399286
7.880584233
7.880584233
)
;
    }
    procBoundary2to3
    {
        type            processor;
        value           nonuniform List<scalar> 
19
(
7.996702928
7.963218617
7.975817462
7.953336045
7.766402839
7.85795651
7.986299729
7.808772522
7.713280458
7.757671567
7.87449504
7.894402101
7.896419387
7.791263438
7.870158299
7.837523195
7.940048562
7.88067973
7.651472077
)
;
    }
}


// ************************************************************************* //
