/*--------------------------------*- C++ -*----------------------------------*\
| =========                 |                                                 |
| \\      /  F ield         | OpenFOAM: The Open Source CFD Toolbox           |
|  \\    /   O peration     | Version:  2406                                  |
|   \\  /    A nd           | Website:  www.openfoam.com                      |
|    \\/     M anipulation  |                                                 |
\*---------------------------------------------------------------------------*/
FoamFile
{
    version     2.0;
    format      ascii;
    arch        "LSB;label=32;scalar=64";
    class       volVectorField;
    location    "0.007";
    object      momentum;
}
// * * * * * * * * * * * * * * * * * * * * * * * * * * * * * * * * * * * * * //

dimensions      [1 -2 -1 0 0 0 0];

internalField   nonuniform List<vector> 
546
(
(0.005700200145 0.0001128574321 0.0003635273645)
(0.005732377447 0.0004610307337 -8.55697306e-05)
(0.008703470746 -0.0007668177185 -0.0003431301644)
(0.009150378226 -0.0007751977723 -0.001035861714)
(0.007781695448 -0.0002627280141 0.0004940629493)
(0.01089460355 -0.0003116198911 -0.000331054775)
(0.005547767601 8.658099589e-05 -8.864275552e-05)
(0.007714047307 -0.0005877709861 0.0003817818551)
(0.012252313 0.000157292008 0.0001357444115)
(0.01313818938 -0.0002545450065 0.0009755204065)
(0.0105416027 0.0007163437464 8.659454173e-05)
(0.005595222518 5.138350355e-05 -0.0003078049396)
(0.006720398876 -0.0001400511263 -0.0001090731059)
(0.005631005188 0.0006779369704 -0.0009638480043)
(0.00876534002 -0.0007296605984 0.000424101717)
(0.01308458045 8.885758242e-05 -0.0002617840994)
(0.008530671741 0.0003121532484 0.0004199948775)
(0.009574791349 9.531749358e-05 0.0007888905751)
(0.007055304004 0.0005060029135 0.0002401297081)
(0.005315843817 0.0001392832822 -4.173841277e-05)
(0.004599411156 0.0001959696432 -0.0001665057249)
(0.004617837387 -0.0004306991925 -2.761799089e-05)
(0.008032206609 -0.0003864785263 0.0005245046955)
(0.008066793471 0.0002117697631 -0.000113911541)
(0.008739585562 -0.0004359378652 0.0005505999999)
(0.00987260659 -0.0004833363275 -0.0001957172207)
(0.0108227489 -0.0004684729335 0.0004038664044)
(0.008713424645 -2.589187074e-05 -0.000241660373)
(0.004559107081 0.000254443356 -9.978717018e-05)
(0.006857263248 8.055798666e-05 5.525236092e-05)
(0.01107539621 -0.0004908001428 0.0005280648047)
(0.00654763787 0.0001157998172 -0.000712056954)
(0.006032583435 -0.0002747492743 -0.0005977126311)
(0.007008760099 0.0007071110146 -4.512609492e-05)
(0.006715383229 -0.0001818402263 0.0003637850809)
(0.01007491372 -0.0002816366343 -0.0007285480633)
(0.004146292575 0.0002927426355 -0.0003376111352)
(0.01356917786 0.0002889405143 0.001415534393)
(0.01087242356 -0.0005747898358 0.0007387682873)
(0.008276838636 -0.000170336457 -0.0005046639144)
(0.009912905299 0.0008412988478 -0.0002251951684)
(0.009944188965 8.848805814e-06 0.0001890417588)
(0.008285362099 0.000107441273 0.0002641720674)
(0.005893468082 -5.888593303e-05 -2.002060326e-05)
(0.008737257713 -0.0006229503023 -0.0002748251419)
(0.01017515947 -0.0005757908375 -0.0004873750603)
(0.007147089222 0.0006623672668 0.0007826913618)
(0.01275506248 -0.0003164252384 -0.0001414907622)
(0.005889836248 5.597652014e-05 -5.157159862e-05)
(0.01007521008 9.931268305e-05 -2.073193011e-05)
(0.007302474005 0.0002151715911 -0.0008502028231)
(0.01386458273 8.223862885e-05 -5.081851109e-05)
(0.01034382635 -0.0004779422707 -0.0002314423755)
(0.01392590564 0.0003280937284 -0.0005469752858)
(0.007087596187 0.0004751148554 0.0002694641515)
(0.00574587227 -4.716628251e-05 -3.561106471e-05)
(0.008097882001 -0.0006388494503 0.0002807765255)
(0.00919906514 0.0003706057738 -0.0008135690751)
(0.01636411 0.0003496393481 -0.0006017676223)
(0.003855731455 -0.0003012786139 -4.249400526e-05)
(0.004830640781 -0.00025996345 -4.288109123e-08)
(0.01048497638 -0.0004645638073 -0.0001139164867)
(0.006232469859 -0.0001349469263 -5.947269265e-05)
(0.00993360439 4.276584265e-05 0.0006582212867)
(0.007990092469 -8.604358347e-05 -0.0003831522274)
(0.008411203608 -3.449040631e-06 -6.694659208e-05)
(0.003189768091 -0.0005128005164 -0.0002562282887)
(0.006965339394 0.0002611520858 0.0002388894848)
(0.005510001602 -0.0003244438046 -0.0003266552383)
(0.007251809953 -0.000788267082 -0.0006242921648)
(0.007221222948 -0.0003134751436 0.0004865205604)
(0.01096764288 0.0002626483392 0.0007723046976)
(0.0104388574 -0.0004371851266 0.0006598047481)
(0.01040002112 0.0007588585601 0.0002404276237)
(0.006958114005 0.0001666983997 0.0004304286177)
(0.009394409989 0.001112308388 0.0004114448551)
(0.0107864679 0.0005895734054 0.0006295036504)
(0.005828159231 -0.0002479848354 0.0002038950664)
(0.006310275296 7.916354652e-05 0.0007028808388)
(0.01215495336 0.0003549513079 -0.0009042177497)
(0.008864371694 -0.0002766219354 -5.03201269e-05)
(0.005505885781 5.364012928e-05 0.000167318041)
(0.01182813595 -0.0004505776975 -0.0007488028211)
(0.003033072764 -0.0002006402251 -0.0001271281168)
(0.01268940369 -0.0003984384671 7.136416161e-07)
(0.009902410897 0.0001858505003 -0.0004645745906)
(0.009113015652 -0.0006865333753 -4.981519608e-05)
(0.006103417643 -0.0003822196698 -0.0001968886476)
(0.009557531261 -0.0002861190637 0.0004188139395)
(0.008514051876 0.000348000569 -0.000433769624)
(0.008947583853 -0.0003840343902 -0.000222479935)
(0.005729793891 0.0001337006198 0.0001151509619)
(0.008165524767 0.0004735363164 -0.0001349891824)
(0.008904727583 -0.0003389622985 -9.458315758e-05)
(0.01194806759 0.0003652844468 -0.000157415192)
(0.008803837179 -0.0001183836704 -0.00079855095)
(0.0064663252 0.0002282878176 0.0003359151367)
(0.006337814418 0.0001855030482 0.0001114824912)
(0.003878157399 0.0002971895919 -0.0005083219125)
(0.00949045121 -0.0003181476138 0.0003206982597)
(0.006609146034 0.0006930832156 -0.00022646815)
(0.008932238666 -0.0003478143387 -0.001314363785)
(0.006790051778 1.164886719e-05 -0.0004510735067)
(0.0124040491 0.000309843107 -0.0007976427601)
(0.006965492566 -0.0002274525225 -7.364606976e-05)
(0.006629247662 1.974766636e-05 -0.0001144645521)
(0.004326484102 -0.0002671086615 2.323561072e-05)
(0.007100567023 -3.341835243e-05 0.00134635656)
(0.008286017501 -0.0006701665593 -9.672810762e-05)
(0.0112208476 -6.266373609e-05 6.572020954e-05)
(0.00721112479 -4.459251396e-05 -0.001346372801)
(0.005340076681 -0.0001613611866 0.0004320302746)
(0.01013416764 0.0003332129076 0.0007852240203)
(0.006513258824 0.0003873283629 -3.702034554e-05)
(0.009995033766 -0.0002357879071 -0.0004808135924)
(0.002935342406 -0.0006063096291 0.0003455100569)
(0.006835816982 -0.0009760767564 7.956217151e-05)
(0.007461918527 -9.314510719e-05 9.20324764e-05)
(0.005837950377 0.0002931071236 0.0001806008099)
(0.006549263023 0.0002327098047 0.0001935487586)
(0.006270306589 -0.0006918510101 -0.0002965059307)
(0.01019945863 0.0002322642215 -0.0007757379651)
(0.008086620827 -0.000536350985 0.0003923648188)
(0.009423208211 -0.0005361630092 -0.0003604995754)
(0.005215007813 -0.0001239481542 -0.0004888922102)
(0.006387069422 -0.00036341571 0.0002609750391)
(0.01562933458 8.538470271e-05 -0.0002267267123)
(0.009116296617 -3.945844461e-05 0.0002455134306)
(0.006571754692 4.861722776e-05 -0.0005485973441)
(0.00830646262 0.0007251515181 -7.760409189e-05)
(0.009679976857 -0.0001619995839 -0.0001100044343)
(0.004606901396 0.0003066099209 0.0001362220881)
(0.009110529199 0.000194366454 -0.0004315618779)
(0.005420508195 0.000368268572 -0.0001476830291)
(0.004783342623 -0.0003138975862 -9.342303307e-05)
(0.00875068182 0.0001529603872 0.0008092605224)
(0.006280179881 -0.0001469322126 -0.0001553004673)
(0.007587334605 0.0001270144544 -0.0001658780868)
(0.01018473654 0.0008649033555 0.0003239826936)
(0.007448441813 -0.0001657570661 2.657875717e-05)
(0.0055468803 -0.0005277370322 -0.0001264329647)
(0.009291841446 1.774601951e-05 0.0002220273915)
(0.007952462151 -0.0007094800679 -4.531549783e-05)
(0.01019593029 0.0008091026499 0.0002008776722)
(0.006883344025 -4.879514689e-05 -6.413110874e-05)
(0.007372267939 0.0001615308297 -0.0002069184492)
(0.006144590736 -0.0003064811425 -0.000674536106)
(0.01306813649 0.0002455331584 -0.0009161901412)
(0.008925369372 8.138806693e-05 -0.0001559861404)
(0.005039579111 -0.0002633105212 9.887456394e-05)
(0.005290868989 5.362437802e-07 -0.0001101438275)
(0.006843881987 0.0002719460654 -0.0004979782826)
(0.01102409407 0.0002618279286 6.939921005e-05)
(0.01548316132 -0.001054148559 9.87996279e-06)
(0.01152653529 0.0002023760241 6.133597871e-05)
(0.009018090812 -0.0001682005894 -0.0001430736832)
(0.009419554268 -0.0001565506063 5.162643295e-05)
(0.006596785136 -0.0006132799819 -8.209050038e-05)
(0.005360749088 -9.49256499e-05 0.0001939460144)
(0.01272105789 0.0007521844447 -0.0007987750005)
(0.007185165547 8.969761333e-05 -0.0002988376409)
(0.006395516735 -7.283328688e-05 -6.344189052e-05)
(0.009128291821 0.0004856893565 0.0006399777496)
(0.008452734881 -0.0002189811338 3.014358894e-05)
(0.008172068326 -0.0005865028028 -0.0004010104625)
(0.007270035457 -0.0001933265832 -0.0004508752367)
(0.006023220047 -5.443210663e-05 -0.0004685904003)
(0.01138358366 -0.0001861064176 0.001138482345)
(0.005160242022 -0.0004306563081 -4.338776602e-05)
(0.01136097154 -0.0009069830549 -0.001681251872)
(0.00460237379 -0.0003520753395 -0.0002693899428)
(0.008636886929 0.0009698773344 -0.0004649224087)
(0.009478941488 7.123866581e-05 -0.0007994207407)
(0.007042855698 -0.0006939729723 0.0001213915149)
(0.006933921743 -0.0007237113285 0.0004315303711)
(0.01052955801 0.001098359512 -0.0003445511049)
(0.008987077228 0.0003491520562 -0.0002019773912)
(0.00376343119 0.0006274115515 -0.0003667468537)
(0.009745552425 -0.0006786088555 9.294216132e-05)
(0.007897981926 -0.0001766713783 -0.0002408192165)
(0.004099117068 0.0003139146038 -2.615024815e-05)
(0.008710771081 8.972227166e-05 -3.296028098e-05)
(0.01007677689 -0.0006511166984 4.313370827e-05)
(0.008789866754 -0.001397371906 0.0002654128622)
(0.01187765059 0.000531310089 1.930522418e-05)
(0.01163496709 -0.0003175463182 0.0005726188069)
(0.007241543582 0.0002718522726 -0.0005947643618)
(0.007938181836 0.0002250047474 -0.0001154989512)
(0.00692615927 0.0002633209159 0.0001817623006)
(0.009777776272 -0.001173362579 -0.0003178690549)
(0.009192425207 -0.0002745604226 -0.0006560800753)
(0.008213935741 0.0003765425623 0.0001240309336)
(0.006563498022 3.609484103e-05 -0.000312688177)
(0.01036807667 -0.0003203967427 -7.955132084e-05)
(0.009428710698 -0.0004452773878 -0.0005883567042)
(0.009261117923 0.0005561095706 -0.0004725650979)
(0.008675161052 -0.0003417820048 -0.0001206056982)
(0.0110513721 -0.0009583198016 0.000205821529)
(0.008712215053 0.0001195739831 0.001030599315)
(0.008338439938 0.0001507907743 0.000648995506)
(0.006807191304 0.0006300136528 0.0001470053008)
(0.01240501874 8.520946752e-06 0.0004029235594)
(0.004471374468 0.0004305555596 0.0002074734889)
(0.006493400746 0.0002225330966 -0.0007132309262)
(0.004961542476 0.0002266941244 0.0004573852711)
(0.005374920106 -0.0005829748751 -5.420595777e-05)
(0.004304266849 0.0004197863873 0.0007734910087)
(0.008451195653 0.000415710952 0.0002335555178)
(0.009206324531 -0.0004731105462 -0.0002126643226)
(0.008556280247 -6.242765633e-05 -0.0003623675889)
(0.01357977922 0.0002592736278 5.687734253e-05)
(0.009706256167 4.130930415e-06 0.0003369322475)
(0.006810179582 -8.443139359e-05 -9.567654388e-05)
(0.01198921584 -4.048205931e-05 -0.0001403133817)
(0.007507468834 -0.0002920394919 0.0003598645898)
(0.007064990286 -8.362842785e-05 6.313462232e-05)
(0.008778978147 -0.0003703898615 -0.0001041517731)
(0.009792313156 -0.0001875542085 0.0006265205696)
(0.01294689871 0.0004351556894 -0.0003958739093)
(0.009504259985 0.0005106557483 -0.0003950423605)
(0.006287267642 -0.0003667735535 -0.0005097145032)
(0.007324184214 -0.0007104415939 4.236025212e-05)
(0.01052492035 4.151198895e-05 -0.0004647139089)
(0.006989475151 7.628992144e-05 -8.673057293e-05)
(0.01387368317 -0.0009188499926 -0.001215660117)
(0.007866689024 -0.0001895027063 -0.0003820265406)
(0.01154560442 5.479677834e-05 0.000303447617)
(0.009791691394 0.001009478451 -8.727804507e-05)
(0.008401478997 0.0003587995769 0.0005573827211)
(0.008335378822 -0.000159679561 0.0004215535888)
(0.002678793428 0.0001584375278 0.0002174067626)
(0.01121954951 0.0003164118573 -5.867379286e-05)
(0.007806148828 0.0001344163533 -0.0003799222686)
(0.006617218086 2.015217319e-05 -0.0004772421873)
(0.007205827699 0.0001936950911 -0.0003311172512)
(0.00640989181 0.0003522315407 -0.0003200123714)
(0.01353424415 5.742075948e-06 -0.0004202032017)
(0.008333050397 0.0003085621545 0.0002627990468)
(0.01550322429 0.001101285862 0.0007447692274)
(0.007216234017 0.0003551510048 -0.0007468289862)
(0.006664735024 0.0006662096492 0.0006384864633)
(0.008533048756 -0.0006052369441 0.000743881157)
(0.008492721506 -0.0004999520939 0.000212109976)
(0.008628463269 0.0005868433766 0.0004675636915)
(0.009498854917 -0.0003162069661 0.0003521439327)
(0.008578948217 0.000379388979 -0.0003201775377)
(0.01067788549 -2.489229992e-05 0.0003047389127)
(0.004711133553 -2.784014653e-05 -0.0001129511601)
(0.008636495792 0.0002252714713 0.0003626989522)
(0.007217707402 -0.0002932013238 -0.000323593113)
(0.001738842592 -4.84062493e-05 -0.0001014392162)
(0.007095985785 0.0004778809071 -0.0002714408541)
(0.007589398454 -0.0008716010033 -0.0004822039503)
(0.01315427147 0.0009758211816 0.0004418178095)
(0.005072359807 -0.0002051535438 -0.0004419621433)
(0.008986566155 0.0007900422473 -1.245292342e-05)
(0.005496111861 0.0004704736833 -0.0004595735207)
(0.00442657086 8.480188366e-05 -0.0006463641353)
(0.01006321526 7.098716201e-05 -0.000183913105)
(0.009143153914 5.990813713e-05 -0.0003056208145)
(0.006132453684 -0.0001678464784 0.0005830659306)
(0.007343972976 -4.467162895e-05 0.0001491794584)
(0.005014677648 -0.0002517220013 5.843994482e-05)
(0.01003079532 -0.0005334686289 -0.001136844354)
(0.007667703058 0.0006035988539 7.599385573e-05)
(0.005303717193 -0.0001544577378 -0.0002323086185)
(0.006152592461 -6.792702141e-05 0.0003196966087)
(0.005436013915 0.0001379851087 -0.0005144481967)
(0.01060411892 -9.547586253e-05 -0.0003463410305)
(0.008009808599 0.0006035743921 -0.001022523047)
(0.006957012798 -0.0004055594969 -0.0007917705841)
(0.00738481742 0.0006621802616 7.169022345e-05)
(0.009395943602 -0.0002935913899 -0.0001982631599)
(0.005294679146 3.924724578e-05 -2.706838078e-05)
(0.01012231962 0.0002435156581 -0.0006393705567)
(0.00898012125 0.0006232287087 0.0004535003531)
(0.01005201849 0.0006755770371 0.0005569697518)
(0.007184361966 -5.831457508e-05 -7.609535713e-06)
(0.006575458414 -0.000393867475 0.0002234501931)
(0.004677670733 -1.785620366e-05 -0.0001849560067)
(0.006323249233 0.0002186900375 -6.937095676e-05)
(0.01083342157 -0.0004103602956 3.364870192e-06)
(0.006173144389 0.0006397897536 0.0003802178084)
(0.008546677514 0.0003071319208 0.0001204207649)
(0.008863964394 -0.0005841328675 -8.329145333e-05)
(0.004858671823 0.0001489949502 -1.258926451e-05)
(0.008810933322 0.0003785263513 0.0009728475532)
(0.006573677256 -0.0005724061092 3.39502791e-05)
(0.01306181532 0.0006192537422 0.0009486639632)
(0.003979483302 0.0001119002612 -0.0003008692319)
(0.006196031672 -0.0001286709656 -6.784527743e-05)
(0.01721672223 -0.001537016693 -3.377334389e-06)
(0.009201756512 0.0003715870372 -0.0001570920176)
(0.01163477036 -0.0007509019331 0.0003120028021)
(0.01072015198 0.0007080030789 0.0002417636329)
(0.006617292886 0.0001592099932 0.0001460661655)
(0.01269967953 2.396930982e-05 -0.0008131189458)
(0.01162189204 0.0004845993635 -0.0002119173346)
(0.00586211394 3.287329499e-06 0.0001404827695)
(0.009835168422 0.0003561459327 -4.261731611e-05)
(0.008407521222 0.0003969994927 0.0008118592971)
(0.008806585576 0.0001663067987 0.0003455341592)
(0.005230616674 0.0002121803399 -0.0001077841132)
(0.01178356336 0.0004341754146 0.0001005506071)
(0.006073434791 0.0008594427428 0.0007747409386)
(0.007229440446 -0.0005847513181 0.0001916718791)
(0.00540629006 -9.157634297e-05 -0.0001631682716)
(0.01075657214 6.734060298e-05 0.0001400467501)
(0.0060333297 0.0004631200353 0.0004467173927)
(0.01139650706 0.0002899893466 0.0007981074827)
(0.007786973331 -3.197790353e-05 0.0008047587329)
(0.008794415355 0.0002542381804 0.0004575650377)
(0.00423499223 -0.0003048555875 -0.0002639590031)
(0.01009137034 -0.0001470026858 2.106857621e-07)
(0.004233211057 -0.000377781655 0.000314639735)
(0.006336361041 -0.0002890454755 -5.535356429e-05)
(0.0120221409 -0.0001600830083 0.001094708199)
(0.006395419747 0.0001435332958 -0.0002782471266)
(0.01125864756 -0.0005320554555 -0.0006286267029)
(0.009556279509 5.431044292e-05 -0.0006030289872)
(0.005175976594 0.0001106834434 -0.0002507844125)
(0.00744721273 -0.0002312235709 -0.0001193341736)
(0.01130580818 -0.0003611621411 0.0003231859836)
(0.01147716974 -0.0002349453663 -0.0002736489297)
(0.009972953567 -0.0002333292812 0.0005793659023)
(0.01258857873 0.0004063944197 -0.0003365224731)
(0.009270812674 -0.0002347079084 0.0007685336723)
(0.006803929713 0.0001956687363 0.0001539637524)
(0.005385300218 -0.0003971971989 -3.72257636e-05)
(0.007939064405 -0.0001707430168 0.0004062657281)
(0.006880700674 -0.0001131975667 0.0002362949531)
(0.00738858703 -0.001023477972 -0.0001251844937)
(0.01095363202 0.0002429265307 0.0007768370737)
(0.009263237695 1.970973481e-05 -0.000358649392)
(0.007153638813 -0.0001216638086 -3.769500381e-05)
(0.00860726983 0.0008399468713 0.0002015728191)
(0.009749734746 0.0002085936566 0.0006333328928)
(0.007511615478 -0.0004939038518 0.0004821585265)
(0.008218334119 -4.103373022e-05 5.342442143e-05)
(0.007756365612 0.0006398055515 0.0005160884492)
(0.00660008171 0.0004480388492 2.060746992e-06)
(0.007632355584 -0.0002093730588 -6.418567074e-05)
(0.006320481369 0.0002667067304 -0.0004938016073)
(0.0109823635 0.0001900290255 -0.0003549996478)
(0.006733322102 0.0002949950325 0.0002953036803)
(0.006066756053 0.0003801154063 -0.0006969910078)
(0.005663957625 0.0001157461504 0.0001813408236)
(0.009530326252 -4.539643007e-05 -1.003544376e-05)
(0.009729900412 0.00063614762 0.0007334144997)
(0.01008746773 -0.0003181249148 -9.024032947e-05)
(0.009283000566 -1.920723816e-05 -0.0001897913697)
(0.007860292021 0.0001491687563 0.0003774079734)
(0.006986620912 0.0002868833987 -0.0001914084131)
(0.005693076945 0.0001280732568 -0.0002117762976)
(0.01000103515 -0.0004129509809 6.223842017e-05)
(0.01020630058 -0.0001135835029 -4.532957072e-05)
(0.009231092253 -8.500509521e-05 -6.945555667e-05)
(0.007056865993 -0.0006175739484 0.0003862962515)
(0.005740265121 0.000254176062 -6.197536192e-05)
(0.01299447619 -0.0002818845553 -9.371293152e-05)
(0.01094897299 -8.301268835e-05 -0.0003053161885)
(0.005184352826 0.0007239413803 8.939769815e-05)
(0.007416465044 0.0003244960042 -0.0002904212692)
(0.008148384375 0.0003474357542 -0.0004037501433)
(0.00576189931 0.0001594460156 -0.0004485622047)
(0.009062745228 0.0006413758596 0.0006785785258)
(0.006236625608 -5.214817062e-05 -2.209187319e-05)
(0.009565328415 0.0004394858413 -0.0005121248377)
(0.008314655649 -9.280659037e-05 7.479881477e-05)
(0.009819721033 -0.0002488973706 3.762978098e-05)
(0.009843676332 -0.0005721967108 0.0001840396591)
(0.01248397265 0.001061725137 0.0008724098315)
(0.008480731187 -9.169853533e-05 -0.0005460453141)
(0.00824601685 5.201736217e-06 -0.0001109456287)
(0.01009578086 -0.0007028418058 -0.0006104176658)
(0.007572206167 -0.0004562303877 -0.0003604128823)
(0.01083695693 -0.0003136392166 0.0003386208348)
(0.008545533866 0.0002746971539 0.0001862575575)
(0.00972085196 -6.185488797e-05 0.0002098263481)
(0.008176233477 0.0004368429782 0.0007276103796)
(0.002664655563 -7.130892296e-05 -0.0001478556394)
(0.009692824176 -0.0005636184765 0.0001018020072)
(0.007070741799 0.0005807577628 -0.0004364510169)
(0.01086214749 0.0001145045226 -0.0005374952489)
(0.01069339665 -0.0001778409195 -2.140926805e-05)
(0.01163412271 0.0001382334922 -8.919612478e-06)
(0.01048339433 0.0002676483407 0.0008761515783)
(0.006951800733 0.0002026481667 -0.000178424075)
(0.01066159203 0.0001425754112 -0.0006152228474)
(0.01068847302 0.0001576868323 5.833136679e-05)
(0.006639155194 -4.183742116e-05 -0.0004514800761)
(0.008921736964 0.0001748905263 0.0005632953378)
(0.011252457 0.0002178606141 8.643533005e-05)
(0.004234933564 -8.084508277e-05 -0.0001243376578)
(0.01032795836 0.0007240980272 -0.0006211391674)
(0.01016505254 0.0003913580646 0.0005068662777)
(0.01192865956 -0.001269459814 -0.0006346582878)
(0.008407158925 -0.0005024558977 7.599473137e-05)
(0.007383875225 -0.0004069485605 -0.0003428470564)
(0.0113204573 0.0007811231907 -0.0006327696196)
(0.004776244178 0.0004371708338 7.447401541e-05)
(0.01383042014 -0.0009686255972 -7.287872157e-05)
(0.006597045951 -8.884562414e-05 -3.455956489e-05)
(0.004650280283 -0.0001702676727 -0.000173716298)
(0.0117507232 -0.0003957700429 -0.0009066264627)
(0.007896222737 9.093395669e-05 -0.0003818696406)
(0.006200175689 -0.0001888957566 -2.97859095e-05)
(0.009028267631 -0.0006428556904 -0.0001542048794)
(0.00633674728 0.0001090434553 -0.0002084532937)
(0.007164985304 -0.0002293174633 0.001036414528)
(0.002776470695 -0.0004854126251 0.0001715534406)
(0.002471165898 -7.849134873e-05 0.0003220255372)
(0.006851166719 -5.309514888e-05 0.0001712548959)
(0.01037262488 4.303754517e-05 0.0003469222848)
(0.009000187009 -0.0003919562754 -0.0006234514231)
(0.01098357436 0.0007780344682 0.0001778432495)
(0.007690572182 0.000219038278 -0.000103822765)
(0.007741512759 -0.0003866920775 0.0003627565009)
(0.007319801325 0.0004435757189 -0.0007031513721)
(0.009731800062 -0.0003091474894 -0.0002789277432)
(0.006370892434 0.0001498143463 -0.0004159799872)
(0.006114406287 -0.001081688493 -0.0008040469954)
(0.01142713838 0.001047844772 -0.0008219154515)
(0.006623528236 0.0001380898173 -0.0002293307457)
(0.01057835745 6.783024126e-05 -0.0004414703423)
(0.0125532447 -0.0005114463976 0.001073695509)
(0.002894927186 0.0001722916789 0.000201312654)
(0.00406187986 -0.0001039697153 -0.0003833189466)
(0.004626920724 -4.169711085e-05 -0.0001090008973)
(0.00931947417 0.0001843015572 -0.000575876296)
(0.007711616148 2.090625076e-05 0.0001622285333)
(0.009507211727 -0.0001793151604 0.000366584968)
(0.00970687354 -0.0006912737548 -0.000178666971)
(0.003613613 0.0001778147008 0.0002220645995)
(0.006903948511 -0.000611413468 0.0002991343246)
(0.008871800897 -0.0006857739882 -0.0003123439375)
(0.007889335511 0.0002852377752 -0.0007000832972)
(0.01073242691 0.000676556985 0.0003600078363)
(0.008428273743 -0.0005311670298 0.001474216134)
(0.009604755961 0.0003347418956 0.0001427989305)
(0.001863934007 7.69442619e-05 8.995075255e-05)
(0.006815997685 0.0001240193512 9.040028123e-05)
(0.01264503219 8.735220592e-05 0.0002674020825)
(0.008257631449 -0.000106773761 0.0001755575937)
(0.01122733236 -8.358515457e-05 -0.0006220386445)
(0.01367287721 -0.0007421975817 0.0008175437765)
(0.01025179452 0.001028243414 0.0009470487734)
(0.01057018665 -0.001177955217 -1.914526474e-05)
(0.00338219225 0.0001553316067 0.0002562268335)
(0.006045796799 -0.0002676977182 0.0005015333103)
(0.006303381314 0.0002391932118 0.000302642695)
(0.005460885348 -0.0003909936834 0.0007460917926)
(0.009961325422 0.0001325469431 -0.0007003419747)
(0.007817748469 -0.0006318231062 -0.0001992762693)
(0.005001646504 -0.0004586595302 -0.0001065520292)
(0.01283636873 -0.0001674807419 0.0006243971702)
(0.01050758212 0.0008773692451 -0.000888977214)
(0.009254101367 0.0001771089899 0.0006468107956)
(0.009287564301 0.0001064600135 0.0001376863016)
(0.0104347959 0.0002729077701 0.0001617165267)
(0.005410498299 0.0001233105061 0.0007734838482)
(0.004712714563 0.0004697985537 0.0003744081601)
(0.005692445542 -0.0002050391947 -0.0001031586055)
(0.01224714353 0.0001807923412 6.279827624e-05)
(0.005694705676 -7.92556266e-06 -0.0009501881243)
(0.002940374595 0.0007738767156 -0.000190290019)
(0.007262921443 -3.482521408e-06 -1.003058002e-05)
(0.01093240303 -0.0007665420069 0.0008545159977)
(0.00811019251 0.0001408512302 -0.0003873743576)
(0.00832875132 -0.0005679606277 0.0007139737104)
(0.0145828815 0.0002292464305 -0.000649646317)
(0.005941427287 0.0002242365612 -0.000559868239)
(0.01072859309 -0.001683716652 -0.000536195186)
(0.01073850284 -0.0008557455245 0.001045787396)
(0.008085136037 -0.0006064669393 0.0006947311967)
(0.007491619732 -0.0004642248433 0.0002147349011)
(0.006672864332 -0.0002299390595 0.0002653106394)
(0.008086884581 6.948226041e-05 0.0003358124323)
(0.00594027747 0.0002956881341 -0.0001427697537)
(0.009944817679 -0.000676365778 -0.0007944257188)
(0.009089731669 6.301947299e-05 -0.0001404043388)
(0.008046541073 0.0007940329249 0.0001403287981)
(0.006136008981 -0.0002940830526 -0.0007273672075)
(0.006937998957 -0.0004837539323 0.0008260413628)
(0.007286572915 5.95959031e-05 0.00069802188)
(0.01183549544 0.0003676593332 5.470708216e-05)
(0.006969924122 0.0003895898769 -0.0004124587932)
(0.009419468449 5.264288228e-05 0.0003363724702)
(0.005661972354 7.564326707e-05 9.908668405e-05)
(0.009398927169 0.0001863946703 0.000153116058)
(0.006549812162 -0.0002711651088 0.0001976373962)
(0.009012780969 0.0004352188017 9.009215335e-05)
(0.01224230584 0.0005501510883 -0.0002299754632)
(0.01041254487 -4.226603626e-05 -2.387890939e-05)
(0.004210499072 0.0001062066844 0.0002509639102)
(0.003602775094 -0.0001940001505 0.0001952372121)
(0.00641401155 0.0001064364879 0.0003846464197)
(0.009159308256 0.0001630062246 -7.164966409e-06)
(0.007096920961 0.0006337576302 -6.481083437e-05)
(0.00735918551 -0.0002728256369 -0.0003092540984)
(0.01166219129 0.0006604015275 -0.0003132318075)
(0.00718103401 0.0001824830972 -0.0005592893329)
(0.01797822155 -0.0006924757365 0.0009534482491)
(0.007318526319 0.0003071850323 0.0004335177561)
(0.01014018881 0.0004788284335 -0.000752600687)
(0.006327873768 5.227103076e-06 0.0006990031218)
(0.009460636455 -0.0004105408357 0.000489791336)
(0.008607779084 0.000262070657 0.0003817397535)
(0.009086648357 -0.0004333119388 0.001299739821)
(0.01194016639 -1.403478245e-05 0.001861237582)
(0.002473790517 2.957026665e-05 6.421915993e-05)
(0.007338221393 0.0001436554609 0.0005455170302)
(0.00982126036 0.0003964797915 -0.0002428998221)
(0.006103315258 -5.896569341e-05 7.443308714e-05)
(0.008999814221 6.41084291e-05 -0.0001844474055)
(0.006074795457 -0.000152745491 0.0001298256749)
(0.01122701755 -0.0005811686886 0.0002663379129)
(0.009177657773 -0.0002038971207 -1.991394932e-05)
(0.006280705924 0.0002744504589 -1.44153075e-05)
(0.007671501674 -0.0007800055885 -0.0003412179948)
(0.01227548361 0.0006556483006 0.0002084740331)
(0.008755035681 -0.0001970786437 0.0003865969061)
(0.005557043881 0.0006470878181 -0.000393110801)
(0.007184644427 0.0006899180157 -0.0004056339616)
(0.008082585864 0.001182504418 -0.0001506574842)
(0.006865286116 -0.0004426669925 -0.0002615471422)
(0.01506943101 0.0007842801008 0.000269173382)
(0.003803980571 -0.000789028352 -0.0002717923377)
(0.006480715288 -0.0002054065636 -0.000102213371)
(0.01121796732 0.0003841958008 0.0002307311079)
(0.007943088822 -8.353944806e-05 0.0005365739942)
(0.01030082332 -0.0001487690462 -0.0004186181629)
(0.005827772605 0.0002568169948 0.000106108843)
(0.008961999138 -0.0003934275357 -0.0004831843339)
(0.007042269211 -0.0003531237913 0.0002287635251)
(0.003526339301 -0.0001115215948 -0.0001258458003)
(0.01342971677 6.854661458e-05 -0.0004468210209)
(0.008270329848 6.166220177e-05 8.523632645e-06)
(0.01088204754 0.0006958487228 0.0005222018345)
(0.01298514585 3.836434689e-05 -0.0006444124694)
(0.004974201595 0.000314149312 0.0001040415659)
(0.005798990844 -0.0002130783254 0.0001149433303)
(0.007215204706 -3.056861165e-05 -5.13142297e-05)
(0.009902053439 0.0001433938614 -4.439078127e-05)
(0.010162106 0.00070377318 -0.0005918999389)
(0.005234469711 7.442327564e-05 0.000177719586)
)
;

boundaryField
{
    flow
    {
        type            zeroGradient;
    }
    obstacle
    {
        type            calculated;
        value           nonuniform List<vector> 0();
    }
    frontAndBack
    {
        type            empty;
    }
    procBoundary2to0
    {
        type            processor;
        value           nonuniform List<vector> 
31
(
(0.00595733531 0.000251184637 -0.0006116118188)
(0.009684532988 -0.0002691746831 -3.582411105e-06)
(0.008788032525 -0.0009256347757 -4.857394862e-05)
(0.007822430163 -0.0004773032711 0.0005478482028)
(0.01381956397 -0.0001532870629 0.0002946344833)
(0.008456215411 0.0003337562507 -0.0002970707895)
(0.007131247529 -0.0002034962508 5.263528929e-05)
(0.006544253962 -1.96678704e-05 0.0002039459454)
(0.005705566107 0.0001967678976 -6.97746098e-05)
(0.01221608608 0.0005748583024 0.0004025780542)
(0.0135277013 0.0002087318921 -0.0003066520972)
(0.01124354001 0.0003409215092 -0.000170375701)
(0.0102949208 0.0005479031779 0.0002674899046)
(0.008124531074 8.668906721e-05 0.0004483240645)
(0.00873760261 -0.0002484498341 -0.0002095264537)
(0.01310728345 0.0004780604715 0.0003552248493)
(0.005629809107 -0.0003204464305 -0.0003120072275)
(0.01189144392 -1.488965027e-05 -0.0002056503011)
(0.008617621579 -0.0007764191102 -0.0007608298307)
(0.007351917731 -0.0005365712547 -0.0002532290648)
(0.005701054877 -0.0004993845995 -0.0002850494545)
(0.01477103782 -0.0002766203498 -0.0005751761725)
(0.008725754628 0.0003546942427 -0.001206348512)
(0.01017971469 0.0005130548919 0.0001946457049)
(0.01176257621 4.878593468e-05 -0.0001785851911)
(0.005273070354 -0.0002435847973 -0.0001080263689)
(0.008640152681 0.0003142071726 0.0006554809812)
(0.01259653643 0.0004397940667 -0.001063326145)
(0.007648341392 0.0002336319515 -0.0003211818448)
(0.006743017475 -0.0004846031787 -0.0002481878415)
(0.006743017475 -0.0004846031787 -0.0002481878415)
)
;
    }
    procBoundary2to3
    {
        type            processor;
        value           nonuniform List<vector> 
19
(
(0.01161995001 0.00101878134 -0.0004271733207)