/*--------------------------------*- C++ -*----------------------------------*\
| =========                 |                                                 |
| \\      /  F ield         | OpenFOAM: The Open Source CFD Toolbox           |
|  \\    /   O peration     | Version:  2406                                  |
|   \\  /    A nd           | Website:  www.openfoam.com                      |
|    \\/     M anipulation  |                                                 |
\*---------------------------------------------------------------------------*/
FoamFile
{
    version     2.0;
    format      ascii;
    arch        "LSB;label=32;scalar=64";
    class       volVectorField;
    location    "0.007";
    object      momentumMean;
}
// * * * * * * * * * * * * * * * * * * * * * * * * * * * * * * * * * * * * * //

dimensions      [1 -2 -1 0 0 0 0];

internalField   nonuniform List<vector> 
546
(
(0.00633448052 2.753190885e-06 -1.604583313e-06)
(0.008323017666 7.466314071e-06 -1.523402182e-08)
(0.008369512587 1.377527792e-05 5.996292463e-06)
(0.008313102231 1.45638294e-05 4.141972811e-06)
(0.008322577936 -4.210957317e-06 3.357183291e-06)
(0.00831718961 -8.947823114e-06 5.728609287e-06)
(0.008308118656 5.870024854e-07 8.052566273e-06)
(0.008281697309 -2.293718232e-06 3.6938813e-07)
(0.008254929748 -8.930217956e-06 -2.476919678e-06)
(0.008300388351 -8.10654881e-06 -1.16452717e-05)
(0.008329014004 -8.835844498e-06 -2.422038356e-05)
(0.00840148947 9.622144055e-06 -1.281947688e-05)
(0.008369763775 1.053003521e-05 -7.752205457e-06)
(0.008305114376 1.894453695e-05 -1.780562664e-06)
(0.008322429395 1.557637527e-05 7.226007249e-06)
(0.008293066921 9.335778687e-06 -5.638067681e-06)
(0.00831188679 -1.98326695e-06 -1.517795774e-05)
(0.008283999854 -3.834473582e-06 -7.317963184e-06)
(0.008220516857 6.903271421e-06 -9.937972443e-06)
(0.008225686952 1.316756945e-05 -1.515739148e-05)
(0.006382090116 3.706809275e-06 9.551207312e-06)
(0.008353783121 2.27151026e-07 1.541323797e-05)
(0.008377707814 8.92464156e-06 1.893033791e-05)
(0.008391620694 5.691860447e-07 9.348438528e-06)
(0.008389706114 6.102358192e-06 5.362783975e-06)
(0.008373018269 6.065675903e-06 -6.362162471e-08)
(0.008363206291 -1.209573464e-05 -1.798244513e-06)
(0.008357296417 -1.692952883e-05 -9.957815239e-06)
(0.008312032136 -1.255611828e-05 -5.859059544e-06)
(0.008279191174 -1.483900538e-07 2.229047604e-06)
(0.008302586281 9.158896781e-06 1.086602248e-06)
(0.008278437191 2.035460566e-06 -5.336129746e-06)
(0.00832146844 1.893918769e-06 -1.338273916e-05)
(0.008306640033 1.977387292e-06 -1.226067069e-05)
(0.008312201972 1.278378121e-05 -1.076618683e-05)
(0.008296821337 1.092177625e-05 5.780741682e-06)
(0.008320885322 7.923637017e-06 6.757516259e-06)
(0.008395007056 2.075820519e-05 -6.983320986e-07)
(0.008429319695 1.161105574e-05 6.679538056e-06)
(0.008424109337 9.032338077e-06 9.851244187e-06)
(0.006327703004 9.41278894e-06 -1.594616274e-05)
(0.008300242595 9.247082617e-06 -2.338235919e-05)
(0.008300544423 -1.139399717e-05 -7.617571644e-06)
(0.008281979162 -1.71031477e-05 -1.456533039e-06)
(0.008302706623 -1.395421152e-05 1.153746663e-05)
(0.008339848725 -1.403624546e-05 1.251346935e-05)
(0.008373800319 1.078229246e-05 5.440464393e-06)
(0.008377833702 2.277777937e-05 9.28789186e-06)
(0.008363709085 2.326937979e-05 1.803970325e-06)
(0.00840892833 1.237228062e-05 -2.607963782e-06)
(0.008358216554 1.165707017e-05 -7.365487845e-06)
(0.008375640677 1.176842835e-05 -1.80904811e-06)
(0.008328715131 5.416203468e-06 6.750143497e-06)
(0.008324631916 6.404400097e-07 5.962947699e-06)
(0.008330668695 -2.2992114e-06 5.311534179e-06)
(0.008338636662 3.892774047e-06 1.097929144e-06)
(0.008283591504 7.409682696e-06 -2.559662589e-06)
(0.008302421608 1.483879907e-07 2.034789212e-06)
(0.008285545911 5.107090155e-06 4.77189954e-06)
(0.00826478433 -1.374451805e-05 -8.105011222e-06)
(0.006351427922 -1.325207663e-06 -1.092235469e-06)
(0.008387181767 -6.083255912e-06 3.595876202e-06)
(0.00838165723 3.663498716e-06 -9.976462502e-06)
(0.00831651361 6.007231756e-06 -1.153593123e-05)
(0.008324110875 -1.87354346e-06 -3.069670531e-06)
(0.008282263823 3.726571624e-06 9.298715526e-06)
(0.008290023714 -1.437618722e-05 7.429480442e-06)
(0.008298636554 -1.376657817e-05 3.982094263e-06)
(0.008347417451 -7.094293854e-06 6.080139342e-06)
(0.008283103446 2.720239743e-06 5.437598953e-06)
(0.008357438676 -6.565593405e-06 9.365387607e-06)
(0.008366632269 1.76475472e-06 1.886024526e-05)
(0.008400084101 1.809406596e-05 4.905693234e-06)
(0.008341647478 2.63657888e-05 1.093192438e-05)
(0.008373907022 2.060308047e-05 1.285101082e-05)
(0.008336409284 9.972323872e-06 9.513244352e-06)
(0.008303787285 7.964228193e-06 1.34593515e-05)
(0.008289930229 -2.142935067e-06 7.720212951e-06)
(0.00836488348 -7.338909494e-06 8.721894022e-07)
(0.008378168491 -1.113801425e-05 1.24348068e-05)
(0.006384739902 -8.127307427e-06 -5.660088358e-06)
(0.00838888429 -8.342937888e-07 -5.867478995e-06)
(0.008373920843 4.520514603e-06 -4.030067423e-06)
(0.008377774337 6.570302435e-06 -1.224194807e-05)
(0.008373571133 1.321861065e-05 -1.895470504e-05)
(0.008353878931 1.969320801e-05 -2.135111648e-05)
(0.008285373365 1.848326562e-05 -1.477029039e-05)
(0.00831330602 1.553618632e-05 8.311545082e-07)
(0.008264699328 -4.012030119e-06 -3.00968169e-06)
(0.008186817008 -4.226459189e-06 1.808704032e-06)
(0.008205289307 1.485711145e-05 -2.940731754e-06)
(0.00818564383 1.49479291e-07 1.016350185e-06)
(0.008210951375 -3.81345442e-06 5.194302164e-06)
(0.008248387182 -4.119720511e-06 -2.430568277e-06)
(0.008293020079 -5.763254192e-07 -1.108333327e-05)
(0.008323813083 -4.497939609e-06 -6.9891635e-06)
(0.008397287314 -9.513442463e-06 -1.430653702e-06)
(0.008388397492 -1.284822322e-05 3.023366275e-06)
(0.008327799891 -1.082471345e-05 4.00902442e-06)
(0.008308964451 1.319266777e-06 3.256432725e-06)
(0.006356054759 4.499017042e-06 3.210243586e-06)
(0.008323196109 1.378885446e-05 2.169537415e-06)
(0.008292020144 1.320433303e-05 4.250330573e-06)
(0.008298386788 2.197415395e-05 1.791644281e-05)
(0.008307916534 1.395035568e-05 2.118874501e-05)
(0.008320086783 1.344034484e-05 1.631793392e-05)
(0.008322254436 1.461502049e-05 1.14915614e-05)
(0.008315620383 1.201018064e-06 -2.386825759e-06)
(0.008365114547 2.010387315e-05 1.12943666e-05)
(0.00840393898 -3.037331949e-06 3.926024256e-06)
(0.008438935259 -1.630266834e-05 1.04587026e-05)
(0.008402150148 -1.256636825e-05 2.07261004e-06)
(0.008344341313 -1.045466526e-05 -2.355621756e-06)
(0.008330015538 -1.32121124e-05 7.248885977e-07)
(0.008353273239 -2.028742549e-05 3.915398346e-06)
(0.008383202809 -1.395019039e-05 1.57393515e-06)
(0.008363597783 -2.025192642e-06 -5.132500167e-06)
(0.008309094191 4.236005657e-06 -1.310720674e-05)
(0.008371370344 5.006075842e-06 -3.46565763e-06)
(0.008402901315 -5.994798219e-06 -5.552637388e-06)
(0.006328953215 8.41542913e-06 3.847074769e-06)
(0.008309615019 1.100876031e-05 7.88624767e-06)
(0.008323421364 5.30087099e-06 1.103761369e-05)
(0.008368588584 3.033318317e-06 -7.145742772e-07)
(0.008336972707 -2.925835317e-06 -2.517228344e-06)
(0.008366197787 -1.007846053e-05 1.972689779e-06)
(0.008368448028 -6.837265184e-06 9.223276891e-06)
(0.008411616447 -6.534280233e-06 6.178193965e-06)
(0.008351161132 -1.674254775e-06 3.391917713e-06)
(0.008396598706 8.44661397e-07 1.192928397e-06)
(0.008388712739 1.121838304e-05 6.163184845e-06)
(0.008419888057 1.036581119e-05 1.039361626e-06)
(0.008466919653 2.276976038e-06 -1.248670404e-06)
(0.00842475154 1.604156923e-06 -4.885404822e-06)
(0.008397608002 4.455578598e-06 1.402461915e-06)
(0.008348015854 2.897662418e-06 2.455321666e-07)
(0.008382493018 -8.490804699e-06 3.557587945e-06)
(0.008333101797 -9.047978806e-06 7.914405504e-06)
(0.008309401025 -8.147788376e-06 1.002499002e-05)
(0.008321740371 -2.261986303e-06 2.712516363e-06)
(0.00635436331 -1.289647211e-06 9.313730626e-06)
(0.008375873666 -1.068681454e-05 -1.162014486e-06)
(0.008403680458 -1.699292915e-05 -2.532463854e-06)
(0.008382111239 -6.288391109e-06 -3.657960061e-06)
(0.008386603695 -1.353410554e-05 7.129516347e-06)
(0.008394399142 -2.365128291e-06 -2.82040107e-06)
(0.008401923906 6.375808874e-06 -1.1631315e-05)
(0.008383614168 1.174849841e-05 -6.055377207e-06)
(0.008420521712 2.611410145e-06 -1.149374218e-05)
(0.008361065054 9.574302747e-06 -8.792225195e-06)
(0.008357150728 6.275965404e-06 -9.160566335e-06)
(0.00831018894 -3.106209885e-06 -1.363735822e-05)
(0.008289704765 -4.388116279e-06 -8.371185489e-06)
(0.008319713689 -3.115652947e-06 -6.13750384e-06)
(0.00832907239 -5.50212605e-06 -5.628472542e-07)
(0.008374744773 -3.577277463e-06 -5.106426432e-06)
(0.008354574243 -2.331208496e-06 -4.596927685e-06)
(0.008400041353 1.772241061e-06 -1.322073978e-05)
(0.008438332515 -8.861736359e-06 -1.475311773e-05)
(0.0084447546 -3.287839127e-06 -1.201234239e-05)
(0.006365123621 -4.048364227e-06 -6.290753476e-07)
(0.008355287737 -1.088947842e-05 -9.884433662e-07)
(0.008286484576 -2.433327006e-05 3.178114679e-07)
(0.00828902662 -2.239351248e-05 -7.563862099e-06)
(0.008290471275 -7.566144348e-07 -1.551320799e-06)
(0.008223343768 3.458389546e-06 3.345496854e-06)
(0.00824167391 2.852838048e-06 8.148764925e-06)
(0.008295402625 -1.044704269e-05 7.368815393e-06)
(0.00826647536 -6.411390385e-06 1.277019342e-05)
(0.008357524004 -9.159866336e-06 4.770647754e-06)
(0.00838377522 -5.212037839e-06 6.157614722e-06)
(0.008401879357 7.934254797e-07 1.353549784e-05)
(0.008382240565 5.591051566e-06 2.112180168e-05)
(0.008370505228 -3.484506609e-06 1.750119636e-05)
(0.008371194064 -5.834412038e-06 8.946244499e-06)
(0.008285331326 3.12137284e-06 4.415294463e-06)
(0.008304097161 -7.865118753e-06 7.258775937e-06)
(0.008286090453 -3.102718725e-06 -2.275436043e-06)
(0.008252135798 3.064509494e-06 -4.615239483e-06)
(0.00824147966 3.088924937e-06 -3.537957882e-06)
(0.006327841774 2.132963438e-06 3.980871988e-06)
(0.008290951348 4.31262556e-06 8.393357282e-06)
(0.008283406622 6.914871031e-06 3.873635971e-06)
(0.008345789303 -3.333249037e-06 9.727352019e-06)
(0.008284192467 -9.263718633e-06 1.131517189e-05)
(0.008325424056 -1.349440943e-05 1.146655789e-05)
(0.008336735119 -1.240793144e-05 1.443965506e-05)
(0.008356324692 -6.622555138e-06 1.445724678e-06)
(0.008316822885 -6.528376972e-06 -6.875561528e-07)
(0.00826263464 -1.415176905e-05 1.468259469e-06)
(0.008228573103 -3.509147606e-06 -4.245978116e-06)
(0.008240936211 5.260422892e-06 -5.635355314e-06)
(0.008285670426 2.104073941e-06 -1.844769148e-05)
(0.008300585502 1.53774284e-05 -1.527403335e-05)
(0.008305513032 3.147443951e-06 -9.233094687e-06)
(0.008325391868 7.901329181e-06 -9.98109255e-06)
(0.008277089669 1.704399375e-05 -1.479255747e-05)
(0.008236733482 2.256553844e-05 -1.175425729e-06)
(0.008221597874 2.011207261e-05 -3.818154057e-06)
(0.008218498551 1.055835955e-05 -6.30961747e-06)
(0.006379000181 3.432080528e-06 8.517699987e-07)
(0.008396996793 3.606001702e-06 -8.255011899e-07)
(0.008368799612 1.456867932e-05 8.018368145e-06)
(0.008360108276 8.092363429e-06 1.310594271e-05)
(0.008372217463 2.735342046e-06 -4.077107292e-06)
(0.008307393906 -7.506332054e-06 -5.027784165e-06)
(0.008335732228 -9.709382543e-07 -3.853807497e-06)
(0.00827343523 5.599414627e-08 -6.686996167e-09)
(0.008310376945 6.130232054e-06 -1.297045105e-06)
(0.008362011056 7.45218061e-06 -1.516377064e-06)
(0.008328107295 3.721221064e-07 1.307150212e-06)
(0.008340902379 4.145771535e-08 4.593035646e-06)
(0.008325066089 -2.856145249e-06 7.155996524e-06)
(0.008310779468 2.351373576e-06 -1.985851139e-06)
(0.008228588177 1.573042481e-05 -3.40628645e-06)
(0.008252598616 1.870501178e-05 6.802158898e-06)
(0.008293212399 1.502133085e-05 1.63782213e-06)
(0.008371884001 1.510870295e-06 -1.360428215e-06)
(0.008419822729 8.328104201e-07 2.608252601e-06)
(0.00844303949 3.09254387e-06 7.147930483e-06)
(0.006325227912 -6.857531253e-06 6.498592939e-06)
(0.008348900479 2.87667378e-06 6.063985632e-06)
(0.008331319311 -8.848812306e-06 -9.344776779e-06)
(0.008340965082 7.487977452e-06 -1.449270383e-05)
(0.008313085298 3.631592102e-06 -1.005232241e-05)
(0.00829383722 3.801857158e-06 -1.604778824e-05)
(0.008320566311 1.683969643e-06 -1.477828255e-05)
(0.008265343549 -7.126239273e-06 -2.277199434e-05)
(0.008269245758 -1.244939885e-05 -1.408451742e-05)
(0.008252023052 -1.67912679e-06 -1.878689355e-05)
(0.008227398115 -2.54301536e-06 -3.151831447e-05)
(0.008279343967 4.220659622e-06 -2.348530557e-05)
(0.008282915435 5.250110603e-06 -1.053581317e-05)
(0.008340918773 -1.500520393e-06 4.963313996e-06)
(0.008400913046 -9.038319429e-06 2.732095931e-06)
(0.008380204092 -1.661826742e-05 1.44518812e-06)
(0.008421250328 -9.058460505e-06 6.56754838e-06)
(0.008338551087 7.18893227e-07 1.370924884e-05)
(0.008360382968 1.244794266e-08 8.242005004e-06)
(0.008329845885 7.360369344e-06 1.043704953e-05)
(0.00636580422 5.477146706e-06 -1.589944177e-05)
(0.008388917102 -7.032368898e-07 -2.196380849e-05)
(0.008385774705 -1.676072069e-06 -1.809713487e-05)
(0.008359726529 6.394233442e-06 -1.812675958e-05)
(0.008362562587 5.456536681e-06 -1.630224273e-05)
(0.008356381925 1.74144583e-06 -1.472812407e-05)
(0.008323852494 5.845273751e-06 -1.294058624e-05)
(0.008347032319 1.052936224e-05 -7.207831132e-06)
(0.008373670325 1.171808404e-05 -8.168129551e-07)
(0.008355896591 -7.149577156e-06 7.559475795e-06)
(0.008347047703 4.727900863e-06 1.303531142e-05)
(0.008372270186 -1.660341019e-05 9.942596998e-06)
(0.008376129155 -1.550483339e-05 6.260051064e-07)
(0.008343298672 -7.576162884e-06 -5.928536592e-06)
(0.008296402666 -1.576985683e-06 -4.401823118e-06)
(0.008331781265 8.202116381e-06 -2.667451745e-06)
(0.008226385545 5.997623878e-06 -4.281043773e-06)
(0.008277156343 6.913376239e-06 -4.977935947e-06)
(0.008296764374 1.90242852e-05 -2.717660508e-06)
(0.008259077595 2.432067748e-05 3.99431402e-07)
(0.006321362922 5.977799722e-06 -1.635510035e-05)
(0.008261122144 -7.280358693e-07 -1.290607762e-05)
(0.008297812461 4.74170961e-06 -7.379083093e-06)
(0.008280882919 2.121228433e-06 -6.878809214e-06)
(0.008303620474 -4.396514721e-06 3.572814778e-06)
(0.008290101837 1.475534054e-05 5.053241342e-06)
(0.008318272907 9.982595625e-06 7.685464725e-06)
(0.008317141265 1.640710166e-05 3.40289007e-06)
(0.008324848288 2.004777651e-06 -1.070125381e-05)
(0.008361448346 3.528561592e-06 -6.298758538e-06)
(0.008310869941 -4.736071326e-06 -1.467165809e-05)
(0.008244844202 4.430056611e-06 -1.712134968e-05)
(0.008203198086 1.036752202e-05 -2.408455501e-05)
(0.008208817382 1.202472808e-05 -1.657384773e-05)
(0.008197021327 1.638803971e-05 -1.145559924e-05)
(0.008242580307 1.213705383e-05 -1.267661874e-05)
(0.008276914051 5.398072918e-06 -1.071121783e-05)
(0.008267839656 5.56188048e-06 -1.59628574e-05)
(0.008277908316 -3.496344708e-06 -1.964449031e-06)
(0.008283846817 -5.331534545e-06 -1.252860097e-05)
(0.006366156212 -1.368457353e-06 -6.877386788e-06)
(0.008333173384 2.219344596e-06 -8.611097516e-06)
(0.008289976365 -9.677529151e-07 -5.419387114e-06)
(0.008238255004 3.361146084e-06 -8.560389265e-07)
(0.008275828601 5.94632029e-06 -5.2935083e-07)
(0.008250694937 8.106026056e-06 4.737259186e-07)
(0.008278109641 -6.557225749e-06 1.275195001e-06)
(0.008312306481 -9.715009875e-06 7.292912441e-06)
(0.008280854424 5.007913056e-06 2.839761506e-06)
(0.008219779362 2.70942634e-05 6.134859859e-06)
(0.008212488967 2.975227367e-05 2.780777476e-06)
(0.008250861355 2.599030321e-05 4.835773023e-06)
(0.008322053018 1.086013965e-05 1.429993265e-05)
(0.008288902773 -3.62392166e-06 1.729076805e-05)
(0.008342217664 -1.352846591e-05 -3.153194193e-07)
(0.008319115742 -1.021663589e-05 -8.243943991e-06)
(0.0082867931 -1.640493539e-05 -3.316067091e-06)
(0.008271898927 -1.497372524e-05 -4.79899811e-06)
(0.008324229757 -1.894136594e-05 -1.841467929e-05)
(0.008341614401 -1.75735051e-05 -1.71051298e-05)
(0.00631386078 1.132699017e-05 -6.528287957e-06)
(0.008329396374 1.571277076e-05 -8.564719562e-06)
(0.008343659275 2.303107887e-05 -6.778474423e-06)
(0.008400555927 1.906191481e-05 -4.183958845e-06)
(0.00843088508 1.368918114e-05 -9.11994052e-06)
(0.008380171359 1.206488028e-05 -1.039464973e-05)
(0.008297274498 1.738640504e-05 -3.057751865e-06)
(0.008268420167 2.742980336e-05 -1.221541532e-06)
(0.00830481576 1.343699613e-05 -2.06541637e-06)
(0.008328260375 -4.246673468e-06 -3.167129075e-06)
(0.008332524828 -7.140119007e-06 1.990025144e-06)
(0.008316952632 -6.418538641e-06 1.482910552e-06)
(0.008289481303 1.349036774e-06 -1.065156722e-05)
(0.008307084453 2.961365995e-06 -3.304233211e-06)
(0.00835845765 -1.177883999e-06 -2.388019776e-06)
(0.008350327849 -1.248727019e-05 -2.994342179e-07)
(0.008376510596 -1.404396369e-05 4.128203208e-06)
(0.008297926304 -1.271092023e-05 -8.84921598e-07)
(0.008271419047 5.951619985e-06 -4.644500548e-06)
(0.008288518462 -4.990039727e-06 -3.35030985e-07)
(0.006379357988 5.914036955e-06 -4.799803304e-06)
(0.008452685899 7.56223458e-06 -6.700608152e-06)
(0.00845292287 1.70540285e-06 -1.941493188e-05)
(0.008381864082 6.35452585e-06 -1.4470645e-05)
(0.008311418926 1.412908585e-05 -1.121355802e-05)
(0.008390147273 1.688903506e-05 -1.088527365e-05)
(0.008448267777 1.75664772e-05 -1.838147512e-05)
(0.008485408534 6.293405675e-06 -1.678946373e-05)
(0.008425285749 1.358708076e-05 -6.085651218e-06)
(0.008464071066 1.074605401e-05 -3.964576476e-06)
(0.008425073072 -2.581673159e-06 -6.13599636e-06)
(0.008430671984 -2.943553733e-06 -8.379431432e-06)
(0.008468222867 2.753598134e-08 -1.454289586e-05)
(0.008409433293 4.510103829e-06 -1.155549184e-05)
(0.00838510569 1.613479376e-06 -1.438982733e-05)
(0.008332504717 1.364137052e-05 -1.369134738e-05)
(0.008355416575 2.473523164e-05 -1.868795445e-05)
(0.008328473901 1.385460369e-05 -3.054931119e-06)
(0.008389672077 -1.24713658e-07 -5.448844338e-06)
(0.008367408799 5.58857819e-06 -8.790885166e-06)
(0.00623641901 1.769071339e-05 8.9918171e-07)
(0.008138482014 1.90411347e-05 1.451314439e-06)
(0.008155960612 2.538765149e-05 1.369028548e-05)
(0.00823259496 2.649735896e-05 7.453054177e-06)
(0.00822935801 2.436402143e-05 -5.190013323e-06)
(0.008245589166 2.732521188e-05 -7.376554649e-06)
(0.008254814478 2.5550465e-05 -1.236053973e-06)
(0.008264323328 2.930401136e-05 6.594338976e-06)
(0.008261360828 2.637485374e-05 -5.058792503e-07)
(0.008274325362 3.351217492e-05 -8.861433079e-06)
(0.00833402291 5.238807877e-05 -1.244326621e-05)
(0.00829785429 5.722476985e-05 -2.513257849e-06)
(0.008287780988 3.715117923e-05 6.682253393e-06)
(0.008291570959 3.352395758e-05 1.096872917e-05)
(0.008293149934 4.151880332e-05 6.708687848e-06)
(0.008284458563 4.237968923e-05 6.407805013e-06)
(0.008265281551 2.543400769e-05 6.564719522e-06)
(0.008254107486 3.256048826e-05 1.734127985e-06)
(0.008294698284 2.524389982e-05 5.031838681e-06)
(0.008234958579 2.973820845e-05 8.863943762e-06)
(0.008389558487 3.551688709e-05 -2.126665675e-05)
(0.008368967956 2.997371563e-05 -2.263888024e-05)
(0.00838945649 2.44971563e-05 -1.998272388e-05)
(0.008398643812 1.811776651e-05 -1.898512054e-05)
(0.00840655285 2.581401847e-05 -1.299277406e-05)
(0.008455976151 4.79425231e-05 -8.217987832e-06)
(0.00825856017 1.063588954e-05 -8.733471952e-06)
(0.008301780518 2.075537617e-05 -1.081978068e-05)
(0.008364014423 1.171922779e-05 -6.042871977e-06)
(0.008306827266 1.395753988e-05 -9.973212053e-06)
(0.008358301471 5.424680203e-06 -4.27975916e-06)
(0.008403972614 7.963675992e-06 3.502102397e-06)
(0.00845642552 9.642971719e-06 4.467344153e-06)
(0.008466957953 2.842848048e-05 4.954359583e-06)
(0.008406591463 3.062420058e-05 -7.555847373e-06)
(0.008391910217 3.908142205e-05 -1.00262518e-05)
(0.008420881562 3.806589929e-06 7.140681828e-06)
(0.008429399695 1.808835684e-06 6.522695223e-06)
(0.008440069827 1.018809421e-06 1.850928909e-05)
(0.008440642391 -9.361114079e-06 1.918509738e-05)
(0.008380258032 3.236294257e-06 1.321603874e-05)
(0.008385826175 1.255798777e-05 1.275683027e-05)
(0.008406957733 1.324610317e-05 4.920297187e-06)
(0.008368518586 2.067095277e-05 1.44710791e-05)
(0.008408688028 2.104633726e-05 2.069198704e-05)
(0.008469355902 3.008124432e-05 2.15233566e-05)
(0.008281544991 -3.253399835e-06 -8.785559724e-06)
(0.008279133825 -4.356152595e-06 -7.083744601e-06)
(0.008307718694 -5.536239785e-06 -7.650990151e-06)
(0.008284427381 -9.428816148e-06 -9.452276177e-06)
(0.008334579158 -2.091573383e-05 -5.169275089e-06)
(0.008300064709 -9.226466504e-06 -7.357421741e-06)
(0.008302256302 -3.805826289e-06 -3.431391815e-06)
(0.008337805008 -5.966174415e-06 -1.204086778e-05)
(0.008352065348 5.784683688e-07 -7.743420945e-06)
(0.008404172668 2.811225529e-06 -1.608801232e-06)
(0.008412919534 -1.817807225e-05 -2.766992741e-06)
(0.008414867885 -5.006847704e-06 -3.193462793e-06)
(0.008354227188 9.143784179e-06 -1.898310008e-06)
(0.008404982957 8.859647368e-06 -5.69971055e-06)
(0.008393875305 9.530421002e-06 3.015491673e-06)
(0.008359279613 5.868309758e-06 1.122037676e-06)
(0.008322617926 -9.547781997e-06 6.930398747e-06)
(0.008324131525 -2.079967347e-05 8.754501087e-06)
(0.008271917414 -1.410901165e-05 4.043003416e-06)
(0.008275802929 -2.95928519e-06 -4.770042267e-06)
(0.00829057734 -2.25378663e-06 2.146810807e-05)
(0.008282629429 1.32120454e-06 1.513024544e-05)
(0.0082893848 -8.027107974e-06 1.402259334e-05)
(0.008287678549 -1.134154417e-05 9.932333572e-06)
(0.008312721918 -9.693881975e-07 3.726069837e-06)
(0.008321412594 -7.628156577e-06 1.529164228e-05)
(0.0083694516 5.3214445e-06 1.96682514e-05)
(0.008439790208 1.128752697e-05 1.513403085e-05)
(0.008358253807 6.858534152e-06 1.04181811e-05)
(0.008352832049 1.456305875e-05 9.317860832e-06)
(0.00838887721 -1.148559818e-06 -1.537388626e-05)
(0.008351961334 -2.475593026e-06 -8.77699393e-06)
(0.008374530194 2.595176258e-06 -7.240789401e-06)
(0.008370533815 -2.878214406e-06 -3.226413925e-07)
(0.008448600847 -1.056970384e-05 -4.194660289e-06)
(0.008406063521 3.402993344e-06 -5.583043025e-06)
(0.008342710807 3.48557266e-06 -1.727723235e-05)
(0.008328085998 6.247221618e-06 -2.508013562e-05)
(0.00838763457 5.528845777e-06 -1.620400294e-05)
(0.008400718848 6.48813742e-06 -2.188591813e-05)
(0.008330010606 1.063106965e-06 9.384239115e-06)
(0.008325939445 -4.169576396e-06 -7.749491593e-07)
(0.008310414067 -2.061942116e-05 -9.840621289e-06)
(0.008314770598 -8.460546285e-06 -1.094166824e-05)
(0.008270700469 -3.664165772e-06 -2.350224495e-05)
(0.008335391821 -1.015147388e-05 -2.631460945e-05)
(0.008371105873 -9.422546616e-06 -1.364925217e-05)
(0.008368977354 -7.509637693e-06 -1.437685045e-05)
(0.008318533702 1.470356358e-06 -9.252342902e-06)
(0.008293835149 1.950358531e-06 -4.167042818e-06)
(0.008470486972 2.590116013e-06 -3.605583832e-06)
(0.008481288382 7.681451299e-06 -8.703700144e-06)
(0.008444005 1.000097052e-05 2.444032454e-06)
(0.008331166323 4.051957001e-06 3.563795567e-06)
(0.008285468201 7.216960922e-06 4.012616487e-06)
(0.008262915497 1.224955765e-05 8.278258121e-06)
(0.008257611424 1.213791572e-05 -4.364396346e-06)
(0.008230592889 1.299267508e-05 -8.794739423e-06)
(0.008211388824 -4.423773182e-06 -9.607142664e-06)
(0.008206414484 -1.131291308e-05 -1.633354566e-05)
(0.008168589209 7.460266867e-06 -9.115081106e-06)
(0.008147409793 6.477982839e-06 -1.4732986e-05)
(0.008178301515 1.856729253e-05 -1.604329422e-05)
(0.008172540651 2.375756167e-05 -1.311061948e-05)
(0.008238948182 1.857536705e-05 -9.56719932e-06)
(0.008243658355 1.468197459e-05 -1.624050704e-05)
(0.008245309455 1.579095226e-06 -7.150570287e-06)
(0.008176449909 2.140621394e-06 -1.731820512e-06)
(0.008230069439 7.284045332e-06 -1.680787846e-06)
(0.008270494796 8.832397997e-06 -5.024690736e-06)
(0.00821816373 4.85877667e-06 -1.30761076e-05)
(0.008307467594 1.166031687e-05 -9.602184406e-06)
(0.008335423734 1.10791268e-05 -1.396544454e-05)
(0.008355846269 4.90964335e-06 -8.232072042e-06)
(0.008319151327 5.644708083e-06 -1.305491396e-05)
(0.008329331918 1.837690432e-06 -1.351292261e-05)
(0.008383412029 9.462499538e-06 -1.334593975e-05)
(0.008384033419 1.273692516e-05 -1.795466771e-05)
(0.008411473348 2.170410927e-05 -9.123735307e-06)
(0.008312367174 2.050619249e-05 1.001209364e-05)
(0.008401675929 3.613460349e-06 9.79499071e-06)
(0.008373019581 -5.431856444e-06 1.003264663e-05)
(0.008316321943 -1.174688075e-05 9.912130368e-06)
(0.008343337114 -4.315653598e-06 1.122960012e-05)
(0.008389121043 1.087318271e-05 1.41773407e-05)
(0.00839793913 1.822425409e-05 1.211793831e-05)
(0.008315922412 9.47452386e-06 9.081239171e-06)
(0.00832880601 1.745019251e-05 1.934753121e-05)
(0.008355378789 1.448931396e-05 1.160211111e-05)
(0.008385842909 1.788778622e-05 -4.453058019e-06)
(0.008367063275 8.729718472e-06 6.313752729e-06)
(0.008352765171 1.943205911e-05 8.821776516e-06)
(0.008363194248 2.605833913e-05 8.853958612e-06)
(0.008327211423 2.192391741e-05 1.228751146e-05)
(0.008227226523 1.213901708e-05 1.941899652e-05)
(0.008223125964 4.542577661e-06 1.342582646e-05)
(0.008264905677 -4.228263177e-06 7.998909899e-06)
(0.00831469081 -7.728843557e-06 1.438705825e-06)
(0.008340563818 -1.066053822e-05 -1.176707513e-05)
(0.008361150683 1.089732973e-06 -1.851098487e-05)
(0.008233692517 2.388227591e-05 -4.07609537e-07)
(0.008256444186 1.176878915e-05 -3.397892916e-06)
(0.008268417109 2.244560567e-06 -6.500421278e-06)
(0.008302163169 6.59121275e-06 -1.212198705e-05)
(0.008325420299 -4.704284415e-06 -1.484111352e-05)
(0.00837139423 -1.328233605e-06 -1.366351675e-05)
(0.008341130157 1.967695881e-06 -1.692466825e-05)
(0.008332776767 -7.254068017e-07 -1.668711772e-05)
(0.008299278176 -3.661586493e-06 -7.914849251e-06)
(0.008284547205 -1.9595875e-05 4.686152542e-06)
(0.008329567558 -8.313985222e-06 -4.623026615e-06)
(0.008383400508 -5.381543842e-07 -5.764288649e-06)
(0.008361475826 -2.4402567e-07 -2.698623473e-06)
(0.008400114454 3.507382417e-06 -5.041011378e-06)
(0.008419202632 1.626845109e-05 1.17178652e-06)
(0.00839309486 1.457111667e-05 1.647383169e-06)
(0.008366828942 8.443678026e-06 1.030266424e-05)
(0.008359382943 9.658072767e-06 1.652542049e-05)
(0.00832708226 2.528352194e-05 1.940373723e-05)
(0.008270789946 2.655421908e-05 1.24075996e-05)
(0.008313942946 -8.84841461e-06 -9.428427358e-06)
(0.008320037492 -4.191514374e-06 -1.315784532e-05)
(0.008323893241 -1.103862644e-06 -9.491140473e-06)
(0.008305976612 -1.857650711e-06 -7.29595073e-06)
(0.008321779393 -2.186991053e-06 -5.214419692e-06)
(0.008279929845 5.599009763e-06 -6.953029608e-06)
(0.00824798358 2.286499818e-05 -1.76020625e-05)
(0.008292653579 2.737926577e-05 -2.018244517e-05)
(0.008340774519 2.255726012e-05 -2.171339642e-05)
(0.008385054543 1.010330635e-05 -1.620527884e-05)
(0.008281802368 -1.088628016e-05 -1.383787491e-05)
(0.008281599818 -1.187914118e-05 -5.894001084e-06)
(0.008297625483 -2.76036602e-06 -1.194369812e-05)
(0.008300079163 -3.739928111e-06 -1.11451787e-05)
(0.0083211911 4.532225512e-06 -1.497078813e-05)
(0.008305906071 8.909828353e-06 -3.645200645e-07)
(0.008338834617 1.175692694e-05 -4.300224083e-06)
(0.008311593052 -2.337252413e-06 -9.422119077e-06)
(0.008342383836 -1.315582875e-05 -1.315816125e-05)
(0.008349497705 3.681392132e-06 -8.004165175e-06)
(0.008311335745 7.19443836e-06 -6.095554856e-06)
(0.008291508883 1.858628711e-06 -1.506952871e-05)
(0.008296470807 -8.267111154e-06 -1.955684211e-05)
(0.008263274126 -3.433433571e-06 -1.059045578e-05)
(0.008270908216 -7.157540694e-06 -1.678196314e-05)
(0.008314966037 -1.517556881e-05 -2.89996801e-05)
(0.008340595825 -1.55795904e-05 -1.561998215e-05)
(0.008379326118 -1.98983443e-05 -1.394503156e-05)
(0.008402603517 -1.658443487e-05 -3.253979692e-06)
(0.008382229621 -1.798329501e-05 1.571024445e-07)
(0.008292340152 2.635544704e-05 1.21282636e-05)
(0.008260288548 3.409980703e-05 7.987418268e-07)
(0.008267675754 3.043595635e-05 1.00900383e-05)
(0.008322474993 2.55543406e-05 1.526353513e-05)
(0.008249373522 1.908135111e-05 6.381769193e-06)
(0.008257523485 2.454762547e-05 1.975882003e-05)
(0.00826411181 2.085584022e-05 2.739249287e-05)
(0.008203834366 2.605533019e-05 1.87426946e-05)
(0.008134227252 3.192215217e-05 1.781810996e-05)
(0.008167633197 2.691237574e-05 1.965446421e-05)
)
;

boundaryField
{
    flow
    {
        type            calculated;
        value           nonuniform List<vector> 
48
(
(0.00633448052 2.753190885e-06 -1.604583313e-06)
(0.006382090116 3.706809275e-06 9.551207312e-06)
(0.006327703004 9.41278894e-06 -1.594616274e-05)
(0.006351427922 -1.325207663e-06 -1.092235469e-06)
(0.006384739902 -8.127307427e-06 -5.660088358e-06)
(0.006356054759 4.499017042e-06 3.210243586e-06)
(0.006328953215 8.41542913e-06 3.847074769e-06)
(0.00635436331 -1.289647211e-06 9.313730626e-06)
(0.006365123621 -4.048364227e-06 -6.290753476e-07)
(0.006327841774 2.132963438e-06 3.980871988e-06)
(0.006379000181 3.432080528e-06 8.517699987e-07)
(0.006325227912 -6.857531253e-06 6.498592939e-06)
(0.00636580422 5.477146706e-06 -1.589944177e-05)
(0.006321362922 5.977799722e-06 -1.635510035e-05)
(0.006366156212 -1.368457353e-06 -6.877386788e-06)
(0.00631386078 1.132699017e-05 -6.528287957e-06)
(0.006379357988 5.914036955e-06 -4.799803304e-06)
(0.00623641901 1.769071339e-05 8.9918171e-07)
(0.00623641901 1.769071339e-05 8.9918171e-07)
(0.008138482014 1.90411347e-05 1.451314439e-06)
(0.008155960612 2.538765149e-05 1.369028548e-05)
(0.00823259496 2.649735896e-05 7.453054177e-06)
(0.00822935801 2.436402143e-05 -5.190013323e-06)
(0.008245589166 2.732521188e-05 -7.376554649e-06)
(0.008254814478 2.5550465e-05 -1.236053973e-06)
(0.008264323328 2.930401136e-05 6.594338976e-06)
(0.008261360828 2.637485374e-05 -5.058792503e-07)
(0.008274325362 3.351217492e-05 -8.861433079e-06)
(0.00833402291 5.238807877e-05 -1.244326621e-05)
(0.00829785429 5.722476985e-05 -2.513257849e-06)
(0.008287780988 3.715117923e-05 6.682253393e-06)
(0.008291570959 3.352395758e-05 1.096872917e-05)
(0.008293149934 4.151880332e-05 6.708687848e-06)
(0.008284458563 4.237968923e-05 6.407805013e-06)
(0.008265281551 2.543400769e-05 6.564719522e-06)
(0.008254107486 3.256048826e-05 1.734127985e-06)
(0.008294698284 2.524389982e-05 5.031838681e-06)
(0.008234958579 2.973820845e-05 8.863943762e-06)