/*--------------------------------*- C++ -*----------------------------------*\
| =========                 |                                                 |
| \\      /  F ield         | OpenFOAM: The Open Source CFD Toolbox           |
|  \\    /   O peration     | Version:  2406                                  |
|   \\  /    A nd           | Website:  www.openfoam.com                      |
|    \\/     M anipulation  |                                                 |
\*---------------------------------------------------------------------------*/
FoamFile
{
    version     2.0;
    format      ascii;
    arch        "LSB;label=32;scalar=64";
    class       volScalarField;
    location    "0.007";
    object      overallT;
}
// * * * * * * * * * * * * * * * * * * * * * * * * * * * * * * * * * * * * * //

dimensions      [1 2 -2 0 0 0 0];

internalField   nonuniform List<scalar> 
546
(
291.7337266
303.7082394
300.0277368
300.0895638
299.5394753
298.2380211
299.1473607
300.3826511
299.5874659
299.2406523
301.1833229
301.2740401
300.4243981
298.9630009
298.0438918
297.7321967
296.7951223
296.9286952
297.8175505
299.1581492
294.9874257
303.7461704
299.4220092
299.5094345
299.3687325
299.2907879
299.0432188
298.5761983
298.3254435
298.5959455
297.2648309
296.8174149
298.8790734
299.8100799
299.796648
298.7065165
299.3793593
300.7921683
299.0999297
298.7299993
292.9758818
302.4019758
297.5253354
297.909888
300.2885182
301.2390702
301.4606155
301.1596898
300.2137102
300.0668713
298.7349605
299.6027982
298.6577304
297.1816753
297.5577525
298.778244
298.2499641
298.4947506
300.4619277
300.5422369
294.529738
303.7454955
300.5264154
299.1073424
297.3031026
297.0855583
297.977441
297.7418071
297.5705243
297.3909033
298.9076506
299.8283387
300.4900195
301.492287
301.69634
300.8442392
300.138904
300.7810502
301.7750456
299.8424254
293.8403914
304.0205115
300.724647
302.0884961
300.9829489
300.9397897
299.7900492
299.3096384
301.2904621
300.6345482
300.0208208
299.0739895
299.8237594
300.6375435
300.2524837
302.5677903
302.882622
302.3944747
300.529931
301.2564866
295.406977
304.9392576
298.7622181
298.5830361
299.7118984
299.5523014
299.9228825
300.5186258
299.9949047
301.0986824
300.633301
299.9828637
299.7718134
300.7305237
300.7361931
301.3342353
301.981688
301.453418
302.1486479
303.3878774
292.1922561
301.1196659
297.9880156
299.8059327
299.4252234
299.4861241
300.8963532
301.8223752
300.4134215
298.9788119
299.4048774
299.3985347
300.3382785
299.037711
299.5168031
298.916367
298.7689177
300.5558996
301.0443701
301.0604695
293.1712814
303.5258293
299.1166139
299.9927642
300.969787
300.2916854
299.9334867
298.7390625
298.5619783
300.0460561
300.4035085
299.5862268
299.3652644
299.5777405
299.4949621
300.2091219
300.2756964
299.3779251
299.2881611
300.4424927
296.4843868
305.7709528
301.5985967
300.6737633
300.2693175
300.2479647
300.245615
301.4544153
301.854022
303.0488499
301.1715502
302.451217
302.9489762
302.0967027
301.5585027
300.6056424
301.3593168
300.6727261
300.9747961
300.8478327
295.3516579
306.1114191
301.3887964
299.7519131
299.1382672
298.1671866
298.8656896
300.0891802
301.8771792
301.2401221
301.4081696
301.6422055
300.6710058
300.6506099
301.8729523
300.802417
300.2144772
301.6920097
299.3540568
298.3358873
294.4956527
304.1815845
299.4522567
300.8653149
301.7359532
303.1124118
301.8705439
299.3153171
298.7698997
299.046291
298.3689156
297.7638223
298.216331
298.9758359
297.5600021
297.6836034
300.3499915
298.8721905
300.5102165
300.8721608
293.0491358
302.7528904
298.0746767
300.6009056
298.8039443
298.5484142
297.5829619
298.1875245
297.3998
297.5926683
297.156327
298.174826
298.8990801
300.3038265
300.5974608
300.3067917
300.3070037
301.4693928
301.7104328
300.9372965
293.9267832
304.3002328
299.5258973
300.3012093
301.0908812
300.5594562
300.3022422
299.5163536
300.0888103
299.2270432
300.7394865
301.2582067
301.1461115
300.5498964
299.5951021
300.7751105
300.1223674
300.1266952
300.8040634
301.4721663
294.2114971
303.4122807
300.8364369
301.1575768
301.1751554
300.8511459
302.049336
303.2452159
303.3836947
303.211051
300.0625855
299.5305847
298.7344964
298.8716921
299.2951147
299.1245985
298.7505307
299.6471107
299.2108544
298.6738072
297.4436312
306.5228268
300.6469444
300.6019423
301.3847845
302.375262
303.3004292
303.529769
302.8081455
303.7059659
303.4181076
302.6750514
302.5779798
302.5162197
301.5720792
301.5064469
302.1258149
302.8835278
301.7231475
299.7527898
292.6393291
302.3320627
299.393986
301.2531373
301.4308105
300.6281236
301.0731308
299.0624417
299.2824053
300.3863384
301.2133708
300.965735
301.1198271
302.0646094
300.6640366
299.6285004
299.6421777
298.4500318
297.8299197
299.9476385
294.3044125
304.3363202
300.6325779
298.9606739
299.0441402
298.9195799
298.4466007
298.4443056
298.3194377
298.5854126
298.128632
299.0762294
299.7937734
299.0295016
299.175815
299.1305339
298.2560346
298.6160936
298.8421784
297.4738525
294.2457638
301.2661057
297.9815562
297.4416811
296.1104038
295.7842551
296.7112438
297.8147328
297.4073329
297.122658
297.6770863
295.9748612
295.8234988
294.5781007
294.7571478
293.9123872
295.2225536
296.2917691
294.901772
295.8440253
304.9250986
306.452158
304.992094
305.5651216
309.6223659
313.278358
299.5350056
302.1589984
300.9982933
301.4795459
302.7296153
302.4551221
302.1742177
306.3898435
304.6861179
307.8788667
298.2113653
299.1830358
299.6592441
300.4352704
303.1648645
304.6265212
304.4085573
305.1196466
306.2882369
309.3160112
303.4613526
303.4306728
302.2985327
300.5456634
299.4896769
300.511808
300.1768234
302.6638329
304.1032564
304.4112635
297.858094
299.5149111
300.7756073
300.7136225
299.5956579
302.2003766
302.0070163
300.1093304
301.3763672
301.5789525
301.2525487
301.8817341
301.0022932
301.2880807
301.6650023
303.0472628
305.0432827
305.3866121
304.2143522
304.7764033
302.2716752
302.0751851
301.8595729
302.5573427
302.6025411
300.2554441
300.8439835
300.4125814
299.619715
299.7197906
302.021523
301.4520212
301.8241184
299.2404181
300.3353596
300.8392002
299.1781397
302.2377066
302.0785618
302.2308603
298.8428348
300.9533236
300.8757846
300.4489892
302.4214389
300.80307
302.4334753
302.4592231
302.1026442
301.767118
300.8055289
301.0890606
302.2055831
300.1327373
300.5351773
301.1016207
299.6860442
300.6279024
300.7486308
301.033516
299.4950818
300.1095151
301.1554117
302.9166764
300.0385911
301.1381093
301.3700557
301.5468107
301.545984
300.5677666
300.0487825
299.2584877
299.0284685
299.6124291
300.5694557
300.3255567
299.9042887
299.8906374
300.5934775
302.3841194
300.9814504
301.3425381
300.6686975
301.6759503
300.5735942
300.896638
302.6412612
302.04148
302.1721829
302.9297014
302.2992243
302.300109
303.2314671
301.7286439
302.6473336
302.5522762
302.6420719
303.0911318
301.7398006
299.5029506
298.0952046
298.7470855
298.7317213
300.198171
301.1066675
299.2980557
298.9317889
299.4496362
298.791343
300.6559121
299.1759909
300.0057843
300.5305917
299.1120906
298.6126224
298.7528923
298.2333699
297.874365
298.1560837
299.2672315
298.7719323
299.5640903
298.405684
299.135496
298.9291568
298.0522516
299.3179199
299.7258969
299.514817
299.1024571
298.4873616
298.1903508
296.2031667
297.5591435
297.8427209
299.0740597
300.5645098
301.2822031
302.0854702
300.6360274
297.424215
297.0342793
297.7304923
297.5800677
298.3385764
297.4206113
297.1990608
296.1555684
297.285022
298.1014087
)
;

boundaryField
{
    flow
    {
        type            calculated;
        value           nonuniform List<scalar> 
48
(
291.7337266
294.9874257
292.9758818
294.529738
293.8403914
295.406977
292.1922561
293.1712814
296.4843868
295.3516579
294.4956527
293.0491358
293.9267832
294.2114971
297.4436312
292.6393291
294.3044125
294.2457638
294.2457638
301.2661057
297.9815562
297.4416811
296.1104038
295.7842551
296.7112438
297.8147328
297.4073329
297.122658
297.6770863
295.9748612
295.8234988
294.5781007
294.7571478
293.9123872
295.2225536
296.2917691
294.901772
295.8440253
297.424215
297.0342793
297.7304923
297.5800677
298.3385764
297.4206113
297.1990608
296.1555684
297.285022
298.1014087
)
;
    }
    obstacle
    {
        type            calculated;
        value           nonuniform List<scalar> 0();
    }
    frontAndBack
    {
        type            empty;
    }
    procBoundary2to0
    {
        type            processor;
        value           nonuniform List<scalar> 
31
(
294.7387548
303.8162655
298.7788584
300.2346284
300.0501837
300.5265813
300.6687448
301.4905918
301.9728511
301.0191295
300.556483
299.7681092
300.1162182
301.5355682
302.4144698
300.1125223
299.055174
300.6712391
300.2681065
300.170157
304.9807686
306.5093524
309.7613579
315.7515421
319.5402417
321.93908
298.1508667
299.5306876
301.2396031
303.3718826
303.3718826
)
;
    }
    procBoundary2to3
    {
        type            processor;
        value           nonuniform List<scalar> 
19
(
317.8281597
313.2276006
312.3667579
307.6989057
305.285187
305.8681353
301.4311866
304.4659743
301.8090106
300.9217479
300.9282628
303.8966454
302.4402374
298.9251764
302.6356787
299.0894864
299.5909269
300.9861287
298.4749828
)
;
    }
}


// ************************************************************************* //
