/*--------------------------------*- C++ -*----------------------------------*\
| =========                 |                                                 |
| \\      /  F ield         | OpenFOAM: The Open Source CFD Toolbox           |
|  \\    /   O peration     | Version:  2406                                  |
|   \\  /    A nd           | Website:  www.openfoam.com                      |
|    \\/     M anipulation  |                                                 |
\*---------------------------------------------------------------------------*/
FoamFile
{
    version     2.0;
    format      ascii;
    arch        "LSB;label=32;scalar=64";
    class       volScalarField;
    location    "0.007";
    object      p;
}
// * * * * * * * * * * * * * * * * * * * * * * * * * * * * * * * * * * * * * //

dimensions      [1 -1 -2 0 0 0 0];

internalField   nonuniform List<scalar> 
546
(
0.3038748786
0.4166934568
0.4130186406
0.4130491885
0.4129230512
0.4108423536
0.4127715181
0.4146230531
0.4111949814
0.4126579188
0.4183869299
0.4203139895
0.4172120937
0.412158118
0.4107082149
0.4097693727
0.4111028316
0.4092711316
0.4073140722
0.4104202868
0.3110690469
0.4189747422
0.4121279023
0.4133920556
0.4146746684
0.4155616291
0.4145941986
0.4141080649
0.4115968217
0.4103943588
0.4092171881
0.4098229975
0.4139580137
0.4147884081
0.4138003709
0.4098389513
0.4100445311
0.4164481897
0.4159454692
0.4134060298
0.3088977999
0.4170536344
0.4076050724
0.40880034
0.4104401902
0.4127255329
0.414041965
0.4140084751
0.4116532191
0.4163310432
0.4117728792
0.4150745884
0.4119587905
0.4088248466
0.4104025669
0.4111914819
0.4079371676
0.4074780137
0.4083009082
0.408472628
0.311990515
0.4246574582
0.4178953588
0.4111474834
0.4081623305
0.4062328774
0.4071350711
0.4069073644
0.4094333876
0.4056028998
0.4108786949
0.4122143152
0.4141118255
0.4128659655
0.4167155287
0.4149875087
0.4119783452
0.4151347641
0.4208603021
0.4178850732
0.3095482564
0.4222093121
0.4154605917
0.4190649852
0.4168132444
0.4155062232
0.4113033456
0.4126758029
0.4122944897
0.405986623
0.4053594582
0.4029001084
0.4079089971
0.4114030268
0.4138816705
0.4191563452
0.4242895017
0.4223813856
0.4173816172
0.4167135533
0.3122128866
0.4216059806
0.4084768548
0.4069261515
0.4106038728
0.4101059107
0.4097422245
0.4112477904
0.4125444902
0.4169289188
0.4209270428
0.4173333481
0.4146966015
0.4145989095
0.4182262145
0.4220576526
0.4226238106
0.4172210341
0.4228563691
0.4257985511
0.3067826031
0.4141230331
0.4099366803
0.4151087684
0.4113212051
0.4150099048
0.4163544177
0.4204937794
0.4159738772
0.4168131906
0.4132136127
0.4157881323
0.4206816919
0.4152526127
0.4152611855
0.4118929639
0.4158260908
0.4172561286
0.4153937905
0.4147242916
0.3078445904
0.4203493977
0.4147806964
0.4154689959
0.4170212675
0.4154637525
0.4165033484
0.415424634
0.4165851341
0.4168961357
0.4175980802
0.4133669574
0.4102936234
0.4129470004
0.4132809369
0.4173578205
0.4156606389
0.4156828332
0.4193647051
0.4224257301
0.313079188
0.4221537274
0.4114917682
0.4110186997
0.4098915825
0.4078840926
0.408749736
0.4122547107
0.4136193653
0.4188851373
0.4180827757
0.4206690706
0.4214403484
0.4187764742
0.418386699
0.4131844078
0.4150432611
0.4142971655
0.4107902028
0.4112226289
0.310892937
0.423807637
0.4157733262
0.4151406058
0.4119226613
0.4128145308
0.4139568488
0.4164273163
0.4160826073
0.4115977969
0.4094052963
0.4119374049
0.4114389423
0.4140648734
0.4171158496
0.415772791
0.4127102451
0.4132310678
0.4086430493
0.4066167938
0.3144291096
0.4262807571
0.4138735123
0.4153662401
0.418299632
0.4182667504
0.4174324636
0.4097998704
0.410110816
0.4148179001
0.412157597
0.4112993622
0.414102936
0.4120073774
0.4049392346
0.4068399274
0.4127850038
0.4139904784
0.4183710154
0.4201025889
0.3057031824
0.4175640472
0.4090948154
0.4156561867
0.4110020027
0.4083142502
0.4100329362
0.4065588867
0.4063449245
0.4062237299
0.4048958068
0.4084898513
0.4094669928
0.4151951901
0.419249348
0.4169094244
0.4195295377
0.418256963
0.4200895756
0.4178539933
0.3111939522
0.4243082517
0.4155796896
0.4140391779
0.415521282
0.4128552519
0.4124739503
0.4144346451
0.4172032265
0.4149433194
0.4156126328
0.4190551118
0.4187227169
0.4138872261
0.4099761876
0.4148110362
0.4068977477
0.4097501498
0.4119946536
0.4122954684
0.3077152824
0.4145632399
0.411474731
0.4142197703
0.4146254133
0.413702458
0.416754813
0.4182920387
0.4185276101
0.4208937792
0.4136875668
0.4090068893
0.4058165924
0.4089130113
0.4080045657
0.4095932334
0.4128957403
0.4110572786
0.4098836242
0.4087208419
0.3150158509
0.4246604986
0.4114229043
0.4069993796
0.4114192193
0.4122038001
0.4143975181
0.4189024986
0.4170264176
0.4150154944
0.4121520537
0.4138238976
0.4167758332
0.4136774048
0.4153701248
0.4162626344
0.4135547623
0.4150905914
0.4163396899
0.4132438411
0.3081386545
0.4186443406
0.413272024
0.4209207134
0.4218507416
0.4170637666
0.4127432477
0.4073713736
0.4088553364
0.4136505712
0.4145896572
0.4148724662
0.4130612867
0.4166104842
0.418213621
0.414004118
0.4152865026
0.4097829046
0.4099328876
0.413071754
0.3126333813
0.4265201251
0.4188166357
0.4132029651
0.4089627856
0.4131381241
0.4170036013
0.4177998621
0.4150288342
0.4188804154
0.4161500017
0.4188404566
0.4220404046
0.4167853394
0.4147096651
0.4122775131
0.4107595181
0.4114127585
0.4158852492
0.4119322712
0.3050022879
0.4071898113
0.4015699383
0.403458483
0.3999119161
0.4012497592
0.4043169282
0.4074027427
0.4075450562
0.4092113057
0.4131741213
0.4069805747
0.4063415712
0.4053846621
0.4070308562
0.4058958508
0.4062859976
0.4077691227
0.4065835454
0.4022438629
0.4253931092
0.4283172808
0.4251708559
0.428455459
0.4388586594
0.4511502046
0.4131944421
0.4193848348
0.4188886524
0.4172688857
0.4234816366
0.4239211963
0.4260869962
0.4360655209
0.4285470456
0.4332961414
0.4141908696
0.4145056844
0.4173017204
0.4189501487
0.4214696607
0.4248222618
0.4254267825
0.4253293773
0.4292009647
0.4388688623
0.412135298
0.4146387987
0.4172921409
0.4116470807
0.4141738187
0.4148814108
0.4145262553
0.4203039021
0.426267813
0.4299813148
0.4178397808
0.420974985
0.4195051289
0.4219084532
0.419909994
0.4234820352
0.4213045148
0.4180770189
0.4191549095
0.4195213134
0.416343978
0.4177787795
0.4155535954
0.4161618345
0.4170756993
0.4203429626
0.4276012771
0.4299458465
0.423916917
0.4251473161
0.4229147777
0.419080049
0.4199201126
0.4226108729
0.4292680142
0.4225377675
0.4183432146
0.4179901139
0.4187545806
0.4205112975
0.4179450595
0.4185696706
0.4204545504
0.4145993921
0.4137242971
0.4157410501
0.416230476
0.421994628
0.41860251
0.4174379914
0.4207641504
0.4240030712
0.4186211463
0.4131564959
0.4133438933
0.4117493431
0.412196574
0.4124569928
0.411944959
0.412040531
0.4063754783
0.4076955044
0.4108857985
0.4064506536
0.4132103525
0.4132875691
0.40987237
0.4088826991
0.4111622393
0.4123653716
0.408505355
0.4138228317
0.4182117358
0.4218641423
0.4142437868
0.416056806
0.4210160455
0.4207142667
0.4228317811
0.416878918
0.4155511655
0.4141696676
0.4106380548
0.412345089
0.4174148463
0.4186267978
0.4131917924
0.415070203
0.4182973871
0.4234612602
0.4187313911
0.4173185897
0.4180960069
0.4181187113
0.4111677374
0.4099971013
0.4143993859
0.4156385968
0.4167015635
0.4171954073
0.4146566122
0.416506987
0.4200848338
0.42019479
0.4188392746
0.4219478451
0.4186211778
0.4173187865
0.4125941896
0.4089851039
0.4091368874
0.4125485789
0.4107018214
0.4164393758
0.4203182086
0.4151272148
0.4133444685
0.4154783715
0.4099581402
0.4094115632
0.41239055
0.4139740684
0.4161792464
0.4117704463
0.4120166942
0.4114788039
0.4087257829
0.408138404
0.4135748626
0.4175488
0.4102289024
0.4116713166
0.4101386403
0.4110285957
0.4123201722
0.409693026
0.4140106256
0.4135515722
0.4151423508
0.4157404894
0.4100606804
0.4094853249
0.4067743459
0.4083175277
0.4090048183
0.4140076695
0.4175807177
0.4189157968
0.4220086913
0.4183236078
0.4090226213
0.405471999
0.4062256075
0.4080908709
0.4066531925
0.4054283968
0.4053704452
0.402416305
0.3986867479
0.402144406
)
;

boundaryField
{
    flow
    {
        type            calculated;
        value           nonuniform List<scalar> 
48
(
0.3038748786
0.3110690469
0.3088977999
0.311990515
0.3095482564
0.3122128866
0.3067826031
0.3078445904
0.313079188
0.310892937
0.3144291096
0.3057031824
0.3111939522
0.3077152824
0.3150158509
0.3081386545
0.3126333813
0.3050022879
0.3050022879
0.4071898113
0.4015699383
0.403458483
0.3999119161
0.4012497592
0.4043169282
0.4074027427
0.4075450562
0.4092113057
0.4131741213
0.4069805747
0.4063415712
0.4053846621
0.4070308562
0.4058958508
0.4062859976
0.4077691227
0.4065835454
0.4022438629
0.4090226213
0.405471999
0.4062256075
0.4080908709
0.4066531925
0.4054283968
0.4053704452
0.402416305
0.3986867479
0.402144406
)
;
    }
    obstacle
    {
        type            calculated;
        value           nonuniform List<scalar> 0();
    }
    frontAndBack
    {
        type            empty;
    }
    procBoundary2to0
    {
        type            processor;
        value           nonuniform List<scalar> 
31
(
0.3110747712
0.4199818224
0.4101591049
0.4083034615
0.4092439283
0.4084001344
0.4129036281
0.4176898747
0.4237279476
0.4215387126
0.415166647
0.4123335322
0.4144387426
0.417774033
0.4199499674
0.4147434092
0.4132805686
0.4178777998
0.4190150855
0.4193953461
0.4210617122
0.4230584071
0.4255531295
0.4413428071
0.457400584
0.4614281806
0.4130201738
0.4156284281
0.4187150274
0.4237915987
0.4237915987
)
;
    }
    procBoundary2to3
    {
        type            processor;
        value           nonuniform List<scalar> 
19
(
0.4604536637
0.4482294202
0.4451156689
0.4371058405
0.4253132137
0.4276201079
0.4281920722
0.4184415139
0.4118040353
0.4109955041
0.4188632984
0.4251110538
0.4193595554
0.4084312474
0.4179907274
0.4151744649
0.4212809006
0.4163210097
0.4000239653
)
;
    }
}


// ************************************************************************* //
