/*--------------------------------*- C++ -*----------------------------------*\
| =========                 |                                                 |
| \\      /  F ield         | OpenFOAM: The Open Source CFD Toolbox           |
|  \\    /   O peration     | Version:  2406                                  |
|   \\  /    A nd           | Website:  www.openfoam.com                      |
|    \\/     M anipulation  |                                                 |
\*---------------------------------------------------------------------------*/
FoamFile
{
    version     2.0;
    format      ascii;
    arch        "LSB;label=32;scalar=64";
    class       volScalarField;
    location    "0.007";
    object      rhoM;
}
// * * * * * * * * * * * * * * * * * * * * * * * * * * * * * * * * * * * * * //

dimensions      [1 -3 0 0 0 0 0];

internalField   nonuniform List<scalar> 
546
(
3.52763771e-06
3.458697042e-06
4.980390442e-06
5.049331109e-06
4.427198864e-06
6.571024508e-06
2.974446132e-06
4.565080198e-06
6.502083841e-06
7.470585662e-06
6.01783293e-06
3.043386799e-06
4.358258196e-06
3.043386799e-06
5.187212443e-06
7.401644995e-06
5.049331109e-06
5.326760018e-06
4.427198864e-06
2.974446132e-06
2.490195221e-06
2.421254554e-06
4.427198864e-06
4.427198864e-06
4.980390442e-06
5.53358202e-06
5.948892263e-06
4.980390442e-06
2.490195221e-06
4.080829287e-06
6.086773598e-06
3.874007286e-06
3.458697042e-06
4.358258196e-06
3.942947953e-06
5.811010928e-06
2.559135888e-06
7.954836573e-06
6.155714265e-06
4.427198864e-06
5.53358202e-06
5.53358202e-06
4.565080198e-06
3.874007286e-06
4.980390442e-06
5.671463354e-06
3.942947953e-06
7.124216086e-06
3.874007286e-06
5.879951596e-06
4.496139531e-06
6.986334752e-06
5.740404021e-06
7.885895906e-06
4.427198864e-06
3.52763771e-06
4.496139531e-06
5.118271776e-06
9.130160396e-06
2.559135888e-06
2.974446132e-06
6.01783293e-06
3.52763771e-06
5.326760018e-06
4.496139531e-06
4.980390442e-06
2.00594431e-06
4.496139531e-06
3.389756375e-06
4.01188862e-06
4.427198864e-06
6.01783293e-06
6.224654932e-06
5.948892263e-06
3.458697042e-06
5.395700685e-06
6.362536267e-06
3.52763771e-06
4.01188862e-06
6.571024508e-06
4.565080198e-06
2.905505464e-06
6.708905843e-06
2.00594431e-06
6.986334752e-06
5.811010928e-06
5.049331109e-06
4.01188862e-06
5.602522687e-06
5.464641352e-06
4.911449774e-06
3.52763771e-06
4.911449774e-06
5.53358202e-06
6.986334752e-06
5.53358202e-06
4.01188862e-06
3.596578377e-06
2.421254554e-06
6.01783293e-06
3.942947953e-06
4.980390442e-06
4.01188862e-06
6.986334752e-06
3.942947953e-06
3.942947953e-06
2.421254554e-06
4.080829287e-06
4.980390442e-06
6.433143174e-06
4.080829287e-06
3.043386799e-06
6.01783293e-06
3.942947953e-06
5.879951596e-06
2.00594431e-06
3.942947953e-06
4.565080198e-06
3.596578377e-06
3.596578377e-06
4.01188862e-06
6.01783293e-06
4.634020865e-06
5.464641352e-06
2.974446132e-06
3.596578377e-06
8.992279062e-06
4.980390442e-06
3.874007286e-06
4.496139531e-06
5.464641352e-06
2.974446132e-06
5.049331109e-06
2.974446132e-06
3.043386799e-06
5.326760018e-06
4.080829287e-06
4.427198864e-06
6.01783293e-06
4.01188862e-06
3.389756375e-06
5.049331109e-06
4.911449774e-06
6.01783293e-06
3.942947953e-06
4.080829287e-06
3.52763771e-06
7.124216086e-06
4.980390442e-06
2.974446132e-06
2.974446132e-06
4.080829287e-06
6.433143174e-06
8.576968818e-06
6.01783293e-06
5.118271776e-06
4.980390442e-06
3.458697042e-06
3.52763771e-06
7.470585662e-06
4.080829287e-06
3.52763771e-06
4.980390442e-06
4.496139531e-06
4.980390442e-06
4.01188862e-06
3.458697042e-06
6.433143174e-06
3.389756375e-06
6.502083841e-06
2.974446132e-06
5.049331109e-06
6.01783293e-06
3.874007286e-06
4.427198864e-06
5.879951596e-06
5.049331109e-06
2.421254554e-06
5.464641352e-06
4.980390442e-06
2.905505464e-06
4.496139531e-06
5.53358202e-06
4.911449774e-06
6.571024508e-06
7.055275419e-06
3.942947953e-06
4.980390442e-06
3.942947953e-06
5.53358202e-06
5.049331109e-06
4.911449774e-06
3.942947953e-06
5.811010928e-06
5.53358202e-06
5.464641352e-06
4.980390442e-06
6.086773598e-06
4.911449774e-06
4.496139531e-06
4.080829287e-06
6.986334752e-06
2.490195221e-06
3.942947953e-06
2.628076555e-06
3.389756375e-06
2.490195221e-06
5.118271776e-06
5.049331109e-06
4.980390442e-06
7.885895906e-06
5.811010928e-06
3.874007286e-06
6.986334752e-06
4.496139531e-06
3.942947953e-06
4.911449774e-06
5.53358202e-06
7.332704328e-06
5.118271776e-06
3.52763771e-06
4.427198864e-06
6.01783293e-06
4.01188862e-06
7.53952633e-06
4.427198864e-06
7.055275419e-06
5.53358202e-06
4.842509107e-06
4.565080198e-06
1.452752732e-06
6.502083841e-06
4.218710622e-06
3.596578377e-06
3.942947953e-06
4.01188862e-06
7.677407664e-06
5.049331109e-06
9.061219729e-06
4.01188862e-06
3.942947953e-06
5.049331109e-06
4.565080198e-06
4.911449774e-06
5.602522687e-06
5.049331109e-06
5.879951596e-06
2.974446132e-06
5.049331109e-06
4.427198864e-06
1.037442489e-06
4.01188862e-06
3.942947953e-06
6.639965176e-06
3.043386799e-06
5.464641352e-06
3.043386799e-06
2.490195221e-06
5.879951596e-06
4.911449774e-06
3.52763771e-06
3.874007286e-06
2.905505464e-06
5.602522687e-06
4.496139531e-06
2.974446132e-06
3.665519044e-06
3.112327466e-06
6.086773598e-06
4.01188862e-06
3.942947953e-06
4.358258196e-06
5.464641352e-06
3.181268133e-06
5.464641352e-06
4.980390442e-06
6.086773598e-06
4.080829287e-06
4.01188862e-06
2.490195221e-06
4.080829287e-06
6.502083841e-06
3.942947953e-06
5.049331109e-06
5.602522687e-06
2.905505464e-06
5.464641352e-06
3.596578377e-06
6.986334752e-06
1.937003643e-06
3.52763771e-06
9.407589305e-06
4.980390442e-06
6.917394084e-06
6.01783293e-06
3.52763771e-06
7.401644995e-06
6.917394084e-06
3.458697042e-06
6.01783293e-06
4.980390442e-06
5.049331109e-06
3.112327466e-06
6.364202506e-06
3.52763771e-06
3.942947953e-06
3.458697042e-06
6.364202506e-06
3.458697042e-06
6.639965176e-06
4.565080198e-06
5.049331109e-06
2.559135888e-06
5.118271776e-06
2.490195221e-06
3.874007286e-06
6.848453417e-06
3.665519044e-06
6.155714265e-06
5.049331109e-06
2.974446132e-06
4.01188862e-06
6.502083841e-06
6.433143174e-06
5.948892263e-06
7.470585662e-06
5.118271776e-06
3.942947953e-06
3.043386799e-06
5.049331109e-06
3.942947953e-06
4.358258196e-06
6.364202506e-06
5.602522687e-06
3.942947953e-06
4.634020865e-06
5.464641352e-06
4.496139531e-06
4.358258196e-06
4.496139531e-06
4.01188862e-06
4.496139531e-06
4.01188862e-06
6.433143174e-06
4.496139531e-06
3.52763771e-06
3.389756375e-06
5.118271776e-06
5.395700685e-06
5.53358202e-06
5.602522687e-06
4.911449774e-06
3.874007286e-06
3.458697042e-06
5.118271776e-06
5.879951596e-06
4.980390442e-06
4.565080198e-06
3.043386799e-06
7.470585662e-06
6.20877634e-06
3.233784548e-06
4.198133868e-06
4.81126715e-06
3.303865286e-06
5.695722499e-06
3.60933276e-06
5.521729093e-06
4.574564758e-06
6.094856586e-06
6.137648213e-06
7.833752717e-06
5.21159681e-06
4.883925669e-06
6.314996963e-06
3.845698382e-06
6.594327079e-06
5.032419334e-06
5.559959955e-06
4.606458551e-06
1.641104232e-06
5.318009907e-06
4.198133897e-06
6.342364347e-06
5.800944489e-06
6.434663154e-06
5.96998855e-06
4.053799817e-06
7.108195936e-06
6.661621487e-06
3.63956823e-06
5.174747783e-06
6.803932302e-06
2.55182868e-06
5.727761058e-06
6.287231309e-06
7.011110074e-06
4.612770417e-06
4.081867159e-06
6.306753296e-06
3.068824107e-06
7.762121674e-06
3.691402415e-06
2.624487163e-06
6.975416259e-06
4.80756839e-06
3.401777314e-06
5.0324193e-06
3.519026376e-06
4.1103259e-06
1.569976117e-06
1.509445709e-06
4.125992774e-06
5.759340136e-06
5.213708579e-06
6.360947254e-06
4.37371369e-06
4.612770449e-06
4.011723974e-06
5.598723907e-06
3.568440103e-06
3.665302099e-06
6.731791179e-06
3.790535685e-06
5.800944489e-06
6.878740257e-06
1.943872764e-06
2.655531413e-06
2.603774363e-06
5.102591264e-06
4.0680561e-06
5.749527396e-06
6.297200846e-06
2.04146293e-06
3.744734387e-06
5.916870199e-06
4.928867026e-06
6.150360598e-06
4.574564789e-06
5.173223487e-06
1.07036012e-06
4.025188556e-06
7.454945954e-06
5.029242708e-06
5.800944489e-06
7.322817262e-06
5.831618253e-06
6.080699684e-06
1.970790381e-06
3.684825391e-06
3.639568205e-06
3.665302099e-06
5.646187182e-06
4.593291624e-06
2.643445985e-06
7.470249063e-06
5.96998855e-06
4.893097588e-06
5.207548762e-06
6.16548885e-06
3.139952255e-06
2.587373909e-06
3.184670963e-06
6.780071513e-06
3.671550997e-06
1.553378863e-06
3.956930677e-06
6.220021471e-06
4.504421573e-06
4.606458582e-06
7.849880584e-06
3.59367103e-06
6.369341969e-06
6.342364392e-06
4.846022842e-06
4.216059536e-06
3.60933276e-06
4.612770417e-06
3.448883167e-06
5.457459463e-06
4.638800223e-06
4.599968169e-06
3.547120169e-06
4.155584379e-06
4.331970323e-06
6.952456108e-06
4.026115799e-06
5.591389966e-06
2.956185612e-06
5.243855709e-06
3.63956823e-06
5.318009907e-06
6.441483138e-06
5.831998656e-06
2.129393451e-06
2.218603602e-06
3.470962463e-06
5.591389928e-06
4.152010316e-06
4.180958094e-06
7.06575208e-06
4.025188556e-06
1.042319355e-05
4.15558435e-06
5.800944448e-06
3.845698409e-06
5.553205511e-06
5.102080207e-06
5.067262391e-06
6.590989264e-06
1.569976106e-06
4.168450643e-06
5.139455687e-06
3.790535712e-06
4.699656061e-06
3.698266581e-06
6.594327079e-06
5.591389966e-06
4.152010344e-06
4.1103259e-06
7.136880207e-06
5.103116739e-06
3.040388717e-06
4.738608631e-06
4.772839451e-06
4.216059536e-06
8.259787043e-06
2.516209667e-06
3.589169561e-06
6.661621487e-06
4.70992835e-06
6.612562493e-06
3.256812131e-06
5.103657325e-06
3.744734387e-06
2.144887718e-06
7.635448559e-06
4.612770417e-06
6.615498338e-06
7.795151341e-06
3.068824107e-06
3.59367103e-06
4.125992745e-06
5.759340096e-06
6.314997008e-06
2.736396573e-06
)
;

boundaryField
{
    flow
    {
        type            zeroGradient;
    }
    obstacle
    {
        type            calculated;
        value           nonuniform List<scalar> 0();
    }
    frontAndBack
    {
        type            empty;
    }
    procBoundary2to0
    {
        type            processor;
        value           nonuniform List<scalar> 
31
(
3.389756375e-06
5.118271776e-06
4.980390442e-06
4.496139531e-06
7.677407664e-06
4.980390442e-06
3.942947953e-06
3.52763771e-06
2.905505464e-06
6.986334752e-06
7.055275419e-06
6.433143174e-06
5.464641352e-06
4.565080198e-06
4.496139531e-06
7.53952633e-06
3.043386799e-06
6.917394084e-06
4.980390442e-06
4.427198864e-06
3.068824107e-06
9.271567382e-06
5.067314563e-06
5.831998656e-06
6.46136379e-06
2.588964772e-06
5.414835214e-06
7.128980068e-06
4.011723974e-06
3.543560996e-06
3.543560996e-06
)
;
    }
    procBoundary2to3
    {
        type            processor;
        value           nonuniform List<scalar> 
19
(
7.003415541e-06
1.043176445e-06
3.129529358e-06
4.842806435e-06
3.278041767e-06
3.203785574e-06
4.768550253e-06
7.376491332e-06
6.034495355e-06
5.512907089e-06
7.673516195e-06
3.651117584e-06
4.246961997e-06
4.395474428e-06
6.481827412e-06
6.034495312e-06
9.238280863e-06
3.203785574e-06
5.364394658e-06
)
;
    }
}


// ************************************************************************* //
