/*--------------------------------*- C++ -*----------------------------------*\
| =========                 |                                                 |
| \\      /  F ield         | OpenFOAM: The Open Source CFD Toolbox           |
|  \\    /   O peration     | Version:  2406                                  |
|   \\  /    A nd           | Website:  www.openfoam.com                      |
|    \\/     M anipulation  |                                                 |
\*---------------------------------------------------------------------------*/
FoamFile
{
    version     2.0;
    format      ascii;
    arch        "LSB;label=32;scalar=64";
    class       volScalarField;
    location    "0.007";
    object      rhoMMean;
}
// * * * * * * * * * * * * * * * * * * * * * * * * * * * * * * * * * * * * * //

dimensions      [1 -3 0 0 0 0 0];

internalField   nonuniform List<scalar> 
546
(
3.704936681e-06
4.778103528e-06
4.830158165e-06
4.803281243e-06
4.803122712e-06
4.795393442e-06
4.790039755e-06
4.775907602e-06
4.753441276e-06
4.776599389e-06
4.794664641e-06
4.830911424e-06
4.808738654e-06
4.776582548e-06
4.787239401e-06
4.770258931e-06
4.782176413e-06
4.761661074e-06
4.724261848e-06
4.730352907e-06
3.731021902e-06
4.776834805e-06
4.810251064e-06
4.822843968e-06
4.830179766e-06
4.828513289e-06
4.816857109e-06
4.815809818e-06
4.788600421e-06
4.770341529e-06
4.779450087e-06
4.765241526e-06
4.792219791e-06
4.777906078e-06
4.780967734e-06
4.772134938e-06
4.786065833e-06
4.834444864e-06
4.854841066e-06
4.850285448e-06
3.700591842e-06
4.751409118e-06
4.769071854e-06
4.764086703e-06
4.767161867e-06
4.784045279e-06
4.808396182e-06
4.808175703e-06
4.799973221e-06
4.837007422e-06
4.808130119e-06
4.822517385e-06
4.805279421e-06
4.797006243e-06
4.798547396e-06
4.800779384e-06
4.768228856e-06
4.777364253e-06
4.766075657e-06
4.755052649e-06
3.71441949e-06
4.798672245e-06
4.818529002e-06
4.779656285e-06
4.78107354e-06
4.75684463e-06
4.764156447e-06
4.769669141e-06
4.800222145e-06
4.761267306e-06
4.802336425e-06
4.804946947e-06
4.820223449e-06
4.793187996e-06
4.813090812e-06
4.792205033e-06
4.773253401e-06
4.769224672e-06
4.815311196e-06
4.820587046e-06
3.728568007e-06
4.80341722e-06
4.820182923e-06
4.831446585e-06
4.823783548e-06
4.818997751e-06
4.776743459e-06
4.78950507e-06
4.761577524e-06
4.713078881e-06
4.715821095e-06
4.70536788e-06
4.719226174e-06
4.743750069e-06
4.774007613e-06
4.795229675e-06
4.839538202e-06
4.834301746e-06
4.800941247e-06
4.790610025e-06
3.71934174e-06
4.767770402e-06
4.771811211e-06
4.774643164e-06
4.784126925e-06
4.787451311e-06
4.789565114e-06
4.78628774e-06
4.816236792e-06
4.838448005e-06
4.864918424e-06
4.844757638e-06
4.811272766e-06
4.799137185e-06
4.811369349e-06
4.832158545e-06
4.821785548e-06
4.790712797e-06
4.830924933e-06
4.843307533e-06
3.70574094e-06
4.760543266e-06
4.793644367e-06
4.819177586e-06
4.799392953e-06
4.81941919e-06
4.820976232e-06
4.841650577e-06
4.806828667e-06
4.839909119e-06
4.826568668e-06
4.850445407e-06
4.879460591e-06
4.851828981e-06
4.841239313e-06
4.811454505e-06
4.836731183e-06
4.805586307e-06
4.792354816e-06
4.795406772e-06
3.714640921e-06
4.796422464e-06
4.836702738e-06
4.82569419e-06
4.831306323e-06
4.833136271e-06
4.840094964e-06
4.831500916e-06
4.851933656e-06
4.815233834e-06
4.815593147e-06
4.78987932e-06
4.779303637e-06
4.794465763e-06
4.798656356e-06
4.829511485e-06
4.80988824e-06
4.835485312e-06
4.86536337e-06
4.869295041e-06
3.729621487e-06
4.79294526e-06
4.779385759e-06
4.784086102e-06
4.785131965e-06
4.745078359e-06
4.752980144e-06
4.780948037e-06
4.76492494e-06
4.818736449e-06
4.837037592e-06
4.845034531e-06
4.832630329e-06
4.823046178e-06
4.821231167e-06
4.774670955e-06
4.789526196e-06
4.780792362e-06
4.754232026e-06
4.744684413e-06
3.704957331e-06
4.753559936e-06
4.771878873e-06
4.800834489e-06
4.763207464e-06
4.793172404e-06
4.798783109e-06
4.815162186e-06
4.788245869e-06
4.753404738e-06
4.739120719e-06
4.744289811e-06
4.773590458e-06
4.784240169e-06
4.788936704e-06
4.797906905e-06
4.77022144e-06
4.752889275e-06
4.741068375e-06
4.732770263e-06
3.732858038e-06
4.806258872e-06
4.808352026e-06
4.808884331e-06
4.81587861e-06
4.787833356e-06
4.80502764e-06
4.762534601e-06
4.785307812e-06
4.825444968e-06
4.803269341e-06
4.80913992e-06
4.806017744e-06
4.792307804e-06
4.739244795e-06
4.752747109e-06
4.773535353e-06
4.816736069e-06
4.841835946e-06
4.856400012e-06
3.696674156e-06
4.779169088e-06
4.79377112e-06
4.802289235e-06
4.782070785e-06
4.769365886e-06
4.786385274e-06
4.750124983e-06
4.749148864e-06
4.741225954e-06
4.72466246e-06
4.756461633e-06
4.751976056e-06
4.78780253e-06
4.827250755e-06
4.818390645e-06
4.849382703e-06
4.805227946e-06
4.817768423e-06
4.807231183e-06
3.71835735e-06
4.803006908e-06
4.829291006e-06
4.81227971e-06
4.813526831e-06
4.807348415e-06
4.787190009e-06
4.804147925e-06
4.823282546e-06
4.808142497e-06
4.808828571e-06
4.820691722e-06
4.821228786e-06
4.801407615e-06
4.775275859e-06
4.798800903e-06
4.733365468e-06
4.764251422e-06
4.775016938e-06
4.756634624e-06
3.701238046e-06
4.724320464e-06
4.7734086e-06
4.770169192e-06
4.784866854e-06
4.784020821e-06
4.797387158e-06
4.805372016e-06
4.799046018e-06
4.819899544e-06
4.790238632e-06
4.754580389e-06
4.730974176e-06
4.743279416e-06
4.733594873e-06
4.756047691e-06
4.77294842e-06
4.764927975e-06
4.7643558e-06
4.771630603e-06
3.738414412e-06
4.796164495e-06
4.791578527e-06
4.754918576e-06
4.778537345e-06
4.765951106e-06
4.776359213e-06
4.799261261e-06
4.782779413e-06
4.750402828e-06
4.750606943e-06
4.769930919e-06
4.809247452e-06
4.784666846e-06
4.81557583e-06
4.80483638e-06
4.783132537e-06
4.779790357e-06
4.805305307e-06
4.810787652e-06
3.697251567e-06
4.773662106e-06
4.802513047e-06
4.837490631e-06
4.85683859e-06
4.824755561e-06
4.781774849e-06
4.762052641e-06
4.774878104e-06
4.793784628e-06
4.788824411e-06
4.786477096e-06
4.771081458e-06
4.787897685e-06
4.818060551e-06
4.810956657e-06
4.82334497e-06
4.783516307e-06
4.769323635e-06
4.777995996e-06
3.737364265e-06
4.838949662e-06
4.863632087e-06
4.822014775e-06
4.776029595e-06
4.824212129e-06
4.859711842e-06
4.875197397e-06
4.854312094e-06
4.874333571e-06
4.855400208e-06
4.856088663e-06
4.878733217e-06
4.846021302e-06
4.825543931e-06
4.800162577e-06
4.80909386e-06
4.793940303e-06
4.828233717e-06
4.815981381e-06
3.646952373e-06
4.663157744e-06
4.698255417e-06
4.747582777e-06
4.741154484e-06
4.746786315e-06
4.758450588e-06
4.766214967e-06
4.766694844e-06
4.773925967e-06
4.811081208e-06
4.78794422e-06
4.777944521e-06
4.77587392e-06
4.779094583e-06
4.771550207e-06
4.763980897e-06
4.760224121e-06
4.777276716e-06
4.737628661e-06
4.837138534e-06
4.828774355e-06
4.839454938e-06
4.845773895e-06
4.855055321e-06
4.886763638e-06
4.752402735e-06
4.774592206e-06
4.805964734e-06
4.78065395e-06
4.816612743e-06
4.841864318e-06
4.872808332e-06
4.881989196e-06
4.844281694e-06
4.834347401e-06
4.846521682e-06
4.85387115e-06
4.867871226e-06
4.864188487e-06
4.830954805e-06
4.834904609e-06
4.840959132e-06
4.822211524e-06
4.844537696e-06
4.892787598e-06
4.770111207e-06
4.771117039e-06
4.786736843e-06
4.76633015e-06
4.797473107e-06
4.77948082e-06
4.779665144e-06
4.80245352e-06
4.81339704e-06
4.849536851e-06
4.840339478e-06
4.83951749e-06
4.807633457e-06
4.843869121e-06
4.836051136e-06
4.825356717e-06
4.804584965e-06
4.804920832e-06
4.778939255e-06
4.783009192e-06
4.782726135e-06
4.780701285e-06
4.781005324e-06
4.775760209e-06
4.784572914e-06
4.793189215e-06
4.827840469e-06
4.867576439e-06
4.821960699e-06
4.817477882e-06
4.828614073e-06
4.806740113e-06
4.818477164e-06
4.829707038e-06
4.877040277e-06
4.854662967e-06
4.810851094e-06
4.798532435e-06
4.828366725e-06
4.846762377e-06
4.811538482e-06
4.811436404e-06
4.803967424e-06
4.798274055e-06
4.773132613e-06
4.806897425e-06
4.825532451e-06
4.824526373e-06
4.793042518e-06
4.770647892e-06
4.884100204e-06
4.88793198e-06
4.859617007e-06
4.798317343e-06
4.7682097e-06
4.756935251e-06
4.754802421e-06
4.740341209e-06
4.728808824e-06
4.736001864e-06
4.706268036e-06
4.698433989e-06
4.707678267e-06
4.706680429e-06
4.752753958e-06
4.753601179e-06
4.763859016e-06
4.724089065e-06
4.749441423e-06
4.771594649e-06
4.72747942e-06
4.781191499e-06
4.805607905e-06
4.820870269e-06
4.799189056e-06
4.799178494e-06
4.830731373e-06
4.828962178e-06
4.846547315e-06
4.787987195e-06
4.836966189e-06
4.822895603e-06
4.78416531e-06
4.793553432e-06
4.82201271e-06
4.830970154e-06
4.781685407e-06
4.791319049e-06
4.812122603e-06
4.829835428e-06
4.823530562e-06
4.811961729e-06
4.823280955e-06
4.80223528e-06
4.743466383e-06
4.73963708e-06
4.762105955e-06
4.793484722e-06
4.805514051e-06
4.814403066e-06
4.746971716e-06
4.763721923e-06
4.767587513e-06
4.791771684e-06
4.799069545e-06
4.82692206e-06
4.81003083e-06
4.801981068e-06
4.780364957e-06
4.772009041e-06
4.790413002e-06
4.827562999e-06
4.817875117e-06
4.843409994e-06
4.859151968e-06
4.843030386e-06
4.827384984e-06
4.82039186e-06
4.799492259e-06
4.765353489e-06
4.792133524e-06
4.797826107e-06
4.801501153e-06
4.785031502e-06
4.789991696e-06
4.766237208e-06
4.750833727e-06
4.77294306e-06
4.814871544e-06
4.84090503e-06
4.776769257e-06
4.775788317e-06
4.781509253e-06
4.785442646e-06
4.795783407e-06
4.789901112e-06
4.810541573e-06
4.800617111e-06
4.814760742e-06
4.820739707e-06
4.794845928e-06
4.787534156e-06
4.786491993e-06
4.766769734e-06
4.772321869e-06
4.798346003e-06
4.808740946e-06
4.832543396e-06
4.843678855e-06
4.828065419e-06
4.769796365e-06
4.745204365e-06
4.748664563e-06
4.780372917e-06
4.736878696e-06
4.744511948e-06
4.745701057e-06
4.713069585e-06
4.677771858e-06
4.694420306e-06
)
;

boundaryField
{
    flow
    {
        type            calculated;
        value           nonuniform List<scalar> 
48
(
3.704936681e-06
3.731021902e-06
3.700591842e-06
3.71441949e-06
3.728568007e-06
3.71934174e-06
3.70574094e-06
3.714640921e-06
3.729621487e-06
3.704957331e-06
3.732858038e-06
3.696674156e-06
3.71835735e-06
3.701238046e-06
3.738414412e-06
3.697251567e-06
3.737364265e-06
3.646952373e-06
3.646952373e-06
4.663157744e-06
4.698255417e-06
4.747582777e-06
4.741154484e-06
4.746786315e-06
4.758450588e-06
4.766214967e-06
4.766694844e-06
4.773925967e-06
4.811081208e-06
4.78794422e-06
4.777944521e-06
4.77587392e-06
4.779094583e-06
4.771550207e-06
4.763980897e-06
4.760224121e-06
4.777276716e-06
4.737628661e-06
4.769796365e-06
4.745204365e-06
4.748664563e-06
4.780372917e-06
4.736878696e-06
4.744511948e-06
4.745701057e-06
4.713069585e-06
4.677771858e-06
4.694420306e-06
)
;
    }
    obstacle
    {
        type            calculated;
        value           nonuniform List<scalar> 0();
    }
    frontAndBack
    {
        type            empty;
    }
    procBoundary2to0
    {
        type            processor;
        value           nonuniform List<scalar> 
31
(
3.718329559e-06
4.763296905e-06
4.785924619e-06
4.746258771e-06
4.769858795e-06
4.75153605e-06
4.803015656e-06
4.831476458e-06
4.875512555e-06
4.870549005e-06
4.822879078e-06
4.799220438e-06
4.79073059e-06
4.815825707e-06
4.814263428e-06
4.803413887e-06
4.805254308e-06
4.801205881e-06
4.818940087e-06
4.818665277e-06
4.767920276e-06
4.747995437e-06
4.737220196e-06
4.763441383e-06
4.84866932e-06
4.842002592e-06
4.815703414e-06
4.795653749e-06
4.798910999e-06
4.822751458e-06
4.822751458e-06
)
;
    }
    procBoundary2to3
    {
        type            processor;
        value           nonuniform List<scalar> 
19
(
4.894934298e-06
4.862586086e-06
4.872135015e-06
4.867249133e-06
4.771079289e-06
4.797531202e-06
4.883853588e-06
4.754893357e-06
4.73167129e-06
4.753144923e-06
4.80547655e-06
4.823188343e-06
4.824478898e-06
4.778260381e-06
4.803861827e-06
4.801478893e-06
4.870820097e-06
4.814174465e-06
4.673903894e-06
)
;
    }
}


// ************************************************************************* //
