/*--------------------------------*- C++ -*----------------------------------*\
| =========                 |                                                 |
| \\      /  F ield         | OpenFOAM: The Open Source CFD Toolbox           |
|  \\    /   O peration     | Version:  2406                                  |
|   \\  /    A nd           | Website:  www.openfoam.com                      |
|    \\/     M anipulation  |                                                 |
\*---------------------------------------------------------------------------*/
FoamFile
{
    version     2.0;
    format      ascii;
    arch        "LSB;label=32;scalar=64";
    class       volScalarField;
    location    "0.007";
    object      rhoNMean;
}
// * * * * * * * * * * * * * * * * * * * * * * * * * * * * * * * * * * * * * //

dimensions      [0 -3 0 0 0 0 0];

internalField   nonuniform List<scalar> 
546
(
7.722723433e+19
9.961435477e+19
1.006884843e+20
1.001350547e+20
1.001291038e+20
9.9956529e+19
9.985833987e+19
9.955484621e+19
9.911448287e+19
9.956972335e+19
9.9956529e+19
1.007182386e+20
1.002659735e+20
9.958757592e+19
9.983751188e+19
9.945963252e+19
9.970956847e+19
9.927515598e+19
9.845096242e+19
9.860270925e+19
7.775686052e+19
9.95637725e+19
1.002391947e+20
1.005248357e+20
1.00700386e+20
1.006260003e+20
1.004087941e+20
1.003879661e+20
9.984941359e+19
9.948343594e+19
9.965898619e+19
9.937036968e+19
9.994165186e+19
9.961137935e+19
9.966493705e+19
9.94893868e+19
9.97661016e+19
1.007658454e+20
1.011943071e+20
1.010366094e+20
7.715582406e+19
9.909365487e+19
9.942690281e+19
9.929300855e+19
9.930788569e+19
9.969469133e+19
1.002183667e+20
1.001945632e+20
1.00019013e+20
1.007777471e+20
1.001558827e+20
1.004534255e+20
1.000666198e+20
9.994165186e+19
9.997140614e+19
1.000100867e+20
9.932871368e+19
9.954889536e+19
9.929003312e+19
9.909067944e+19
7.740278458e+19
1.000130621e+20
1.003939169e+20
9.959352678e+19
9.958757592e+19
9.908770401e+19
9.923647542e+19
9.934359082e+19
9.997438156e+19
9.915316343e+19
1.000160376e+20
1.00081497e+20
1.003968923e+20
9.983751188e+19
1.002600227e+20
9.984941359e+19
9.946260794e+19
9.939714853e+19
1.003492855e+20
1.004534255e+20
7.768545025e+19
1.00123153e+20
1.00512934e+20
1.007390666e+20
1.006111232e+20
1.00492106e+20
9.960840392e+19
9.98404873e+19
9.92454017e+19
9.82367316e+19
9.826351045e+19
9.805523049e+19
9.837062586e+19
9.886752234e+19
9.949831308e+19
9.991784843e+19
1.008372557e+20
1.007331157e+20
1.000368656e+20
9.985238902e+19
7.751287542e+19
9.941797652e+19
9.943582909e+19
9.953104279e+19
9.97125439e+19
9.98077576e+19
9.984643816e+19
9.979883131e+19
1.00471278e+20
1.009175922e+20
1.015156533e+20
1.010812408e+20
1.003463101e+20
1.000874478e+20
1.003344084e+20
1.007569191e+20
1.005575655e+20
9.987916787e+19
1.00679558e+20
1.008818871e+20
7.720640633e+19
9.918291771e+19
9.985833987e+19
1.003849906e+20
9.996247985e+19
1.004177203e+20
1.004236712e+20
1.0086701e+20
1.001469564e+20
1.008164277e+20
1.005367375e+20
1.010514865e+20
1.01673351e+20
1.010812408e+20
1.008818871e+20
1.002510964e+20
1.007747717e+20
1.001380301e+20
9.992379929e+19
1.00039841e+20
7.743253886e+19
9.998628328e+19
1.008432065e+20
1.006111232e+20
1.007241894e+20
1.007122877e+20
1.008699854e+20
1.007093123e+20
1.011199214e+20
1.003582118e+20
1.003879661e+20
9.98404873e+19
9.960542849e+19
9.994462728e+19
1.000368656e+20
1.007093123e+20
1.003106049e+20
1.0086701e+20
1.01465071e+20
1.015394567e+20
7.774495881e+19
9.992082386e+19
9.962625649e+19
9.970361761e+19
9.971551933e+19
9.892108004e+19
9.906390059e+19
9.966493705e+19
9.936144339e+19
1.004593763e+20
1.008432065e+20
1.009651991e+20
1.007509683e+20
1.005575655e+20
1.005397129e+20
9.958162507e+19
9.984941359e+19
9.967683876e+19
9.913233543e+19
9.892108004e+19
7.723318519e+19
9.911745829e+19
9.94893868e+19
1.001082758e+20
9.933763997e+19
9.998628328e+19
1.000904233e+20
1.004028432e+20
9.984941359e+19
9.913233543e+19
9.886454691e+19
9.904009717e+19
9.959947763e+19
9.980478217e+19
9.985833987e+19
1.000309147e+20
9.947153423e+19
9.911150744e+19
9.884966977e+19
9.869197209e+19
7.778363937e+19
1.001558827e+20
1.001886124e+20
1.001915878e+20
1.003254821e+20
9.973337189e+19
1.000933987e+20
9.919481942e+19
9.970659304e+19
1.005307866e+20
1.00060669e+20
1.001886124e+20
1.001261284e+20
9.987619244e+19
9.87782595e+19
9.908472859e+19
9.950128851e+19
1.003909415e+20
1.009175922e+20
1.012121596e+20
7.704573322e+19
9.962625649e+19
9.991189758e+19
1.000904233e+20
9.966493705e+19
9.941797652e+19
9.979288046e+19
9.906985145e+19
9.90014166e+19
9.884966977e+19
9.849261841e+19
9.915613886e+19
9.906687602e+19
9.97869296e+19
1.006140986e+20
1.003909415e+20
1.010574374e+20
1.001142267e+20
1.004415238e+20
1.002005141e+20
7.751585085e+19
1.00143981e+20
1.006855089e+20
1.003611872e+20
1.003998678e+20
1.001945632e+20
9.977502789e+19
1.001350547e+20
1.005575655e+20
1.002332438e+20
1.002124158e+20
1.00492106e+20
1.005248357e+20
1.001201775e+20
9.954591993e+19
1.000785215e+20
9.871875094e+19
9.933763997e+19
9.952806736e+19
9.912936001e+19
7.713202063e+19
9.844798699e+19
9.94477308e+19
9.939119767e+19
9.965898619e+19
9.966493705e+19
9.998330785e+19
1.001529072e+20
1.000100867e+20
1.004653272e+20
9.987024158e+19
9.909365487e+19
9.854617611e+19
9.87574315e+19
9.855212697e+19
9.903117088e+19
9.940309938e+19
9.925730341e+19
9.925135256e+19
9.94150011e+19
7.791753363e+19
9.997438156e+19
9.987321701e+19
9.911448287e+19
9.96173302e+19
9.93733451e+19
9.954591993e+19
1.000011604e+20
9.966196162e+19
9.895976061e+19
9.900439203e+19
9.937929596e+19
1.002451455e+20
9.976312618e+19
1.004028432e+20
1.001291038e+20
9.965303534e+19
9.956972335e+19
1.001053004e+20
1.002689489e+20
7.708441379e+19
9.955484621e+19
1.001350547e+20
1.008432065e+20
1.012448893e+20
1.005307866e+20
9.966196162e+19
9.926027884e+19
9.952211651e+19
9.987321701e+19
9.977205246e+19
9.975122446e+19
9.942987824e+19
9.97661016e+19
1.004206958e+20
1.003403592e+20
1.005783935e+20
9.97125439e+19
9.940012396e+19
9.955782164e+19
7.787885307e+19
1.008521328e+20
1.013549802e+20
1.00512934e+20
9.957864964e+19
1.005813689e+20
1.013520047e+20
1.016197933e+20
1.012121596e+20
1.016376458e+20
1.012419139e+20
1.01235963e+20
1.016822772e+20
1.009771008e+20
1.00533762e+20
9.997140614e+19
1.001469564e+20
9.98613153e+19
1.006021969e+20
1.003522609e+20
7.602516141e+19
9.720128265e+19
9.792133623e+19
9.893893261e+19
9.877230864e+19
9.888537491e+19
9.915316343e+19
9.92989594e+19
9.934359082e+19
9.948046051e+19
1.002570472e+20
9.981073302e+19
9.960542849e+19
9.959055135e+19
9.965303534e+19
9.952806736e+19
9.937036968e+19
9.928110684e+19
9.96173302e+19
9.877230864e+19
1.008441505e+20
1.006853617e+20
1.00879257e+20
1.010132164e+20
1.011901723e+20
1.018182975e+20
9.905688885e+19
9.949148103e+19
1.001682221e+20
9.965941336e+19
1.003345575e+20
1.008894035e+20
1.015455589e+20
1.017281988e+20
1.008964273e+20
1.00672949e+20
1.009559726e+20
1.011390494e+20
1.014215358e+20
1.013421491e+20
1.006814484e+20
1.007533763e+20
1.008761441e+20
1.004926591e+20
1.009280134e+20
1.019519215e+20
9.940923445e+19
9.941631824e+19
9.973834154e+19
9.930884342e+19
9.99784564e+19
9.959095557e+19
9.96213805e+19
1.001351686e+20
1.003657925e+20
1.010929094e+20
1.008634065e+20
1.008684627e+20
1.002015227e+20
1.009793861e+20
1.007796839e+20
1.005586084e+20
1.001382303e+20
1.001163518e+20
9.958879143e+19
9.968349523e+19
9.967797262e+19
9.960873431e+19
9.96142211e+19
9.947041111e+19
9.962542513e+19
9.982282127e+19
1.005585613e+20
1.014334261e+20
1.004384396e+20
1.004152456e+20
1.005946684e+20
1.001408875e+20
1.004618729e+20
1.007568497e+20
1.017896603e+20
1.013191286e+20
1.003966563e+20
1.001508473e+20
1.007479766e+20
1.011279076e+20
1.003677346e+20
1.00384415e+20
1.002106047e+20
1.000526621e+20
9.950570148e+19
1.001814402e+20
1.005616748e+20
1.005585127e+20
9.991412113e+19
9.943215487e+19
1.01827878e+20
1.019267554e+20
1.013125527e+20
1.000709527e+20
9.94750031e+19
9.925706896e+19
9.920416312e+19
9.884004621e+19
9.860964448e+19
9.877676102e+19
9.808047351e+19
9.794312691e+19
9.812780249e+19
9.807422687e+19
9.90268062e+19
9.901283777e+19
9.925398142e+19
9.846687626e+19
9.896971813e+19
9.942579182e+19
9.858211809e+19
9.968690428e+19
1.001924414e+20
1.005190725e+20
1.000337142e+20
1.000330469e+20
1.007204655e+20
1.006463169e+20
1.010733056e+20
9.986166055e+19
1.007827858e+20
1.004776168e+20
9.969898628e+19
9.993682156e+19
1.005525159e+20
1.007224602e+20
9.975214991e+19
9.995955885e+19
1.003721103e+20
1.007747578e+20
1.005737665e+20
1.003092515e+20
1.005496647e+20
1.000892426e+20
9.889787372e+19
9.884589378e+19
9.924775292e+19
9.987175329e+19
1.001036343e+20
1.002848032e+20
9.896432348e+19
9.934716847e+19
9.942350012e+19
9.990024035e+19
1.000490627e+20
1.0062044e+20
1.002939096e+20
1.001665274e+20
9.974355993e+19
9.951487377e+19
9.978546789e+19
1.005407529e+20
1.003316971e+20
1.008848839e+20
1.012524388e+20
1.008863119e+20
1.005461063e+20
1.004079894e+20
9.99741334e+19
9.925080874e+19
9.991386501e+19
1.000326531e+20
1.000774029e+20
9.977525386e+19
9.983417336e+19
9.932199135e+19
9.900489615e+19
9.941705026e+19
1.003026224e+20
1.008511144e+20
9.951075842e+19
9.950350708e+19
9.963238507e+19
9.969599525e+19
9.996003737e+19
9.986610286e+19
1.002658862e+20
1.00075586e+20
1.0039422e+20
1.005297805e+20
9.994073883e+19
9.977108661e+19
9.971109559e+19
9.928140751e+19
9.93921175e+19
9.994648367e+19
1.002191842e+20
1.007121712e+20
1.009185371e+20
1.006379523e+20
9.941819239e+19
9.892625619e+19
9.902086485e+19
9.966855934e+19
9.875052154e+19
9.887062613e+19
9.887412605e+19
9.823168399e+19
9.745361854e+19
9.781912244e+19
)
;

boundaryField
{
    flow
    {
        type            calculated;
        value           nonuniform List<scalar> 
48
(
7.722723433e+19
7.775686052e+19
7.715582406e+19
7.740278458e+19
7.768545025e+19
7.751287542e+19
7.720640633e+19
7.743253886e+19
7.774495881e+19
7.723318519e+19
7.778363937e+19
7.704573322e+19
7.751585085e+19
7.713202063e+19
7.791753363e+19
7.708441379e+19
7.787885307e+19
7.602516141e+19
7.602516141e+19
9.720128265e+19
9.792133623e+19
9.893893261e+19
9.877230864e+19
9.888537491e+19
9.915316343e+19
9.92989594e+19
9.934359082e+19
9.948046051e+19
1.002570472e+20
9.981073302e+19
9.960542849e+19
9.959055135e+19
9.965303534e+19
9.952806736e+19
9.937036968e+19
9.928110684e+19
9.96173302e+19
9.877230864e+19
9.941819239e+19
9.892625619e+19
9.902086485e+19
9.966855934e+19
9.875052154e+19
9.887062613e+19
9.887412605e+19
9.823168399e+19
9.745361854e+19
9.781912244e+19
)
;
    }
    obstacle
    {
        type            calculated;
        value           nonuniform List<scalar> 0();
    }
    frontAndBack
    {
        type            empty;
    }
    procBoundary2to0
    {
        type            processor;
        value           nonuniform List<scalar> 
31
(
7.746526857e+19
9.928110684e+19
9.974527361e+19
9.891215376e+19
9.942095195e+19
9.902522003e+19
1.000755461e+20
1.00679558e+20
1.016197933e+20
1.014978007e+20
1.004980569e+20
9.999223413e+19
9.986726616e+19
1.003641626e+20
1.003254821e+20
1.00102325e+20
1.001558827e+20
1.000904233e+20
1.005010323e+20
1.005069832e+20
9.944430473e+19
9.902520326e+19
9.881496915e+19
9.932610951e+19
1.011364771e+20
1.009974644e+20
1.004543273e+20
1.000146134e+20
1.00047129e+20
1.005465084e+20
1.005465084e+20
)
;
    }
    procBoundary2to3
    {
        type            processor;
        value           nonuniform List<scalar> 
19
(
1.020133623e+20
1.012570193e+20
1.015326366e+20
1.014941777e+20
9.938859576e+19
1.000231554e+20
1.018435063e+20
9.913541315e+19
9.866430191e+19
9.908093081e+19
1.00221855e+20
1.005968223e+20
1.005743877e+20
9.958409119e+19
1.000744336e+20
1.000327692e+20
1.015358407e+20
1.003500494e+20
9.736313488e+19
)
;
    }
}


// ************************************************************************* //
