/*--------------------------------*- C++ -*----------------------------------*\
| =========                 |                                                 |
| \\      /  F ield         | OpenFOAM: The Open Source CFD Toolbox           |
|  \\    /   O peration     | Version:  2406                                  |
|   \\  /    A nd           | Website:  www.openfoam.com                      |
|    \\/     M anipulation  |                                                 |
\*---------------------------------------------------------------------------*/
FoamFile
{
    version     2.0;
    format      ascii;
    arch        "LSB;label=32;scalar=64";
    class       volScalarField;
    location    "0.007";
    object      translationalT;
}
// * * * * * * * * * * * * * * * * * * * * * * * * * * * * * * * * * * * * * //

dimensions      [1 2 -2 0 0 0 0];

internalField   nonuniform List<scalar> 
546
(
284.9972825
302.978044
297.1024632
298.7665945
298.6931076
297.7011035
299.3930976
301.6528565
300.4879694
300.1782945
303.1679905
302.2610077
301.3836698
299.7609799
297.9586811
298.4070281
298.6276621
298.5980292
299.6579827
301.4785198
289.7573653
304.7915352
297.7905093
297.8551797
298.2584616
299.1173691
299.0665718
298.7778765
298.567751
298.7906539
297.4087932
298.7141688
300.003398
301.6018907
300.7217788
298.3684377
297.6901222
299.3394997
297.7122602
296.3564925
289.9762997
304.8333411
296.928628
298.2009215
299.3522641
299.8511416
299.2357262
299.2826067
298.1023188
299.2199541
297.7814766
299.2800708
298.1816731
296.2832923
297.3381744
297.7945246
297.4643109
296.4723105
297.8455345
298.5702666
291.9451124
307.5377512
301.492527
299.0080821
296.8548593
296.9420527
297.1553724
296.6689531
296.6271719
296.2858284
297.5502919
298.3222733
298.7540251
299.5240759
301.0428306
301.0273175
300.0066967
302.5043197
303.7666424
301.3065067
288.6058153
305.428594
299.3810364
301.3005021
300.0626331
299.475975
299.0767576
299.3771955
300.8940081
299.3327407
298.7888855
297.6069179
300.3407444
301.3909689
301.2845618
303.8430969
304.7597938
303.7028771
302.1966493
302.2703637
291.7382541
307.1554644
297.5369844
296.1238926
298.256315
297.6104202
297.231304
298.465766
297.4029467
299.2344161
300.3241228
299.0397548
299.3267097
300.0301804
301.9101818
303.3984114
304.4076861
302.5573324
304.2061423
305.7084087
287.8019902
302.4188858
297.3369217
299.5087586
298.0303418
299.3398294
300.2918088
301.9442968
300.8463217
299.4515411
297.6913635
298.0202574
299.6835312
297.5488061
298.1429502
297.5854171
298.8658652
301.8005891
301.0977184
300.263736
287.9548714
304.4993762
297.9122027
299.0949126
299.8753899
298.7907036
299.0700628
298.7713974
298.3894388
300.8786405
301.2959133
299.878596
298.3514563
299.2617876
299.2276353
300.1617358
300.1293406
298.489697
299.3585837
301.3227559
291.6744339
306.0067629
299.1601503
298.5843682
297.730034
298.6512395
298.8535808
299.5984988
301.5083714
302.0096891
300.2838891
301.7764037
302.9725529
301.6365248
301.4092882
300.5253543
301.0677597
301.0468649
300.1381092
301.0957035
291.5568923
309.6955924
302.6887449
300.359682
300.3435084
299.0411496
299.556639
300.406691
301.8216898
300.7281666
299.9364722
301.2566024
299.2021686
300.4923644
302.5441457
301.0497199
300.512704
301.984941
299.4230957
298.4144762
292.786393
308.2731275
299.202814
300.2730386
301.9900472
303.7590617
302.062761
299.225932
297.9159458
298.8648299
298.3433143
297.341876
299.5554939
298.7854315
296.9237186
297.3947153
300.4772592
298.6841853
300.2694245
300.634674
287.3874308
303.5747802
296.5672369
300.7863517
298.6881163
297.4719499
297.6018232
297.2339066
297.2828346
297.6503992
297.752899
298.3857419
299.3690048
301.3665572
301.8074514
300.7901347
300.6842397
302.5964199
302.9319043
302.0445542
290.7749787
306.8831398
298.9535727
298.8078827
299.76197
298.4489532
299.4270771
299.7687224
300.5033452
299.8426407
300.3887134
302.0338353
301.6960011
299.4172482
298.2988444
300.2104629
298.5396622
298.7594738
299.8212511
301.2469523
288.9553631
305.0003601
299.6847854
301.8556452
301.3393557
300.6506224
301.904458
302.504919
303.1075209
303.4399141
300.0217714
298.9518046
298.2678376
299.9007461
299.8578509
299.5692707
300.8547546
299.9551157
299.1166144
297.777079
292.8286819
307.6589417
298.3704637
297.4219595
299.134208
300.440506
301.5158063
303.4061041
303.0752968
303.7540505
301.5222809
301.6032755
301.1310792
300.3365262
299.6440432
301.1088374
300.5791816
301.9478849
301.2361885
298.5082441
289.5316268
304.5784846
298.9277757
302.3222102
301.7880992
300.4829146
299.9624892
297.2565407
297.5544639
299.9860033
300.9719069
301.2400981
300.8943194
302.4569688
301.6416795
298.8445997
299.0608234
297.6599764
298.7048255
300.5152502
290.7583553
306.3168191
299.2920863
297.75419
297.4636896
297.5049075
298.0052155
297.7874481
297.0037833
298.5051726
297.7185923
299.660989
300.6250524
298.9550813
298.7780066
298.6965798
297.0751215
298.3986654
299.4211369
297.3137931
290.5776111
303.4179778
297.0299659
295.3575203
293.2550792
293.8996867
295.3464486
297.1636293
297.1338829
297.9382343
298.4933123
295.3335857
295.4776595
294.8258633
295.8374871
295.3829636
296.1360997
297.4843541
295.6182918
294.9650938
305.5316051
308.1170031
305.2657044
307.2160375
314.125172
320.9310451
302.1246709
305.3115464
302.8900682
303.2592653
305.7035245
304.3378586
303.9161286
310.475115
307.6373912
311.7370588
297.1562758
296.8438299
298.0138138
299.4254024
303.2028406
305.3965039
305.4588811
306.5543232
308.0103903
311.7853868
300.2821284
302.0846549
303.0361682
300.2296076
300.0492999
301.7313804
301.3810144
304.0137256
307.6190492
308.0670788
300.0492572
302.285483
303.2350206
302.62298
301.7863706
305.0226849
304.7281702
302.4598153
304.8459981
304.8226084
302.5307291
303.7843229
302.1496556
303.0293813
303.222275
304.9933313
307.9898082
307.0075569
305.7012354
306.659335
304.5049103
303.1111782
302.7483666
303.7963061
305.4508001
302.0581026
301.8073995
302.2927873
301.0506995
301.1778642
301.6070417
302.0075963
303.8937561
300.1348426
301.1476399
300.5744358
299.7904408
303.951635
303.4529461
304.0755657
299.2874043
301.2986636
299.2776654
299.0356413
300.9635959
300.460836
300.947599
302.247094
302.5772019
302.1353631
300.0967849
301.4937824
303.2811796
300.1714173
302.2280883
302.327211
299.1004792
300.7633939
300.9035365
300.3997263
300.1345636
300.6718304
302.3275046
303.9768727
299.9342159
301.2489463
302.759184
302.7650606
303.0034376
302.3622387
298.6445192
298.5556996
298.3217062
298.8489239
300.670869
301.0350772
300.0169726
300.7555355
301.8481369
304.3535175
301.555468
301.330536
301.1700602
302.5719075
301.1261547
300.42672
302.4230042
301.432169
301.5030347
301.3150298
303.4773882
303.6569323
306.0302502
304.6495443
303.2150666
303.7308909
302.3173256
301.7600345
299.6088558
297.6705683
296.9735302
297.2003832
296.4864658
298.9799679
300.6693195
298.0336917
297.7578883
299.7067697
297.008083
298.7737603
298.9505442
299.7421049
301.2040421
298.9157057
298.9179462
300.0671498
299.0141666
297.3466098
298.6470639
299.8768508
298.5881868
299.659895
298.1580663
298.6143862
298.7614617
297.1370939
299.0712691
299.3077328
299.5054524
299.5325277
297.18164
297.2692879
295.4788976
297.8835359
298.0525789
300.0248795
301.7907858
301.2736724
302.8773883
301.0696556
297.9873773
296.8695794
297.1371711
296.5617266
298.2642425
297.0046729
296.9517075
296.7156016
296.312678
297.765702
)
;

boundaryField
{
    flow
    {
        type            calculated;
        value           nonuniform List<scalar> 
48
(
284.9972825
289.7573653
289.9762997
291.9451124
288.6058153
291.7382541
287.8019902
287.9548714
291.6744339
291.5568923
292.786393
287.3874308
290.7749787
288.9553631
292.8286819
289.5316268
290.7583553
290.5776111
290.5776111
303.4179778
297.0299659
295.3575203
293.2550792
293.8996867
295.3464486
297.1636293
297.1338829
297.9382343
298.4933123
295.3335857
295.4776595
294.8258633
295.8374871
295.3829636
296.1360997
297.4843541
295.6182918
294.9650938
297.9873773
296.8695794
297.1371711
296.5617266
298.2642425
297.0046729
296.9517075
296.7156016
296.312678
297.765702
)
;
    }
    obstacle
    {
        type            calculated;
        value           nonuniform List<scalar> 0();
    }
    frontAndBack
    {
        type            empty;
    }
    procBoundary2to0
    {
        type            processor;
        value           nonuniform List<scalar> 
31
(
290.8534116
306.3940211
297.8354808
298.9852792
298.1403317
298.7146091
298.8389027
300.4893263
302.0126995
300.8134397
299.213507
298.6749401
300.5755074
301.4943514
303.1815014
300.0901437
298.8717912
302.3940046
301.978163
302.2343155
306.6777294
309.4361081
311.923038
321.8318567
327.5708862
330.9101179
297.7961084
300.9942416
303.1309776
305.2823891
305.2823891
)
;
    }
    procBoundary2to3
    {
        type            processor;
        value           nonuniform List<scalar> 
19
(
326.9228481
320.6207476
317.5291651
311.9334028
309.9479183
309.6520578
304.5241095
305.718941
302.3061298
300.4439036
302.7096559
306.0797078
302.0059842
297.0608362
302.5240526
300.6109151
300.5168335
300.488005
297.5828265
)
;
    }
}


// ************************************************************************* //
