/*--------------------------------*- C++ -*----------------------------------*\
| =========                 |                                                 |
| \\      /  F ield         | OpenFOAM: The Open Source CFD Toolbox           |
|  \\    /   O peration     | Version:  2406                                  |
|   \\  /    A nd           | Website:  www.openfoam.com                      |
|    \\/     M anipulation  |                                                 |
\*---------------------------------------------------------------------------*/
FoamFile
{
    version     2.0;
    format      ascii;
    arch        "LSB;label=32;scalar=64";
    class       volVectorField;
    location    "0.007";
    object      UMean;
}
// * * * * * * * * * * * * * * * * * * * * * * * * * * * * * * * * * * * * * //

dimensions      [0 1 -1 0 0 0 0];

internalField   nonuniform List<vector> 
546
(
(1709.740561 0.7431141532 -0.4330933161)
(1741.90819 1.56261036 -0.003188298816)
(1732.761599 2.851931023 1.241427767)
(1730.713196 3.032058434 0.8623215261)
(1732.743141 -0.8767124161 0.6989584678)
(1734.41235 -1.865920538 1.194606732)
(1734.457141 0.1225464747 1.681106355)
(1734.057272 -0.4802685527 0.07734406961)
(1736.621801 -1.878684818 -0.5210792633)
(1737.719175 -1.6971381 -2.437983752)
(1737.142142 -1.842849325 -5.051528182)
(1739.110642 1.991786479 -2.653635258)
(1740.532056 2.189770742 -1.612107876)
(1738.714717 3.966127825 -0.3727691599)
(1738.461083 3.253728081 1.509430936)
(1738.494082 1.957080071 -1.18192068)
(1738.097066 -0.4147205746 -3.173859856)
(1739.728999 -0.805280662 -1.536850916)
(1740.063765 1.461238103 -2.103603221)
(1738.916126 2.783633635 -3.204283439)
(1710.547481 0.9935104572 2.559944048)
(1748.811391 0.0475526233 3.226663387)
(1741.63629 1.855337994 3.935415773)
(1739.973499 0.1180187558 1.938366365)
(1736.934549 1.263381176 1.110265919)
(1734.077918 1.256220194 -0.01317623478)
(1736.237157 -2.511125899 -0.3733232006)
(1735.387553 -3.515406437 -2.06773432)
(1735.795724 -2.622085197 -1.223543213)
(1735.555227 -0.03110679872 0.4672721211)
(1737.142585 1.916307653 0.2273488012)
(1737.25448 0.427147408 -1.119802578)
(1736.453836 0.3952069922 -2.792597115)
(1738.55239 0.4138606451 -2.566117978)
(1738.602399 2.673889873 -2.251884437)
(1738.597388 2.288656209 1.211353358)
(1738.564745 1.655563733 1.411914607)
(1736.498666 4.293813617 -0.1444492839)
(1736.270988 2.391644873 1.375851025)
(1736.827539 1.862228146 2.03106483)
(1709.916487 2.543590145 -4.309084444)
(1746.901264 1.946176889 -4.921142047)
(1740.494729 -2.389143531 -1.597285987)
(1738.419067 -3.590016045 -0.3057318495)
(1741.645628 -2.927152865 2.420196114)
(1743.262916 -2.933970029 2.615666998)
(1741.495501 2.242388533 1.131450943)
(1742.414217 4.737301791 1.931687283)
(1742.449114 4.847814502 0.3758292478)
(1738.456776 2.557837841 -0.539168861)
(1738.350741 2.424449814 -1.531881971)
(1736.777705 2.440308123 -0.3751252645)
(1733.242628 1.127136009 1.404734856)
(1735.380672 0.133508271 1.243056064)
(1736.081361 -0.4791473773 1.106904599)
(1736.933943 0.8108629319 0.2286981042)
(1737.247048 1.553969602 -0.5368162198)
(1737.866566 0.03106063989 0.4259229786)
(1738.441961 1.071550374 1.001221945)
(1738.105746 -2.89050807 -1.704505043)
(1709.938239 -0.3567738287 -0.2940528049)
(1747.813007 -1.267695646 0.7493481567)
(1739.463896 0.7602940057 -2.070437368)
(1739.981521 1.25683342 -2.413548284)
(1741.054766 -0.3918666894 -0.6420462904)
(1741.125571 0.783412517 1.954807493)
(1740.082175 -3.017572445 1.559453499)
(1739.876773 -2.886275287 0.8348785094)
(1738.964822 -1.477909488 1.266637076)
(1739.684608 0.5713268271 1.142048661)
(1740.285964 -1.367166484 1.950173161)
(1741.253829 0.3672787109 3.925172426)
(1742.675249 3.753781573 1.017731499)
(1740.31302 5.500679052 2.280720972)
(1739.819037 4.280634062 2.670012123)
(1739.576923 2.08094683 1.985149693)
(1739.649373 1.6685115 2.819743762)
(1738.213399 -0.4493256691 1.618756398)
(1737.142864 -1.524077925 0.1811283564)
(1737.997553 -2.310509932 2.579521266)
(1712.383921 -2.179739624 -1.518032753)
(1746.4409 -0.1736875542 -1.221521831)
(1737.262045 0.9378305087 -0.8360818432)
(1734.009512 1.359903772 -2.533805943)
(1735.892801 2.740299293 -3.929426942)
(1733.530365 4.086577547 -4.430613497)
(1734.523412 3.869428153 -3.092125528)
(1735.733839 3.243797865 0.1735366172)
(1735.706136 -0.8425842273 -0.6320765912)
(1737.042221 -0.89675121 0.383762733)
(1739.949235 3.150482419 -0.6235884897)
(1739.639501 0.03176782237 0.2159980284)
(1739.893591 -0.808067738 1.100668197)
(1738.790421 -0.868452269 -0.5123727518)
(1737.119157 -0.1207215124 -2.321599413)
(1735.852847 -0.9380029559 -1.457524243)
(1735.142273 -1.965774846 -0.2956178136)
(1735.182852 -2.657720575 0.6253987512)
(1734.618164 -2.254706503 0.8350496734)
(1734.427225 0.2753859676 0.6797532482)
(1708.919267 1.209627229 0.8631214366)
(1745.720831 2.892096997 0.4550423431)
(1737.709179 2.767153277 0.8907164146)
(1738.011931 4.602260985 3.752415039)
(1736.558554 2.915966884 4.428967991)
(1737.894809 2.807411286 3.408480393)
(1737.580393 3.051429544 2.399291193)
(1737.384135 0.2509289305 -0.4986799559)
(1736.856992 4.174187031 2.345060487)
(1736.907986 -0.6277492176 0.8114222272)
(1734.650928 -3.351067153 2.149820755)
(1734.276671 -2.593807407 0.4278046901)
(1734.331375 -2.1729521 -0.4896046993)
(1735.731907 -2.753018281 0.1510456088)
(1736.152981 -4.216559575 0.8137804566)
(1734.877432 -2.886947989 0.3257209249)
(1734.543708 -0.420008858 -1.064439742)
(1734.417099 0.8842119821 -2.735961704)
(1732.871129 1.036256185 -0.7173900812)
(1734.951014 -1.237748827 -1.146455671)
(1707.877944 2.270916739 1.038139155)
(1745.518222 2.312500841 1.656585652)
(1736.345195 1.105812318 2.302551638)
(1736.517992 0.629426549 -0.1482772246)
(1737.089 -0.6096261225 -0.5244889027)
(1735.934862 -2.091218907 0.4093210616)
(1735.840964 -1.418232502 1.913155437)
(1737.344799 -1.349597648 1.276051187)
(1737.353609 -0.3483075622 0.7056456446)
(1734.867019 0.1745200946 0.2464774374)
(1738.028259 2.324297821 1.276928864)
(1735.899974 2.137084395 0.2142816874)
(1735.216321 0.4666450308 -0.2559033691)
(1736.407358 0.3306293212 -1.006920244)
(1734.59882 0.9203384318 0.2896906812)
(1735.029573 0.6022425059 0.05103075719)
(1733.090532 -1.755484102 0.7355355944)
(1734.044769 -1.882804351 1.646917774)
(1733.886856 -1.700163842 2.091871409)
(1735.356512 -0.4716985254 0.5656488576)
(1710.62653 -0.3471795089 2.507303081)
(1746.275214 -2.228080328 -0.2422669176)
(1737.481279 -3.513329239 -0.5235930325)
(1736.975223 -1.303106012 -0.7580173789)
(1735.887384 -2.801334594 1.475691225)
(1736.84305 -0.4893568397 -0.5835550483)
(1735.900632 1.317290037 -2.403117106)
(1735.198712 2.431645697 -1.25331182)
(1735.498114 0.5382204972 -2.368899288)
(1736.377784 1.988335993 -1.825918636)
(1735.435381 1.303259061 -1.902271653)
(1734.947456 -0.6484943937 -2.847119376)
(1734.500546 -0.9181497165 -1.751549206)
(1735.274398 -0.6498436114 -1.280122571)
(1735.709284 -1.146597223 -0.1172926779)
(1734.076997 -0.7407120729 -1.057338086)
(1736.95808 -0.4846699923 -0.9557244276)
(1737.16614 0.3665073818 -2.734108147)
(1734.368407 -1.821392502 -3.032274593)
(1734.2869 -0.6752187123 -2.466957186)
(1706.640645 -1.08546249 -0.1686700245)
(1743.247061 -2.271980552 -0.2062288035)
(1733.796976 -5.091296515 0.06649629973)
(1732.624883 -4.680833916 -1.581046398)
(1732.548096 -0.1581177782 -0.3241960326)
(1733.025916 0.7288371833 0.7050456496)
(1734.001334 0.600220906 1.714453812)
(1735.095751 -2.185140396 1.541287489)
(1734.859513 -1.34553859 2.680040837)
(1734.380806 -1.900885519 0.9900204763)
(1733.245826 -1.077526841 1.273013617)
(1734.121667 0.1637605418 2.793684494)
(1734.508951 1.156937565 4.370663644)
(1735.522514 -0.7224700905 3.628660336)
(1736.318748 -1.210149822 1.855593351)
(1735.267499 0.653735696 0.9247327207)
(1733.803475 -1.642149647 1.515551986)
(1733.20442 -0.648996754 -0.475953748)
(1735.74528 0.6445855981 -0.9707644595)
(1736.992167 0.6510285338 -0.7456676934)
(1707.939177 0.5757052638 1.07447175)
(1744.156266 0.9072412294 1.765699264)
(1735.879481 1.449087711 0.8117632644)
(1738.40388 -0.6943061764 2.026179416)
(1739.204628 -1.944848866 2.375536227)
(1736.933987 -2.815339882 2.392269028)
(1737.260245 -2.585641226 3.009024315)
(1735.419155 -1.375354533 0.3002442332)
(1736.924776 -1.363417241 -0.1435924912)
(1738.25607 -2.977185792 0.3088858513)
(1736.307976 -0.7404638568 -0.8959421732)
(1737.022091 1.108790378 -1.187818522)
(1735.731312 0.4407738701 -3.864531665)
(1734.985119 3.21418404 -3.192572448)
(1734.312551 0.6572323139 -1.928005162)
(1735.213299 1.646828364 -2.08030142)
(1735.158372 3.572998438 -3.101021127)
(1732.995028 4.747751764 -0.2473076188)
(1734.123456 4.242097144 -0.8053362143)
(1736.509083 2.230904726 -1.333176368)
(1708.878322 0.9194243373 0.2281817283)
(1747.096238 0.750272051 -0.1717554572)
(1740.471489 3.029869535 1.667591745)
(1738.471484 1.68279436 2.725360356)
(1738.461066 0.5679840104 -0.8465967735)
(1735.105065 -1.56779309 -1.050116784)
(1734.793814 -0.2020671528 -0.8020364889)
(1737.191627 0.01175721564 -0.001404083482)
(1736.644176 1.281052817 -0.2710473717)
(1732.899476 1.544350969 -0.3142460589)
(1733.841412 0.07747267121 0.2721376045)
(1734.385466 0.008620609098 0.9550638416)
(1732.217094 -0.5942852068 1.488965898)
(1734.191502 0.490655791 -0.414383053)
(1736.265699 3.319183856 -0.7187403474)
(1736.384964 3.935621095 1.431205731)
(1737.331304 3.146793674 0.3431046402)
(1738.082362 0.3136709742 -0.2824377745)
(1738.973155 0.1720030231 0.5386908251)
(1738.538726 0.6367975996 1.47185785)
(1711.059089 -1.855054291 1.757956656)
(1746.935571 0.6019192305 1.268836804)
(1737.946828 -1.845897955 -1.949358145)
(1736.872703 1.559251658 -3.017874001)
(1738.386083 0.7594183075 -2.102085657)
(1738.981118 0.797141014 -3.364763497)
(1738.382064 0.3518249255 -3.087566441)
(1740.026542 -1.500221425 -4.793977931)
(1741.205844 -2.621395793 -2.965692974)
(1740.482975 -0.3541545598 -3.962454803)
(1741.372677 -0.5382427596 -6.671019302)
(1740.651898 0.8873528155 -4.93755808)
(1743.046542 1.104826822 -2.217143573)
(1742.118377 -0.3134048205 1.036658042)
(1740.310059 -1.872353414 0.5659734845)
(1739.212262 -3.448924889 0.2999317048)
(1736.5613 -1.867961565 1.35430606)
(1735.308123 0.1496064776 2.852986163)
(1735.322712 0.002583756952 1.710751593)
(1732.774141 1.531103678 2.171114541)
(1711.993663 1.473001702 -4.275931621)
(1746.596926 -0.1464159647 -4.572928773)
(1736.440131 -0.347063796 -3.747368889)
(1737.16555 1.328732706 -3.766771815)
(1737.304658 1.133583934 -3.386756385)
(1738.251777 0.3622466441 -3.063668951)
(1738.776292 1.22102397 -2.703169546)
(1737.463635 2.191723154 -1.50033497)
(1736.093676 2.429483227 -0.1693479383)
(1737.863759 -1.486972809 1.572223743)
(1735.775684 0.9831710142 2.71070412)
(1736.736275 -3.444196631 2.062483472)
(1737.343222 -3.215950555 0.1298434764)
(1737.677644 -1.577904542 -1.234749696)
(1737.366157 -0.3302397034 -0.9217945198)
(1736.221492 1.709201225 -0.5558579736)
(1737.956978 1.267095034 -0.9044397272)
(1737.34667 1.451093913 -1.044851647)
(1737.536114 3.984129365 -0.5691415431)
(1736.327939 5.113000977 0.08397353036)
(1707.904988 1.615081129 -4.418818824)
(1748.637123 -0.1541038282 -2.731837884)
(1738.341122 0.9933592549 -1.54587292)
(1735.97258 0.4446862046 -1.442047218)
(1735.39217 -0.9188374212 0.7466905323)
(1732.873277 3.08429689 1.056274948)
(1733.917367 2.080840111 1.602010526)
(1730.800703 3.414324969 0.708142899)
(1734.688156 0.4177450359 -2.229871055)
(1734.776476 0.7320819781 -1.306823613)
(1734.959483 -0.9886921487 -3.062824049)
(1734.08451 0.9317450224 -3.601022231)
(1733.934235 2.191413784 -5.090823606)
(1730.620666 2.535108524 -3.494174869)
(1731.669386 3.462070615 -2.420063302)
(1733.073519 2.551920127 -2.665368297)
(1734.130211 1.130972398 -2.244151179)
(1735.144728 1.167253841 -3.350073176)
(1737.466441 -0.7338546604 -0.4123220669)
(1736.062052 -1.117340169 -2.625643519)
(1702.902758 -0.3660528774 -1.839653401)
(1737.466134 0.4627332107 -1.795413299)
(1730.113848 -0.2019695409 -1.131023333)
(1732.575411 0.7068777373 -0.1800322998)
(1731.87484 1.244380835 -0.1107767486)
(1731.174902 1.70082023 0.09939798123)
(1733.142185 -1.37285021 0.2669805482)
(1731.997078 -2.024271934 1.51959063)
(1731.389577 1.047071718 0.5937471208)
(1730.333123 5.703571756 1.291439922)
(1728.724154 6.262836313 0.5853520422)
(1729.765377 5.448779793 1.013803576)
(1730.427286 2.258178593 2.973424178)
(1732.388699 -0.7574031331 3.613787252)
(1732.340629 -2.809314272 -0.06547906843)
(1731.404586 -2.126323371 -1.715759568)
(1732.503341 -3.429747194 -0.693283547)
(1730.598689 -3.132715898 -1.004018535)
(1732.29987 -3.941761185 -3.832155942)
(1733.93943 -3.652937184 -3.555577805)
(1707.717385 3.063624415 -1.765713757)
(1744.865093 3.29155487 -1.794161248)
(1737.352756 4.795630673 -1.411443209)
(1736.552392 3.940455137 -0.8649027283)
(1735.879199 2.818537385 -1.877752441)
(1736.911073 2.500620006 -2.154440695)
(1735.187197 3.635973166 -0.6394596069)
(1736.314315 5.760079828 -0.2565157558)
(1739.272832 2.81410244 -0.4325589731)
(1737.303826 -0.8858707258 -0.6606740438)
(1739.993809 -1.490996202 0.4155560892)
(1737.593738 -1.340973437 0.3098125244)
(1737.442837 0.2827528278 -2.2325268)
(1735.01712 0.6185107096 -0.6901219342)
(1734.817892 -0.2444726434 -0.4956392206)
(1735.689686 -2.595589835 -0.06224005728)
(1736.660066 -2.911664783 0.8558797335)
(1734.691756 -2.657233594 -0.1849939545)
(1734.29603 1.247896021 -0.973827927)
(1734.726959 -1.044379219 -0.07011956171)
(1706.913626 1.582408493 -1.28427495)
(1746.801783 1.562784304 -1.384723673)
(1737.98567 0.350643885 -3.991858662)
(1738.249357 1.317815508 -3.000954098)
(1740.23606 2.958332976 -2.347882858)
(1739.174615 3.500889805 -2.256383709)
(1738.429778 3.614715805 -3.782420794)
(1740.526145 1.290902739 -3.443853112)
(1735.629186 2.798971408 -1.253658829)
(1736.457085 2.20462015 -0.8133576452)
(1735.196423 -0.5317117124 -1.263746776)
(1736.103389 -0.606157329 -1.725551573)
(1735.742147 0.005644084256 -2.980875407)
(1735.327348 0.9306818001 -2.384531789)
(1737.649851 0.3343621775 -2.982011467)
(1735.879688 2.841855938 -2.852267431)
(1737.42015 5.143428754 -3.885961679)
(1737.291951 2.890024241 -0.637248469)
(1737.627581 -0.02583007892 -1.128537817)
(1737.425488 1.160423546 -1.825356967)
(1710.03577 4.850821065 0.2465570202)
(1745.272723 4.083313442 0.3112299687)
(1735.955134 5.403633739 2.913908304)
(1734.060331 5.581231587 1.569862923)
(1735.728721 5.138837284 -1.094672899)
(1737.088763 5.756570881 -1.554010263)
(1734.769402 5.369492554 -0.259759758)
(1733.938437 6.148277315 1.383558866)
(1733.142376 5.533153391 -0.1061278867)
(1733.232861 7.019835487 -1.856215019)
(1732.255713 10.88904479 -2.586376258)
(1733.072465 11.95184556 -0.5249137694)
(1734.591298 7.775556847 1.398562366)
(1736.136903 7.019439404 2.296695716)
(1735.297302 8.6875877 1.403757078)
(1736.21951 8.881744379 1.342918912)
(1734.952707 5.338813956 1.377990312)
(1733.974552 6.840116649 0.3642954492)
(1736.281731 5.284161108 1.053286)
(1738.202626 6.277023925 1.870966341)
(1734.405254 7.342540811 -4.396536629)
(1733.145378 6.207313373 -4.688328461)
(1733.554005 5.061965989 -4.129126965)
(1733.189372 3.738879878 -3.917871727)
(1731.505059 5.316936011 -2.676133062)
(1730.383701 9.81068999 -1.681683102)
(1737.765217 2.23800257 -1.837696096)
(1738.74127 4.347046883 -2.266116187)
(1740.340366 2.43847561 -1.257369188)
(1737.592253 2.919587994 -2.086160629)
(1735.30693 1.126243792 -0.8885412609)
(1735.689408 1.644754059 0.7232962693)
(1735.431592 1.978935156 0.9167904519)
(1734.325418 5.823134657 1.014823955)
(1735.363877 6.321721675 -1.559745665)
(1735.893084 8.084115353 -2.073961792)
(1737.510345 0.7854271947 1.473362196)
(1736.634417 0.3726583644 1.343813015)
(1733.831779 0.2092925992 3.802337456)
(1735.262195 -1.924496574 3.944151719)
(1734.700152 0.66990779 2.735699106)
(1734.434669 2.597359987 2.638486445)
(1736.630594 2.736255938 1.016388912)
(1735.41093 4.286612619 3.000921679)
(1735.704943 4.344343791 4.27119951)
(1730.987853 6.148078926 4.39899672)
(1736.132478 -0.6820385718 -1.841793481)
(1735.261105 -0.9130257252 -1.484714071)
(1735.570383 -1.156579099 -1.598372838)
(1738.114465 -1.978212975 -1.983135007)
(1737.285228 -4.359739672 -1.077499545)
(1736.603832 -1.930432792 -1.539376769)
(1736.995386 -0.796253749 -0.7179146889)
(1736.155274 -1.242317992 -2.507232549)
(1735.170666 0.1201788184 -1.608722672)
(1732.984598 0.5796894869 -0.3317432739)
(1738.084606 -3.755536639 -0.5716526194)
(1738.78241 -1.034575805 -0.6598721461)
(1737.700526 1.901930391 -0.394853315)
(1735.179615 1.829043508 -1.176685498)
(1735.687872 1.970703107 0.6235442075)
(1732.365109 1.216140091 0.2325294776)
(1732.224112 -1.987223052 1.442455238)
(1732.418039 -4.328827508 1.821986541)
(1730.910768 -2.952331239 0.8460043537)
(1730.250266 -0.6187078198 -0.9972889608)
(1733.441787 -0.4712347239 4.488676011)
(1732.513482 0.2763620777 3.164858989)
(1733.816266 -1.678958175 2.932980072)
(1735.363206 -2.374814412 2.079738751)
(1737.401032 -0.2026070487 0.7787674895)
(1736.090987 -1.591457427 3.190285548)
(1733.580812 1.102241164 4.073923223)
(1733.879337 2.318921358 3.109151142)
(1733.372445 1.422353806 2.160569477)
(1733.859969 3.022963282 1.934178228)
(1737.32609 -0.2378653172 -3.183912821)
(1737.552091 -0.5150253535 -1.825976384)
(1738.003504 0.538588473 -1.502713234)
(1733.134898 -0.5959397503 -0.06680351208)
(1732.321319 -2.167237348 -0.8600831755)
(1731.544203 0.70097417 -1.150037204)
(1734.144467 0.7245230815 -3.591304742)
(1735.548547 1.301902551 -5.226626257)
(1737.157728 1.145075776 -3.356000873)
(1733.264021 1.338653913 -4.515574816)
(1731.257193 0.2209494882 1.950361438)
(1730.44778 -0.8665970088 -0.161063993)
(1729.906416 -4.292165066 -2.048436307)
(1732.866965 -1.763247824 -2.280334161)
(1732.761509 -0.7676647747 -4.923861717)
(1734.048199 -2.111855733 -5.474343869)
(1734.752788 -1.952643923 -2.828548416)
(1734.673356 -1.556554387 -2.97995064)
(1735.543482 0.3067688952 -1.930369461)
(1738.513371 0.4088246661 -0.8734752413)
(1734.29836 0.5303159037 -0.7382288817)
(1735.14861 1.571513542 -1.780650831)
(1737.586519 2.057975043 0.5029269695)
(1736.268306 0.8444537349 0.7427177723)
(1737.647612 1.513557787 0.8415352386)
(1737.025009 2.575094467 1.740250326)
(1736.688655 2.552769736 -0.9178922612)
(1736.287015 2.74087339 -1.855296705)
(1736.460307 -0.9354941903 -2.031620017)
(1732.772647 -2.388705369 -3.448804737)
(1735.682954 1.585176792 -1.936796)
(1734.069226 1.378753613 -3.135722676)
(1737.226091 3.94404449 -3.407899459)
(1736.370415 5.047625821 -2.785534238)
(1733.510351 3.908337611 -2.012980138)
(1734.192257 3.08860042 -3.416463946)
(1730.804675 0.3314739626 -1.501003758)
(1730.799271 0.4531289239 -0.3665935354)
(1732.849972 1.533663579 -0.3538916888)
(1733.276903 1.851036948 -1.053042244)
(1738.381704 1.027773204 -2.765978745)
(1737.530822 2.438788923 -2.008324579)
(1734.520148 2.305457919 -2.906072409)
(1733.265117 1.018414327 -1.707590452)
(1733.449387 1.176179562 -2.720233317)
(1735.574521 0.3829177086 -2.815674104)
(1735.433288 1.958813026 -2.762716185)
(1736.197781 2.637611291 -3.718121419)
(1735.559936 4.478262122 -1.882522694)
(1736.088013 4.282841965 2.091086136)
(1736.972226 0.7470509835 2.02502774)
(1736.098035 -1.12626457 2.080212274)
(1738.301544 -2.455366817 2.071862013)
(1740.532828 -0.9003036388 2.342646281)
(1739.755067 2.254905444 2.940129268)
(1738.354588 3.772379772 2.508386084)
(1739.119516 1.981419323 1.899171192)
(1738.31171 3.642043524 4.038038588)
(1736.318768 3.011002662 2.411017355)
(1736.258519 3.7036016 -0.9219895967)
(1734.634655 1.809819251 1.308948424)
(1735.833666 4.038282141 1.833301471)
(1733.922267 5.402616884 1.835671339)
(1734.028205 4.565356784 2.558706674)
(1734.433399 2.559102585 4.093840865)
(1734.96954 0.9584230995 2.832669724)
(1735.556864 -0.8878977531 1.679700111)
(1734.581686 -1.612364283 0.300137772)
(1735.623646 -2.218397055 -2.44866106)
(1736.695197 0.2263485127 -3.844917971)
(1734.514762 5.031055026 -0.08586727737)
(1733.191886 2.470502968 -0.71328532)
(1734.29792 0.4707958818 -1.363461344)
(1732.587385 1.375527297 -2.529750549)
(1734.798844 -0.9802492694 -3.092498115)
(1734.313114 -0.2751719603 -2.830689325)
(1734.111579 0.4090817606 -3.518619496)
(1735.278971 -0.1510640695 -3.475048629)
(1736.11811 -0.7659637968 -1.655699789)
(1736.071146 -4.106420343 0.9820083118)
(1738.799463 -1.735546647 -0.9650580467)
(1736.569882 -0.1114753726 -1.19403696)
(1735.511117 -0.0506500613 -0.5601273191)
(1734.338919 0.7241555891 -1.040797988)
(1732.648554 3.34800212 0.2411504163)
(1733.025439 3.008677524 0.3401554476)
(1733.201095 1.749120498 2.134212266)
(1734.170828 2.003586648 3.428231764)
(1734.992331 5.267957645 4.042872909)
(1735.608904 5.57235033 2.603710224)
(1734.914711 -1.846445757 -1.967480103)
(1734.12652 -0.8736278224 -2.742459821)
(1733.602258 -0.2298994853 -1.976702737)
(1735.824855 -0.3882212083 -1.524744555)
(1737.326476 -0.4565751242 -1.088607251)
(1737.204735 1.174723271 -1.458808973)
(1736.112871 4.81283907 -3.705047054)
(1737.429815 5.736348711 -4.228511616)
(1732.294298 4.684914212 -4.509652277)
(1732.125396 2.087069729 -3.347572146)
(1733.766469 -2.279004821 -2.896910896)
(1734.080171 -2.487367613 -1.234142029)
(1735.356985 -0.5773001523 -2.497892923)
(1734.443348 -0.7815218753 -2.328975504)
(1735.105695 0.9450438285 -3.121656435)
(1734.045417 1.860127828 -0.07610179332)
(1733.450276 2.443992377 -0.893916832)
(1731.359294 -0.4868649923 -1.962689142)
(1732.668409 -2.73239512 -2.732879566)
(1731.995132 0.7636571057 -1.660360372)
(1733.389533 1.500452458 -1.271272309)
(1731.895505 0.3882225485 -3.147659779)
(1733.309242 -1.727175386 -4.085840349)
(1733.516529 -0.7202851747 -2.221725901)
(1733.09941 -1.499802589 -3.516519548)
(1732.881712 -3.162666635 -6.043682568)
(1734.465616 -3.239848138 -3.24824779)
(1733.937066 -4.117571778 -2.885650561)
(1734.756529 -3.423933618 -0.6717992231)
(1736.146654 -3.724741371 0.03253941918)
(1738.510309 5.525486838 2.542721464)
(1740.765605 7.186161944 0.1683261173)
(1741.052804 6.409371718 2.124815971)
(1740.967731 5.34567931 3.192959084)
(1741.520957 4.028254116 1.347251978)
(1740.436861 5.173898968 4.164563235)
(1741.38904 4.394680569 5.772064557)
(1740.656321 5.528314344 3.976748966)
(1738.910639 6.82422169 3.809101961)
(1739.859805 5.732843246 4.186771301)
)
;

boundaryField
{
    flow
    {
        type            calculated;
        value           nonuniform List<vector> 
48
(
(1709.740561 0.7431141532 -0.4330933161)
(1710.547481 0.9935104572 2.559944048)
(1709.916487 2.543590145 -4.309084444)
(1709.938239 -0.3567738287 -0.2940528049)
(1712.383921 -2.179739624 -1.518032753)
(1708.919267 1.209627229 0.8631214366)
(1707.877944 2.270916739 1.038139155)
(1710.62653 -0.3471795089 2.507303081)
(1706.640645 -1.08546249 -0.1686700245)
(1707.939177 0.5757052638 1.07447175)
(1708.878322 0.9194243373 0.2281817283)
(1711.059089 -1.855054291 1.757956656)
(1711.993663 1.473001702 -4.275931621)
(1707.904988 1.615081129 -4.418818824)
(1702.902758 -0.3660528774 -1.839653401)
(1707.717385 3.063624415 -1.765713757)
(1706.913626 1.582408493 -1.28427495)
(1710.03577 4.850821065 0.2465570202)
(1710.03577 4.850821065 0.2465570202)
(1745.272723 4.083313442 0.3112299687)
(1735.955134 5.403633739 2.913908304)
(1734.060331 5.581231587 1.569862923)
(1735.728721 5.138837284 -1.094672899)
(1737.088763 5.756570881 -1.554010263)
(1734.769402 5.369492554 -0.259759758)
(1733.938437 6.148277315 1.383558866)
(1733.142376 5.533153391 -0.1061278867)
(1733.232861 7.019835487 -1.856215019)
(1732.255713 10.88904479 -2.586376258)
(1733.072465 11.95184556 -0.5249137694)
(1734.591298 7.775556847 1.398562366)
(1736.136903 7.019439404 2.296695716)
(1735.297302 8.6875877 1.403757078)
(1736.21951 8.881744379 1.342918912)
(1734.952707 5.338813956 1.377990312)
(1733.974552 6.840116649 0.3642954492)
(1736.281731 5.284161108 1.053286)
(1738.202626 6.277023925 1.870966341)
(1738.510309 5.525486838 2.542721464)
(1740.765605 7.186161944 0.1683261173)
(1741.052804 6.409371718 2.124815971)
(1740.967731 5.34567931 3.192959084)
(1741.520957 4.028254116 1.347251978)
(1740.436861 5.173898968 4.164563235)
(1741.38904 4.394680569 5.772064557)
(1740.656321 5.528314344 3.976748966)
(1738.910639 6.82422169 3.809101961)
(1739.859805 5.732843246 4.186771301)
)
;
    }
    obstacle
    {
        type            calculated;
        value           nonuniform List<vector> 0();
    }
    frontAndBack
    {
        type            empty;
    }
    procBoundary2to0
    {
        type            processor;
        value           nonuniform List<vector> 
31
(
(1706.855065 3.194231859 2.032320677)
(1746.768499 2.022300875 0.525910639)
(1738.557055 -3.323424638 -1.407140241)
(1740.316986 -0.9826190989 -1.232476188)
(1738.552076 -0.1084611474 -1.446612542)
(1738.517182 2.64349623 -1.737033743)
(1736.219891 1.596626383 -2.74847043)
(1737.881486 2.025752773 0.5293035219)
(1734.794544 2.34473771 1.26081484)
(1732.982021 2.943482221 -0.3655488496)
(1732.377783 3.175403098 3.599611778)
(1731.311539 -0.8967030226 1.64142301)
(1731.562986 -1.214348241 0.6972581051)
(1731.779883 -2.279443195 -1.067804554)
(1732.8399 -3.743968392 -4.146904397)
(1736.278778 -2.071408377 -3.275351792)
(1734.491243 0.3440153253 -3.19190988)
(1734.829499 3.76715813 -4.104265525)
(1736.543554 3.712187007 -3.890356702)
(1736.758122 5.970449322 -3.379719859)
(1736.642579 4.905877485 0.2171601639)
(1734.026246 5.935278311 0.3973302572)
(1733.018414 5.321852065 1.627856423)
(1727.502846 6.657434836 -1.527953842)
(1724.747102 9.977998728 1.085151801)
(1722.860919 11.81564942 4.663902694)
(1736.721684 3.692523977 -3.576730582)
(1736.595518 6.088871781 -3.322629939)
(1732.272346 5.459514687 -4.434618466)
(1733.32332 6.376321433 -3.974442248)
(1733.32332 6.376321433 -3.974442248)
)
;
    }
    procBoundary2to3
    {
        type            processor;
        value           nonuniform List<vector> 
19
(
(1727.712927 11.97151343 -0.8837886024)
(1731.66716 9.644948436 -0.01885667566)
(1732.018506 9.074916886 2.345140749)
(1731.667872 3.529432256 -0.6984336254)
(1728.635274 -2.18292746 -0.0500065368)
(1734.479182 2.77285478 2.755844433)
(1734.196342 2.604228804 -4.710494142)
(1737.962472 0.3629503324 -0.08812742933)
(1731.812542 -0.719575812 -2.820320792)
(1733.438426 2.717287913 -2.51022308)
(1736.603578 2.698237525 3.144968375)
(1734.670915 3.561667384 -2.690695158)
(1735.710863 -0.3295467177 -4.31037004)
(1733.406149 0.03313282938 1.378876561)
(1736.536477 1.660480417 0.7515640693)
(1733.551231 4.598618741 -1.920577475)
(1732.274312 1.568533621 -1.483167831)
(1736.235254 -0.9823639295 0.4473100262)
(1737.050136 3.887901039 2.516565865)
)
;
    }
}


// ************************************************************************* //
