/*--------------------------------*- C++ -*----------------------------------*\
| =========                 |                                                 |
| \\      /  F ield         | OpenFOAM: The Open Source CFD Toolbox           |
|  \\    /   O peration     | Version:  2406                                  |
|   \\  /    A nd           | Website:  www.openfoam.com                      |
|    \\/     M anipulation  |                                                 |
\*---------------------------------------------------------------------------*/
FoamFile
{
    version     2.0;
    format      ascii;
    arch        "LSB;label=32;scalar=64";
    class       Cloud<dsmcParcel>;
    location    "0.006/lagrangian/dsmc";
    object      coordinates;
}
// * * * * * * * * * * * * * * * * * * * * * * * * * * * * * * * * * * * * * //

9450
(
(0.2209970271 0.154163655 0.2353378315 0.3895014865) 87 114 2
(0.1954798445 0.1195131233 0.2827469544 0.4022600777) 84 108 2
(0.1842512823 0.4078743589 0.06406125045 0.3438131084) 110 215 2
(0.3259318425 0.1995676446 0.1374664341 0.3370340787) 20 1076 1
(0.4858224683 0.1617347161 0.2570887658 0.09535404973) 173 339 1
(0.5947753695 0.1633371156 0.2026123152 0.03927519964) 55 107 1
(0.4611613047 0.2694193477 0.06428254041 0.2051368073) 56 111 2
(0.3359038525 0.3320480738 0.1702354941 0.1618125797) 142 280 2
(0.5705206806 0.2147396597 0.2123536427 0.002386017036) 237 467 2
(0.1163424895 0.4418287552 0.05114209527 0.39068666) 19 1075 2
(0.6443786051 0.1778106974 0.1447732436 0.03303745381) 83 162 2
(0.0507734858 0.4746132571 0.2734411551 0.201172102) 20 40 2
(0.1922551903 0.1916707649 0.4038724048 0.2122016399) 50 97 1
(0.1077906598 0.2175309559 0.2285737142 0.4461046701) 19 38 1
(0.1936832801 0.40315836 0.2274333551 0.1757250049) 80 100 1
(0.2414009971 0.3792995014 0.1815911701 0.1977083313) 18 37 1
(0.05619748013 0.4719012599 0.4346483333 0.03725292662) 148 290 2
(0.3685957765 0.1239003302 0.1918017816 0.3157021118) 115 169 2
(0.4414872061 0.06274630419 0.279256397 0.2165100928) 109 216 2
(0.01501528118 0.1105438455 0.3819485139 0.4924923594) 22 1078 1
(0.2268790179 0.07125760424 0.3153028868 0.3865604911) 57 55 2
(0.5911125505 0.2044437247 0.1178323716 0.08661135311) 118 175 1
(0.07219770517 0.1630571885 0.4639011474 0.3008439589) 175 343 1
(0.1822806259 0.3151854092 0.4088596871 0.09367427789) 234 459 1
(0.05485985055 0.4725700747 0.1976033601 0.2749667147) 179 1046 2
(0.8261299169 0.05294726575 0.08693504156 0.03398777581) 24 46 1
(0.7137695651 0.02390150056 0.1431152175 0.1192137169) 382 750 1
(0.1282658118 0.4358670941 0.4195579885 0.01630910556) 18 37 1
(0.1659195777 0.2593223443 0.4170402112 0.1577178668) 27 55 2
(0.09639160868 0.1804670869 0.4518041957 0.2713371087) 47 94 2
(0.03325620814 0.4833718959 0.2622826994 0.2210891965) 145 287 1
(0.3016367169 0.1964341616 0.3491816415 0.1527474799) 141 276 1
(0.7124435918 0.1437782041 0.03223423191 0.1115439722) 26 50 2
(0.1316405308 0.4341797346 0.308069325 0.1261104096) 147 232 1
(0.1683492308 0.4158253846 0.1730889918 0.2427363928) 114 223 2
(0.3993551251 0.1630521219 0.1372703155 0.3003224375) 113 223 1
(0.7033642377 0.1483178811 0.08870354556 0.05961433557) 293 519 1
(0.1938259745 0.4030870127 0.1041174027 0.29896961) 74 88 1
(0.24739321 0.07935486738 0.2969485276 0.376303395) 55 109 1
(0.5352112939 0.1525416032 0.07985274984 0.232394353) 208 352 2
(0.5559055277 0.2220472361 0.1906290832 0.03141815291) 236 465 2
(0.6467390696 0.1100686699 0.1766304652 0.06656179528) 89 174 1
(0.1602823775 0.4198588112 0.3189128022 0.100946009) 59 115 2
(0.6400762334 0.1387135284 0.04124835496 0.1799618833) 48 95 1
(0.42215046 0.062378766 0.28892477 0.226546004) 145 287 2
(0.1388573455 0.4305713272 0.22260825 0.2079630772) 112 222 1
(0.08714100708 0.1677852472 0.2886442492 0.4564294965) 27 54 1
(0.5172848799 0.2413575601 0.07552591408 0.165831646) 89 117 1
(0.4000341687 0.2999829156 0.1758510506 0.124131865) 58 113 2
(0.614930668 0.1670410459 0.192534666 0.02549362009) 54 108 2
(0.5198867999 0.2400566 0.1232972801 0.11675932) 321 574 1
(0.06173971733 0.4691301413 0.3863429701 0.0827871712) 116 171 1
(0.5161110108 0.2419444946 0.02871621183 0.2132282828) 45 31 1
(0.510628017 0.0484391961 0.2446859915 0.1962467954) 84 164 1
(0.1765935479 0.4117032261 0.2984146019 0.1132886242) 29 56 2
(0.535166864 0.2272307445 0.232416568 0.00518582352) 29 58 2
(0.4189058143 0.1102166335 0.1803304594 0.2905470929) 266 466 2
(0.384659842 0.2292492276 0.07842085136 0.307670079) 297 585 1
(0.723252121 0.1383739395 0.05835252907 0.08002141044) 87 172 2
(0.6464029356 0.1767985322 0.004294169861 0.1725043623) 269 528 2
(0.4158997445 0.2920501278 0.09000007225 0.2020500555) 235 405 1
(0.4623467623 0.1958184864 0.2688266189 0.0730081325) 326 643 2
(0.4052107243 0.08723844808 0.2101561898 0.2973946378) 52 103 1
(0.5325463273 0.2337268363 0.2074795878 0.02624724854) 26 1082 2
(0.8625903948 0.054699136 0.06870480262 0.01400566661) 146 286 1
(0.3119531782 0.2786941838 0.3440234109 0.06532922706) 56 112 2
(0.06270572707 0.3604865694 0.108160567 0.4686471365) 149 1045 1
(0.142141729 0.2495376311 0.4289291355 0.1793915044) 238 470 2
(0.9842736329 0.002226065932 0.007863183544 0.005637117612) 112 222 2
(0.4917299858 0.2541350071 0.1410613816 0.1130736255) 200 336 1
(0.5664145884 0.2167927058 0.148067477 0.0687252288) 253 440 1
(0.1575509732 0.1791175261 0.4212245134 0.2421069873) 119 235 2
(0.1396473769 0.4301763116 0.1519945984 0.2781817132) 52 103 2
(0.3786694887 0.2026175825 0.1080476731 0.3106652556) 323 578 2
(0.6037671014 0.1965411163 0.001575332965 0.1981164493) 298 587 1
(0.574890721 0.08892422831 0.1236304112 0.2125546395) 327 586 2
(0.6834757062 0.1582621469 0.1506842044 0.007577942536) 448 824 1
(0.1710858414 0.4144570793 0.09076991261 0.3236871667) 268 529 1
(0.1191708037 0.4404145982 0.2397794085 0.2006351897) 25 51 1
(0.08482801919 0.4575859904 0.2443951244 0.213190866) 204 402 2
(0.3190406329 0.3404796835 0.01094284245 0.3295368411) 89 174 2
(0.7757770738 0.02177114018 0.1121114631 0.09034032292) 146 286 1
(0.312881456 0.0967939492 0.343559272 0.2467653228) 43 83 1
(0.3864758908 0.3067620546 0.1538676246 0.15289443) 146 286 2
(0.6690707769 0.08870415803 0.0767604535 0.1654646115) 144 284 1
(0.2134032434 0.1237977407 0.3932983783 0.2695006376) 289 570 2
(0.2976630358 0.3003051973 0.05086328481 0.3511684821) 57 55 2
(0.1732699519 0.4133650241 0.3261367141 0.08722830995) 358 647 1
(0.183880741 0.4080596295 0.2324159096 0.1756437199) 174 341 2
(0.1089901677 0.07150730009 0.3739976161 0.4455049161) 109 157 2
(0.2300410211 0.2960491713 0.08893031811 0.3849794894) 54 107 1
(0.03458992791 0.482705036 0.1609820307 0.3217230053) 80 100 1
(0.2413435192 0.3790157412 0.3793282404 0.0003124991627) 86 168 1
(0.4915978537 0.2542010731 0.1834222587 0.07077881445) 53 105 2
(0.1526360324 0.3788620196 0.4236819838 0.0448199642) 59 115 1
(0.4866529762 0.2566735119 0.0747649205 0.1819085914) 83 164 2
(0.3379260146 0.1498899302 0.1811470625 0.3310369927) 50 99 1
(0.1869402551 0.4065298725 0.2045807598 0.2019491127) 178 352 1
(0.7651304522 0.1174347739 0.05324563828 0.0641891356) 56 109 2
(0.6631259858 0.1684370071 0.1066416743 0.06179533275) 70 139 1
(0.4205858443 0.2897070778 0.02698445594 0.2627226219) 175 345 2
(0.1282044806 0.114324995 0.3215727647 0.4358977597) 269 471 2
(0.4008475777 0.02377914973 0.2757970614 0.2995762111) 117 173 2
(0.1304370175 0.2092630943 0.4347814912 0.2255183969) 295 579 1
(0.3953710848 0.3023144576 0.05514158507 0.2471728725) 59 58 1
(0.2977955471 0.3039629547 0.3511022264 0.04713927176) 29 56 1
(0.7894394931 0.1052802534 0.04241214221 0.06286811122) 83 164 2
(0.0703316967 0.4648341517 0.06015078904 0.4046833626) 87 173 1
(0.3659072712 0.3170463644 0.2651408716 0.05190549283) 199 392 2
(0.5139602478 0.2430198761 0.008882521579 0.2341373545) 175 345 2
(0.2566833962 0.3716583019 0.1926629942 0.1789953077) 203 401 1
(0.5890150886 0.1328615972 0.07263085849 0.2054924557) 117 231 1
(0.2941578183 0.3529210908 0.2628146798 0.09010641105) 118 231 2
(0.09028683573 0.08771921171 0.4548565821 0.3671373704) 321 633 2
(0.3249754509 0.3375122745 0.09577129229 0.2417409822) 117 232 1
(0.9589377904 0.01645131537 0.004079789418 0.02053110479) 55 51 2
(0.2449768302 0.3775115849 0.01046266651 0.3670489184) 87 170 2
(0.3087292814 0.3456353593 0.03171821892 0.3139171404) 389 707 1
(0.3293057181 0.1573973275 0.1779498135 0.3353471409) 19 1075 1
(0.234136457 0.2397807176 0.1431510539 0.3829317715) 25 1081 1
(0.7352106369 0.1323946815 0.02634867452 0.106046007) 143 280 2
(0.1677717813 0.2159828317 0.4161141094 0.2001312777) 44 88 2
(0.1575243704 0.2617349247 0.4212378148 0.1595028901) 83 162 1
(0.1710790996 0.4144604502 0.2151199296 0.1993405206) 23 1079 2
(0.03656161899 0.3271724211 0.1545467694 0.4817191905) 26 52 1
(0.2510857563 0.291084888 0.3744571218 0.08337223388) 137 271 2
(0.2693766423 0.07734507624 0.3653116788 0.2879666026) 88 175 2
(0.4000568229 0.2542158776 0.2999715885 0.04575571092) 288 568 2
(0.624788026 0.1147773588 0.187605987 0.07282862817) 15 31 2
(0.7343837926 0.1328081037 0.05475662783 0.07805147589) 28 54 2
(0.2468210495 0.3765894752 0.2800805264 0.0965089488) 265 523 1
(0.4339345332 0.1558706576 0.1271620757 0.2830327334) 27 1083 1
(0.09900766421 0.3542914974 0.09620467047 0.4504961679) 58 57 2
(0.3016865844 0.3491567078 0.3188160571 0.03034065072) 57 111 2
(0.009463803826 0.4952680981 0.1004432764 0.3948248217) 84 166 2
(0.308298698 0.345850651 0.2648963945 0.08095425647) 326 640 2
(0.20527272 0.3699824114 0.02738122863 0.39736364) 113 223 1
(0.0249718191 0.1241702017 0.3633438887 0.4875140904) 85 110 2
(0.2392815593 0.1778408825 0.3803592203 0.2025183378) 179 351 1
(0.1494216488 0.4252891756 0.3690568522 0.05623232344) 286 505 1
(0.2376817801 0.005997144863 0.3751619651 0.3811591099) 106 151 2
(0.8324845749 0.08375771255 0.008450954799 0.07530675775) 389 766 1
(0.02722343184 0.2145380833 0.2718502007 0.4863882841) 110 217 1
(0.3275843171 0.1125274516 0.3362078414 0.2236803898) 84 164 1
(0.1121028317 0.4439485842 0.4316528979 0.01229568628) 79 98 1
(0.2023938291 0.2368513798 0.1619517056 0.3988030854) 234 461 1
(0.6554658757 0.1722670622 0.02957658898 0.1426904732) 25 48 2
(0.1792030161 0.4103984919 0.02691555771 0.3834829342) 146 230 1
(0.2064229462 0.3967885269 0.01039750342 0.3863910235) 170 277 1
(0.3445171741 0.3199426926 0.327741413 0.007798720405) 138 270 1
(0.1007534439 0.449623278 0.1783854765 0.2712378015) 357 701 2
(0.3676936109 0.07416279996 0.2419903946 0.3161531945) 293 577 1
(0.3435556213 0.2689368489 0.05928534044 0.3282221894) 207 350 2
(0.0006903557297 0.4995600129 9.480924954e-05 0.4996548221) 143 282 1
(0.2056916195 0.3971541903 0.1925410349 0.2046131554) 16 1072 2
(0.5381892165 0.2309053917 0.05384994412 0.1770554476) 89 117 1
(0.03152355869 0.1571537979 0.3270844228 0.4842382207) 88 174 1
(0.2630550788 0.3684724606 0.2040828315 0.164389629) 205 405 1
(0.7907822764 0.08376114172 0.02084772009 0.1046088618) 237 467 1
(0.2009773983 0.2930440691 0.3995113008 0.1064672318) 22 45 2
(0.1640942426 0.3449637823 0.4179528787 0.07298909638) 20 38 1
(0.6857591524 0.08483965101 0.0722807728 0.1571204238) 81 160 1
(0.6213964896 0.1893017552 0.08937842389 0.09992333132) 23 44 2
(0.3081951334 0.3459024333 0.04610908412 0.2997933492) 266 522 2
(0.5540582735 0.1641833466 0.05878751667 0.2229708633) 116 171 2
(0.1880649139 0.405967543 0.196535743 0.2094318) 83 164 2
(0.3638404771 0.3180797614 0.1080539249 0.2100258366) 52 104 1
(0.02134370548 0.4893281473 0.2876028808 0.2017252664) 27 54 2
(0.5127364761 0.03447411531 0.2091576466 0.2436317619) 20 1076 1
(0.1497593797 0.4251203102 0.03389137928 0.3912289309) 129 196 1
(0.3583773485 0.07991231616 0.2408990096 0.3208113257) 111 161 2
(0.2833452258 0.3583273871 0.3444927124 0.01383467476) 356 643 1
(0.0002171155855 0.2129179242 0.4998914422 0.286973518) 204 400 1
(0.7081314911 0.1459342545 0.07206237155 0.07387188292) 443 872 2
(0.2659529082 0.3670235459 0.2827325867 0.08429095918) 22 1078 2
(0.01446709206 0.492766454 0.3566149582 0.1361514958) 52 45 1
(0.3103172782 0.3448413609 0.3015627806 0.04327858028) 109 213 2
(0.4257026956 0.0225450007 0.2646036515 0.2871486522) 56 53 2
(0.3151406683 0.3424296659 0.275854607 0.06657505883) 115 169 1
(0.2047809255 0.2421075733 0.3976095372 0.1555019639) 118 231 1
(0.3957231017 0.3021384491 0.2716486911 0.03048975808) 24 1080 2
(0.06040714938 0.181118146 0.2886782793 0.4697964253) 20 40 1
(0.5733640763 0.2133179618 0.1606312791 0.05268668273) 354 697 2
(0.1261854644 0.4369072678 0.02554272522 0.4113645426) 26 53 1
(0.1244364445 0.4377817777 0.1913659875 0.2464157902) 78 96 1
(0.6088092351 0.008989688021 0.1955953825 0.1866056944) 172 340 2
(0.2787268239 0.05662944784 0.360636588 0.3040071402) 28 57 2
(0.3023337115 0.2592452125 0.3488331443 0.08958793177) 24 49 2
(0.469198978 0.1692493204 0.09615119064 0.265400511) 209 1047 1
(0.1023131741 0.008075017017 0.4407683959 0.4488434129) 59 1042 1
(0.2010522353 0.3994738824 0.3792418753 0.02023200705) 21 42 2
(0.005571270566 0.1227498208 0.4972143647 0.3744645439) 84 164 1
(0.000863045492 0.4995684773 0.2837451228 0.2158233544) 51 99 2
(0.8225373049 0.04992240606 0.03880894149 0.08873134755) 238 469 1
(0.05625039154 0.4718748042 0.02550827428 0.4463665299) 28 56 2
(0.2345125312 0.3827437344 0.323983098 0.05876063645) 116 171 1
(0.2300066044 0.2836867961 0.3849966978 0.1013099017) 204 400 1
(0.1435248935 0.2507189038 0.1775186494 0.4282375532) 109 215 1
(0.08888672615 0.4555566369 0.2694797933 0.1860768436) 52 101 2
(0.6725514754 0.08234200344 0.08138225885 0.1637242623) 75 148 1
(0.1894302319 0.3879633541 0.405284884 0.01732152991) 20 41 2
(0.04580271138 0.2650229931 0.2120756512 0.4770986443) 297 527 2
(0.1257657518 0.3689485452 0.06816857891 0.4371171241) 54 49 2
(0.1973548135 0.4013225932 0.2336442934 0.1676782998) 86 168 2
(0.07042930484 0.4647853476 0.1110959241 0.3536894235) 21 40 2
(0.04000629153 0.05810639456 0.4218904597 0.4799968542) 268 528 1
(0.07102179517 0.1807522467 0.4644891024 0.2837368557) 387 763 2
(0.06961902442 0.1555209567 0.309669531 0.4651904878) 15 1071 1
(0.435049791 0.2824751045 0.2002729563 0.0822021482) 170 277 1
(0.3500225349 0.1134203782 0.2115683544 0.3249887325) 108 155 2
(0.5622964635 0.2188517683 0.2087297838 0.01012198443) 22 44 2
(0.542328925 0.2288355375 0.0328428121 0.1959927254) 21 42 2
(0.6396263098 0.1801868451 0.003499464926 0.1766873802) 23 47 1
(0.1077122609 0.4461438695 0.3306696638 0.1154742058) 474 930 2
(0.6588038949 0.1633301053 0.00726794728 0.1705980525) 47 35 2
(0.4967596994 0.2516201503 0.1277786967 0.1238414535) 232 455 2
(0.4210223489 0.2894888256 0.17253136 0.1169574656) 354 697 2
(0.3212750936 0.3132349762 0.026127477 0.3393624532) 228 449 1
(0.3223336238 0.3388331881 0.1450422724 0.1937909157) 24 46 2
(0.1647585435 0.4176207282 0.1526565985 0.2649641298) 22 1078 2
(0.08397612867 0.4580119357 0.3931752601 0.06483667558) 58 113 2
(0.5225066303 0.2313733711 0.007373313727 0.2387466848) 25 1081 1
(0.2628983942 0.146524981 0.2220258219 0.3685508029) 26 52 1
(0.1746441338 0.3100164776 0.4126779331 0.1026614555) 7 12 1
(0.2267612337 0.09898145726 0.2876379259 0.3866193832) 447 822 2
(0.667321296 0.166339352 0.1500147161 0.0163246359) 23 46 2
(0.01058204576 0.4947089771 0.2618577823 0.2328511948) 57 111 2
(0.6395306566 0.07727983008 0.1802346717 0.1029548416) 115 228 2
(0.1934820174 0.30221464 0.1010443513 0.4032589913) 209 353 2
(0.05217681399 0.01454282429 0.4593687687 0.473911593) 115 169 2
(0.703787954 0.148106023 0.03451385238 0.1135921706) 115 225 2
(0.2573280765 0.1618954052 0.2094405566 0.3713359617) 18 1074 1
(0.150985524 0.424507238 0.4180092547 0.00649798336) 20 41 1
(0.8562845821 0.0610479084 0.07185770893 0.01080980054) 51 99 1
(0.0476753924 0.1863911871 0.4761623038 0.2897711167) 81 158 1
(0.4904229128 0.2547885436 0.1790665959 0.07572194775) 202 398 2
(0.9164415037 0.04177924813 0.02075708143 0.0210221667) 145 228 1
(0.5307904122 0.2346047939 0.1940407262 0.04056406771) 119 235 1
(0.1458052014 0.4270973993 0.1417506792 0.2853467201) 49 39 1
(0.08255561838 0.4587221908 0.3759157633 0.08280642748) 142 280 2
(0.2727627054 0.3636186473 0.2366542244 0.1269644229) 17 34 2
(0.06926329253 0.4653683537 0.3130702923 0.1522980614) 82 160 2
(0.6003210984 0.1998394508 0.09415166215 0.1056877886) 236 465 2
(0.05353029135 0.4146135678 0.4732348543 0.0586212865) 58 113 1
(0.5947011272 0.1777521156 0.2026494364 0.02489732077) 200 392 1
(0.4686093583 0.1694372075 0.09625811331 0.2656953209) 26 52 1
(0.04337527241 0.1467888199 0.3315235439 0.4783123638) 268 470 2
(0.1607500547 0.02949542791 0.4196249727 0.3901295448) 161 318 2
(0.8135952145 0.02476449146 0.06843790129 0.09320239275) 295 523 2
(0.4819549271 0.1983765964 0.06064594007 0.2590225365) 266 524 1
(0.1549782322 0.1121193863 0.3103914976 0.4225108839) 208 410 1
(0.4760278138 0.2619860931 0.1837700795 0.07821601361) 114 223 2
(0.1028228596 0.427096247 0.4485885702 0.02149232322) 56 109 1
(0.3725048966 0.2117555052 0.1019920465 0.3137475517) 88 174 1
(0.4582335299 0.2708832351 0.09822470453 0.1726585305) 269 1049 2
(0.008648980108 0.4956755099 0.1228772169 0.3727982931) 85 110 1
(0.4624420071 0.2687789964 0.006715824028 0.2620631724) 116 171 1
(0.08035071173 0.1231861967 0.4598246441 0.3366384474) 380 749 2
(0.04040039603 0.479799802 0.2526164182 0.2271833838) 18 36 2
(0.5291926913 0.117939385 0.1174642694 0.2354036544) 50 41 2
(0.7073838858 0.1463080571 0.04533277515 0.100975282) 25 51 1
(0.1205650029 0.401903606 0.03781389252 0.4397174985) 261 456 2
(0.01101680111 0.4944915994 0.2271109515 0.267380648) 116 227 2
(0.06286653602 0.468566732 0.2130339749 0.2555327571) 56 109 2
(0.06033141483 0.3279081687 0.4698342926 0.1419261239) 27 52 1
(0.174703441 0.3415289056 0.4126482795 0.07111937388) 78 152 1
(0.04965732121 0.4163076407 0.4751713394 0.05886369871) 119 235 2
(0.008738434283 0.4956307829 0.2536030242 0.2420277586) 87 114 1
(0.31766203 0.341168985 0.08387430242 0.2572946826) 412 811 2
(0.1504356855 0.4247821572 0.3422535883 0.08252856894) 208 352 1
(0.1946098171 0.2003286435 0.4026950915 0.202366448) 147 291 2
(0.6018906831 0.1990546585 0.04385134437 0.1552033141) 88 116 1
(0.7797412681 0.1033490042 0.110129366 0.006780361782) 51 99 1
(0.1963918427 0.4018040786 0.01476452294 0.3870395557) 46 91 2
(0.1659706732 0.4170146634 0.2636965578 0.1533181056) 388 764 2
(0.3973111753 0.3013444124 0.07953455656 0.2218098558) 89 176 1
(0.1800163364 0.4099918318 0.3140195554 0.09597227643) 112 163 1
(0.09321062159 0.4533946892 0.08456612684 0.3688285624) 291 515 1
(0.6814062936 0.07772653385 0.08157031938 0.1592968532) 28 56 1
(0.7724362562 0.1137818719 0.07000888673 0.04377298518) 106 151 1
(0.2180393304 0.3909803348 0.06997406069 0.3210062741) 146 230 1
(0.07284853274 0.4635757336 0.01174031077 0.4518354229) 27 55 1
(0.1308259413 0.01229901131 0.4345870294 0.422288018) 140 277 2
(0.5340267654 0.1883899175 0.04459669977 0.2329866173) 106 151 2
(0.5154157789 0.2422921105 0.2097774476 0.03251466299) 178 352 1
(0.1832003303 0.4083998348 0.3274474272 0.08095240768) 56 53 1
(0.1938774323 0.4030612839 0.3603380249 0.04272325896) 412 753 1
(0.2148762041 0.3347234413 0.3925618979 0.05783845664) 88 175 2
(0.1567906958 0.4216046521 0.2290931384 0.1925115137) 54 49 1
(0.6209477682 0.1139224961 0.07560361986 0.1895261159) 29 1085 1
(0.1529358578 0.02156488336 0.4235320711 0.4019671877) 232 458 2
(0.02117946968 0.03024740686 0.4894102652 0.4591628583) 45 87 1
(0.3076985241 0.346150738 0.2879845169 0.05816622106) 316 620 2
(0.3056410256 0.3149565318 0.3471794872 0.03222295536) 267 527 2
(0.3770077602 0.3114961199 0.02883796917 0.2826581507) 86 112 1
(0.2949796466 0.1911262443 0.1613839324 0.3525101767) 47 35 2
(0.07285222085 0.4635738896 0.3236709644 0.1399029252) 207 406 2
(0.1082925397 0.4458537301 0.2660520353 0.1798016948) 23 46 2
(0.6233683493 0.05337900721 0.1349368181 0.1883158254) 227 447 1
(0.1543381825 0.4228309088 0.1659268385 0.2569040702) 25 50 2
(0.309962775 0.1348429426 0.3450186125 0.2101756699) 237 468 2
(0.3403986243 0.1224686703 0.3298006878 0.2073320175) 106 210 2
(0.02480960239 0.1957970744 0.2917981244 0.4875951988) 77 152 1
(0.3873047828 0.3063476086 0.070992821 0.2353547876) 83 162 2
(0.6984881425 0.03178860868 0.1507559288 0.1189673201) 294 577 1
(0.3112702502 0.3443648749 0.1527268492 0.1916380257) 47 93 2
(0.1252431686 0.3392068244 0.09817159136 0.4373784157) 148 234 2
(0.4041628344 0.2408976171 0.2979185828 0.05702096569) 171 338 2
(0.1158158915 0.07940635447 0.4420920542 0.3626856998) 266 525 2
(0.7595736899 0.120213155 0.08868572301 0.03152743202) 27 54 2
(0.007178741833 0.4964106291 0.3437567442 0.1526538849) 503 933 1
(0.3270280228 0.1865321725 0.3364859886 0.1499538161) 17 32 1
(0.3706375748 0.2635614619 0.3146812126 0.05111975067) 134 262 1
(0.08053500573 0.4597324971 0.3624542545 0.09727824266) 323 634 2
(0.7301764665 0.09860790238 0.1349117668 0.03630386439) 49 98 2
(0.1127193329 0.4436403335 0.2887330793 0.1549072542) 359 707 1
(0.4363087353 0.0430815747 0.2387640576 0.2818456323) 81 160 1
(0.3112454779 0.3443772611 0.2072550149 0.1371222462) 355 641 1
(0.2417636409 0.3791181796 0.09474730593 0.2843708736) 26 1082 2
(0.1592214666 0.4203892667 0.2451567882 0.1752324785) 28 56 2
(0.6520639571 0.002619978425 0.171348043 0.1739680214) 88 116 2
(0.2557978421 0.2793565099 0.3721010789 0.09274456905) 134 265 2
(0.3017033821 0.07964208555 0.2695062234 0.349148309) 175 287 2
(0.02229559195 0.2126088753 0.488852204 0.2762433287) 145 284 1
(0.2355678376 0.3822160812 0.1825463285 0.1996697527) 327 645 1
(0.784246865 0.0434801763 0.06439639121 0.1078765675) 44 29 2
(0.5636250857 0.0417252857 0.2181874571 0.1764621714) 353 696 2
(0.05259518049 0.4548010062 0.01890140357 0.4737024098) 260 454 2
(0.9045552907 0.04524119079 0.002481163843 0.04772235463) 82 162 1
(0.3245426762 0.2240433822 0.1136852797 0.3377286619) 16 1072 1
(0.1900145905 0.3609702438 0.4049927047 0.04402246095) 473 928 1
(0.2621862218 0.3689068891 0.01313364421 0.3557732449) 29 1041 2
(0.2885990008 0.2229737085 0.3557004996 0.1327267911) 145 287 2
(0.4838527646 0.2580736177 0.06463429584 0.1934393218) 203 400 2
(0.4860082564 0.2569958718 0.1176726082 0.1393232636) 115 227 2
(0.8644529082 0.06777354591 0.005093162311 0.0626803836) 113 223 2
(0.1223036941 0.4388481529 0.4340557134 0.004792439559) 84 164 2
(0.8704231603 0.06478841985 0.0129292104 0.05185920945) 385 756 2
(0.6122245616 0.06253286306 0.1938877192 0.1313548561) 201 394 1
(0.05354520738 0.2284994351 0.4732273963 0.2447279612) 20 41 2
(0.07621080628 0.1216179142 0.3402766827 0.4618945969) 170 277 2
(0.01161659314 0.4941917034 0.09580791905 0.3983837844) 59 58 1
(0.1480188204 0.2772171347 0.1487734551 0.4259905898) 207 408 1
(0.7723943385 0.0008864362365 0.1138028308 0.1129163945) 254 498 1
(0.1826536473 0.2550145642 0.4086731764 0.1536586121) 226 446 2
(0.01961358865 0.4901932057 0.3645871475 0.1256060582) 139 274 2
(0.00225615784 0.4988719211 0.2531537129 0.2457182082) 101 199 2
(0.1805912795 0.1259117616 0.2837925987 0.4097043603) 76 150 1
(0.7715545025 0.1142227487 0.0529421396 0.06128060913) 26 53 1
(0.3799447697 0.3100276151 0.002092224894 0.3079353902) 207 406 2
(0.6879405928 0.01617718824 0.1560297036 0.1398525153) 294 580 2
(0.6407230505 0.02284917442 0.1567893003 0.1796384747) 236 407 2
(0.05259666387 0.1933951406 0.2803065275 0.4737016681) 145 286 1
(0.2721124433 0.2321891723 0.3639437784 0.1317546061) 21 40 1
(0.07408576617 0.05860644261 0.4043506743 0.4629571169) 47 35 2
(0.3356153297 0.3321923352 0.1744414716 0.1577508636) 51 43 1
(0.2205196647 0.3897401676 0.1723911437 0.217349024) 48 95 2
(0.4636706418 0.2496038038 0.2681646791 0.01856087533) 173 342 2
(0.2610971019 0.225986435 0.3694514491 0.1434650141) 233 460 2
(0.3997019615 0.04913337203 0.2510156472 0.3001490192) 84 166 1
(0.2889321899 0.355533905 0.2918905625 0.06364334257) 148 293 1
(0.01454077933 0.4927296103 0.2986476404 0.19408197) 235 405 1
(0.1719730778 0.3303005957 0.4140134611 0.08371286539) 75 149 2
(0.4500373362 0.2749813319 0.1298824007 0.1450989312) 29 1085 2
(0.70069128 0.09051613083 0.05913822917 0.14965436) 47 35 2
(0.6131693495 0.09307269853 0.1003426267 0.1934153252) 410 749 2
(0.2764480195 0.3617759902 0.1629408417 0.1988351485) 295 581 2
(0.5646276643 0.149267673 0.06841849486 0.2176861678) 86 112 2
(0.2124205884 0.2834164373 0.3937897058 0.1103732685) 28 57 2
(0.05661369348 0.09203575705 0.3796573962 0.4716931533) 177 291 2
(0.2506072276 0.3746963862 0.3204917 0.05420468617) 197 389 1
(0.3377483832 0.2655492474 0.06557656102 0.3311258084) 117 231 1
(0.283385093 0.3583074535 0.01823564613 0.3400718074) 204 403 1
(0.2264871613 0.02526449756 0.3867564193 0.3614919218) 88 172 1
(0.417881454 0.291059273 0.1256154014 0.1654438716) 171 337 2
(0.02312976762 0.4884351162 0.3437078334 0.1447272828) 16 1072 2
(0.07649919015 0.09828249207 0.3634679129 0.4617504049) 175 287 2
(0.5399697755 0.2154989253 0.01451618691 0.2300151122) 145 228 2
(0.8088912721 0.08559835889 0.09555436395 0.009956005056) 228 447 1
(0.2537632889 0.05011435369 0.3731183555 0.3230040019) 148 290 1
(0.007986709352 0.4960066453 0.3173653231 0.1786413222) 26 1082 2
(0.261481029 0.04412417461 0.3692594855 0.3251353109) 177 347 1
(0.3581594027 0.3209202986 0.1647171054 0.1562031932) 39 19 1
(0.192262467 0.1306764642 0.4038687665 0.2731923023) 28 54 1
(0.1042880867 0.4478559567 0.233027789 0.2148281677) 79 157 1
(0.03000708902 0.4849964555 0.3717823131 0.1132141424) 175 346 1
(0.3536663946 0.2649263912 0.05824041149 0.3231668027) 53 105 1
(0.06073657987 0.2273495313 0.2422821788 0.4696317101) 288 567 1
(0.09523633418 0.4523818329 0.4408516238 0.01153020909) 26 50 2
(0.004306184533 0.02760130853 0.4978469077 0.4702455992) 208 408 1
(0.7408610932 0.04688223824 0.1295694534 0.08268721518) 173 342 2
(0.4309212785 0.2845393608 0.2546118743 0.02992748642) 351 633 1
(0.509346942 0.245326529 0.211068646 0.03425788303) 269 1049 2
(0.8066134838 0.09669325811 0.02239487247 0.07429838564) 116 230 1
(0.8126151964 0.09369240179 0.001107320342 0.09258508145) 21 42 2
(0.3895042983 0.3052478509 0.2049346208 0.1003132301) 293 578 1
(0.612772264 0.193613868 0.04263261752 0.1509812505) 174 343 2
(0.3829120886 0.250712174 0.3085439557 0.05783178168) 79 157 2
(0.8110978246 0.07295369851 0.0214973892 0.09445108771) 119 1044 1
(0.1556478786 0.4221760607 0.3276055609 0.09457049976) 83 164 2
(0.225074722 0.3121607354 0.387462639 0.07530190362) 329 646 1
(0.5914639128 0.1392298206 0.2042680436 0.06503822298) 22 42 1
(0.07310259252 0.4634487037 0.3183611205 0.1450875832) 118 233 2
(0.05556575885 0.4722171206 0.3480538647 0.1241632559) 144 284 2
(0.15834728 0.247874667 0.42082636 0.172951693) 415 815 1
(0.2924110526 0.3537944737 0.169867423 0.1839270507) 266 525 1
(0.5809162137 0.01892259882 0.2095418931 0.1906192943) 59 117 2
(0.2560397338 0.3483016821 0.023678451 0.3719801331) 143 224 2
(0.3397235573 0.3301382213 0.04707940845 0.2830588129) 225 444 1
(0.06838420473 0.345901588 0.4658078976 0.1199063096) 148 290 1
(0.0006519493258 0.4996740253 0.3956232026 0.1040508227) 79 156 2
(0.8472322998 0.07224402457 0.07638385008 0.004139825514) 206 404 1
(0.6975123764 0.1512438118 0.04859154032 0.1026522715) 86 171 1
(0.1718611916 0.4140694042 0.2113665986 0.2027028056) 235 464 1
(0.1153163292 0.4423418354 0.0991923033 0.3431495321) 58 57 1
(0.8327113949 0.01092933573 0.07271496683 0.08364430257) 28 1084 1
(0.1495141082 0.4252429459 0.02641047648 0.3988324694) 110 159 1
(0.01168085375 0.4941595731 0.2998208457 0.1943387274) 146 230 1
(0.206993057 0.0183590998 0.3781443717 0.3965034715) 22 1078 1
(0.340942784 0.309234531 0.329528608 0.02029407706) 144 285 2
(0.4354662755 0.0583001155 0.2239667468 0.2822668623) 329 589 2
(0.7784473253 0.1107763374 0.01890708553 0.09186925183) 290 572 1
(0.09524989112 0.1907729378 0.2616021166 0.4523750544) 137 270 1
(0.1761723592 0.3918079867 0.02010583375 0.4119138204) 86 170 1
(0.5557731033 0.2221134484 0.1551838851 0.06692956326) 116 227 2
(0.03298625467 0.2370910011 0.4835068727 0.2464158716) 119 233 1
(0.3632434465 0.3183782768 0.1607521696 0.1576261071) 169 334 1
(0.4552283387 0.1757463677 0.2723858306 0.09663946296) 107 209 1
(0.4718749803 0.1140484629 0.150014047 0.2640625099) 230 395 2
(0.4182142627 0.2765562108 0.2908928687 0.01433665781) 20 38 1
(0.2705553243 0.3647223379 0.2179927774 0.1467295604) 113 165 1
(0.264847646 0.367576177 0.3142366309 0.05333954614) 269 471 1
(0.1105931001 0.412679783 0.03202366695 0.44470345) 53 47 2
(0.06416300165 0.4679184992 0.4622286459 0.005689853319) 54 105 2
(0.2120685716 0.3677949831 0.02617073112 0.3939657142) 389 707 2
(0.2650871357 0.2213821058 0.3674564322 0.1460743263) 112 219 1
(0.6888579365 0.1555710317 0.1004612486 0.05510978312) 70 136 2
(0.6373895437 0.008123237891 0.1813052281 0.1731819902) 263 519 2
(0.3245122928 0.3377438536 0.0466381909 0.2911056627) 27 1083 2
(0.3053324785 0.3473337608 0.2077152129 0.1396185479) 18 37 1
(0.8197957595 0.09010212023 0.05650626247 0.03359585775) 233 457 2
(0.3490714836 0.01684052404 0.3254642582 0.3086237342) 205 402 1
(0.1904037778 0.05206064114 0.35273747 0.4047981111) 164 265 2
(0.7540908322 0.1229545839 0.1046640891 0.01829049483) 176 289 1
(0.8873515162 0.05284360403 0.05632424192 0.003480637891) 108 214 2
(0.2249398269 0.3875300866 0.008777408315 0.3787526783) 148 293 1
(0.1584712161 0.03208504616 0.3886793458 0.420764392) 142 222 2
(0.009694347897 0.06640162055 0.4287512055 0.4951528261) 140 218 2
(0.03353730243 0.4832313488 0.04894791633 0.4342834325) 46 33 1
(0.7246287785 0.1376856107 0.1358407582 0.00184485251) 237 465 2
(0.228077948 0.385961026 0.1994445481 0.1865164779) 233 459 2
(0.6358628527 0.1820685737 0.1030771786 0.0789913951) 26 50 2
(0.1880410863 0.298689753 0.1072897038 0.4059794568) 106 151 2
(0.01364132213 0.4931793389 0.4852993693 0.007879969626) 239 471 1
(0.5335894501 0.2332052749 0.01548233499 0.2177229399) 25 51 1