/*--------------------------------*- C++ -*----------------------------------*\
| =========                 |                                                 |
| \\      /  F ield         | OpenFOAM: The Open Source CFD Toolbox           |
|  \\    /   O peration     | Version:  2406                                  |
|   \\  /    A nd           | Website:  www.openfoam.com                      |
|    \\/     M anipulation  |                                                 |
\*---------------------------------------------------------------------------*/
FoamFile
{
    version     2.0;
    format      ascii;
    arch        "LSB;label=32;scalar=64";
    class       scalarField;
    location    "0.006/lagrangian/dsmc";
    object      Ei;
}
// * * * * * * * * * * * * * * * * * * * * * * * * * * * * * * * * * * * * * //


9450
(
1.441193422e-20
1.691304227e-21
2.31295664e-20
2.422570595e-20
5.399599191e-21
1.801238797e-21
2.274775255e-20
1.515567011e-20
4.905474136e-21
9.542546123e-22
6.324574434e-21
2.473382692e-20
1.101476264e-20
1.22397773e-20
1.906632624e-21
2.385314018e-21
2.047289146e-20
5.977253843e-21
6.775492956e-21
2.200668077e-20
8.272171525e-21
1.506532614e-20
1.207161194e-20
1.229941327e-20
2.466910271e-21
3.993751392e-21
5.013332422e-20
8.815982367e-22
4.988331381e-21
5.497758324e-21
2.33145569e-21
1.010337534e-20
1.270843123e-20
6.691934703e-21
1.124873273e-20
2.24840707e-21
2.553490429e-21
2.352024035e-20
3.874846816e-21
8.617539888e-21
8.028527423e-21
2.006371091e-21
6.491188922e-21
2.765505213e-20
6.158253702e-21
6.268129621e-22
8.162213774e-22
1.020029026e-20
8.055608872e-21
5.583516518e-21
8.162014173e-21
1.088879814e-20
1.64950453e-20
7.872230168e-22
4.344956806e-21
1.125547922e-20
4.266547699e-21
1.658760889e-20
2.13810351e-20
2.68396511e-20
4.181263782e-21
2.13810155e-20
4.398770438e-21
4.080984061e-21
1.320300991e-21
7.021325309e-21
3.702226037e-22
1.780272838e-20
9.827656074e-21
2.385120526e-20
1.452304742e-21
1.941757285e-20
1.682697568e-20
5.992280004e-20
1.488696101e-21
4.047595181e-20
1.639540464e-20
1.069747487e-20
8.725635185e-22
3.859345743e-21
3.061770701e-20
1.685251977e-22
1.1020244e-20
9.456244736e-21
2.909769566e-20
1.209809189e-20
1.82551248e-20
5.620812714e-22
7.15604821e-21
1.360968764e-20
6.70448237e-21
1.302511338e-21
8.439782141e-21
9.148442071e-21
1.058450173e-21
1.585766712e-20
1.320869588e-20
6.286190655e-21
4.4266534e-22
2.079453647e-21
4.71705301e-21
1.482255186e-20
7.416585461e-21
2.198689675e-21
1.059990466e-20
1.057343422e-20
1.714767485e-20
5.346793386e-21
1.957150963e-20
9.796250963e-21
1.48005071e-21
3.997566666e-22
1.082104716e-20
1.388890354e-21
8.099452532e-21
1.763503402e-20
9.134294377e-21
1.205166929e-20
5.510938898e-21
4.517809537e-21
8.136206777e-22
1.612715071e-20
1.08505711e-20
1.405890293e-21
1.206431238e-20
1.554759615e-21
3.407162515e-20
3.306349386e-20
1.080313757e-20
4.551764962e-21
3.217435301e-21
1.764613881e-20
8.413223182e-21
8.868190081e-21
2.389051225e-21
3.053323255e-20
2.048735229e-21
4.479298184e-21
6.880101272e-21
2.492389183e-20
5.561135977e-21
2.960732646e-21
9.221859528e-21
7.028872561e-21
1.338476374e-20
6.5442868e-21
6.458726077e-21
1.435301125e-20
8.640521319e-21
1.482335803e-20
1.914273983e-21
1.402874028e-22
1.47721295e-20
1.710365079e-20
2.040576152e-20
8.670887267e-21
2.426327321e-20
1.98180817e-21
8.938341327e-21
7.283307358e-21
1.226327921e-20
8.348525413e-22
2.321010951e-20
2.888475466e-20
1.823014789e-21
2.420507714e-20
5.686100004e-21
9.023965037e-21
1.374373834e-20
3.955383782e-20
4.524701559e-20
9.25078147e-21
7.244569886e-22
3.986266979e-20
1.041355644e-21
1.457973559e-20
1.931986157e-20
3.818811222e-20
1.164402503e-20
6.868107515e-21
5.503008255e-21
2.030438657e-20
1.091410923e-20
5.024700325e-22
1.237016438e-20
1.66431645e-20
4.780326484e-21
1.192820996e-20
1.019288504e-20
2.481850306e-21
1.189524139e-20
1.866170748e-20
5.568523889e-23
2.033695471e-21
5.383125835e-21
1.443121146e-21
5.710636815e-21
1.249800324e-20
3.956455843e-21
4.174564121e-21
7.17387422e-21
6.265037847e-21
1.54296412e-20
2.720295721e-22
2.657807338e-21
5.275701559e-21
8.423609495e-21
1.756654191e-21
1.443862268e-20
5.918935513e-21
4.320853109e-21
8.15477613e-21
3.725809517e-20
1.305568351e-20
4.951102654e-22
3.798183847e-21
5.841178539e-21
8.864462711e-21
6.54768057e-21
1.50476688e-20
1.7604064e-20
8.083626923e-21
1.560809875e-21
2.028641878e-21
3.160558001e-20
4.57062712e-21
5.008001772e-23
5.358831532e-21
2.907893655e-21
1.042035676e-21
1.216488588e-20
3.557203026e-21
6.592648988e-21
2.038627423e-20
6.372056214e-21
2.445272613e-21
6.236871879e-21
1.01593653e-20
1.396610197e-21
2.333550828e-21
1.271901994e-21
3.946295388e-21
1.329713667e-20
4.579793413e-21
1.012829391e-20
1.699124646e-21
4.724730923e-22
4.566198234e-21
1.082820781e-20
1.88647246e-20
4.182004292e-21
7.635074091e-21
3.533407097e-22
1.061774741e-21
1.567161268e-20
5.43978896e-21
4.503848153e-21
1.015829861e-20
2.248533784e-21
9.706728427e-23
3.522095976e-22
2.748405761e-21
7.208429558e-21
1.118745558e-20
1.706871756e-20
1.161571699e-20
6.701529128e-23
1.091467189e-20
2.613736702e-21
1.214620433e-20
3.897433967e-21
1.204493798e-21
2.421292784e-21
3.524400576e-21
4.68996474e-21
5.474804713e-21
7.338841346e-21
6.994218959e-21
6.548430473e-21
7.460204478e-21
1.982055941e-20
2.990405309e-21
1.325122278e-20
4.767999113e-21
4.399212226e-20
4.041802032e-21
6.258882062e-21
9.424644194e-21
9.164913566e-21
9.833618711e-21
2.000278527e-20
4.720610396e-22
5.156849929e-20
1.090721101e-20
4.968385392e-21
2.977129663e-21
4.403412141e-21
1.280730099e-20
6.511834603e-21
1.686457879e-20
7.684479601e-22
2.742184873e-21
2.907363117e-20
5.28866447e-22
2.856711495e-22
1.767815697e-21
1.003747147e-20
1.607265419e-20
4.266410924e-21
7.679296463e-21
1.577944923e-21
5.798820035e-21
2.078640579e-20
1.106161033e-21
1.045592691e-21
7.002046471e-22
1.03683702e-20
2.836487657e-20
8.989828444e-21
2.120398738e-21
9.125517712e-21
2.199769068e-20
2.086877219e-21
1.47788412e-20
1.18370561e-21
9.278706637e-21
5.918270119e-21
2.736676705e-21
1.716987319e-20
6.165372174e-21
2.84114323e-20
7.667043674e-21
5.652303498e-21
5.17096719e-21
5.717727569e-21
3.591081344e-20
1.244792818e-20
8.102792534e-21
3.766982323e-21
3.871978826e-20
6.648839855e-21
1.385331248e-20
2.550158639e-20
9.595024467e-21
9.663627611e-21
5.482967627e-20
5.35786171e-21
1.141832764e-21
1.426982064e-21
2.038942994e-20
1.922881613e-20
1.003912659e-21
2.142167765e-20
1.2350241e-20
1.014596754e-20
1.162005234e-20
3.152031735e-21
9.539615923e-22
2.099499392e-21
1.583561373e-21
3.68874545e-20
3.304221847e-21
2.542980781e-21
3.386217619e-21
3.175647103e-21
1.622853454e-20
1.499829193e-20
2.864428856e-22
1.118411608e-22
1.438955621e-20
3.741462517e-20
1.162058623e-20
1.361631541e-20
1.155372156e-21
3.39128876e-20
4.750925649e-21
8.481525261e-21
6.186535539e-21
6.391387631e-21
4.040755718e-21
1.741349807e-20
1.712609765e-20
2.66108395e-21
2.027315375e-20
4.632898902e-21
3.151009378e-20
2.605357487e-20
7.026280759e-21
9.39099326e-21
5.239553703e-21
3.452595433e-21
2.573879806e-20
2.970156392e-20
1.528469163e-20
1.148230913e-20
6.524620845e-22
3.623930692e-20
1.930598221e-20
1.159406133e-21
3.391821546e-20
1.021289185e-20
1.125609012e-20
2.770532243e-20
4.090939699e-20
8.251348804e-21
3.514330489e-22
7.121547593e-21
1.027969758e-20
1.393865029e-21
2.229976849e-20
1.326579387e-22
3.17565818e-21
9.159557646e-22
2.327460207e-20
7.706106766e-21
6.94828315e-21
1.147332688e-20
7.444105424e-21
1.323265477e-20
1.288087571e-20
8.295722919e-21
3.282436243e-20
1.011454408e-20
6.009155675e-21
1.798059847e-20
1.307554695e-21
6.79106059e-21
1.481822411e-20
2.974097078e-20
4.191552226e-21
1.068127197e-20
1.262221898e-20
9.132360642e-21
1.255281987e-20
2.118870859e-21
4.932398896e-21
2.811599935e-22
1.594697182e-20
4.813190945e-21
3.177785736e-21
7.669064171e-21
4.889671708e-20
1.368945847e-20
5.814429888e-21
1.85441154e-20
2.585588634e-20
2.955960367e-20
1.165028314e-20
2.003419064e-21
2.366734046e-21
1.213312906e-20
9.883898446e-21
3.429535775e-20
9.449403695e-21
2.285686046e-21
4.809003201e-21
1.018579247e-21
3.148674478e-20
9.968877912e-22
3.51615389e-22
1.279190574e-20
9.335996295e-22
1.33588939e-20
6.643924449e-21
4.450243561e-20
1.092829169e-20
1.903325787e-20
2.69266584e-20
4.329283409e-21
1.886055969e-21
6.628275282e-21
1.590829891e-21
2.075052068e-21
1.663974379e-20
1.489053655e-20
3.579867163e-21
2.716894595e-21
1.854553082e-20
4.465199702e-21
2.207387314e-21
7.975790989e-21
1.714809605e-20
3.064034798e-20
1.839147699e-20
9.813044311e-22
5.763069769e-21
3.523852994e-21
4.723040244e-21
2.574044323e-21
1.933018203e-21
5.696009024e-21
1.148856506e-20
2.288551484e-20
3.665733465e-21
7.994017928e-21
4.639682319e-21
6.257440335e-20
2.446533819e-21
5.919764336e-21
1.08739016e-20
1.109605909e-20
1.46278649e-20
1.154274981e-20
8.281361882e-22
1.16781679e-20
1.551719888e-20
1.683583972e-20
1.447966249e-20
7.406589706e-21
2.447583073e-20
1.73242503e-22
1.98660109e-20
6.623585694e-21
1.80244624e-21
8.588495224e-21
8.238128373e-21
3.157788016e-20
8.606878472e-21
3.355414875e-20
7.52450089e-21
1.865104753e-20
1.16903811e-21
1.094002166e-20
6.124410179e-21
4.899025851e-20
3.288465944e-21
5.859467812e-21
1.013139527e-20
3.398803195e-21
5.41807154e-21
2.747677293e-20
6.345386692e-21
1.573708509e-20
2.728366591e-21
5.353297415e-20
2.975255179e-20
9.538294428e-21
7.804036237e-22
6.631816062e-21
4.125294347e-21
8.540488252e-22
1.003672208e-20
2.692457923e-20
6.27112847e-21
2.056907633e-21
4.323410126e-21
6.960799316e-21
2.830014239e-21
2.223939328e-21
2.381238731e-21
1.246199746e-21
1.548850606e-21
8.162470719e-21
2.772906844e-21
1.615279579e-20
3.312758488e-21
1.738903109e-22
5.28851715e-21
8.070154554e-21
1.255613474e-20
2.166773581e-21
7.237948764e-21
3.854434713e-20
1.460517865e-21
1.033204517e-21
1.703744375e-20
1.594383425e-21
2.585167077e-21
3.790001742e-22
3.394873993e-21
8.702192307e-21
9.595414373e-21
1.079558212e-21
1.522318953e-20
6.82685587e-20
6.364995999e-21
1.231296693e-20
3.95150574e-21
1.486391209e-20
9.315519418e-22
3.730863353e-21
9.741958873e-22
3.734667884e-21
8.283630492e-21
3.184710642e-20
9.691147804e-21
1.655488944e-20
1.015454881e-20
1.024611037e-20
1.146799349e-20
1.480791351e-20
5.329572102e-22
6.134596007e-20
4.529796929e-20
3.417699065e-20
9.361020013e-21
1.763799674e-20
9.84088293e-21
3.297941887e-21
1.173534271e-21
1.531476054e-20
3.552571851e-20
8.073159904e-22
6.049768558e-20
1.767499373e-20
2.086430643e-22
6.507423268e-21
2.810479157e-20
6.34223718e-21
8.355478888e-22
1.033309778e-20
8.83114053e-21
3.623173747e-21
5.970374903e-21
1.535174789e-20
4.683611273e-21
4.763204098e-20
1.856696773e-22
1.575525803e-20
1.585827042e-20
1.265040848e-20
9.182773903e-21
4.393229157e-20
1.109395423e-20
1.00864135e-20
1.323642521e-20
9.634718323e-21
1.409957041e-21
2.92480683e-21
8.777540219e-21
3.095104012e-21
2.432892862e-21
8.620094473e-21
4.078575676e-21
4.653043993e-21
2.189502524e-20
5.167256324e-21
1.423635337e-20
6.627299989e-21
1.224287772e-20
3.35805025e-20
9.936860126e-21
1.057254691e-20
6.756471891e-21
1.778998889e-21
1.578535082e-20
1.413050563e-20
7.530146903e-21
5.494157733e-21
1.188531998e-20
2.19592213e-20
2.851999565e-20
1.168088796e-20
1.444787168e-20
7.178868527e-21
1.500954372e-21
2.38575722e-21
2.317389452e-20
2.415569301e-21
6.756082837e-21
2.025017982e-22
7.378201789e-21
2.249517126e-20
1.838873605e-20
4.634660843e-20
7.684292954e-21
1.055823071e-20
1.1008918e-20
7.742086013e-21
2.290659556e-21
1.684533341e-20
7.088436411e-22
2.60656768e-20
1.339418816e-20
4.091732646e-21
3.700278491e-21
2.082823298e-20
2.320046352e-21
1.241573235e-22
1.9930183e-20
7.202365864e-22
7.522855663e-21
7.187673703e-21
1.26097491e-20
6.130486566e-21
4.900828093e-21
3.39285636e-21
3.975183656e-21
3.753420921e-21
2.638746049e-20
9.761284597e-22
6.018398314e-21
5.524921746e-21
3.9837827e-21
1.638254349e-21
8.733505982e-23
1.243142274e-20
1.086016854e-20
1.227417524e-20
8.22387655e-21
3.390345056e-21
1.792547563e-20
8.668882788e-21
8.288168585e-21
1.343610318e-20
6.715991831e-21
3.160225199e-21
1.467827025e-20
9.836201428e-21
1.241205083e-20
1.672474678e-20
1.526513605e-20
2.004164531e-20
6.607723737e-21
1.923241895e-20
3.698945968e-20
2.120204079e-20
1.845885801e-20
1.013645e-21
6.708186642e-22
4.532489712e-22
1.273713183e-21
5.540988406e-21
5.48973702e-22
9.353855811e-21
1.452682125e-21
1.432644688e-20
4.823268611e-21
4.067184851e-20
7.975944281e-21
4.158340163e-21
6.075343626e-20
1.39669829e-21
2.918777411e-20
1.074232615e-20
9.411399909e-21
3.011723109e-20
5.58833798e-20
1.072154168e-20
1.112496051e-20
2.291990497e-20
1.668054598e-20
3.240507456e-21
2.693166221e-21
2.560211543e-20
2.449138714e-21
3.01350843e-22
8.478675245e-22
3.385881411e-21
1.522044504e-21
1.271098532e-20
1.582056571e-20
4.755293413e-20
5.362314673e-21
3.52983993e-22
5.249420005e-21
1.198294228e-22
2.053940874e-21
1.126119323e-22
2.115253386e-21
4.899026655e-21
1.315272079e-20
4.550861449e-22
2.539774819e-21
7.172059827e-22
3.635332023e-20
2.96812546e-20
5.443295454e-21
5.462330582e-21
1.949862786e-20
7.738375636e-21
7.1413592e-22
1.372224479e-21
1.552353058e-22
7.177824831e-21
5.03139728e-22
5.746616189e-20
1.235555306e-21
4.362863062e-21
2.585345818e-20
8.237275781e-21
1.510678869e-20
1.943951108e-21
1.103862982e-20
1.20409652e-20
8.232542468e-21
2.809903233e-21
4.134180309e-21
1.608073442e-20
1.95392848e-20
1.535720691e-20
6.035080972e-21
2.18862767e-20
5.316650975e-21
1.014480922e-20
1.127113915e-21
2.306242702e-21
1.473526116e-21
1.445470976e-20
2.499093018e-20
3.203200841e-21
1.113059244e-21
7.28879285e-21
3.168142312e-22
9.644760495e-22
1.087303589e-20
1.842976775e-20
4.777822642e-23
7.74281122e-21
8.176653437e-21
1.075995181e-20
2.948215069e-20
1.487661098e-20
8.415942374e-22
1.927775188e-20
3.560177839e-20
3.418286885e-20
2.746786348e-22
5.207344114e-21
1.506860855e-20
8.607604958e-21
1.840509829e-20
1.870678281e-20
2.949319756e-20
2.928631858e-21
5.262412884e-21
1.380363563e-20
2.423277208e-20
2.258669514e-20
2.351562895e-21
7.011973761e-21
2.293326978e-21
2.089880066e-20
4.055921068e-21
9.635392121e-21
1.808346781e-21
6.833229828e-22
1.16546257e-20
3.839586949e-21
1.124750303e-21
2.03015839e-20
1.531515599e-20
1.912326374e-20
6.507761079e-22
7.626960607e-22
3.877211232e-20
1.593527781e-20
6.278337631e-21
5.82342253e-22
1.014571397e-20
4.511713915e-22
1.755164445e-20
7.624035208e-21
1.730413036e-20
3.580344299e-20
2.17307905e-20
1.427895597e-20
1.655593216e-20
2.249136814e-22
1.284960688e-20
4.230517337e-21
4.152768613e-21
6.322067892e-21
1.238107647e-20
1.894601881e-20
3.570424559e-20
4.739056629e-20
1.100430739e-21
4.926458292e-20
5.300646621e-21
5.687930214e-21
1.297975654e-20
2.237084768e-22
1.884007552e-20
5.833970005e-21
2.434224726e-21
5.594020172e-21
1.265834981e-20
1.048280197e-20
2.517614423e-20
1.529239849e-20
7.059650306e-21
8.537931651e-21
9.91331907e-21
1.130877475e-20
4.537816499e-21
9.354319041e-22
5.324433248e-21
1.628986773e-21
2.997220135e-21
1.966605807e-21
2.611939511e-22
4.594955413e-21
2.102698157e-20
2.575743659e-22
6.377959363e-21
4.911639001e-21
4.212750878e-20
6.893742947e-21
3.394416318e-21
6.463704002e-21
1.497304825e-20
1.949013183e-20
2.083041918e-20
3.806164985e-21
1.706233598e-20
2.424894156e-20
6.320693323e-22
3.421212293e-21
2.283415552e-20
3.138531224e-20
2.399333613e-20
1.467248954e-20
2.950724045e-21
2.725706232e-21
7.930248343e-21
2.121294083e-20
1.557256564e-20
7.535069228e-22
1.146662196e-19
2.174287036e-20
2.205812195e-21
1.440272715e-20
7.613782654e-21
3.817292851e-22
1.249973116e-20
1.000311445e-21
1.433300475e-22
2.441540181e-21
1.154812249e-20
1.927390809e-20
1.267875785e-21
8.170042815e-22
8.271151991e-23
3.736320872e-21
6.479248851e-21
1.035773266e-21
1.361065598e-20
2.020691433e-20
1.655644816e-20
2.225461996e-20
1.205748153e-20
8.452407352e-22
7.382429745e-21
2.353232814e-21
3.162468485e-21
3.672112167e-21
4.11204363e-21
2.557551954e-20
2.578970152e-20
1.727579576e-20
6.226435664e-21
3.753749434e-22
2.010118958e-20
1.799079412e-21
1.150746347e-20
6.142638867e-21
1.156096719e-20
2.342373475e-20
1.07754932e-20
3.232272388e-21
6.451257122e-21
1.495642583e-21
4.433201769e-21
4.528741962e-20
6.25010279e-21
4.591235821e-21
1.28436774e-21
1.085163378e-20
3.600291613e-21
1.613279852e-20
2.708426256e-21
8.982972723e-21
3.376812036e-21
2.013883222e-20
1.692413673e-21
2.403822794e-20
8.895327822e-22
9.97179542e-21
3.130297879e-20
1.246118743e-21
1.917825963e-20
2.105699272e-21
3.00171616e-21
2.141735035e-21
2.76515824e-21
4.967228137e-21
1.437053212e-20
1.965391195e-20
9.383953024e-22
2.811786377e-20
3.639875895e-21
9.755328621e-22
5.318860185e-23
2.110452321e-20
5.286626294e-21
1.198345416e-21
1.172700718e-20
7.40481334e-21
7.52111183e-21
2.075328668e-20
5.143979562e-21
4.314201125e-20
2.352815665e-21
1.27122445e-20
1.762318217e-21
4.006249244e-21
1.503824327e-20
2.602341105e-21
2.15255044e-20
3.038022906e-20
9.227046716e-21
3.009220043e-20
1.064101135e-21
9.07074163e-22
5.096914665e-21
3.363121102e-23
1.663705172e-20
2.971836554e-22
9.668469787e-21
1.857434615e-21
5.742125445e-20
1.644609481e-21
1.365343923e-20
2.056276677e-20
1.603258397e-20
5.920286748e-21
1.347908243e-20
3.007576661e-21
1.20538767e-21
1.123036507e-20
3.866934592e-24
4.530486345e-21
5.441170017e-21
1.046809234e-20
2.523819308e-21
3.953782245e-21
4.610159842e-21
1.573900028e-21
7.505386588e-21
2.574401172e-20
1.979892819e-20
4.113896089e-20
1.076988642e-20
3.876513459e-21
1.066751898e-20
2.415315954e-20
3.654698181e-21
1.670013673e-21
1.746915585e-21
8.2494303e-21
3.978998902e-23
6.342141732e-21
2.962474683e-21
1.877237845e-20
8.841985387e-22
5.428449519e-21
9.198291053e-21
8.585145575e-22
2.320955138e-20
4.495861713e-21
5.087153291e-21
6.601066e-21
8.732070023e-22
1.845265823e-21
3.642899992e-21
4.471391961e-21
2.803577323e-20
6.015112465e-21
2.879714043e-20
9.914635211e-21
1.182558986e-21
1.74119685e-20
4.404575071e-21
1.827723579e-21
3.07955883e-21
1.310896607e-20
9.68663016e-21
5.466591582e-21
6.891343981e-21
3.904124424e-21
2.118106397e-20
3.121721149e-21
1.946322955e-20
5.228460555e-21
2.247259256e-20
6.619738084e-22
5.719446122e-22
2.632348151e-21
1.992920185e-21
1.917300969e-21
1.153791325e-20
8.558899689e-21
2.064310166e-21
2.059429609e-21
3.193863126e-20
1.671701243e-21
7.905133139e-21
1.89159279e-22
6.165649638e-21
4.793769211e-22
1.50327945e-20
2.964637565e-21
3.484488683e-21
1.736255766e-21
1.117587996e-20
2.271799672e-21
1.231589553e-20
1.836704472e-20
6.234774173e-21
3.180662225e-21
4.217320384e-22
2.629165026e-20
3.683011095e-20
2.132897528e-20
6.859258577e-21
1.208678947e-20
1.007185933e-20
2.57081477e-20
4.588973543e-20
1.114672852e-20
1.179666566e-20
2.852208666e-20
4.434228964e-21
4.15684758e-21
2.285057035e-20
2.373886625e-20
1.860271645e-20
1.297930376e-21
1.465857888e-21
1.531705759e-21
1.408019664e-22
9.444931249e-21
6.780774841e-21
5.604082096e-21
5.821010573e-22
2.44493109e-21
2.521285547e-20
2.232571659e-21
1.922149156e-21
1.421599703e-20
1.024038473e-21
6.151158479e-21
1.591013366e-20
2.604439763e-20
4.173300746e-21
2.019213304e-20
8.176881352e-21
6.00292109e-21
5.689071717e-21
2.850880429e-20
5.042533044e-20
1.938304225e-20
1.592252366e-21
3.224158492e-23
5.63826926e-21
1.17009108e-21
3.105732772e-21
4.653999901e-21
1.534008924e-20
3.041460101e-22
1.525849567e-21
7.703384357e-20
3.585544613e-20
5.996277234e-21
1.232174778e-20
2.432967687e-21
1.725457875e-20
2.095795204e-20
5.486617198e-20
3.134022375e-20
7.158485635e-22
4.086953652e-21
1.065115207e-20
1.096509081e-21
2.807455742e-21
3.655814327e-20
1.277704579e-20
1.837367121e-20
6.230879298e-21
1.498686765e-21
3.90149402e-20
4.041134636e-20
1.599164873e-20
3.454399752e-20
1.012045013e-20
1.489243861e-20
4.566032908e-21
1.182462962e-20
2.890013704e-21
1.519031392e-20
6.910090015e-22
4.144073449e-21
1.405830551e-20
5.882588327e-21
1.533986401e-20
5.781230672e-21
1.798177398e-21
1.333662379e-20
6.240023844e-21
2.316675113e-20
1.649221506e-20
5.625703225e-21
1.740959412e-21
4.741326445e-20
1.285574966e-20
1.988692041e-20
1.582827966e-21
1.736831693e-21
2.634656271e-21
4.457368731e-21
4.819811589e-21
2.114491801e-21
9.514876333e-21
1.697921296e-21
7.874257673e-21
8.55987609e-21
2.111556929e-21
9.619853807e-21
1.996077744e-21
3.997235791e-21
2.389381082e-20
1.414946856e-20
3.656983749e-21
6.209535605e-21
4.911372954e-21
1.152710172e-21
3.899533654e-21
3.810024406e-20
9.88884239e-21
8.653555433e-21
6.768213157e-21
4.649818621e-21
1.690294916e-21
2.542577658e-20
2.829535446e-21
3.588717718e-21
1.256422115e-21
9.141607564e-22
1.394698161e-20
4.498585081e-21
8.778284566e-21
5.151670915e-21
1.146620165e-21
1.423793715e-20
4.105412987e-22
1.501608807e-21
1.456761062e-20
6.779463563e-21
4.036867162e-22
7.264607762e-21
1.397718991e-20
5.773324318e-22
3.623090282e-22
1.625208516e-20
4.817752556e-22
1.881213527e-21
1.816274925e-21
1.610292729e-20
4.926855328e-22
1.005776963e-20
4.081728626e-21
1.944550211e-20
4.034621885e-21
1.43692413e-20
9.74259314e-21
5.820568161e-21
1.819118264e-20
4.163587706e-20
1.403121094e-21
3.160968746e-20
4.802445541e-21
2.196240707e-21
3.780259411e-21
1.315403748e-20
1.50031083e-21
2.490737563e-21
4.750635425e-20
1.037191164e-20
6.982886498e-21
3.091290263e-20
6.95962313e-22
1.049876119e-21
1.00425385e-20
6.027430735e-21
1.412881068e-20
4.586469331e-21
1.428622235e-20
2.683750991e-21
1.492375507e-20
9.834645916e-21
2.27898246e-21
6.370200058e-21
1.544314264e-20
1.753810801e-20
1.873418121e-21
8.117741216e-22
1.721604855e-21
7.707291015e-21
5.981422105e-21
2.044123292e-22
2.127588199e-20
1.4810251e-20
1.594692132e-20
1.176479213e-21
1.837750709e-20
1.375759533e-20
9.760767013e-21
1.041889372e-20
2.965389295e-20
3.755277967e-21
2.543495319e-21
1.135280325e-20
5.449287061e-21
4.086733514e-22
4.420410682e-22
3.958952633e-21
7.36279292e-21
3.312736023e-20
6.554405866e-21
2.82313773e-21
9.739981188e-22
5.83174994e-21
1.136165445e-20
1.561821672e-20
3.013272607e-21
2.450927426e-21
1.61989976e-20
1.634136583e-20
5.470991825e-21
7.029170294e-21
2.018605301e-20
7.904955457e-21
1.876896211e-21
1.759564533e-20
1.21855883e-20
1.133909852e-20
1.868081704e-20
4.582209563e-20
1.984737815e-21
3.898699498e-21
8.677350811e-21
1.889641936e-20
5.696432304e-22
5.972980104e-20
7.428278278e-21
1.538987578e-20
9.66765521e-21
1.606357665e-21
1.115020269e-20
3.52753612e-21
1.26690259e-21
8.966815136e-21
5.890147979e-21
4.282482235e-21
1.429780602e-20
3.986995897e-21
1.999254502e-20
4.22490995e-20
7.809228099e-22
5.219684324e-21
9.244074819e-21
8.803331167e-21
2.578497192e-20
6.492701675e-21
2.493082538e-20
1.211637282e-20
1.743920963e-20
1.585546953e-20
1.953993665e-20
5.477190371e-21
7.232417033e-21
2.878889985e-21
8.571228369e-21
1.585379481e-20
1.064420957e-20
2.240622858e-20
5.586511857e-21
6.325214432e-21
2.893587655e-21
1.010993507e-20
9.217799873e-21
1.578877237e-20
2.390433187e-20
5.77689478e-21
8.264694915e-21
6.907563422e-21
9.360066642e-21
1.886870987e-21
1.711860308e-20
2.828977672e-20
5.053173898e-21
8.542461636e-22
1.395253528e-20
2.577109954e-21
5.993544377e-22
2.5935027e-22
9.750029059e-21
4.896221674e-21
7.085336361e-21
4.598322184e-22
1.331496115e-20
5.638502799e-21
9.193601037e-21
1.932046971e-20
6.931259302e-21
4.383022261e-21
5.417788407e-20
8.095991065e-21
4.849081445e-23
8.759674082e-21
4.72964548e-20
4.756993149e-21
1.217510992e-20
1.380947233e-21
8.845479118e-21
2.523645803e-22
6.378305719e-21
1.165141366e-20
1.755848637e-21
1.168473489e-20
3.048563091e-20
1.332931598e-20
8.119539693e-23
7.561921952e-21
8.893565407e-22
9.395194553e-21
3.038391661e-20
7.374534248e-23
2.291986398e-20
5.697382285e-22
2.863872325e-20
1.324556625e-20
2.25974072e-20
1.303866835e-20
5.243211647e-21
1.01265809e-21
3.480558214e-20
2.167794859e-20
3.067314091e-21
3.966662249e-20
4.671298039e-21
1.533910387e-20
4.141032131e-20
1.341072752e-20
7.228940939e-21
1.043756241e-21
2.505447452e-20
4.848535439e-21
3.835517133e-21
9.950704897e-21
2.554848409e-21
9.281171988e-21
2.340884611e-21
1.168538513e-20
2.66516043e-21
3.830292659e-21
1.892545948e-20
1.21947238e-20
3.391258248e-22
2.670942935e-20
3.656115912e-21
6.778863232e-21
1.143014085e-21
2.201848323e-20
2.652708758e-21
1.439116031e-20
2.978140271e-20
2.140397526e-21
1.588232659e-20
6.221635532e-21
5.287680132e-21
9.718981287e-21
7.832740575e-22
1.116905775e-20
1.418247409e-20
1.64192837e-20
4.765306895e-21
1.445180572e-20
6.875663351e-21
8.594115747e-21
1.442832285e-21
1.798117956e-21
8.591728625e-21
5.010922892e-21
4.409404551e-21
5.154872543e-20
2.926914944e-21
3.045649426e-22
4.667539831e-21
3.97501906e-20
1.38705498e-20
2.461782442e-20
1.311714504e-20
1.657422291e-21
2.103477832e-20
2.492622255e-20
2.041882524e-20
1.084377594e-20
1.046369365e-20
1.86219379e-20
7.572443282e-21
7.093249777e-21
1.277462479e-20
3.954784933e-20
9.840537081e-21
1.523816639e-20
2.414571587e-20
1.080831451e-20
4.052968755e-22
1.028294616e-21
2.000338097e-21
6.710014272e-21
4.337196581e-21
4.107592816e-21
5.367344024e-21
2.303365968e-22
2.9158066e-21
1.422126784e-20
1.962494326e-20
1.025637387e-20
3.713815412e-21
2.54761881e-20
6.649252454e-22
1.202491731e-20
1.684867368e-20
1.10453462e-20
1.148415084e-20
6.958217588e-21
8.887240661e-21
3.093197709e-21
7.840333624e-21
2.922832733e-21
4.311266807e-21
2.647803993e-21
1.525793531e-21
4.85255711e-21
2.378613187e-21
7.044520569e-21
1.032800506e-20
2.568412275e-20
3.936610884e-21
1.703284485e-20
2.860433161e-21
1.226692587e-20
3.404797379e-22
1.669048207e-20
6.421721941e-22
9.627579322e-21
3.305343167e-21
3.915504408e-22
3.885924253e-22
5.105122126e-21
1.440669208e-20
1.09933562e-20
1.827252186e-20
1.572751472e-21
1.773401376e-20
2.380335883e-22
4.135209456e-21
2.270548874e-20
2.614682277e-21
6.287780205e-21
2.147225195e-20
2.993095918e-21
1.24352636e-22
1.01261527e-20
8.981029011e-21
1.653120668e-20
2.193963033e-20
2.474135986e-20
4.563626695e-21
4.097512993e-21
9.761997355e-22
2.706904375e-21
1.903769047e-21
1.558574051e-20
1.280147724e-20
2.248852687e-21
1.104705391e-21
9.817995471e-21
1.91695623e-20
8.176274017e-21
1.339564177e-20
1.315453238e-20
4.730958668e-21
3.903122269e-21
2.787708195e-22
1.296063696e-20
7.06865558e-21
2.425311572e-22
3.006674669e-20
3.361659607e-21
1.670615529e-20
3.496384892e-21
8.677239836e-22
4.784996356e-21
1.696732004e-20
3.18430151e-20
2.459957596e-21
2.943322572e-21
1.8163824e-21
2.212324603e-20
9.549737255e-22
5.660560401e-21
2.05366228e-20
3.375345007e-22
1.584693845e-20
7.105378936e-21
1.805251777e-20
1.20740571e-20
6.254618019e-21
2.106593356e-20
7.790006789e-21
5.161984727e-22
5.22208971e-21
1.048486229e-21
3.388057943e-21
8.373574449e-21
8.206355838e-21
3.223420795e-20
1.5031473e-20
1.135118162e-20
3.206353806e-21
4.045423055e-21
8.935286721e-21
1.773551447e-21
6.574557843e-20
1.060834953e-20
1.066857716e-21
1.206579156e-20
1.938686683e-20
2.791815411e-22
8.430457529e-22
4.349611109e-21
2.527280222e-20
3.52725202e-20
7.555627704e-23
5.864352412e-21
2.69139519e-20
2.350723524e-20
3.921732823e-21
8.234937767e-21
5.753859583e-22
1.312873929e-20
1.905080939e-20
1.294960477e-21
1.585991582e-20
3.011170339e-20
9.890538548e-21
3.128401213e-21
6.326177293e-20
1.256831052e-20
3.476941489e-20
2.074522957e-20
2.06970743e-20
4.513237979e-21
9.390922834e-21
1.268493104e-21
2.225405795e-20
5.750803581e-20
3.55417396e-21
2.731477987e-21
1.001311773e-20
2.071719856e-21
3.521175053e-21
8.260130734e-21
3.716913895e-21
1.634588076e-20
1.155867806e-21
1.888506484e-20
1.292798616e-20
1.275383567e-20
7.771831613e-22
2.756311962e-21
4.20279697e-22
7.920447692e-21
1.587787085e-20
5.006444751e-20
7.054396776e-22
8.841337494e-21
1.023719093e-20
1.619229e-21
3.494066642e-22
1.57789046e-21
1.074289325e-20
6.351976437e-21
2.416141478e-20
5.949670112e-21
3.587512704e-21
5.898377491e-21
3.208925203e-20
3.644799474e-21
1.608273813e-20
2.152276009e-21
5.863015709e-21
8.430723063e-21
4.793739017e-21
2.818072408e-22
1.359556898e-20
2.537495571e-21
9.464093062e-22
8.23449464e-22
1.658897125e-20
8.076313261e-21
7.42459643e-22
1.705205449e-20
1.905417023e-20
2.962281372e-21
3.446610964e-21
1.467726025e-21
1.198939658e-20
2.919542652e-20
9.377335953e-21
2.171275318e-21
2.219772892e-20
1.565591696e-21
2.93741035e-21
1.236076667e-20
6.373885617e-21
7.806461462e-22
7.560789806e-23
1.267227702e-20
8.9479889e-22
6.791140919e-21
2.658775863e-21
9.617121244e-21
1.677755952e-21
1.246524847e-21
2.963914105e-22
3.948093495e-22
8.739087975e-21
3.176120177e-21
8.670438032e-21
1.82111857e-21
9.667633879e-22
2.825513897e-21
6.705753581e-21
2.051592444e-21
3.805941237e-21
1.72285755e-21
3.136694066e-21
3.2122153e-20
3.414740775e-21
9.396520796e-22
1.028938201e-21
1.599895039e-22
6.180408423e-21
2.621836174e-20
4.344174434e-20
4.429195417e-21
6.705711553e-22
4.016007231e-21
3.627855114e-21
8.272710517e-21
8.451209491e-22
2.201591638e-20
8.282373344e-21
1.043868222e-20
7.84849456e-21
1.1504313e-20
4.144854363e-21
4.718563883e-21
8.627575278e-21
1.575761211e-20
8.798037726e-21
5.747222724e-21
9.073572778e-22
4.006541615e-20
1.533686814e-20
3.819396518e-20
2.068076816e-20
2.703481187e-21
6.822405449e-21
1.61271538e-20
1.457226188e-21
1.027721872e-21
1.028327086e-20
2.544498653e-21
2.618913428e-21
1.309192117e-21
3.130952038e-21
1.816840164e-20
2.697986351e-20
9.547617931e-21
5.806415328e-21
1.741164751e-20
7.927275792e-21
3.065024225e-21
1.231075493e-20
7.356857427e-21
2.277533512e-21
4.157094698e-22
1.291231488e-21
7.032865896e-21
6.980834522e-22
3.402247175e-20
1.539039714e-20
1.157697619e-20
2.12177955e-20
4.960650761e-21
1.26419033e-21
9.463093743e-21
2.359117549e-20
1.033258175e-20
3.718452461e-21
3.306349072e-21
1.136548551e-20
2.125087068e-20
6.758524093e-21
1.488613135e-22
8.227533943e-20
8.392993372e-21
5.169787386e-21
1.001020446e-20
1.777347782e-20
2.892707533e-20
1.081344194e-20
3.703280168e-21
3.371425367e-21
2.236159065e-20
7.928575776e-21
3.636132023e-21
4.959510402e-22
2.003876466e-21
1.189437201e-20
8.961063201e-21
3.698801093e-21
1.135057222e-21
3.789769748e-21
5.233478837e-21
2.28778427e-20
4.310450627e-21
9.090264473e-21
3.422224135e-22