/*--------------------------------*- C++ -*----------------------------------*\
| =========                 |                                                 |
| \\      /  F ield         | OpenFOAM: The Open Source CFD Toolbox           |
|  \\    /   O peration     | Version:  2406                                  |
|   \\  /    A nd           | Website:  www.openfoam.com                      |
|    \\/     M anipulation  |                                                 |
\*---------------------------------------------------------------------------*/
FoamFile
{
    version     2.0;
    format      ascii;
    arch        "LSB;label=32;scalar=64";
    class       labelField;
    location    "0.006/lagrangian/dsmc";
    object      origId;
}
// * * * * * * * * * * * * * * * * * * * * * * * * * * * * * * * * * * * * * //


9450
(
262149
265611
268479
267978
271854
268600
271425
272587
273267
274221
272258
273163
274818
275550
274428
276700
273992
275219
272371
267354
270627
274706
275146
277071
274398
275661
270209
277590
278007
278315
275142
274808
278818
276033
277802
277166
279746
281767
278189
280656
277969
278086
280939
277893
281265
283079
277689
279031
280156
280447
281370
280020
281045
277149
278917
280859
274616
280482
276676
278417
279424
281359
276775
280973
275127
279936
277681
280243
281347
281578
282673
277053
277370
273800
279913
282008
281322
281681
281783
283144
278913
281050
282112
281180
280035
281006
283361
281361
277409
280996
281563
282426
280834
282845
283239
284622
281919
282994
277781
280353
285343
280537
272472
280143
282888
283047
283439
284033
278329
280666
280731
281688
282186
283034
276868
278833
279952
282493
283539
282797
283736
284109
280252
283456
281586
281903
283344
282597
282702
282908
283128
284010
283338
279412
281569
282074
284676
280961
282737
283820
284340
280359
281884
282607
280345
281459
283409
284718
282698
283310
283322
283424
283093
283719
283928
284448
284889
274317
283332
283741
283292
283824
284011
284349
284350
284971
285741
274618
282181
283739
284562
278174
279300
284107
279022
280740
284368
284939
285564
282911
283726
284436
284552
284631
285075
285234
282094
284494
284734
286200
282369
282792
285455
280850
282373
284332
284414
285781
285886
286065
280453
283013
283734
284888
285664
279745
284223
284820
285159
286083
287893
281495
281673
283930
284123
285233
285356
284842
285166
285173
285681
288304
276663
282896
284646
285464
286258
282895
284534
284839
285306
285470
286071
283527
284553
286359
286416
282788
285593
285752
286165
286805
284753
285155
286296
286382
286995
287181
283602
284443
285645
284868
285579
286081
286199
286282
286464
286580
287788
289746
281256
284428
285565
285871
286269
286503
286926
287197
287843
286492
286887
288127
277268
282381
287330
287889
283945
286380
286896
287993
287015
288268
289111
286188
282188
283515
284569
284940
286062
287385
288845
291371
279516
279878
284827
285997
286186
286474
286828
287440
287793
287920
288433
288544
280039
283411
284980
286157
286175
286493
287397
287631
287729
281603
277694
281452
286052
286904
287032
287517
287834
290656
284327
284857
284975
285743
287116
287218
287824
288100
281886
285661
286496
287202
287702
288036
289842
281889
286390
287094
287106
287204
288140
286392
286906
286973
287521
287610
287828
289531
284832
286171
286279
286367
287313
287528
287827
288009
288230
288637
288715
280746
282483
285737
285952
286164
286287
286377
287006
287720
288136
286784
286797
288219
288323
288426
288841
274902
286381
286890
287093
287908
286156
286384
287298
288211
288448
288821
289528
284547
278420
285352
282080
282696
285253
285472
286280
287617
287796
288262
288556
289041
287682
287697
288007
288444
288747
289310
284752
281248
286479
286608
286694
287097
288020
288068
288579
288843
289347
289744
281360
282193
284657
287316
287916
288970
289443
284231
287488
288627
288646
288720
289149
289584
289788
289945
284516
284845
286680
287224
287306
287492
288225
288264
288610
288826
288967
289355
289489
289669
285971
286572
288336
288353
288615
289273
289370
292285
284023
284775
285147
286371
287698
288023
288061
288227
288438
288837
289162
290045
290547
284239
287388
284850
285753
286779
287630
287699
289228
289766
289865
290409
287203
287396
288113
288155
288335
288669
289241
289362
290050
290391
279026
283610
287494
288142
288625
289450
289556
289678
289703
290115
291269
280430
280638
286570
286881
288120
288232
288746
288955
289560
290046
290151
291370
247174
283809
285256
288319
289097
289447
289671
290078
290177
290745
291092
292798
289023
285541
286057
286394
286991
288716
289128
289327
289543
289554
289748
289972
290127
290250
290357
290590
290960
284319
284431
285545
287504
287695
288617
289263
290181
282794
286168
287399
287605
289767
289854
290087
284736
285456
283215
283604
286149
288223
288427
288920
289123
289558
289628
289962
290700
291162
288001
287906
289317
289372
289446
289990
289991
290302
290305
291080
291608
292279
284137
286373
287513
288443
289223
289451
289474
290180
290410
290491
291194
287108
283004
286268
287915
288102
289684
289955
290174
290778
292701
282682
283513
283931
286061
286255
289035
289469
289986
290067
290279
290363
290508
291517
249175
286162
286999
287098
288022
288024
288220
288522
289338
289436
289966
290261
290378
290497
290876
290905
291077
292102
292294
285955
289049
289566
289627
290088
290190
290283
290309
290375
290490
290866
291184
291525
286582
287580
287892
288724
289125
289207
289454
289498
289583
290171
290485
290779
291076
293113
284317
285152
286072
286695
288765
288847
289848
290122
290284
290581
290602
290609
291089
291196
291610
291725
291916
292138
288535
289859
289864
290069
290100
290352
290568
290615
291477
249517
291691
291731
291889
249887
287071
288519
289039
289856
290382
290459
291236
291788
291792
291807
292229
286283
288123
288340
288830
289309
289430
289437
289639
289956
290265
290754
291324
291493
291621
291707
291923
292214
292317
294445
284548
288008
288110
289121
289529
290048
290364
290374
290403
290987
291163
291192
291299
291591
291831
291904
292107
292191
292419
294444
281987
285759
289674
289704
290299
290373
290401
290465
290810
290983
291059
291501
291515
291815
291830
291887
291938
292111
292112
292168
292427
292540
286059
287424
288208
289439
290457
290604
290661
290767
291173
291318
291382
292170
292193
292331
292699
287206
288711
289779
290680
291298
291312
291403
291867
292017
292230
292283
292742
293752
289946
289600
290253
290274
291385
291397
291604
291712
292693
293259
286806
288731
287183
288098
288207
288362
288812
288827
290479
290660
290980
291496
291585
291913
292001
292233
292975
293619
287677
288732
289026
289218
289553
290420
290765
291088
291693
291702
291812
292226
292533
292734
293060
293620
293919
286144
287581
288810
289557
290386
290623
290894
291057
291381
291428
291503
291583
291587
291632
292008
292083
292220
292544
285473
282490
288310
289115
289371
289863
290176
290589
290662
290672
290776
290782
291411
291733
291927
292094
292212
292581
292590
288626
288635
289650
290073
290917
291095
291204
291626
291689
291761
292012
292025
292090
292117
292634
292847
292900
293542
293733
293007
291780
290270
287789
288640
288938
289974
282276
290586
290764
291209
291292
291615
291719
291822
291909
292089
292198
292308
292476
292499
292733
292935
287404
286370
288002
288516
289225
289352
290794
292091
292122
292228
292313
292420
292512
292804
293039
293055
293156
293454
293950
294061
287122
289134
290978
291390
291392
291500
291607
291629
291771
292332
292405
293050
293237
293255
293425
294068
291180
286362
286658
288437
289646
290071
291302
291391
291509
291595
291706
291806
291882
291997
292199
292231
292451
292608
293047
293234
294224
294229
294232
294745
294852
285663
288619
290061
290173
292009
292097
292188
292432
292439
292519
292695
292732
292808
292922
293256
293642
293975
295862
286512
289243
291065
291171
291265
291524
291594
291911
292113
292639
292721
292800
293128
293172
293258
293319
293355
293529
293968
287589
291003
291605
292409
292671
293166
294692
250582
282683
290811
291178
291183
291694
291696
291905
291928
291939
292311
292321
292389
292591
292675
292736
292756
292846
292916
292932
293329
293640
286388
286980
289022
289655
291713
292205
292403
293048
293114
293260
293944
284211
287692
287914
289248
289466
289651
290058
290510
290674
291929
292206
292507
292831
293021
293322
293498
293535
293570
293869
293911
294258
294465
296383
285642
289237
289565
291386
291843
291885
292093
292330
292630
292719
292985
293177
293241
293283
293422
293724
294076
294155
294256
294794
286908
288318
289994
290970
291193
292213
292547
292648
292764
293152
293472
293473
293552
293644
293649
293737
293769
293856
294048
294163
294168
295053
289464
289939
290042
290871
292087
292208
292508
292619
292667
292726
293140
293362
293531
293653
293726
293941
294023
294347
294455
294488
294701
294800
294913
294985
291505
295863
289024
288005
289137
292933
293491
293761
293864
293948
293952
294162
294727
294776
295202
290650
289453
290979
292417
292645
292646
292928
293004
293273
293458
293526
293543
293657
293742
294077
294152
294369
294490
294799
295292
296065
296384
285246
289139
290462
290753
291473
291603
292000
292723
292805
293222
293447
293863
293870
293955
294092
294151
294174
294252
294471
294545
294683
294766
294890
289428
289862
290864
290867
291511
291915
292393
292793
292803
293027
293110
293144
293247
293353
293534
293646
293831
293873
294032
294255
294394
294486
294563
294570
294705
295080
295081
295253
288725
290464
290676
291795
291999
292004
292291
292795
293125
293242
293550
293780
293852
293868
293961
293973
294041
294059
294137
294167
294356
294559
294597
294663
294670
294680
294697
294786
294792
294798
294801
295283
286376
289441
289755
291700
292078
292637
292953
293224
293734
293836
294156
294231
294348
294360
294904
295711
289761
291906
292095
292201
292391
292580
292592
293022
293157
293368
293480
293697
293934
294282
294353
294485
294576
294747
294758
295065
295153
295188
296169
287791
289527
290262
290271
291085
291895
292306
292309
292525
292789
293420
293532
293889
294121
294307
294408
294790
294854
295067
295150
295170
295387
295495
295920
289034
289116
292423
293418
293846
294190
294384
294571
294600
294777
294797
294879
294882
295588
288612
288942
289233
292824
293014
293572
293720
293982
294269
294581
294992
295075
295076
295109
295362
296598
251815
293754
292810
293046
293549
293980
294261
294285
294377
294446
294518
294667
294676
294761
295097
295172
295704
295719
296064
289333
292524
290268
291695
291897
291899
292189
292435
292937
293217
293409
293441
294022
294054
294073
294288
294511
294967
294977
295090
295126
295403
295592
295782
296484
292595
286073
285760
289472
290968
291195
291698
291797
291912
291920
292103
292207
292342
292926
292969
293017
293436
293634
293850
293938
294027
294164
294484
294550
294673
294693
294871
295079
295107
295114
295189
295511
295586
295616
295700
295810
291498
285956
289350
291099
292404
293020
293854
293940
294332
294333
294589
294606
294674
294687
294714
294771
294900
294925
294976
295074
295087
295288
295327
295718
295807
295924
295932
296002
289985
285259
291179
291708
292011
293138
293840
294047
294127
294259
294263
294464
294791
294897
295234
295293
295376
295394
295698
295783
296385
297816
287904
288215
288324
288736
291373
291579
292301
292614
293002
293023
293537
293547
293920
293926
294043
295177
295275
295494
295510
295689
295737
295777
295860
297704
288828
291526
291611
291778
293167
293327
293738
293765
293959
293963
294270
294582
294774
294917
295101
295178
295297
295521
295563
295585
295667
295710
295804
295886
296635
296823
297010
298424
288003
288929
290878
292310
292594
292609
293244
293932
294144
294329
294374
294476
294573
294583
294756
294956
295116
295175
295182
295286
295290
295399
295417
295876
295905
295921
295988
296104
296313
296997
286883
287384
287794
290870
293031
293162
293230
293745
293838
293867
293953
294020
294868
294996
295002
295092
295095
295110
295306
295333
295411
295707
295899
295985
296166
296220
296725
297151
292612
287679
289043
289353
291900
293633
294037
294039
294274
294685
294796
294902
294937
295105
295151
295185
295404
295485
295768
295823
295998
296114
296142
296233
296595
296639
297603
299033
287792
289229
289643
292079
292509
292607
292811
293220
293946
294050
294297
294568
294587
294684
294688
294788
294842
294862
295070
295088
295214
295294
295303
295330
295488
295584
295630
295773
295994
296082
296748
297496
298023
292209
292500
292718
292938
294031
294620
294666
294845
294877
294883
295165
295186
295201
295366
295378
295415
295476
295671
295696
295724
295778
295802
295896
295908
296013
296098
296131
296217
296403
296423
296551
296655
296774
296853
296972
293834
288842
290169
292303
292490
292715
293239
293431
293434
293826
294126
294206
294460
294669
294850
295099
295359
295591
295828
295991
295995
296099
296107
296213
296514
296726
298021
292821
289127
292007
292396
292610
292913
293034
293719
294367
294815
295120
295375
295390
295555
295612
295857
296059
296184
296189
296218
296322
296517
296698
296732
296914
296922
297249
298628
288717
289426
290762
291169
293238
293442
293484
293837
293841
293933
294131
294968
295338
295483
295590
295692
295784
295979
296113
296338
296421
296486
296498
296611
296624
296638
296846
297239
299448
290575
292747
289774
291588
291990
292722
294237
294342
294659
294875
295184
295361
295372
295393
295600
295662
295669
295688
295864
295909
295968
295976
296208
296210
296427
296446
296473
296559
296701
296710
296755
297016
297533
297703
297768
281779
288000
288212
289040
290985
292397
293923
293930
295060
295091
295379
295559
295685
295693
295715
295887
295901
295903
296021
296183
296282
296426
296496
296619
296623
296627
296727
296749
296800
253730
297109
297310
297599
297912
298734
298831
293621
294969
295284
287909
289359
291275
292714
293161
294182
294607
294654
294689
294907
295171
295354
295369
295609
295681
295788
295939
295986
296007
296289
296404
296718
296731
296735
296799
296839
297052
297093
297130
297489
298223
298325
298421
298627
292318
293116
290560
292828
293942
294240
294872
295322
295565
295621
295699
295779
295789
295796
295882
296017
296187
296317
296402
296425
296502
296538
296736
296741
297033
297297
297345
297438
297815
292504
289330
292920
293546
294380
295061
295084
295160
295368
295395
295457
295467
295572
295760
295766
295969
296390
296419
296422
296558
296561
296712
296719
296723
296742
296809
296825
296834
296844
296928
297003
297029
297036
297111
297444
297523
297613
297669
254271
299658
290453
291796
292412
292902
293317
293448
293514
293643
294045
294046
294440
294560
294878
294892
294984
295691
295694
295875
295915
295981
295997
296003
296180
296418
296420
296454
296521
296545
296597
296649
296664
296704
296969
297044
297234
297329
297369
297380
297414
297436
297914
297978
295468
288611
290893
290982
292200
293153
293414
294251
294349
294726
294861
295064
295173
295383
295388
295596
295683
295712
295790
295975
295999
296008
296110
296154
296173
296204
296303
296398
296537
296556
296626
296674
296882
296921
296925
296935
297031
297206
297259
297313
297357
254263
297448
297454
297558
297636
297736
297812
297844
298690
290967
290657
290689
292181
293250
293736
294452
294645
294698
294867
295069
295263
295267
296018
296197
296201
296325
296356
296636
296730
296766
296889
296905
296938
296942
297023
297063
297094
297327
297351
297392
297431
297447
297514
297611
297719
297772
297974
298487
298664
255848
253389
291294
293925
286769
289550
290066
290668
290914
291101
291202
291809
292431
292707
293332
293632
293851
293921
294230
294359
294652
294795
294886
295063
295071
295262
295357
295391
295568
295869
295880
296016
296105
296296
296382
296485
296507
296527
296618
296713
296854
296923
296926
296941
297008
297120
297134
297191
297219
297231
297302
297350
297539
297542
297644
297888
297964
297971
298443
298612
298638
298111
287219
291090
291992
293541
293735
294649
294655
294848
295260
295465
295598
295613
295645
295781
295894
295925
295978
295983
296071
296091
296315
296414
296554
296616
296647
296804
296934
297006
297131
297291
297317
297343
297355
297424
297468
297504
297605
297745
297755
297769
297926
297961
297983
298058
298115
298168
298455
298483
290881
290976
293336
294277
294601
294858
295380
295389
295479
295569
295656
295706
295971
296194
296224
296344
296518
296811
296835
296840
296904
297056
297118
297127
297243
297459
297521
297564
297723
297735
297747
297849
297868
297869
297900
298062
298304
298411
298454
298591
298630
298846
299145
299657
290559
291272
293240
293624
293842
295066
295164
295285
295287
295913
295960
296005
296090
296309
296436
296445
296534
296535
296601
296842
296911
296924
297041
297122
297139
297149
297171
297458
297571
297658
297681
297730
297946
298047
298063
298131
298177
298602
298708
292407
293521
294246
294989
295068
295104
295111
295566
295575
295759
295798
295883
295989
296062
296400
297035
297040
297107
297236
297330
297359
297395
297421
297452
297546
297552
297733
297743
297771
297827
297848
297932
297962
298018
298142
298253
298377
298554
254446
299345
287201
289431
293219
293732
294860
295181
295579
295583
295674
296200
296239
296540
296553
296594
296617
296652
296816
296980
296988
297117
297263
297334
297337
297372
297401
297540
297600
297659
297677
297754
297796
297850
297948
297957
297958
297982
298025
298038
298072
298147
298148
298218
293005
255237
292297
293517
292606
293228
293721
294547
294578
295158
295463
295487
295571
296500
296505
296506
296641
296824
296847
297145
297205
297208
297250
297292
297307
297324
297417
297529
297534
297589
297746
297759
297838
297879
297936
298146
298183
298200
298282
298579
298869
298902
299034
299090
299452
254793
300882
292006
292826
293853
294493
294965
294972
295169
295299
295373
295472
295893
296094
296178
296407
296530
296810
296948
297014
297037
297110
297217
297260
297265
297384
297407
297518
297531
297548
297590
297640
297641
297655
297739
297913
297992
298071
298188
298264
298341
298344
298354
298373
298452
298453
298517
298577
298585
298587
298872
299401
255330
290973
291892
292282
293225
294124
295161
295266
295289
295564
295874
296089
296324
296416
296628
296746
296803
296813
296833
296991
297012
297022
297027
297051
297092
297301
297364
297423
297473
297486
297487
297544
297553
297615
297756
297809
297847
297851
297928
297933
298031
298069
298124
298133
298251
298257
298268
298462
298544
298685
299269
254108
300461
290670
291369
291907
292597
293824
294458
294982
295155
295775
295884
295888
295966
296144
296510
296596
296599
296604
296814
296850
296916
297043
297144
297201
297328
297368
297396
297467
297491
297526
297537
297751
298026
298074
298136
298138
298139
298150
298171
298176
298182
298207
298355
298382
298441
298464
298469
298473
298497
298575
298578
298581
298692
299012
299591
296088
294865
289312
292797
292914
292939
293221
293939
294038
294385
294757
294966
295062
296304
296358
296662
296787
297025
297046
297136
297340
297356
297427
297434
297508
297538
297741
297765
297980
298033
298102
298156
298165
298242
298243
298256
298292
298397
298407
298547
298557
298562
298662
298792
298996
299126
299177
299314
256634
300463
292930
293145
293429
293465
294459
294759
294870
295268
295708
296081
296214
296706
296828
296881
296919
297247
297282
297321
297528
297628
297752
297778
297975
298137
298178
298185
298272
298293
298329
298345
298360
298481
298484
298492
298559
298660
298777
298892
299046
299194
299815
299901
288618
289025
292700
293833
294034
294122
295477
296412
296499
296543
296600
296822
296950
297028
297147
297230
297289
297569
297651
297728
297742
297744
297795
297939
297953
297970
297984
298087
298134
298180
298225
298323
298331
298334
298367
298385
298436
298439
298440
298459
298494
298572
298573
298704
298717
298779
298887
298890
298893
298965
299031
299184
299306
299446
299499
299552
299991
256274
300878
297279
297366
294554
295663
295762
295859
295873
295885
295906
296077
296300
296396
296401
296411
296613
296621
296768
296798
296913
297030
297140
297229
297299
297342
297432
297620
297643
297648
297649
297750
297775
297784
297959
297976
298080
298166
298258
298359
298372
298486
298496
298530
298552
298556
298564
298589
298710
255327
298774
298885
298977
299081
299399
299510
299586
299892
294474
290572
293931
294223
294859
295026
296000
296295
296520
296945
297024
297238
297298
297408
297520
297557
297562
297638
297905
297931
297949
298041
298048
298187
298255
298362
298549
298670
298702
298707
298719
298720
298752
298843
298870
298874
298879
298940
298963
298983
299078
299095
299122
299309
299447
299615
299952
294123
285044
293935
290057
293019
294283
295276
296182
296307
296918
297108
297309
297319
297348
297402
297507
297622
297840
297864
297969
297995
298019
298044
298140
298154
298158
298227
298262
298275
298357
298376
298437
298444
298478
298541
298545
298561
298652
298669
298811
298820
298865
299015
299036
299067
299084
299195
299279
299294
299305
299316
299419
299598
299790
299917
300003
300207
300773
255241
296995
293123
293326
293928
294352
295174
295274
295382
295677
295878
296288
296715
297018
297308
297501
297646
297758
297842
297854
297916
298052
298126
298266
298299
298364
298475
298532
298534
298576
298657
298816
298938
298945
298960
298979
299068
299069
299070
299080
299104
299176
299213
299268
299284
299302
299436
299585
255494
299978
300061
300123
300237
290070
296996
298113
297128
290385
294141
294988
295489
295672
296167
296544
297213
297233
297315
297415
297616
297713
297732
297790
297828
297831
297865
297870
297935
298089
298128
298155
298259
298269
298283
298474
298504
298550
298565
298654
298675
298732
298748
298845
298931
298949
298994
299052
299183
299204
299322
299362
299412
299463
299540
299648
299893
299903
299922
299956
300023
300563
300564
301193
293818
256210
290857
293337
294957
295470
295478
296493
296607
296625
296705
296806
296912
296975
297303
297325
297453
297519
297630
297841
297853
297981
298064
298068
298220
298222
298326
298332
298349
298389
298414
255234
298450
298468
298584
298688
298741
298749
298803
298839
298860
298875
298917
298981
298993
299082
299169
299198
299223
299336
299338
299408
299417
299443
299450
299491
299604
299628
299676
299837
300134
300251
300301
256723
300522
301293
256732
255588
255674
257156
292904
290272
293435
293628
294136
294351
294887
296410
296608
296622
296819
296895
296908
297013
297119
297242
297254
297281
297312
297338
297346
297399
297623
298054
298141
298247
298260
298555
298598
298639
298667
298672
298682
298780
298867
298889
298950
298997
299055
299110
299160
299180
299208
299212
299295
299371
299478
299483
299501
299530
299656
299670
300178
300219
255675
291393
296175
293638
293922
294033
295364
295486
295761
295776
296721
296929
297300
297413
297422
297490
297625
297727
297845
297911
298192
298238
298241
298244
298350
298391
298480
298529
298540
298651
298753
298760
298817
298827
298852
298876
298896
299066
299101
299187
299290
299299
299329
299400
299424
299427
299451
299511
299518
299572
299597
299610
299637
299649
299691
299706
299773
299805
299851
299889
299896
299897
299984
300018
300034
300076
300164
300334
300412
300621
301294
256381
256825
294603
295159
295385
295794
296101
297214
297268
297833
298317
298351
298655
298687
298781
298788
298793
298795
298884
298943
298987
298990
299053
299083
299136
299139
299144
299168
299181
299324
299334
299469
299479
299489
299500
299592
299640
299724
299786
299787
299789
299806
299812
299820
300100
300107
300119
300135
300217
300299
300305
300395
300430
300460
300507
295537
295879
296497
296609
254177
296893
297215
297240
297701
297866
298035
298053
298079
298261
298342
298539
298582
298634
298643
298648
298665
298721
298826
298840
298989
299003
299021
299075
299142
299170
299222
299296
299304
299335
299384
299506
299568
299595
299677
299690
299694
299703
299738
299808
299828
299911
300137
300144
300150
300200
300230
300280
300283
300307
300314
300339
300418
300607
300618
300827
302101
298661
256555
289843
294241
295257
295661
295814
295889
296694
297227
297349
297497
297530
297566
297738
297952
298181
298352
298368
298393
298460
298699
298770
298794
298841
298985
299025
299065
299074
299114
299242
299265
299283
299293
299297
299368
299377
299430
299504
299525
299534
299601
299665
299791
299936
299946
299989
300310
300469
301394
256920
294658
256759
291777
294478
295371
295466
296170
296691
296805
296807
297617
298151
298172
298279
298371
298374
298378
298381
298429
298531
298569
298796
298799
298858
298871
298954
299054
299088
299105
299143
299173
299200
299244
299270
299303
299310
299380
299385
299513
299524
299527
299557
299596
299612
299613
299621
299796
299829
299887
300000
300042
300091
300117
300309
300320
291366
300531
300645
300700
300749
301092
301139
257245
256369
297917
297102
256907
285739
295154
295249
295916
296915
297195
297209
297316
297618
297637
297734
297737
297823
297973
298120
298175
298343
298447
298470
298503
298507
298778
298859
298877
298911
298933
299000
299086
299100
299315
299376
299404
299480
299505
299521
299559
299583
299625
299712
299728
299766
299780
299867
300007
300017
300021
300022
300051
300098
300214
300221
300233
300302
300321
300330
300403
300525
300709
300756
300829
300925
300977
301121
302104
256456
289644
298246
256279
257257
296195
296513
297409
297650
297656
297664
297839
297954
298236
298493
298551
298588
298608
298625
298737
298790
298812
298829
299002
299182
299191
299197
299215
299275
299291
299363
299372
299391
299392
299473
299494
299563
299609
299618
299643
299671
299695
299698
299705
299744
299800
299833
299909
299955
299980
299985
300020
300032
300075
300101
300106
300113
300306
300326
300407
300511
300529
300596
300689
300711
300845
290460
295264
296487
257341
256832
300364
297420
296305
297137
297306
297323
297442
297710
298250
298353
298451
298467
298537
298733
298742
298782
298946
299058
299061
299097
299109
299125
299164
299246
299288
299301
299482
299484
299502
299551
299582
299588
299600
299639
299693
299701
299737
299775
299792
299845
299858
299875
299876
299886
299899
299902
299910
257069
299967
300008
300030
300049
300105
300112
300145
300212
300278
300308
300324
300362
300411
300423
300609
300636
300771
300811
300833
256817
257165
294238
294765
295280
295659
295666
296405
296692
296817
297509
298040
298252
298274
298340
298361
298363
298528
298629
298751
298886
298936
298956
298992
299029
299092
299099
299163
299186
299188
299196
299202
299211
299230
299276
299378
299468
299561
299577
299593
299607
299614
299635
299662
299686
299689
299707
299716
299729
299731
299823
299879
299921
300114
300216
300222
300228
300229
300238
300337
300369
300385
300397
300585
300605
300620
256729
300673
300841
301029
301763
302103
256376
293426
293515
294147
294773
296191
296516
296802
296808
297495
297505
297753
297860
298030
298036
298073
298129
298144
298526
298671
298767
298959
298968
298973
298976
298978
299072
299267
299370
299386
299388
299466
299507
299515
299544
299574
299599
299669
299692
299863
299888
299981
299987
300009
300072
300079
300102
300121
300124
300146
300154
300206
300210
300282
300406
300447
300487
300498
300543
300646
300714
300742
300793
300815
300960
256994
301024
301061
301138
301148
301190
258127
301351
301940
257416
256906
300503
255932
293013
293421
296992
297032
297101
297225
297304
297419
297506
297608
297629
298143
298248
298273
298567
298698
298761
298765
298952
299032
299062
299148
299175
299178
299199
299258
299317
299369
299398
299497
299503
299679
299720
299771
299777
299810
299826
299839
299880
299983
299992
300011
300013
300026
300109
300140
300198
300202
300205
300215
300268
300318
300343
300424
300437
300638
300732
300797
300802
300890
300930
300974
300993
301124
301793
302510
302923
257428
303134
256560
299166
290875
293728
294952
295073
295271
295370
297403
297524
297726
297748
297965
298300
298527
298658
298773
298857
299048
299174
299226
299256
299285
299403
299407
299697
299951
299986
299999
300039
300104
300167
300186
300213
300354
300396
300481
300509
300524
300533
300557
300704
300839
300843
300916
300932
301034
301051
301065
301070
301118
301157
301158
301342
301494
301674
301775
299340
257166
296185
257535
294450
295252
295881
295984
296444
296592
297106
297517
297720
298850
298951
298967
299017
299050
299189
299289
299383
299472
299519
299522
299549
299584
299680
299726
299753
299779
299794
299807
299816
299824
299834
299915
299920
299993
300097
300108
300115
300116
300131
300179
300188
300246
300255
300294
300328
300329
300455
300520
300530
300536
300579
300588
300590
300591
300600
300613
300644
300702
300831
300838
300911
300928
300934
300946
300966
301078
301080
301191
301192
301255
301256
301269
301345
301349
301350
301445
301505
301861
301942
297927
257005
299997
298633
292728
294567
296111
296393
297543
297614
297806
297923
298339
298420
298491
298653
298747
298880
298958
299035
299071
299286
299382
299576
299594
299675
299681
299804
256635
299891
299905
299940
299976
300195
300259
300292
300335
300404
300428
300497
300513
300539
300584
300681
300698
300699
300710
300713
300719
300737
300805
300809
300822
301035
301036
301038
301217
301243
301291
301429
301561
301741
301761
301933
258313
257344
257525
297633
255406
293333
296717
296902
296994
298046
298224
298245
298650
298863
298881
298897
298982
299280
299462
299488
299579
299616
299632
299841
299848
299925
299929
299975
300096
300208
300234
300315
300316
300433
300470
300504
300505
300510
300526
300555
300593
300631
300688
300692
300703
300743
300746
300766
300799
300836
300862
300876
300881
300951
300965
300986
301032
301137
301160
301232
301236
301246
301309
301364
301392
256017
301443
301670
301696
301706
302152
256108
258478
295774
297808
297830
297938
298153
298449
298548
298739
298895
298972
299043
299051
299129
299251
299387
299509
299684
299723
299765
299814
299854
299878
299898
299953
300092
300169
300175
300176
300204
300252
300253
300295
300304
300323
256025
300415
300426
300431
300432
300492
300493
300523
300537
300573
300603