/*--------------------------------*- C++ -*----------------------------------*\
| =========                 |                                                 |
| \\      /  F ield         | OpenFOAM: The Open Source CFD Toolbox           |
|  \\    /   O peration     | Version:  2406                                  |
|   \\  /    A nd           | Website:  www.openfoam.com                      |
|    \\/     M anipulation  |                                                 |
\*---------------------------------------------------------------------------*/
FoamFile
{
    version     2.0;
    format      ascii;
    arch        "LSB;label=32;scalar=64";
    class       Cloud<dsmcParcel>;
    location    "0.006/lagrangian/dsmc";
    object      positions;
}
// * * * * * * * * * * * * * * * * * * * * * * * * * * * * * * * * * * * * * //

9450
(
(0.2875419919 0.08881154338 -2.168404345e-19) 87
(0.2650434277 0.08302819407 4.33680869e-19) 84
(0.2293009925 0.0819325664 0) 110
(0.2334557166 0.06352280732 -2.168404345e-19) 20
(0.2533082639 0.1003456399 1.084202172e-19) 173
(0.2689627048 0.08084017365 2.439454888e-19) 55
(0.2801803237 0.08235771653 1.084202172e-19) 56
(0.2501783423 0.09230261065 1.084202172e-19) 142
(0.2873830056 0.1188025189 1.338312057e-19) 237
(0.2218123385 0.05978312873 0) 19
(0.2539114752 0.08169122959 8.131516294e-20) 83
(0.2360262761 0.06501205068 -1.084202172e-19) 20
(0.2293314437 0.07166139272 2.168404345e-19) 50
(0.2281887347 0.06549298101 -4.33680869e-19) 19
(0.2310699191 0.07439479607 -1.084202172e-19) 80
(0.2157849809 0.06314425866 -1.084202172e-19) 18
(0.2897737833 0.100242846 5.421010862e-20) 148
(0.2719694291 0.09095671962 0) 115
(0.2264374196 0.08328316369 0) 109
(0.2505603644 0.06718130014 0) 22
(0.2881512915 0.08341331733 0) 57
(0.2927065598 0.09668405442 4.878909776e-19) 118
(0.2669746618 0.1046683504 2.168404345e-19) 175
(0.2597734597 0.1133449318 2.168404345e-19) 234
(0.3045906597 0.1101419526 0) 179
(0.2622228891 0.07333005353 -5.421010862e-20) 24
(0.2465555012 0.1398686159 0) 382
(0.2139722804 0.06301265633 1.897353802e-19) 18
(0.2869508474 0.08200263846 1.084202172e-19) 27
(0.2116170763 0.06857367656 2.168404345e-19) 47
(0.2685112163 0.100359363 -1.084202172e-19) 145
(0.2373675766 0.09110107724 -1.084202172e-19) 141
(0.2770303134 0.07686964989 -1.084202172e-19) 26
(0.2847882748 0.09904557331 3.252606517e-19) 147
(0.2597204597 0.088754827 2.168404345e-19) 114
(0.2575562213 0.09001472692 -2.168404345e-19) 113
(0.2548118013 0.1224506357 2.710505431e-19) 293
(0.1844108463 0.06254775323 -2.168404345e-19) 74
(0.2733760221 0.08343541884 2.168404345e-19) 55
(0.2939753436 0.1134360401 2.168404345e-19) 208
(0.2798188034 0.1169926946 -2.981555974e-19) 236
(0.2996402531 0.09438704811 5.421010862e-20) 89
(0.2977897285 0.08629332066 1.084202172e-19) 59
(0.2185378776 0.06785946186 0) 48
(0.2722338749 0.1001261526 -2.168404345e-19) 145
(0.2459529546 0.08890706641 3.252606517e-19) 112
(0.2892274871 0.08188449639 -2.168404345e-19) 27
(0.2997233053 0.09271342727 -2.168404345e-19) 89
(0.2910817875 0.08534252514 4.33680869e-19) 58
(0.2630807883 0.08020312429 4.065758147e-20) 54
(0.239137434 0.1245891348 3.252606517e-19) 321
(0.2774988067 0.09145292353 -1.626303259e-19) 116
(0.1926825016 0.05943792517 3.252606517e-19) 45
(0.2610226088 0.0854507607 -1.084202172e-19) 84
(0.2978517776 0.08091748193 -1.084202172e-19) 29
(0.3010263527 0.08467590286 1.389134033e-19) 29
(0.2795017093 0.1210944753 -2.168404345e-19) 266
(0.2880922139 0.1305465277 0) 297
(0.2868002126 0.0903499482 1.084202172e-19) 87
(0.2996389744 0.126953159 -1.084202172e-19) 269
(0.2689680085 0.1131403641 1.084202172e-19) 235
(0.2786836634 0.1353348643 -1.084202172e-19) 326
(0.2499138985 0.07692523995 0) 52
(0.2779269337 0.07597125818 -2.981555974e-19) 26
(0.2776015093 0.09984430723 2.57498016e-19) 146
(0.2786260149 0.08504550722 0) 56
(0.3045607205 0.1067663992 0) 149
(0.2947361308 0.1227860812 2.168404345e-19) 238
(0.2476874929 0.08685627858 -7.792703115e-20) 112
(0.2315456971 0.09919733124 2.168404345e-19) 200
(0.1785433998 0.1000567934 1.084202172e-19) 253
(0.302833924 0.1025977067 -2.168404345e-19) 119
(0.2509271686 0.07434661606 2.168404345e-19) 52
(0.2560912034 0.1275608315 0) 323
(0.2948761115 0.1315051886 0) 298
(0.2866887278 0.1342191442 1.084202172e-19) 327
(0.2933082535 0.1579760732 -1.084202172e-19) 448
(0.2926773313 0.1278040915 0) 268
(0.2686822018 0.07735442985 1.084202172e-19) 25
(0.2663763261 0.1073087767 -1.084202172e-19) 204
(0.298393659 0.09364690663 4.33680869e-19) 89
(0.2772712498 0.1001980076 -5.421010862e-20) 146
(0.1764504687 0.05831780222 2.168404345e-19) 43
(0.2757902508 0.09846301459 -2.168404345e-19) 146
(0.2641470615 0.09700403464 1.084202172e-19) 144
(0.2268424409 0.1199470927 2.168404345e-19) 289
(0.286135851 0.08308447797 -2.168404345e-19) 57
(0.2927043056 0.1398411748 -1.626303259e-19) 358
(0.2597795471 0.09994689848 1.084202172e-19) 174
(0.2276392725 0.07924773329 2.168404345e-19) 109
(0.2658222445 0.08031394746 2.168404345e-19) 54
(0.2299582821 0.07363906633 -2.168404345e-19) 80
(0.275238131 0.08789223975 -2.456395547e-20) 86
(0.2572042602 0.07717525705 -1.626303259e-19) 53
(0.2977606411 0.08828972154 -2.168404345e-19) 59
(0.2572231278 0.08231644797 -1.084202172e-19) 83
(0.2349306589 0.07291083538 2.168404345e-19) 50
(0.2918099998 0.1109443742 0) 178
(0.2772307474 0.08244661573 1.084202172e-19) 56
(0.1553940599 0.05887510115 -1.084202172e-19) 70
(0.2727151712 0.1027885193 0) 175
(0.3034396267 0.1253966455 0) 269
(0.2878492476 0.09496384303 2.168404345e-19) 117
(0.2671962217 0.1271296843 2.168404345e-19) 295
(0.2991042058 0.08672517791 0) 59
(0.2983128408 0.08294322928 0) 29
(0.2560678162 0.08271243897 1.084202172e-19) 83
(0.2852912429 0.09301385918 2.168404345e-19) 87
(0.2272039147 0.09942644402 -2.710505431e-20) 199
(0.2723588826 0.1028680402 4.33680869e-19) 175
(0.253800471 0.1078615405 0) 203
(0.2873124346 0.09690278604 0) 117
(0.2906790186 0.09586074496 1.084202172e-19) 118
(0.2428270901 0.1294063675 0) 321
(0.285018337 0.09782575348 0) 117
(0.2705356234 0.08090475895 0) 55
(0.2828719402 0.0897493914 2.168404345e-19) 87
(0.2985961266 0.1468525168 0) 389
(0.2261441969 0.06158212183 6.505213035e-19) 19
(0.2715994768 0.07344074043 0) 25
(0.2542570367 0.0940603396 -2.710505431e-19) 143
(0.1882141302 0.06238599239 5.421010862e-19) 44
(0.252059286 0.08299548452 0) 83
(0.2537500675 0.06848740418 1.084202172e-19) 23
(0.28180049 0.07918157863 0) 26
(0.2101839614 0.08601344573 2.168404345e-19) 137
(0.295562728 0.09501063236 0) 88
(0.2175165135 0.1175033043 2.168404345e-19) 288
(0.1948616869 0.0564713613 -1.084202172e-19) 15
(0.2923537015 0.08080227486 5.421010862e-20) 28
(0.2683743799 0.1225288365 0) 265
(0.286716457 0.07803739554 4.33680869e-19) 27
(0.2941024998 0.08460840956 0) 58
(0.2830876753 0.0824696305 -5.421010862e-20) 57
(0.2666638895 0.08348078908 0) 84
(0.2754928453 0.1316908875 0) 326
(0.2582967618 0.08956233687 -2.168404345e-19) 113
(0.2732785381 0.08463454483 0) 85
(0.2980902484 0.1112562267 1.084202172e-19) 179
(0.2015007218 0.1098030401 -1.355252716e-19) 286
(0.2047874809 0.07398774996 -2.168404345e-19) 106
(0.3009206831 0.1496436466 -1.084202172e-19) 389
(0.2361161303 0.08558996069 0) 110
(0.2603262461 0.08543397351 -1.084202172e-19) 84
(0.2246957007 0.07253266497 -2.710505431e-20) 79
(0.2659277364 0.1150700896 0) 234
(0.2691935898 0.0748095931 -1.084202172e-19) 25
(0.2752068296 0.09687237957 0) 146
(0.2294645746 0.09191264638 -2.168404345e-19) 170
(0.2146707632 0.08484710531 -1.423015351e-19) 138
(0.282323286 0.1391484261 0) 357
(0.257677029 0.1252912702 -2.168404345e-19) 293
(0.2861997607 0.1111434752 -2.168404345e-19) 207
(0.2590773659 0.09536041576 4.33680869e-19) 143
(0.2003697632 0.05432114653 1.084202172e-19) 16
(0.2996376564 0.09274894268 1.084202172e-19) 89
(0.2970597106 0.0951740996 -4.33680869e-19) 88
(0.2689533898 0.1112061969 -2.168404345e-19) 205
(0.2865425308 0.1187487272 -5.421010862e-20) 237
(0.248460165 0.07182336885 1.626303259e-19) 22
(0.2292243041 0.06483835919 5.421010862e-20) 20
(0.2412234852 0.07976995173 1.084202172e-19) 81
(0.253824042 0.07039201416 2.168404345e-19) 23
(0.2754924513 0.1216205709 -2.168404345e-19) 266
(0.2785747749 0.09310718583 0) 116
(0.2583624199 0.08244398349 3.252606517e-19) 83
(0.2468246101 0.07676701848 2.168404345e-19) 52
(0.2894785566 0.07922431997 -2.168404345e-19) 27
(0.2340009849 0.06422401873 0) 20
(0.1456080893 0.06560108055 2.168404345e-19) 129
(0.241863679 0.08350244404 0) 111
(0.2780229505 0.1373082155 3.726944968e-19) 356
(0.259080826 0.108543924 -2.168404345e-19) 204
(0.2563780548 0.1521180527 1.626303259e-19) 443
(0.2470062271 0.0669618474 1.626303259e-19) 22
(0.2466124453 0.07196986727 2.168404345e-19) 52
(0.2221606308 0.07875376057 -1.084202172e-19) 109
(0.280143832 0.08188753189 -2.168404345e-19) 56
(0.2700009022 0.09031678893 4.33680869e-19) 115
(0.2903390161 0.09810358574 2.168404345e-19) 118
(0.262655433 0.07151384034 -8.131516294e-20) 24
(0.2359895193 0.06790107621 0) 20
(0.2645122446 0.136448015 2.439454888e-19) 354
(0.2779346388 0.07975490424 0) 26
(0.2152916445 0.07017898729 0) 78
(0.249068557 0.09994900406 2.168404345e-19) 172
(0.2956849021 0.08397646427 0) 28
(0.2635709525 0.07549048536 0) 24
(0.3030095786 0.1172724215 2.168404345e-19) 209
(0.3044095821 0.09216337939 -2.168404345e-19) 59
(0.243072885 0.06794835072 2.846030703e-19) 21
(0.2591011951 0.08599543201 -2.168404345e-19) 84
(0.2362232835 0.07049314658 0) 51
(0.2940413159 0.1204791671 5.421010862e-20) 238
(0.2969653566 0.07986782775 2.168404345e-19) 28
(0.2776808955 0.0919850081 -1.084202172e-19) 116
(0.2599550261 0.1076698444 5.421010862e-20) 204
(0.2280523941 0.08306919033 0) 109
(0.2441781652 0.07264289161 2.168404345e-19) 52
(0.1955540619 0.06837600369 1.084202172e-19) 75
(0.2325409569 0.06768852315 -1.897353802e-19) 20
(0.2873657507 0.1273024753 -4.33680869e-19) 297
(0.2634087343 0.07667653906 0) 54
(0.275070787 0.08652544455 0) 86
(0.2364879482 0.06566724618 2.168404345e-19) 21
(0.2970273417 0.1287500452 0) 268
(0.2879116627 0.1493749863 -2.168404345e-19) 387
(0.1966693178 0.05291314832 0) 15
(0.2317812469 0.09313518883 -5.421010862e-20) 170
(0.2187802741 0.07778333879 2.168404345e-19) 108
(0.2493145302 0.06965971691 -6.776263578e-21) 22
(0.2417707434 0.06657268966 2.168404345e-19) 21
(0.2552397534 0.07232976862 0) 23
(0.2594897754 0.1569310284 1.626303259e-19) 474
(0.209601879 0.06426672647 0) 47
(0.2457298978 0.1089979171 2.168404345e-19) 232
(0.265093527 0.136191782 4.33680869e-19) 354
(0.2197542193 0.1042496895 0) 228
(0.2603062706 0.07179089913 -3.252606517e-19) 24
(0.2456300591 0.06629756125 -2.168404345e-19) 22
(0.2898794573 0.08382405163 1.626303259e-19) 58
(0.2705632071 0.0739831925 -2.168404345e-19) 25
(0.2809368454 0.07933170768 -4.33680869e-19) 26
(0.1302045373 0.03888297421 -1.626303259e-19) 7
(0.2879404852 0.1557830535 4.33680869e-19) 447
(0.2565337701 0.07153468808 1.219727444e-19) 23
(0.2819802562 0.08250363929 -2.168404345e-19) 57
(0.2712908715 0.09360413901 -1.084202172e-19) 115
(0.3017588143 0.1142581333 -6.505213035e-19) 209
(0.2740100927 0.09056261426 4.33680869e-19) 115
(0.2693774215 0.09191656645 1.084202172e-19) 115
(0.2187645573 0.05939559567 2.168404345e-19) 18
(0.229223946 0.06693619452 -3.557538378e-19) 20
(0.2394777337 0.07307553877 1.355252716e-20) 51
(0.236401381 0.07984934378 0) 81
(0.2495887673 0.1043192146 0) 202
(0.2703445887 0.09780109629 6.776263578e-20) 145
(0.2995082723 0.1007723284 -1.084202172e-19) 119
(0.2226148696 0.06609523253 -2.168404345e-19) 49
(0.251145005 0.092991951 -5.421010862e-20) 142
(0.2123193238 0.05915888606 -2.168404345e-19) 17
(0.2441035088 0.07823272697 1.084202172e-19) 82
(0.2796493247 0.116539044 0) 236
(0.2897636369 0.08630631291 -5.421010862e-20) 58
(0.2308625679 0.1007058837 1.084202172e-19) 200
(0.2801519038 0.07841828435 0) 26
(0.2958959554 0.1235481033 0) 268
(0.1668019733 0.08247567832 -2.168404345e-19) 161
(0.2710268605 0.1260954575 3.794707604e-19) 295
(0.2801009804 0.123194411 -2.168404345e-19) 266
(0.2965886253 0.1170167277 0) 208
(0.2608909774 0.08897945177 1.626303259e-19) 114
(0.2747111638 0.08222000894 0) 56
(0.2957585749 0.09360715621 0) 88
(0.3030514217 0.1267544677 -3.252606517e-19) 269
(0.2676692277 0.08316026328 2.168404345e-19) 85
(0.2761304195 0.09224312817 8.67361738e-19) 116
(0.2349747467 0.1397601036 4.33680869e-19) 380
(0.2208258579 0.06081290475 3.252606517e-19) 18
(0.2333021916 0.07002285045 2.168404345e-19) 50
(0.2701605332 0.07606777696 -1.084202172e-19) 25
(0.2403174786 0.1118694925 0) 261
(0.2743619107 0.09204649125 -4.33680869e-19) 116
(0.27455916 0.08085282423 -2.168404345e-19) 56
(0.2821695126 0.07920840296 3.252606517e-19) 27
(0.2140246834 0.07294525584 -3.252606517e-19) 78
(0.3014382479 0.1025569665 1.084202172e-19) 119
(0.2839056978 0.08729309323 0) 87
(0.2502479449 0.1441767925 0) 412
(0.2927402513 0.112089905 2.710505431e-19) 208
(0.2872909031 0.1043134115 1.084202172e-19) 147
(0.2921838259 0.09104158135 0) 88
(0.2391865248 0.07297659095 -6.09863722e-20) 51
(0.2049907116 0.06174794949 0) 46
(0.2965466798 0.1475336962 0) 388
(0.3003815983 0.09586109587 -1.084202172e-19) 89
(0.2469176923 0.08422503795 -2.710505431e-19) 112
(0.2372190136 0.1170356534 0) 291
(0.2945798515 0.08214517094 -1.084202172e-19) 28
(0.201592377 0.07483949821 -5.421010862e-20) 106
(0.2756826784 0.09709659116 -4.33680869e-19) 146
(0.2856601161 0.08192537602 0) 27
(0.2356271212 0.09235532337 4.33680869e-19) 140
(0.2022670111 0.07427391371 -2.168404345e-19) 106
(0.2917684774 0.1100258886 2.710505431e-20) 178
(0.2775120892 0.08051650457 -2.168404345e-19) 56
(0.2473233729 0.1427985446 -2.439454888e-19) 412
(0.2938094707 0.09472690768 1.897353802e-19) 88
(0.2614221767 0.0762465762 0) 54
(0.3015624293 0.08250598264 -2.168404345e-19) 29
(0.2507121413 0.113295836 -2.168404345e-19) 232
(0.190580583 0.06325872159 -2.168404345e-19) 45
(0.199290709 0.1163546565 1.626303259e-19) 316
(0.2859937654 0.1260360073 1.626303259e-19) 267
(0.275973977 0.0863122355 4.33680869e-19) 86
(0.2107781772 0.06346504099 0) 47
(0.2822171442 0.1102653949 0) 207
(0.2586667992 0.07115672483 -3.252606517e-19) 23
(0.2109816522 0.1030017141 0) 227
(0.273731092 0.07472450499 -2.168404345e-19) 25
(0.28734974 0.1207303977 -1.084202172e-19) 237
(0.2035080751 0.07803056537 0) 106
(0.2132653435 0.07409419537 4.33680869e-19) 77
(0.252933463 0.08187462343 -2.168404345e-19) 83
(0.2617372948 0.1254116626 1.084202172e-19) 294
(0.2121724054 0.06480610797 0) 47
(0.2941173341 0.1012742519 0) 148
(0.2404622764 0.0985762297 0) 171
(0.2808929991 0.125503993 4.33680869e-19) 266
(0.2866616166 0.07942531184 1.626303259e-19) 27
(0.2617267369 0.1620982801 -1.084202172e-19) 503
(0.206984238 0.05943598145 3.252606517e-19) 17
(0.1842902068 0.07789588891 2.710505431e-20) 134
(0.2517663875 0.1263943263 -2.168404345e-19) 323
(0.2250626871 0.0701016746 -1.084202172e-19) 49
(0.2987891877 0.1457331606 -1.084202172e-19) 359
(0.2421752635 0.0809857285 0) 81
(0.2694633548 0.1357319807 1.084202172e-19) 355
(0.2759617038 0.07462511691 -2.168404345e-19) 26
(0.2965724338 0.08125761153 3.252606517e-19) 28
(0.2946718534 0.09181376341 -1.084202172e-19) 88
(0.1873953869 0.08063658949 1.084202172e-19) 134
(0.2725619181 0.1022616918 0) 175
(0.2667848192 0.09877104154 0) 145
(0.28435763 0.1370822866 -2.168404345e-19) 327
(0.1871766329 0.05885053729 -1.084202172e-19) 44
(0.2566114865 0.1364994789 1.084202172e-19) 353
(0.2325537418 0.1100063613 0) 260
(0.2480086248 0.08106478311 1.626303259e-19) 82
(0.2027945706 0.05533618189 0) 16
(0.2521828919 0.1578939882 1.084202172e-19) 473
(0.3037995208 0.08219340961 -4.33680869e-19) 29
(0.2715197335 0.1003385362 6.505213035e-19) 145
(0.2572338123 0.1053601039 0) 203
(0.272465539 0.09207991087 1.084202172e-19) 115
(0.2557815951 0.08842820993 2.168404345e-19) 113
(0.2595452863 0.08144627935 -1.016439537e-19) 84
(0.2700113521 0.1434162897 2.710505431e-19) 385
(0.2385492077 0.103059528 1.084202172e-19) 201
(0.234274535 0.06854521613 0) 20
(0.2350024927 0.09282410457 4.33680869e-19) 170
(0.2979542469 0.08537253631 2.168404345e-19) 59
(0.2889951894 0.1144299005 -2.168404345e-19) 207
(0.1858188163 0.1036681696 -4.33680869e-19) 254
(0.2030999155 0.1029749478 1.084202172e-19) 226
(0.2285251662 0.08734470502 0) 139
(0.1676313926 0.06566953421 -2.168404345e-19) 101
(0.205050995 0.07199661797 2.168404345e-19) 76
(0.2777221443 0.07788044287 -1.084202172e-19) 26
(0.2833853849 0.1123320509 0) 207
(0.2639517907 0.1260702033 4.33680869e-19) 294
(0.2793210502 0.1160520286 0) 236
(0.274119307 0.1005241256 -4.33680869e-19) 145
(0.2372552515 0.06730737311 -1.084202172e-19) 21
(0.2126307582 0.0632757091 0) 47
(0.2388260922 0.07088217344 2.168404345e-19) 51
(0.2201386377 0.0667156172 2.168404345e-19) 48
(0.2554088382 0.1018287644 6.776263578e-20) 173
(0.2563617418 0.1141976543 5.421010862e-19) 233
(0.265174878 0.08679672231 0) 84
(0.2911441019 0.1049607529 1.084202172e-19) 148
(0.2690310125 0.1120128338 0) 235
(0.1949469927 0.07028521819 2.710505431e-19) 75
(0.2998816861 0.08158701049 0) 29
(0.2099969078 0.06449760732 3.252606517e-19) 47
(0.2331712667 0.1414947749 -1.084202172e-19) 410
(0.2732651577 0.1259552634 0) 295
(0.2786481022 0.08752173797 1.084202172e-19) 86
(0.2942098003 0.08377459021 0) 28
(0.2886426608 0.1053319904 0) 177
(0.2071065208 0.0975186801 6.505213035e-19) 197
(0.2882712188 0.09709798814 0) 117
(0.2627494438 0.1097697138 -2.168404345e-19) 204
(0.2904215897 0.09371460027 -2.168404345e-19) 88
(0.2422455728 0.0962638586 0) 171
(0.2008270561 0.05388254102 1.084202172e-19) 16
(0.2732791896 0.1017893833 2.168404345e-19) 175
(0.2706175363 0.09679623981 -2.168404345e-19) 145
(0.2164375387 0.1034307798 6.776263578e-20) 228
(0.290525352 0.1046343589 2.168404345e-19) 148
(0.2767687072 0.07418246181 2.168404345e-19) 26
(0.2829347254 0.1084624144 0) 177
(0.1473979469 0.04717263603 3.252606517e-19) 39
(0.2902913941 0.08208008828 0) 28
(0.2230137643 0.07746206787 0) 79
(0.2676768478 0.1058798863 -1.084202172e-19) 175
(0.2577305512 0.07805471851 0) 53
(0.220748268 0.1178098262 4.33680869e-19) 288
(0.2746823028 0.07393460976 3.388131789e-20) 26
(0.2895763813 0.1163478109 0) 208
(0.2558959292 0.101137229 -5.421010862e-20) 173
(0.239799582 0.13035375 -1.355252716e-19) 351
(0.3028563775 0.1274687336 1.897353802e-19) 269
(0.2779547129 0.0947565586 -2.168404345e-19) 116
(0.2407394658 0.06690646319 -5.421010862e-20) 21
(0.2537062177 0.1248576569 0) 293
(0.2643618768 0.1014830394 0) 174
(0.2252286076 0.07717595543 -4.607859233e-19) 79
(0.3017049231 0.100135289 -2.168404345e-19) 119
(0.2584861102 0.08313717198 1.084202172e-19) 83
(0.2980362043 0.1380605468 -2.168404345e-19) 329
(0.2460901954 0.0692469753 1.084202172e-19) 22
(0.296901051 0.09804406024 -1.084202172e-19) 118
(0.2664879806 0.09641274939 -1.084202172e-19) 144
(0.2673024008 0.1496886945 -4.33680869e-19) 415
(0.2768339288 0.1241633575 2.168404345e-19) 266
(0.3024390854 0.0903935823 -1.084202172e-19) 59
(0.2554489965 0.09234385886 2.168404345e-19) 143
(0.1939494784 0.1005220128 2.168404345e-19) 225
(0.2898201433 0.1033373695 2.168404345e-19) 148
(0.2285975125 0.07555319139 5.421010862e-20) 79
(0.2775430833 0.1110561766 -1.829591166e-19) 206
(0.2777557216 0.0893766787 0) 86
(0.2688984072 0.1171521186 1.084202172e-19) 235
(0.2907545252 0.08377888254 -2.168404345e-19) 58
(0.2939192115 0.08105987455 0) 28
(0.2293700812 0.0797943584 2.168404345e-19) 110
(0.2766490717 0.09674802784 1.084202172e-19) 146
(0.2505303115 0.06773392787 0) 22
(0.2630427153 0.09819348592 4.065758147e-20) 144
(0.3026940527 0.1370239728 -2.168404345e-19) 329
(0.2322616825 0.1193625195 5.421010862e-20) 290
(0.2129965915 0.08598975831 -2.168404345e-19) 137
(0.2812677703 0.08951795099 2.168404345e-19) 86
(0.2764342997 0.09296047805 1.626303259e-19) 116
(0.2973054827 0.1002998441 -2.168404345e-19) 119
(0.2235631043 0.0948293381 4.33680869e-19) 169
(0.2074719996 0.07756926649 -3.794707604e-19) 107
(0.2335505335 0.1055304535 2.168404345e-19) 230
(0.2301911155 0.06474410023 7.453889936e-20) 20
(0.2541504062 0.08627520618 1.084202172e-19) 113
(0.3005819872 0.1251587449 -2.710505431e-20) 269
(0.2555134012 0.07457316422 2.168404345e-19) 53
(0.2593240986 0.07546545588 -1.185846126e-19) 54
(0.3011881675 0.147073658 0) 389
(0.244848511 0.08697330868 -2.168404345e-19) 112
(0.155021089 0.05704076478 2.710505431e-20) 70
(0.2565860786 0.1189375657 2.168404345e-19) 263
(0.2835298918 0.07687794838 0) 27
(0.215585573 0.06289892161 -1.084202172e-19) 18
(0.2545788325 0.1113454172 -2.439454888e-19) 233
(0.2680279731 0.1106607795 0) 205
(0.189376872 0.08249541676 0) 164
(0.2779862903 0.1048008019 -9.486769009e-20) 176
(0.2171917647 0.07969458118 1.6093626e-19) 108
(0.2933017988 0.1056437304 2.168404345e-19) 148
(0.2506108572 0.09089870198 0) 142
(0.2356770313 0.08686333084 0) 140
(0.1986205834 0.05949280225 -2.168404345e-19) 46
(0.2846966308 0.1174686873 1.727947212e-19) 237
(0.2582097462 0.1113893401 1.084202172e-19) 233
(0.2767389811 0.07639142201 -2.168404345e-19) 26
(0.2027465561 0.07332932097 0) 106
(0.2972919382 0.1236899047 -1.965116438e-19) 239
(0.2703889839 0.07662172814 -1.084202172e-19) 25
(0.2952737846 0.1265884008 0) 268
(0.2412264548 0.09427269234 6.505213035e-19) 171
(0.2109370104 0.08183444851 -2.168404345e-19) 137
(0.2046861649 0.09772911612 -2.168404345e-19) 196
(0.2626397834 0.09512783194 0) 144
(0.216914802 0.06704554483 -9.486769009e-20) 48
(0.2450232703 0.09140776034 2.168404345e-19) 142
(0.2511282099 0.1299110072 0) 322
(0.2636014603 0.07529003382 -2.168404345e-19) 24
(0.2824068316 0.1152454036 0) 237
(0.2268007377 0.09616885468 -4.33680869e-19) 169
(0.2224339047 0.06235807934 -2.168404345e-19) 19
(0.218481671 0.08997859944 4.33680869e-19) 168
(0.2806543535 0.1383915684 -2.168404345e-19) 356
(0.2278326554 0.08707820367 -3.252606517e-19) 139
(0.1880219672 0.05589016409 1.084202172e-19) 14
(0.2733338496 0.1008343225 0) 145
(0.2267313649 0.07686071042 2.168404345e-19) 79
(0.2673320817 0.1451752524 0) 385
(0.2767184576 0.1128360431 0) 206
(0.2502687099 0.06754393387 -2.168404345e-19) 22
(0.262747169 0.08705193487 -2.168404345e-19) 84
(0.2715956569 0.1187662508 0) 265
(0.1715020534 0.07880601466 2.168404345e-19) 162
(0.261689811 0.09615412495 8.131516294e-20) 144
(0.2715545556 0.1374219579 -1.084202172e-19) 355
(0.2853997084 0.1319270484 2.168404345e-19) 297
(0.2922589475 0.1278021768 4.33680869e-19) 268
(0.2953387921 0.1176216029 -2.168404345e-19) 208
(0.2614600682 0.08881134425 2.168404345e-19) 114
(0.2597804971 0.1029314418 4.33680869e-19) 174
(0.206164223 0.0586293474 1.897353802e-19) 17
(0.2420123092 0.07788949555 4.33680869e-19) 81
(0.2762238902 0.09335524629 -1.084202172e-19) 116
(0.2944763347 0.1196509042 2.168404345e-19) 238
(0.2294839689 0.06942313177 0) 50
(0.2890730835 0.09567638318 4.33680869e-19) 117
(0.2439096861 0.0795045247 2.168404345e-19) 82
(0.230781343 0.06593741406 2.168404345e-19) 20
(0.2322721343 0.1135172553 0) 260
(0.2960489525 0.09233501553 -1.084202172e-19) 88
(0.2585044325 0.07192978339 3.523657061e-19) 23
(0.1628069684 0.1056480554 8.131516294e-20) 281
(0.2463676411 0.07089272894 1.084202172e-19) 22
(0.2798980919 0.1412403379 1.084202172e-19) 356
(0.2823755232 0.08169359148 4.065758147e-20) 57
(0.2504141135 0.09057168258 4.33680869e-19) 142
(0.2396719824 0.06737739596 -5.421010862e-20) 21
(0.2995546787 0.08982719894 -5.421010862e-20) 59
(0.2987955035 0.08230419868 0) 29
(0.1772511682 0.1156848953 -1.084202172e-19) 313
(0.2287317023 0.0662162801 0) 20
(0.2468729194 0.08604069557 -3.04931861e-20) 112
(0.223997429 0.0841210795 5.421010862e-20) 139
(0.2580709952 0.09589168569 0) 143
(0.2887890249 0.100486785 0) 147
(0.2856955512 0.079004207 -2.744386749e-19) 27
(0.2034433872 0.09446511002 0) 196
(0.2733624365 0.08707921714 -2.710505431e-19) 85
(0.1697994207 0.04822919288 -2.168404345e-19) 12
(0.2896331137 0.1113218917 -2.981555974e-19) 208
(0.2866859435 0.105246086 2.168404345e-19) 177
(0.2163160961 0.1635930213 -5.421010862e-20) 522
(0.2204762523 0.0908413796 -2.168404345e-19) 168
(0.2868742485 0.1610925131 4.33680869e-19) 477
(0.2912082857 0.1642838573 8.131516294e-20) 478
(0.2611880979 0.07073182491 -2.168404345e-19) 24
(0.2632537883 0.08410346705 0) 84
(0.1496070502 0.05160358029 -1.084202172e-19) 39
(0.2983121561 0.1385900415 2.168404345e-19) 329
(0.2498074304 0.08850567929 -2.168404345e-19) 112
(0.2818319273 0.09718493146 4.33680869e-19) 116
(0.2063578062 0.1396058422 -4.33680869e-19) 407
(0.2078727886 0.06406477788 2.710505431e-19) 47
(0.2697475041 0.1552050649 -1.626303259e-19) 445
(0.2689801962 0.1108184673 5.421010862e-20) 205
(0.2810413318 0.09310433158 -2.168404345e-19) 116
(0.2281042037 0.09271125171 -2.168404345e-19) 169
(0.2227576646 0.09924177328 -1.084202172e-19) 199
(0.2918122338 0.1090746281 5.421010862e-20) 178
(0.2985727456 0.08854719111 -3.252606517e-19) 59
(0.1835099502 0.05628218405 1.626303259e-19) 44
(0.1966087174 0.05314749378 -2.168404345e-19) 15
(0.2804497646 0.105405565 2.168404345e-19) 176
(0.2919100377 0.1021958581 -2.710505431e-20) 148
(0.274389149 0.08510029991 -2.710505431e-19) 86
(0.2256120417 0.07788349345 -1.084202172e-19) 79
(0.261903317 0.07194656115 2.168404345e-19) 24
(0.2134953184 0.09180713003 1.084202172e-19) 168
(0.2186768933 0.07067951958 0) 78
(0.2797848004 0.09489794524 -1.084202172e-19) 116
(0.2751226985 0.1015466876 -9.486769009e-20) 146
(0.2377433801 0.0706433838 -2.168404345e-19) 51
(0.1575525705 0.06634896382 1.084202172e-19) 100
(0.2752011437 0.1117542724 -1.084202172e-19) 206
(0.2224106083 0.1023386363 0) 229
(0.2316981978 0.07751444339 5.844527336e-20) 80
(0.2538029736 0.1211143747 0) 293
(0.2293241036 0.1251853535 1.084202172e-19) 320
(0.2764131864 0.1360413008 -2.168404345e-19) 326
(0.223838563 0.08745406059 5.421010862e-20) 139
(0.1724676986 0.07367263627 4.33680869e-19) 132
(0.2676979591 0.07373521113 2.168404345e-19) 25
(0.1992236725 0.07267718631 0) 106
(0.2388200782 0.08045228104 0) 81
(0.2780982993 0.07975274332 0) 26
(0.2266993358 0.08891410466 0) 139
(0.161380163 0.08990525428 -1.084202172e-19) 221
(0.2921530279 0.09297530939 1.084202172e-19) 88
(0.1786664683 0.0485610036 -8.131516294e-20) 13
(0.2384417148 0.1277044063 1.626303259e-19) 321
(0.182483761 0.06860882786 0) 103
(0.2202234973 0.06715578955 -4.33680869e-19) 48
(0.2469203806 0.08712364055 5.421010862e-20) 112
(0.1874884948 0.07120802263 0) 104
(0.2896935163 0.1511558273 0) 418
(0.277406091 0.1270638232 -1.084202172e-19) 296
(0.2816833449 0.1164969508 -3.252606517e-19) 236
(0.2993134106 0.1542623139 1.084202172e-19) 419
(0.2747100816 0.08349866926 -2.168404345e-19) 56
(0.2483739922 0.1531657946 -2.168404345e-19) 442
(0.299756139 0.1413382703 0) 359
(0.2330843643 0.1022384716 -1.084202172e-19) 200
(0.2942686121 0.09217344221 5.421010862e-20) 88
(0.2904959718 0.0950348043 4.33680869e-19) 118
(0.2127452886 0.05725461736 0) 17
(0.1441890283 0.0667544258 1.084202172e-19) 128
(0.2489930135 0.09390733086 0) 142
(0.2850329522 0.1273538503 5.421010862e-20) 297
(0.1669989802 0.0519874921 -2.168404345e-19) 41
(0.2384412556 0.08546844945 1.084202172e-19) 111
(0.2463451065 0.09940666869 -5.421010862e-20) 172
(0.2960079811 0.1578981934 2.168404345e-19) 448
(0.2404033366 0.08083771725 2.710505431e-20) 81
(0.2182951952 0.08067995757 1.084202172e-19) 108
(0.2394963466 0.09784463856 1.084202172e-19) 171
(0.1473251702 0.04491509538 1.084202172e-19) 9
(0.1802614277 0.07975212161 -2.168404345e-19) 133
(0.2345045486 0.1215320074 0) 290
(0.2371704106 0.07553747478 -4.33680869e-19) 81
(0.2010472029 0.1369488914 -5.166900978e-20) 406
(0.2351504959 0.06588944408 -8.809142651e-20) 20
(0.2942182761 0.08082684839 -5.421010862e-19) 28
(0.238488915 0.06790219038 0) 21
(0.1977274395 0.05807332707 -4.33680869e-19) 15
(0.2734757422 0.08197394847 0) 55
(0.274074893 0.1193097765 2.168404345e-19) 265
(0.2461516717 0.1382982208 -1.084202172e-19) 382
(0.1831522324 0.06634187444 0) 74
(0.2826446831 0.08138520103 0) 57
(0.249139812 0.08836261535 0) 112
(0.2823174504 0.08717257057 -2.168404345e-19) 87
(0.2178110239 0.1235229918 -2.710505431e-19) 318
(0.2250957714 0.06378095992 0) 19
(0.2902595069 0.08382624589 0) 58
(0.2616115227 0.1430789971 -8.131516294e-20) 384
(0.229823866 0.06981327224 -4.33680869e-19) 50
(0.2324392969 0.1043442353 -2.168404345e-19) 230
(0.2933009764 0.1623910434 0) 478
(0.1958920342 0.06435993648 5.421010862e-19) 45
(0.2862862751 0.1012452045 -5.421010862e-19) 147
(0.282599788 0.09432558644 4.33680869e-19) 117
(0.267742171 0.1003357528 -4.33680869e-19) 175
(0.2635252385 0.07496005449 2.168404345e-19) 24
(0.2548925798 0.08232824645 8.131516294e-20) 83
(0.2828364866 0.1264449477 0) 297
(0.2574536794 0.08641048109 -4.33680869e-19) 113
(0.1911300878 0.0735348984 2.710505431e-19) 105
(0.1907363354 0.09909800926 -2.168404345e-19) 225
(0.2583605676 0.07617405548 2.168404345e-19) 53
(0.2689774113 0.1139283898 5.421010862e-20) 235
(0.298387273 0.1076715726 0) 179
(0.2910877184 0.107547611 3.252606517e-19) 178
(0.2233316928 0.1049855987 0) 229
(0.2908127575 0.0785158494 -2.168404345e-19) 28
(0.2852724347 0.08606435661 1.084202172e-19) 57
(0.2423940131 0.09205381621 2.168404345e-19) 141
(0.2443849223 0.07249066956 1.084202172e-19) 52
(0.2875089599 0.09878837581 -2.168404345e-19) 117
(0.2884648542 0.124937729 4.33680869e-19) 267
(0.2902469679 0.1030673019 0) 148
(0.2992766231 0.1061937634 8.470329473e-20) 149
(0.2748414895 0.09281027059 0) 116
(0.2660104465 0.1140374882 -8.131516294e-20) 234
(0.2698111416 0.1188734057 3.794707604e-19) 265
(0.2199909981 0.07960934612 7.047314121e-19) 108
(0.2712383569 0.107322858 -2.168404345e-19) 205
(0.2666352799 0.07307885481 2.168404345e-19) 24
(0.2796240322 0.1503920073 -1.084202172e-19) 416
(0.2596255618 0.1145576339 2.168404345e-19) 234
(0.2351566161 0.07368354998 2.168404345e-19) 50
(0.2686842897 0.1066411606 -2.168404345e-19) 205
(0.2705815244 0.07437967216 -2.168404345e-19) 25
(0.2659415178 0.08695200566 -2.168404345e-19) 84
(0.2048018786 0.07181340722 0) 76