/*--------------------------------*- C++ -*----------------------------------*\
| =========                 |                                                 |
| \\      /  F ield         | OpenFOAM: The Open Source CFD Toolbox           |
|  \\    /   O peration     | Version:  2406                                  |
|   \\  /    A nd           | Website:  www.openfoam.com                      |
|    \\/     M anipulation  |                                                 |
\*---------------------------------------------------------------------------*/
FoamFile
{
    version     2.0;
    format      ascii;
    arch        "LSB;label=32;scalar=64";
    class       vectorField;
    location    "0.006/lagrangian/dsmc";
    object      U;
}
// * * * * * * * * * * * * * * * * * * * * * * * * * * * * * * * * * * * * * //


9450
(
(576.4314971 343.5161041 517.3209288)
(423.2491706 660.9813846 181.4621849)
(1516.28704 264.1590993 1034.873789)
(-24.58769094 -130.7584066 484.4815097)
(1799.231566 167.6273709 349.7343367)
(749.7089375 -67.90685204 -1146.652718)
(220.2420083 -536.477255 492.285379)
(170.2605375 848.0525991 400.0569963)
(2269.226361 -729.6686461 -858.0661708)
(-444.7120363 709.8359196 49.14257879)
(-522.224772 225.3873979 -47.87547822)
(75.43478423 -211.6640615 -314.2899333)
(-71.00958013 202.8108072 193.5482169)
(-245.6242318 -779.2957952 -275.137472)
(22.80519047 92.79018256 337.505418)
(154.1074838 308.4698464 -50.05972054)
(2558.096559 436.185091 174.2447209)
(612.0160621 -102.5053463 -739.7215947)
(620.7717491 292.6725709 568.7498226)
(412.7737315 614.3947498 387.2291151)
(-355.9218741 120.2875905 -925.6411695)
(270.0490421 877.7363104 178.0247812)
(1095.834656 -741.0253047 776.2605519)
(710.9123372 114.8173257 -909.300384)
(1184.043543 -201.2907687 -1187.114416)
(1235.6989 175.4191794 300.8075779)
(601.1365267 516.9327444 -191.0612067)
(1353.557399 -324.9237443 -1522.845767)
(195.6132645 351.3679687 -534.448343)
(698.0338244 663.3665359 -80.72151421)
(-285.137651 308.2883137 467.6178011)
(1273.238854 -218.8277457 -1033.027072)
(467.817028 406.0889461 -27.27457557)
(1021.010637 -427.8616304 -950.670412)
(1048.918471 196.8726333 -560.5687223)
(1580.188697 -65.99847421 16.63944308)
(1548.647373 1164.627868 -103.8662984)
(4.914581296 -171.7108346 46.10879223)
(598.7801994 -297.550746 -989.5993663)
(1551.873571 1029.239506 -635.1030013)
(1004.473681 1131.249029 -359.8933796)
(342.463738 864.7076121 394.5897805)
(501.1732412 -578.5177064 59.00717397)
(142.3003239 -469.6351575 -195.0704344)
(2381.025221 1143.886965 879.8434124)
(838.7365084 -605.3348256 553.8404017)
(615.5321936 222.5321576 201.9446631)
(666.5632958 251.8820008 -341.9123965)
(418.0267039 -282.6861536 335.620332)
(1264.670179 -946.6587023 83.6370465)
(376.8692186 645.0040239 344.1971874)
(427.1356342 -7.182277998 172.4176818)
(-693.3795009 -523.3859039 -1692.676452)
(495.7658807 615.438566 -69.39214835)
(1079.537162 -1621.843013 261.3984446)
(89.59845646 356.5449524 1079.576547)
(507.0113435 795.4373888 -468.9743684)
(661.723661 101.7702403 111.6072363)
(722.8836233 331.1625717 454.9864222)
(1431.525694 115.7909317 125.1250886)
(370.913318 493.055454 322.6893532)
(1873.41554 320.0322462 184.0904415)
(268.2017532 -11.08993156 1066.857698)
(-262.5834218 888.8577643 73.35321544)
(-291.3322515 794.7281464 -391.6304224)
(849.1044642 279.673331 -532.1599121)
(881.1194402 579.2845998 786.9089991)
(554.3925321 169.7706369 789.5791805)
(-451.5696627 -695.8095891 -122.9446904)
(1429.526043 724.0437607 1175.999127)
(203.1686445 832.3772568 192.8575882)
(596.1884426 -59.01863554 37.21522476)
(-363.0353964 432.9290147 -89.80849203)
(-15.48948871 45.21163577 248.8169117)
(1.648420407 420.0875867 200.6185607)
(1076.18799 -83.97620206 467.6507311)
(1378.682881 546.4395673 210.416697)
(1328.940688 -209.6208886 -618.0995697)
(25.10636503 -357.7586697 295.526116)
(308.9777059 913.9501313 365.2419715)
(369.0432388 80.14826512 -646.0489743)
(422.7564846 21.57369824 35.33276514)
(538.7128798 315.4615127 250.4188663)
(185.3796719 89.97643063 -227.0069534)
(157.6858948 689.6261851 242.9016182)
(-969.6346223 583.3159198 -490.7502383)
(-308.3165911 -174.2427551 367.7040774)
(812.2176347 924.0766013 996.631975)
(504.8038665 -84.72894344 -281.0676051)
(911.457866 596.5627869 -720.1671325)
(-499.1364694 -484.849885 262.6686686)
(-864.2112812 232.1613573 237.4999722)
(778.7545951 687.8449798 1444.332623)
(651.7041611 1008.644995 281.7388534)
(367.5959419 228.6800674 -11.75460905)
(266.7689865 -462.7032647 484.3732759)
(289.1763631 -126.0050909 -281.283891)
(1076.289348 -161.9855481 -4.23849707)
(179.9947791 320.0030849 329.2737199)
(416.6836758 73.25630443 1040.744011)
(423.5425905 726.1826859 468.1633913)
(238.9053113 660.8971603 297.9360889)
(1186.617244 119.4183613 -225.2517643)
(1095.656321 207.1589266 -642.3729465)
(84.33658441 -94.96114692 51.44711776)
(-179.6299475 -19.12250936 119.4350747)
(644.9748531 -112.6047069 1107.228102)
(240.3270266 4.363088907 633.4315804)
(468.146006 604.5869808 49.49953891)
(1086.160114 -87.19646297 -110.3291705)
(282.6706649 365.8313232 -1073.792867)
(284.1101532 760.6025248 142.7772754)
(621.5737124 329.2175679 763.4214342)
(209.1805438 1168.097955 -380.8900657)
(519.5691853 174.5142344 408.2392107)
(-45.17688706 157.5545065 293.8972951)
(1446.540162 -331.4072115 942.9108716)
(1345.041842 1178.937768 -746.5196425)
(773.0752114 871.1159645 -120.1966015)
(92.32848106 -503.837272 152.5877468)
(1185.277641 -0.08733115944 137.1012651)
(240.6256448 734.3145577 279.1318249)
(536.7680564 -214.9520835 -536.2644435)
(240.4556961 -152.7069803 -25.39938236)
(115.823535 -141.6603046 -593.0119173)
(45.55819073 -35.21635668 -372.9295476)
(619.5496004 -414.2341899 725.9625467)
(855.9420938 320.4294306 -103.1982514)
(1013.408544 937.0873027 -237.0826585)
(134.6993401 135.7554632 -218.9716694)
(-526.0676851 309.2562758 -294.9452784)
(349.6120197 -140.3814519 -84.68356164)
(100.8130071 -180.0341342 -515.8859122)
(346.2927096 -224.5596264 -134.3273218)
(262.6035152 406.1520716 572.0639291)
(781.0499771 826.8267492 -324.8222408)
(36.09738821 45.99084408 31.61377005)
(850.8700635 548.0202264 221.1297742)
(164.8387533 796.4605728 -71.90659374)
(963.0288879 807.2927344 -221.3283693)
(1861.71196 520.3337532 15.23584767)
(1174.3545 597.9912766 62.67506819)
(1923.411714 -361.0963706 56.25645789)
(932.6614704 510.7082477 524.0989298)
(386.1469387 771.7341652 -283.5733884)
(835.8258003 -180.6549385 -279.5163993)
(402.4527726 202.3335014 911.3526284)
(-86.21783699 1046.561588 741.0304158)
(1251.584645 520.1083123 -306.4899942)
(1249.258726 774.9527557 -93.53974484)
(873.9583683 1041.129257 -169.175227)
(263.4482965 446.5227903 447.6745874)
(324.5696993 743.0742226 818.0354854)
(1408.283652 349.9399828 291.8491073)
(-271.4746158 515.6081061 -437.2754101)
(708.4001568 -681.1545831 -431.4340261)
(188.3301071 620.1499002 -184.5465844)
(1368.701427 319.4382939 71.26407685)
(1601.67694 185.8138083 -668.6689316)
(201.4499162 -225.4104195 -274.9730493)
(373.6528327 126.801352 305.2874478)
(643.0905665 764.4709284 -214.6513377)
(106.2645941 380.4330855 620.2523891)
(1732.310834 1162.283134 447.769098)
(97.46081619 1293.966024 357.8663947)
(579.0214164 175.756307 -331.970879)
(837.9203642 -228.926801 -624.3304308)
(171.1465351 -102.6490231 648.4182067)
(572.7976027 267.4359154 153.1852309)
(1041.998086 636.2725514 427.4890428)
(749.5625588 243.0073011 112.3523627)
(1158.359605 244.975543 478.8354819)
(1404.508685 911.6583932 531.102613)
(437.130105 669.1610862 -311.4081864)
(1088.164067 -71.06977132 -1052.76169)
(743.1166969 -1488.580805 -169.3615686)
(933.4029529 644.0568937 -341.2659061)
(421.5043593 -284.0977563 420.2644642)
(765.644291 -46.42278904 -174.4692876)
(673.3779728 -72.09370524 -573.9699457)
(-117.8240784 22.88368308 65.43408137)
(343.9381006 237.9961909 581.4381644)
(532.2240283 13.0038028 161.2230289)
(-399.4761238 373.5544996 -72.12385872)
(60.16270417 369.4531716 93.1299702)
(-986.9951098 637.0484026 734.0965752)
(-478.9109384 488.8016348 5.799553563)
(550.8349615 109.1664996 -289.7131585)
(430.590688 675.3898883 -427.0908514)
(586.6980226 328.3971681 30.17013179)
(69.03488168 582.3375681 -154.8899672)
(-555.0000073 358.9745566 437.4407909)
(493.079541 142.034067 -175.30753)
(2120.693832 -188.0364646 112.4469452)
(-79.09321522 386.8363768 292.8789365)
(-189.5434325 -46.5242044 172.0954952)
(434.3122398 -547.2162813 664.7945766)
(-34.85412918 -418.9492317 45.29101577)
(1243.738524 -37.74428025 -234.5031743)
(-364.6442812 785.7534623 -793.7227488)
(1198.770295 -786.2451383 1086.000192)
(1074.258617 43.95593557 -27.74674361)
(596.6058339 176.1026356 174.7670358)
(694.1540516 -113.2891215 123.0577725)
(134.9551209 -203.7344716 -26.39807459)
(534.4105576 -65.25658957 -618.8373839)
(554.9531724 844.4133898 -194.1505892)
(205.4659255 86.86041478 -638.5614841)
(1873.71989 974.2800818 164.7741802)
(135.6879927 -585.2171681 -367.8405291)
(90.60535329 -303.9246591 -187.2807793)
(144.6219429 467.8190494 -280.1997306)
(453.5173674 146.7159615 24.7464274)
(1066.61505 636.0252708 17.43927219)
(-192.0111857 208.5639988 461.4006447)
(-515.3976541 1046.723736 952.9681701)
(921.4908113 1422.488927 269.4051632)
(-353.6166292 667.9238302 -144.7827318)
(942.7581423 131.6490313 -432.5589961)
(1254.691917 -62.57067708 708.4177728)
(-297.6354138 -425.0209055 -390.25229)
(700.069777 -787.9602526 -643.7595847)
(647.3179191 -612.2456502 -99.60602772)
(-669.9855566 -144.0181343 -278.0401453)
(1033.228756 223.1133377 -80.0484753)
(-110.8114404 324.7326576 -390.5400144)
(42.51985412 -173.3238244 708.9367814)
(761.0814678 327.8802563 481.266877)
(585.0179464 698.155422 187.6616712)
(1483.797377 471.8090348 104.4402926)
(1078.665712 744.4529869 27.23405417)
(-478.5359176 -57.4461772 868.7109861)
(-798.4539648 -383.1655404 249.0877367)
(26.16127773 -375.7301773 -452.7414625)
(-560.971969 339.7154122 1813.877134)
(439.3802713 115.9969313 -187.5640577)
(-29.88714438 412.570201 95.35711595)
(1550.04581 639.0278819 374.3117126)
(-274.2076075 380.6542833 -706.6005486)
(-324.790889 324.8495936 -121.7925542)
(-612.8721389 32.65967959 -952.9301364)
(202.1033766 362.9240579 -195.8021714)
(702.6147449 -137.0224312 241.8683302)
(1268.335342 -558.4920863 -1167.178087)
(122.803471 1124.818955 -129.654794)
(-375.8131602 -399.7797441 320.1719817)
(418.6680116 38.74961335 528.0711433)
(1513.468141 41.89638049 -851.6859379)
(880.7070132 782.9354434 -312.8042666)
(-48.73768429 733.4759749 -192.3645712)
(1018.718259 636.724294 -52.63640891)
(-524.5927279 -208.1177112 106.4543579)
(249.7564516 -472.2197205 142.8070095)
(495.014213 165.0351782 -611.9420165)
(1335.383484 566.37512 102.3278287)
(605.7321529 68.57284283 1064.357973)
(986.9873537 -742.3422356 155.6952364)
(1632.882317 849.9175275 -611.7297399)
(1176.586857 -363.1691991 470.3796788)
(78.57419969 396.2560833 -312.6590978)
(839.5751215 133.7238443 -378.4607087)
(801.127647 466.1976855 140.7901335)
(455.9718741 219.7283752 -236.5152661)
(1052.379954 -400.8046244 -195.458939)
(868.0428569 -511.2628467 746.6880473)
(-540.6543167 1000.328579 -71.69602611)
(901.7214428 533.7124685 218.4982731)
(-114.6464527 -384.029019 276.3367779)
(1075.037128 628.4459824 -484.1765541)
(707.548572 488.8164856 619.2524873)
(-192.402284 366.7937356 -344.6929864)
(-6.793212194 -68.29569093 -68.16163345)
(109.5503401 249.0732522 41.75840132)
(589.6142189 252.7439554 0.6283119058)
(1143.342787 595.2991749 236.2495009)
(806.5899452 -103.8747465 -262.4896218)
(-465.9655454 638.802181 340.0572325)
(939.2940691 -190.9678813 338.3464668)
(734.295358 -385.0209527 230.8940387)
(-123.3345764 700.7905266 200.5491573)
(631.2895334 621.820982 -143.3465201)
(79.75299827 266.108975 473.9131772)
(669.9540126 931.6977831 -399.6216813)
(216.0971105 96.88197723 60.43551541)
(926.9826518 70.54634613 4.644396509)
(-112.1613223 538.4209811 341.1821937)
(177.3296879 610.849211 113.3659071)
(306.9893709 -513.9179007 403.6720246)
(472.6278785 192.9776499 539.4974077)
(286.6488453 23.75459124 368.8637427)
(227.3404196 1.891385493 76.07969382)
(975.6126601 -435.9964398 811.8067146)
(838.1805112 -163.7073948 372.4723561)
(1064.081723 326.6063926 413.3180062)
(481.4546715 83.01499538 -159.3454427)
(227.3262599 -236.6060651 341.0775692)
(1511.097078 1063.754919 -185.9874975)
(454.8212081 -695.7203395 247.8138468)
(270.3480664 307.5395011 725.2315402)
(493.554307 -814.971437 -602.4185555)
(1726.798728 -14.31463458 138.8003229)
(336.2160444 222.2912185 -796.5302816)
(89.9051137 618.3573948 326.6291382)
(-81.60888535 -1091.087768 -682.0651031)
(1141.07784 409.0813632 54.1019174)
(-555.2511685 25.25228149 -286.9371147)
(801.1930254 875.2532863 -339.1206602)
(149.685732 1617.632018 -337.4357724)
(1028.570654 583.798335 -251.2654774)
(704.5739858 593.0448461 166.3091421)
(1496.70282 355.2554318 644.233149)
(-1066.12771 220.175214 -549.809147)
(-767.7289364 1363.581691 -483.1228937)
(680.4118914 -281.4784001 20.4858106)
(493.9599511 109.2958992 -490.2257553)
(898.4620704 577.0649202 75.61937347)
(538.970748 717.0552552 97.00558747)
(651.3110026 228.9592505 -309.7152711)
(-359.9837358 -392.6338546 159.5519502)
(240.8629256 211.1270517 -441.1225621)
(-38.80489946 342.3733216 -200.1103401)
(845.8381027 961.3315982 10.10077604)
(279.8846769 859.8691495 -192.0442609)
(352.5962558 -454.5295831 -171.1196813)
(1665.313155 751.6107976 396.3224091)
(152.1819507 261.7923085 -943.8010266)
(1053.731502 431.4946042 -176.1157122)
(406.4881585 6.753987388 -431.4814755)
(995.4793225 -3.195740859 584.11335)
(93.3421645 -166.0049904 -793.3772151)
(319.1419354 887.838099 528.817914)
(630.7912576 17.34118776 383.921749)
(603.2270681 -805.8761044 1043.6169)
(685.1194022 1142.037083 -713.6179382)
(77.6537875 -382.3189977 -85.81748656)
(1322.949498 272.2008627 532.7314432)
(1141.485124 380.0848167 -241.6965723)
(1068.154916 -83.04579056 141.8872163)
(474.4179833 910.2325266 30.03037888)
(540.1777202 44.68632771 -541.5845233)
(896.3473307 -281.0836707 184.6348475)
(251.5549964 -196.846611 -91.18746863)
(910.6307909 11.73697608 1234.713225)
(1108.492701 152.2231984 -276.7923879)
(300.2431619 322.2156715 -128.7385737)
(196.9174588 -468.5621985 -139.7436248)
(1271.177843 469.6426469 991.7465311)
(402.1075941 -446.05144 -214.160917)
(412.3011819 41.44004306 -447.078493)
(1122.430338 -72.16463949 -498.2806023)
(1626.562118 925.3443774 73.94124559)
(1041.710061 529.9004991 -131.8164758)
(432.7941939 171.9719548 -340.1492814)
(184.608248 163.8477194 -121.1569105)
(1272.126744 -187.5636293 482.5139948)
(985.3579046 -216.273494 107.6638292)
(1221.409282 20.52659067 562.3472657)
(733.4477221 -30.69377887 -402.9040754)
(365.9850295 -376.4521438 172.0587718)
(687.384575 11.82730183 345.5612723)
(327.9385306 -588.2666551 -355.1955143)
(1690.963263 918.4451606 -259.414367)
(355.0634327 730.5452218 -647.5845553)
(542.6109416 457.6726142 30.39427774)
(-196.2261344 338.7047527 -121.2700459)
(691.9070027 43.76446674 39.02787719)
(139.5746178 461.6414941 112.3885497)
(-231.4648446 346.4574475 -398.1765262)
(848.0756228 34.28146898 -251.5876207)
(1296.503057 402.7861135 83.12187444)
(1224.646878 1105.733006 65.36015205)
(-30.49437003 -64.64886762 -112.3050301)
(402.2753959 530.9307174 231.256236)
(-92.30849917 -75.93136475 4.694985103)
(-194.6234252 -290.4269531 205.892759)
(1368.36657 905.4135489 -291.5716415)
(1272.227973 446.8705678 -1426.201374)
(213.6257103 -270.3650059 524.5819942)
(1110.691233 253.4335381 885.2283139)
(1136.250132 -311.8635005 -458.2757442)
(136.204091 337.656585 14.21390868)
(439.1692062 -116.5922416 -109.3335368)
(1703.448188 -1110.753174 651.3342933)
(-198.2994115 -47.72410987 -467.4072705)
(807.5875827 -445.523188 -84.75985575)
(339.5151379 -182.5409016 200.4927823)
(1167.679475 206.6488353 -836.2135702)
(995.0653439 727.411791 572.2345097)
(472.9184301 -13.77873863 286.317685)
(959.4942997 482.3181205 156.196318)
(798.0149818 121.2636446 -329.9336908)
(755.3584341 -76.15779213 -29.36823984)
(456.2610429 451.7956562 472.1834951)
(1002.891568 708.9037398 -521.5463991)
(-31.82670314 -297.5731035 -58.26145526)
(1915.879199 712.1334247 237.56253)
(1015.188134 -250.5183848 19.43602087)
(346.527971 -102.0229894 678.719032)
(609.2034981 -262.551027 271.9337528)
(536.4880006 15.09673497 466.6301929)
(789.4096213 1087.534613 -35.12884908)
(-167.3327318 -6.949904292 -258.2354147)
(671.9638435 211.661411 -815.9014658)
(-109.2377548 351.9990102 -354.6630659)
(757.2796677 1659.997543 -750.5097233)
(1222.854134 117.1717426 888.4010224)
(839.2355373 584.7382961 -89.42699361)
(-203.2661999 715.7446563 -304.7272046)
(379.6587098 832.0944036 325.6719832)
(1099.382615 -323.7644436 801.6652361)
(387.5079882 41.0818141 1374.216701)
(887.509132 1160.620749 -1149.237178)
(443.5019395 -215.4077963 -221.362946)
(1669.869752 1117.165678 -13.68450325)
(750.7907296 -135.8437092 50.80386993)
(-96.50801545 698.7872294 -257.5312369)
(789.9282556 -845.814099 -260.6822916)
(62.39197527 457.2907276 -79.97024006)
(508.8715611 -47.466014 -583.4317898)
(330.138259 236.2398888 -88.23826414)
(733.3385963 325.854771 -290.5485833)
(209.5306907 347.2099145 123.9575185)
(280.3101993 144.9919577 -149.7910702)
(625.5233787 70.91216338 -86.1963408)
(1938.401995 -828.0141386 -1339.052693)
(911.9438445 409.5617379 417.9523945)
(2138.752438 303.0827148 -339.0239274)
(630.6296849 262.9104954 149.9297943)
(864.9963857 440.3391164 198.74218)
(333.7770619 -58.65912518 464.9726085)
(995.7716326 660.8643259 -623.2803163)
(1028.694099 771.672594 397.1524685)
(18.82198702 -632.0098291 116.0675006)
(419.959529 294.7192167 -1289.433304)
(919.5212746 -134.989168 743.0891774)
(172.0874298 88.71733488 -631.0868295)
(-836.8516096 40.30094268 -26.82405691)
(1094.617119 1153.047144 94.68900289)
(568.7740455 -277.8359923 -820.0386274)
(21.30530681 545.1060715 71.86759631)
(150.908685 1086.948122 681.0500442)
(828.68817 639.461139 -39.6042613)
(1376.800587 -80.82649125 1052.714464)
(103.9145833 734.246238 -658.8048929)
(510.7999516 -858.6492899 55.81126527)
(704.4574539 -22.84755646 483.1150962)
(1124.447486 212.379306 -426.1348919)
(1043.139056 -317.1931332 294.7897178)
(1155.851792 -29.35481684 -55.77637353)
(1101.607296 53.48525815 453.7485262)
(1234.501542 1153.494431 -1344.228476)
(249.5222777 435.3353456 620.251365)
(246.6292927 -172.9300159 156.7491952)
(938.8389891 504.4050297 -9.477981921)
(-580.0928618 330.290822 -576.5612455)
(427.8807782 250.9135383 447.374623)
(863.2963799 529.3777592 -843.9042488)
(486.5177877 930.9629079 -589.4052663)
(521.968973 160.1664014 -354.070549)
(506.4502612 463.6289648 663.3699827)
(-562.696977 400.9950189 870.7348984)
(1369.81537 -299.6380488 -42.83486336)
(1501.348663 -523.6841702 292.5566987)
(78.90501432 -853.0814644 -757.0572069)
(1182.343296 -246.5930774 -91.2521838)
(642.6580991 226.3961906 761.2447299)
(1187.640694 -0.4156778949 -1559.613195)
(783.0278202 1043.246351 -538.7733375)
(1111.762772 45.5020347 -650.1975286)
(-246.8745243 938.7857215 865.9186598)
(294.9562453 -378.3565754 -82.14852311)
(-82.84777973 -9.734489426 -319.9656995)
(179.7008186 867.5562315 -123.3273483)
(384.9624421 147.336392 121.7058524)
(664.3474932 1066.176474 -1062.077834)
(-160.2320795 765.2697306 -620.0830138)
(351.8368826 -639.3845861 -321.3759278)
(122.6957542 573.9970098 -265.4105712)
(963.3769228 248.3892149 -629.9117771)
(831.7700977 547.5956218 -817.5301203)
(2154.140089 928.4709193 299.8204909)
(613.5351085 753.7406838 721.2952754)
(1151.308572 1071.235717 -222.9133688)
(844.6995605 180.8188707 -31.07791223)
(225.3910762 590.083186 -405.9252515)
(1311.897345 357.0618538 222.9290272)
(-400.8004153 -341.0703739 8.18193059)
(857.0565252 952.3657911 196.0549029)
(800.4763151 -395.4663323 -484.8840428)
(1028.188107 263.1136873 127.7317623)
(-233.8496732 342.0674306 -850.3622137)
(1558.264405 -792.0712435 -538.32627)
(246.5389992 48.98249175 247.6347463)
(-350.6053843 16.58699783 -478.8444607)
(846.4816168 890.4771307 -929.7001424)
(1026.376925 510.3752167 -244.726045)
(794.2611267 -1164.235574 -28.15232333)
(-63.67575764 322.7650624 -208.3303203)
(-87.85544525 75.74847604 457.6967398)
(1434.223871 837.2073008 318.4857392)
(902.8509264 -378.2336887 557.0991428)
(362.6198939 173.3084282 595.7394155)
(61.12687308 -520.5079493 -332.5844505)
(506.9227122 -454.8611781 -330.2566328)
(375.5016778 -604.1264911 39.371091)
(665.1744498 741.758845 -341.6279157)
(-1147.383357 187.9702659 -342.2077905)
(1936.803067 324.146917 338.2723407)
(1064.740642 -276.4641179 -929.1728047)
(1047.841679 648.9306884 285.5295863)
(15.11329162 228.7398106 1354.161182)
(952.9533596 -310.5553344 162.9477082)
(580.0053668 247.7081393 303.8481055)
(-460.2426291 569.0730596 599.8462991)
(365.8723891 242.2596743 -72.18088609)
(1479.857674 514.9713708 236.0226762)
(1551.338579 -114.7806977 255.2724875)
(902.947286 391.883189 -578.2359313)
(987.843381 89.49221918 -350.8503506)
(1280.550814 330.1234623 136.8379539)
(1544.777459 503.2209717 -490.2198205)
(931.6300839 208.8312725 -132.0392291)
(579.0793952 537.6924398 -17.638345)
(-642.5280076 630.7631691 -397.3493053)
(196.782246 817.9375992 -77.81419241)
(1211.479392 194.7513388 -327.3468387)
(602.5767659 590.4798267 584.3691207)
(2159.561948 1039.102359 116.8274941)
(781.4611168 -1022.675467 -676.6387514)
(1620.272127 882.1588001 -441.2463049)
(1439.358409 219.8006457 78.48719659)
(453.3884438 232.5089947 91.70860871)
(1981.319649 315.5402935 -880.1945779)
(457.9571087 145.6161356 459.801063)
(1197.656699 42.89828152 -463.1821329)
(22.97226169 369.5037941 -39.90615006)
(-397.4722038 36.04871116 115.1181908)
(-252.7732966 451.0581373 -71.58511809)
(1621.693977 160.3311206 -11.81563096)
(684.6104802 -814.8980184 -82.70566817)
(196.1976171 265.1281017 282.4389534)
(754.1193456 -265.1782331 -23.87693283)
(931.3708379 -851.2554566 218.1315471)
(-225.5551479 510.2678889 -346.7230178)
(818.7643719 -147.5086893 329.1784738)
(284.369467 837.9068759 -692.2569014)
(727.2082697 411.1164044 513.4081614)
(358.3073873 -185.4589211 -13.15922345)
(-902.3208567 467.1504579 -1036.648995)
(676.7952517 199.8397091 -102.6153747)
(477.1490141 1766.321598 543.9898228)
(25.42300749 119.7188563 -1158.436969)
(767.206329 1236.177392 -177.7625028)
(920.5371976 -23.0831146 -446.5164536)
(233.7571743 117.4770622 907.8121741)
(1370.050043 731.009158 280.3215061)
(505.4619171 582.4377876 -243.539794)
(94.75902231 196.1686848 954.025372)
(831.6236897 798.8509556 -5.384395553)
(145.9509017 -258.5894393 214.9691532)
(77.29204435 626.8516041 60.07982576)
(981.0664072 -301.5266399 -342.120538)
(732.3346499 1405.24542 637.0728521)
(1321.625323 378.3349379 -76.21538809)
(-184.237187 802.5475709 584.9650462)
(814.3221038 821.8257161 340.2091118)
(-104.9906585 -271.727483 -536.3389148)
(-371.1222019 147.8785145 -485.9258831)
(1356.357368 -229.5133832 227.4449625)
(-116.5264651 555.0851274 -699.8298464)
(1275.575516 1206.532335 64.77457415)
(818.0132498 1547.635898 -80.57343636)
(1375.333117 796.8573667 734.4665604)
(1278.908945 888.460329 829.0531327)
(548.5530984 39.28142302 -45.77845334)
(687.603068 828.2065369 -904.7750356)
(1248.129856 -401.197924 254.516199)
(589.624371 -59.5854919 46.47849026)
(45.06017805 169.823101 -649.6341548)
(-409.1433961 417.6475339 -20.42996641)
(-415.6339636 497.9139824 54.30101475)
(-162.2709989 42.16553163 986.3062281)
(394.7497686 -318.0391714 429.4995041)
(597.6585248 844.1611679 -214.4465868)
(298.2932797 -452.6164455 -254.7184035)
(1096.032781 -793.6349476 -25.67813359)
(391.4577874 682.5730276 -17.12915899)
(1350.813942 337.7522448 -333.5447779)
(97.20756179 -890.5315283 -320.3196114)
(443.9089536 579.9641428 -315.9676547)
(775.662525 1176.331575 424.648991)
(847.1150064 152.1998659 -263.6909954)
(774.7408413 -183.3782419 -334.1621712)
(1158.66837 772.2694632 -572.5788093)
(442.9730444 -445.3322954 824.7413553)
(1384.636889 1226.702582 -427.7146934)
(14.34854085 689.9581173 -27.08674474)
(-169.0596493 430.9258469 166.9112002)
(-270.9684829 168.8306586 457.9249889)
(101.4622919 -16.68253564 52.2880664)
(123.2014972 141.2356679 -286.0403381)
(699.9242 694.5638733 98.70689591)
(995.9399428 1969.981934 -215.5505121)
(1034.019164 -174.275489 125.2045061)
(449.7943731 914.509665 -738.5875162)
(-157.4172071 -578.8016217 190.4617904)
(575.9502567 -365.6479825 -709.3379841)
(555.9067823 164.9409904 -586.5253114)
(-158.8689092 -136.8966154 -364.8379179)
(735.5631934 420.0542625 120.526965)
(942.1655777 709.8708821 379.5948576)
(1029.195318 73.22558822 -758.9646366)
(942.0707453 288.4676599 -204.7552994)
(613.1859403 918.0811955 -950.283354)
(1260.739535 210.6590972 -199.0988765)
(1977.312772 -58.35289668 49.35356277)
(390.3383652 -915.3862388 -6.653574429)
(1548.028335 -373.4385629 -787.5086654)
(74.23561167 290.0841132 -478.8466545)
(-414.3075765 121.0768616 -333.3442821)
(1364.419135 303.3754849 21.34296925)
(1122.954352 -25.59169752 371.0537453)
(1113.726873 268.1247261 513.2463149)
(1020.357524 339.5983325 -220.6639211)
(2400.823791 211.0711835 167.942689)
(985.783496 597.0000725 -354.9701238)
(1234.04019 -33.13763987 87.06854271)
(669.8622877 925.8527276 -236.937628)
(885.8353245 -215.4566608 709.8437689)
(-306.7974552 -72.70602591 -129.654153)
(310.32746 310.5643116 -889.9586908)
(1320.230889 -462.523284 290.1083894)
(-748.152073 -508.9078361 -363.9283693)
(-357.5952806 342.5384119 590.1427771)
(243.5212051 670.4417856 -225.4057932)
(169.5243051 -390.217447 -716.2175414)
(625.447028 613.8204292 -825.7404639)
(1118.709278 794.2739121 -37.49871144)
(311.5269207 726.5675843 -154.7287639)
(1027.327942 423.0783285 -649.863109)
(-254.0584183 1162.460366 82.36647334)
(352.4754749 501.1351347 354.068001)
(1.095044278 -559.4464228 65.3481989)
(1460.955903 852.9876386 321.2212273)
(-347.1972934 1080.646185 860.8468649)
(871.5821862 410.2986985 253.1555401)
(920.3275365 309.5434879 264.1001112)
(286.3123482 -99.57391397 -301.1224414)
(148.16604 103.1125768 -125.2152581)
(1360.109123 235.5452083 674.5785109)
(449.3591647 -321.2219879 905.923032)
(-274.3413295 978.3313652 541.1823409)
(1536.992836 412.3835676 109.084108)
(884.2237799 541.6496409 452.6185189)
(1036.718075 831.2409752 -247.7957317)
(1056.572773 226.7584734 116.4781327)
(413.5934156 -379.1785183 121.2383889)
(317.3890839 189.7090514 -192.5184347)
(-337.4224017 666.7828074 -287.2071019)
(524.4245397 2.521077506 143.5639186)
(-538.3724404 -43.65069768 559.3677292)
(110.7210051 72.20683204 341.2348165)
(-226.3527037 -312.6284605 -241.0389335)
(-56.73555181 870.7650339 -700.3373492)
(1176.571034 414.3514418 231.3941309)
(1094.48904 477.1716816 26.56169674)
(368.0074903 -243.2206333 -268.2579791)
(769.5494007 63.62733499 188.7975972)
(-408.609708 793.6798465 118.6586772)
(475.0058903 -364.2048745 -264.4049539)
(340.7021212 525.7128042 -116.6155614)
(908.9511657 333.4539544 -788.9276546)
(-152.508016 237.1307619 406.2222431)
(451.5143311 483.8045406 -939.4388056)
(61.14759221 -293.0673056 1068.397794)
(529.3988787 424.3882382 941.9931667)
(1332.699516 571.2331395 602.6037525)
(1164.073614 -205.6700507 -415.6473205)
(556.0115834 136.780338 -213.4906448)
(1614.829577 387.3459747 -447.3078318)
(1228.990219 -402.1606286 -385.9229094)
(595.4194466 183.5873139 188.6324388)
(667.2370887 960.4925334 -559.4674453)
(1061.469187 211.3937752 -84.31287824)
(713.584775 788.7023495 -539.2420939)
(330.016149 277.1810163 745.2191174)
(577.6732403 259.0173819 -190.2275844)
(957.1497736 1081.100119 -137.6860981)
(1257.474839 -43.25942075 627.7994489)
(485.7699065 -287.2764891 -230.868123)
(563.2766604 -145.2998082 -121.0796574)
(827.591393 159.4634016 304.1329425)
(331.6247441 337.2091455 -208.3536071)
(1167.58427 -111.5115537 -698.5383764)
(687.8572705 116.2819356 -304.679245)
(493.1671288 29.08265 -215.0669546)
(-258.4139566 -5.783442445 566.9469412)
(-16.86497093 532.3510574 482.5338575)
(-890.539511 546.3862076 -497.3157004)
(363.7121781 -40.06958561 543.9118737)
(580.2908118 352.4629928 246.780412)
(821.7220981 569.7534165 334.2606458)
(43.04756807 467.7011528 -531.6052637)
(944.627719 1010.159307 -130.2586774)
(363.7573929 -219.2514621 577.5194605)
(1064.670009 512.8990317 -5.084625277)
(1371.969527 516.0767949 236.0215199)
(1302.046699 -464.9772723 615.6396766)
(1341.082623 511.8427943 -245.6374749)
(-392.6214914 300.9602743 -606.2786265)
(462.4619219 399.4094563 110.432535)
(107.5608921 369.9634037 222.6532783)
(-143.5647329 786.2283563 -60.29658622)
(-382.4278885 62.43922012 265.8053173)
(1496.893393 1119.133082 -149.5267621)
(344.6154172 201.5471225 -505.7068528)
(1317.703712 978.8937523 867.2984021)
(967.855351 10.41731209 183.849049)
(1269.936073 558.315524 -378.9016157)
(1069.770134 410.2423655 -479.891934)
(-98.30582649 180.5004059 -345.0176208)
(1108.118722 -8.452643973 315.8921967)
(-129.2140976 728.9551718 -629.2034931)
(585.6271409 194.6972876 -138.4094285)
(535.0912709 -169.1140031 641.622419)
(524.6806264 764.4895483 -13.41596131)
(37.62481862 -891.8579649 -253.8562241)
(1243.840652 894.8651378 303.6568841)
(642.6774613 448.3080557 304.7281818)
(1567.365045 1170.697817 135.2640851)
(38.43945585 818.0151516 448.8730981)
(1437.391193 179.8538004 749.0195388)
(273.8315549 234.5035232 419.4080954)
(1667.70915 359.761612 -267.5627442)
(1228.168663 543.3039528 -953.69124)
(-320.3459231 513.9596406 1001.194308)
(284.1800213 78.58158336 27.31050226)
(425.3885468 668.4426216 -709.7742325)
(155.6767866 -529.4753919 -344.6289527)
(840.8836347 26.20115948 -450.3814347)
(305.9507009 493.0857385 239.1968007)
(-291.8292742 66.42144347 -255.7238988)
(956.0362611 237.9317999 -1081.535113)
(-359.0499093 437.9565768 222.8958727)
(1709.484537 -219.7065732 -443.8616801)
(1401.408364 1305.516661 -637.8091876)
(431.1475064 358.4134742 -529.6782864)
(849.1663516 613.7587184 -175.2538034)
(173.4071123 159.1842931 -522.5351452)
(1063.504556 -208.486622 274.0349627)
(379.0371042 202.2710973 515.4182515)
(461.8349384 -266.2730498 97.07123611)
(353.9555761 845.4894352 91.09982703)
(1044.044568 382.001555 -793.855149)