/*--------------------------------*- C++ -*----------------------------------*\
| =========                 |                                                 |
| \\      /  F ield         | OpenFOAM: The Open Source CFD Toolbox           |
|  \\    /   O peration     | Version:  2406                                  |
|   \\  /    A nd           | Website:  www.openfoam.com                      |
|    \\/     M anipulation  |                                                 |
\*---------------------------------------------------------------------------*/
FoamFile
{
    version     2.0;
    format      ascii;
    arch        "LSB;label=32;scalar=64";
    class       volScalarField;
    location    "0.01";
    object      dsmcRhoNMean;
}
// * * * * * * * * * * * * * * * * * * * * * * * * * * * * * * * * * * * * * //

dimensions      [0 -3 0 0 0 0 0];

internalField   nonuniform List<scalar> 
546
(
7.431
9.5776
9.6688
9.6202
9.6132
9.6084
9.6154
9.5862
9.5306
9.6144
9.6414
9.6812
9.6642
9.597
9.5848
9.5802
9.5962
9.5966
9.5324
9.5112
7.4616
9.5882
9.6302
9.6674
9.679
9.6634
9.6336
9.6558
9.6142
9.5886
9.5852
9.5634
9.5812
9.5662
9.5932
9.5574
9.5658
9.6122
9.6448
9.6386
7.4156
9.5284
9.577
9.5518
9.5484
9.5684
9.617
9.6038
9.5918
9.6184
9.595
9.5956
9.5552
9.5054
9.5428
9.5574
9.5124
9.5286
9.502
9.4906
7.4446
9.5854
9.6146
9.566
9.5894
9.5326
9.5366
9.5556
9.6048
9.5336
9.5858
9.6184
9.6942
9.6758
9.6452
9.6144
9.5988
9.5768
9.6636
9.6516
7.4448
9.589
9.611
9.6018
9.5796
9.6036
9.56
9.5676
9.5132
9.4824
9.467
9.4288
9.4396
9.4796
9.5742
9.6262
9.6766
9.6686
9.615
9.5978
7.441
9.5822
9.6126
9.628
9.6638
9.668
9.6284
9.6126
9.6574
9.6736
9.7148
9.6784
9.6642
9.6172
9.6004
9.6364
9.622
9.5788
9.626
9.6594
7.4342
9.5242
9.5854
9.601
9.5564
9.5648
9.5908
9.6498
9.6206
9.651
9.6634
9.6956
9.726
9.6802
9.6704
9.6178
9.6438
9.6138
9.6302
9.6184
7.4312
9.6174
9.6802
9.6692
9.6796
9.6592
9.6926
9.6736
9.709
9.6678
9.65
9.5978
9.5868
9.5894
9.6114
9.662
9.6606
9.7006
9.7318
9.7196
7.4434
9.5768
9.5806
9.6
9.602
9.5732
9.5546
9.6048
9.5474
9.6322
9.6634
9.6882
9.6836
9.6926
9.6436
9.5712
9.5866
9.5752
9.5444
9.5288
7.409
9.5034
9.5578
9.5538
9.5338
9.574
9.584
9.614
9.5868
9.5548
9.5212
9.537
9.5776
9.5948
9.615
9.6262
9.607
9.54
9.5266
9.491
7.48
9.605
9.6102
9.5984
9.5838
9.5592
9.5858
9.517
9.5594
9.6106
9.6114
9.6078
9.5948
9.57
9.5174
9.5346
9.5496
9.6004
9.66
9.682
7.408
9.586
9.6194
9.626
9.591
9.556
9.5874
9.5432
9.516
9.5132
9.4704
9.52
9.5104
9.5624
9.6212
9.6034
9.6452
9.5562
9.6012
9.598
7.4524
9.587
9.658
9.6214
9.6388
9.6226
9.6202
9.6162
9.645
9.6308
9.6226
9.6616
9.6586
9.62
9.5968
9.6322
9.5346
9.6094
9.6066
9.6006
7.4164
9.4936
9.5722
9.5784
9.5882
9.6102
9.611
9.665
9.644
9.6448
9.5814
9.524
9.4764
9.5314
9.5364
9.5694
9.5994
9.5666
9.5688
9.5868
7.4764
9.6088
9.611
9.5502
9.6092
9.5926
9.5682
9.6032
9.5778
9.548
9.5314
9.5832
9.6294
9.5918
9.5866
9.552
9.5298
9.5514
9.591
9.5984
7.4002
9.5252
9.6036
9.6302
9.6562
9.586
9.5236
9.5044
9.5234
9.5796
9.605
9.5906
9.5656
9.582
9.6448
9.6338
9.6258
9.573
9.5182
9.539
7.4706
9.6548
9.675
9.613
9.5502
9.6548
9.6954
9.7164
9.6826
9.721
9.6906
9.64
9.6652
9.605
9.6012
9.5742
9.5988
9.5644
9.608
9.5846
7.2954
9.351
9.441
9.4886
9.4802
9.4902
9.5
9.5052
9.4906
9.4796
9.5438
9.546
9.5602
9.553
9.5216
9.5266
9.506
9.5462
9.583
9.5646
9.375
9.3138
9.265
9.175
9.129
9.1128
9.5088
9.4734
9.4276
9.3058
9.2882
9.2714
9.2576
9.2132
9.0914
9.0056
9.6164
9.5804
9.5544
9.5004
9.3884
9.2954
9.2016
9.1404
9.0844
9.0768
9.5044
9.4076
9.3332
9.263
9.2414
9.1602
9.1166
9.0862
9.0572
9.0424
9.6438
9.5912
9.4798
9.4698
9.3574
9.2946
9.1964
9.1272
9.0006
8.981
9.5754
9.4788
9.4222
9.3396
9.3002
9.2198
9.2152
9.2168
9.115
9.0186
9.6018
9.532
9.4724
9.439
9.4632
9.4086
9.2786
9.1844
9.1606
9.1
9.5918
9.5376
9.4716
9.4142
9.2906
9.2194
9.1744
9.1218
8.9848
8.8906
9.7074
9.6526
9.4994
9.3352
9.2268
9.1632
9.0964
9.0122
8.976
8.9268
9.4212
9.3494
9.304
9.2288
9.2218
9.175
9.1462
9.0086
8.9678
8.9098
9.4716
9.469
9.436
9.4202
9.3292
9.257
9.2042
9.1478
9.0994
8.9534
9.6362
9.5456
9.4364
9.3734
9.3264
9.2404
9.1554
9.0878
9.057
9.0166
9.583
9.5092
9.4406
9.356
9.2656
9.2022
9.1602
9.1558
9.104
9.0634
9.5264
9.4976
9.4676
9.4116
9.3258
9.3076
9.1972
9.133
9.0218
8.951
9.582
9.5418
9.4408
9.4232
9.3696
9.2652
9.1826
9.1268
9.045
8.9064
9.5194
9.4722
9.385
9.3204
9.2702
9.2114
9.1082
9.0564
9.0444
9.0318
9.4852
9.4462
9.3892
9.3354
9.29
9.183
9.1732
9.0886
9.0478
9.0042
9.5256
9.4592
9.3816
9.3014
9.269
9.231
9.195
9.1746
9.1176
9.0078
9.5536
9.4424
9.3728
9.3738
9.2014
9.1326
9.0912
8.9438
8.8304
8.833
)
;

boundaryField
{
    flow
    {
        type            calculated;
        value           nonuniform List<scalar> 
48
(
7.431
7.4616
7.4156
7.4446
7.4448
7.441
7.4342
7.4312
7.4434
7.409
7.48
7.408
7.4524
7.4164
7.4764
7.4002
7.4706
7.2954
7.2954
9.351
9.441
9.4886
9.4802
9.4902
9.5
9.5052
9.4906
9.4796
9.5438
9.546
9.5602
9.553
9.5216
9.5266
9.506
9.5462
9.583
9.5646
9.5536
9.4424
9.3728
9.3738
9.2014
9.1326
9.0912
8.9438
8.8304
8.833
)
;
    }
    obstacle
    {
        type            calculated;
        value           nonuniform List<scalar> 0();
    }
    frontAndBack
    {
        type            empty;
    }
    procBoundary2to0
    {
        type            processor;
        value           nonuniform List<scalar> 
31
(
7.4316
9.5498
9.5924
9.5296
9.5648
9.5276
9.6048
9.6414
9.712
9.6766
9.6296
9.5982
9.6184
9.6294
9.606
9.6086
9.5902
9.5754
9.6186
9.6186
9.3212
9.2586
9.1798
9.15
9.1884
9.1408
9.5858
9.4738
9.4352
9.4208
9.4208
)
;
    }
    procBoundary2to3
    {
        type            processor;
        value           nonuniform List<scalar> 
19
(
9.0812
8.984
8.9922
9.0148
8.929
8.9304
9.066
8.816
8.895
8.8144
8.9052
8.9228
9.0048
8.9034
8.8722
8.926
9.0008
8.9422
8.7302
)
;
    }
}


// ************************************************************************* //
