/*--------------------------------*- C++ -*----------------------------------*\
| =========                 |                                                 |
| \\      /  F ield         | OpenFOAM: The Open Source CFD Toolbox           |
|  \\    /   O peration     | Version:  2406                                  |
|   \\  /    A nd           | Website:  www.openfoam.com                      |
|    \\/     M anipulation  |                                                 |
\*---------------------------------------------------------------------------*/
FoamFile
{
    version     2.0;
    format      ascii;
    arch        "LSB;label=32;scalar=64";
    class       volScalarField;
    location    "0.01";
    object      iDof;
}
// * * * * * * * * * * * * * * * * * * * * * * * * * * * * * * * * * * * * * //

dimensions      [0 -3 0 0 0 0 0];

internalField   nonuniform List<scalar> 
546
(
1.874519654e+20
1.24967977e+20
2.291079578e+20
1.457959731e+20
2.499359539e+20
1.457959731e+20
1.24967977e+20
1.457959731e+20
4.165599232e+20
2.499359539e+20
2.291079578e+20
2.082799616e+20
2.082799616e+20
2.499359539e+20
1.666239693e+20
2.707639501e+20
2.291079578e+20
1.666239693e+20
1.666239693e+20
2.499359539e+20
1.874519654e+20
2.082799616e+20
1.874519654e+20
1.666239693e+20
2.082799616e+20
1.874519654e+20
1.457959731e+20
2.291079578e+20
1.457959731e+20
2.707639501e+20
1.24967977e+20
1.666239693e+20
1.24967977e+20
1.666239693e+20
2.291079578e+20
2.499359539e+20
2.499359539e+20
2.499359539e+20
2.291079578e+20
1.666239693e+20
8.331198464e+19
2.915919462e+20
1.457959731e+20
2.707639501e+20
1.666239693e+20
2.291079578e+20
1.666239693e+20
1.874519654e+20
2.707639501e+20
1.874519654e+20
2.499359539e+20
1.041399808e+20
1.24967977e+20
2.082799616e+20
2.707639501e+20
2.291079578e+20
1.874519654e+20
2.082799616e+20
8.331198464e+19
1.874519654e+20
1.457959731e+20
1.666239693e+20
2.291079578e+20
2.499359539e+20
2.915919462e+20
1.457959731e+20
2.082799616e+20
2.291079578e+20
1.874519654e+20
1.041399808e+20
1.041399808e+20
2.915919462e+20
2.707639501e+20
2.291079578e+20
2.499359539e+20
2.082799616e+20
2.499359539e+20
1.041399808e+20
1.24967977e+20
1.24967977e+20
1.24967977e+20
2.291079578e+20
1.874519654e+20
1.874519654e+20
3.540759347e+20
2.499359539e+20
1.24967977e+20
2.499359539e+20
1.457959731e+20
2.499359539e+20
2.291079578e+20
2.499359539e+20
1.041399808e+20
1.874519654e+20
1.666239693e+20
1.457959731e+20
2.499359539e+20
1.457959731e+20
2.707639501e+20
8.331198464e+19
1.457959731e+20
2.082799616e+20
2.082799616e+20
1.457959731e+20
1.666239693e+20
2.499359539e+20
4.165599232e+19
1.457959731e+20
2.707639501e+20
2.291079578e+20
2.291079578e+20
2.082799616e+20
8.331198464e+19
1.457959731e+20
2.291079578e+20
2.707639501e+20
1.874519654e+20
1.457959731e+20
1.666239693e+20
1.874519654e+20
1.457959731e+20
1.874519654e+20
2.291079578e+20
3.124199424e+20
1.666239693e+20
2.499359539e+20
8.331198464e+19
2.499359539e+20
1.24967977e+20
2.291079578e+20
2.707639501e+20
2.707639501e+20
2.707639501e+20
2.082799616e+20
1.041399808e+20
1.457959731e+20
1.874519654e+20
2.707639501e+20
2.499359539e+20
1.666239693e+20
1.666239693e+20
2.499359539e+20
2.707639501e+20
1.666239693e+20
1.874519654e+20
2.082799616e+20
2.291079578e+20
1.457959731e+20
2.082799616e+20
2.499359539e+20
2.082799616e+20
1.457959731e+20
2.082799616e+20
2.499359539e+20
2.082799616e+20
1.874519654e+20
2.291079578e+20
1.24967977e+20
2.082799616e+20
2.499359539e+20
1.874519654e+20
1.874519654e+20
1.24967977e+20
1.874519654e+20
1.24967977e+20
2.082799616e+20
8.331198464e+19
2.291079578e+20
2.082799616e+20
2.291079578e+20
2.082799616e+20
2.082799616e+20
1.24967977e+20
1.874519654e+20
1.24967977e+20
3.540759347e+20
2.707639501e+20
1.874519654e+20
1.041399808e+20
2.082799616e+20
1.24967977e+20
1.874519654e+20
3.332479385e+20
2.082799616e+20
1.666239693e+20
1.24967977e+20
8.331198464e+19
2.291079578e+20
2.082799616e+20
1.041399808e+20
1.457959731e+20
2.082799616e+20
2.082799616e+20
2.499359539e+20
3.749039309e+20
1.874519654e+20
2.499359539e+20
2.499359539e+20
1.457959731e+20
1.457959731e+20
1.457959731e+20
1.457959731e+20
1.24967977e+20
1.874519654e+20
2.499359539e+20
1.666239693e+20
1.457959731e+20
1.041399808e+20
1.666239693e+20
2.291079578e+20
2.291079578e+20
2.291079578e+20
1.457959731e+20
2.707639501e+20
1.457959731e+20
1.24967977e+20
2.707639501e+20
2.707639501e+20
2.082799616e+20
2.291079578e+20
1.24967977e+20
1.874519654e+20
2.082799616e+20
2.915919462e+20
1.666239693e+20
2.499359539e+20
2.915919462e+20
1.874519654e+20
1.24967977e+20
1.666239693e+20
1.457959731e+20
1.874519654e+20
2.499359539e+20
2.291079578e+20
1.666239693e+20
1.457959731e+20
2.499359539e+20
2.082799616e+20
1.666239693e+20
2.082799616e+20
2.082799616e+20
1.874519654e+20
1.874519654e+20
2.291079578e+20
2.499359539e+20
1.874519654e+20
1.666239693e+20
2.499359539e+20
2.082799616e+20
1.874519654e+20
1.457959731e+20
1.874519654e+20
2.291079578e+20
3.124199424e+20
2.082799616e+20
1.457959731e+20
2.082799616e+20
1.457959731e+20
2.707639501e+20
1.874519654e+20
1.457959731e+20
1.666239693e+20
1.666239693e+20
1.24967977e+20
2.082799616e+20
1.874519654e+20
1.874519654e+20
1.874519654e+20
2.291079578e+20
1.666239693e+20
1.457959731e+20
8.331198464e+19
3.332479385e+20
3.540759347e+20
1.24967977e+20
2.707639501e+20
2.499359539e+20
1.874519654e+20
2.291079578e+20
2.082799616e+20
1.24967977e+20
2.082799616e+20
3.332479385e+20
8.331198464e+19
3.749039309e+20
1.666239693e+20
2.499359539e+20
4.165599232e+20
2.499359539e+20
2.915919462e+20
2.291079578e+20
2.082799616e+20
1.041399808e+20
1.24967977e+20
1.041399808e+20
2.915919462e+20
2.499359539e+20
2.915919462e+20
1.457959731e+20
1.457959731e+20
1.457959731e+20
1.457959731e+20
1.666239693e+20
1.874519654e+20
2.082799616e+20
2.082799616e+20
1.666239693e+20
1.24967977e+20
2.499359539e+20
1.666239693e+20
1.666239693e+20
1.24967977e+20
2.499359539e+20
1.874519654e+20
2.915919462e+20
1.874519654e+20
2.499359539e+20
1.457959731e+20
2.291079578e+20
1.874519654e+20
1.874519654e+20
1.874519654e+20
2.499359539e+20
2.499359539e+20
1.24967977e+20
1.874519654e+20
2.915919462e+20
1.041399808e+20
2.291079578e+20
1.24967977e+20
1.041399808e+20
2.291079578e+20
2.707639501e+20
1.874519654e+20
2.915919462e+20
2.291079578e+20
1.874519654e+20
1.041399808e+20
2.707639501e+20
2.291079578e+20
1.24967977e+20
2.291079578e+20
2.291079578e+20
1.666239693e+20
2.291079578e+20
6.248398848e+19
1.874519654e+20
2.707639501e+20
2.082799616e+20
1.874519654e+20
1.666239693e+20
1.041399808e+20
2.499359539e+20
1.666239693e+20
1.24967977e+20
2.499359539e+20
2.082799616e+20
1.041399808e+20
1.666239693e+20
2.082799616e+20
2.578663208e+20
2.164079869e+20
1.525643084e+20
1.756097144e+20
1.547685003e+20
2.449773118e+20
1.254111452e+20
2.104558102e+20
1.271477674e+20
2.774075191e+20
2.578663208e+20
1.731263895e+20
1.525643094e+20
2.19512143e+20
3.31646784e+20
2.672479765e+20
1.881167191e+20
1.262734861e+20
2.331042402e+20
2.133903993e+20
1.289331595e+20
1.947671896e+20
2.615388162e+20
2.19512143e+20
1.326587145e+20
1.336239882e+20
2.508222905e+20
1.052279051e+20
2.331042402e+20
2.560684792e+20
1.719108806e+20
2.380487856e+20
3.487184215e+20
2.41463359e+20
1.989880704e+20
2.227066455e+20
2.71724148e+20
1.68364647e+20
2.754868294e+20
2.77407521e+20
4.297772014e+19
1.947671882e+20
1.743592096e+20
1.53658499e+20
1.989880704e+20
1.113533235e+20
1.881167178e+20
1.894102279e+20
1.695303565e+20
1.280342405e+20
2.793551809e+20
1.514855908e+20
1.743592108e+20
2.195121445e+20
3.537565721e+20
2.227066471e+20
2.71724148e+20
2.735925533e+20
1.695303565e+20
2.560684792e+20
1.504220205e+20
1.731263907e+20
3.051286189e+20
2.853657859e+20
1.768782861e+20
2.672479784e+20
3.135278652e+20
1.262734861e+20
2.542955348e+20
3.200856012e+20
1.074443004e+20
2.164079869e+20
3.051286189e+20
1.975609287e+20
1.768782848e+20
2.004359824e+20
2.299204329e+20
1.262734861e+20
2.119129471e+20
1.707123206e+20
1.933997406e+20
3.246119803e+20
1.525643084e+20
1.097560715e+20
1.547685003e+20
1.781653177e+20
1.254111452e+20
1.473190662e+20
2.754868275e+20
2.347294377e+20
1.719108794e+20
1.947671896e+20
2.833337195e+20
1.975609301e+20
8.843914303e+19
6.681199412e+19
2.299204329e+20
1.473190672e+20
2.119129471e+20
1.920513607e+20
1.289331613e+20
1.082039942e+20
2.615388143e+20
1.317072849e+20
1.326587136e+20
3.117893059e+20
1.881167191e+20
3.156837153e+20
1.271477674e+20
2.56068481e+20
2.363774608e+20
2.164079869e+20
8.717960539e+19
2.41463359e+20
1.547685003e+20
1.55894653e+20
2.090185754e+20
2.104558088e+20
2.119129442e+20
1.707123195e+20
1.719108806e+20
1.514855908e+20
2.179490119e+20
1.756097144e+20
3.095370006e+20
1.781653177e+20
1.045092877e+20
2.525469723e+20
2.331042418e+20
1.707123206e+20
1.504220205e+20
3.246119826e+20
1.74359212e+20
1.317072867e+20
2.874272128e+20
8.908265819e+19
2.299204329e+20
2.104558088e+20
1.48339061e+20
2.560684792e+20
1.504220205e+20
2.596895843e+20
1.743592096e+20
2.853657839e+20
1.326587136e+20
2.004359838e+20
1.463130028e+20
2.315013913e+20
2.542955365e+20
1.707123195e+20
4.082883385e+20
1.514855908e+20
3.269235202e+20
1.097560723e+20
1.547685003e+20
1.781653177e+20
1.672148614e+20
2.104558102e+20
1.695303565e+20
1.920513607e+20
1.074443004e+20
2.380487856e+20
1.743592096e+20
1.097560715e+20
2.210978576e+20
1.55894653e+20
1.463130028e+20
1.683646482e+20
2.542955348e+20
2.560684792e+20
3.438217611e+20
1.514855919e+20
1.30769409e+20
3.292682145e+20
3.095369984e+20
8.908265883e+19
2.508222905e+20
1.262734853e+20
2.966781239e+20
1.493732806e+20
1.933997406e+20
1.082039934e+20
3.269235179e+20
1.536585001e+20
1.989880718e+20
1.55894653e+20
)
;

boundaryField
{
    flow
    {
        type            zeroGradient;
    }
    obstacle
    {
        type            calculated;
        value           nonuniform List<scalar> 0();
    }
    frontAndBack
    {
        type            empty;
    }
    procBoundary2to0
    {
        type            processor;
        value           nonuniform List<scalar> 
31
(
1.041399808e+20
2.707639501e+20
1.24967977e+20
3.332479385e+20
1.457959731e+20
2.291079578e+20
2.291079578e+20
2.707639501e+20
1.041399808e+20
1.666239693e+20
2.082799616e+20
1.874519654e+20
1.666239693e+20
2.499359539e+20
3.124199424e+20
2.082799616e+20
2.291079578e+20
1.666239693e+20
2.082799616e+20
2.707639501e+20
2.363774608e+20
1.731263895e+20
2.179490135e+20
1.756097156e+20
2.432076433e+20
1.781653177e+20
1.672148603e+20
2.735925515e+20
1.695303565e+20
1.707123206e+20
1.707123206e+20
)
;
    }
    procBoundary2to3
    {
        type            processor;
        value           nonuniform List<scalar> 
19
(
1.121695102e+20
1.121695102e+20
2.916407287e+20
1.346034123e+20
8.973560819e+19
2.692068265e+20
2.243390221e+20
1.794712164e+20
2.467729243e+20
1.346034123e+20
1.794712164e+20
2.019051199e+20
1.570373143e+20
2.692068246e+20
2.019051213e+20
2.243390205e+20
1.794712164e+20
1.346034132e+20
3.589424328e+20
)
;
    }
}


// ************************************************************************* //
