/*--------------------------------*- C++ -*----------------------------------*\
| =========                 |                                                 |
| \\      /  F ield         | OpenFOAM: The Open Source CFD Toolbox           |
|  \\    /   O peration     | Version:  2406                                  |
|   \\  /    A nd           | Website:  www.openfoam.com                      |
|    \\/     M anipulation  |                                                 |
\*---------------------------------------------------------------------------*/
FoamFile
{
    version     2.0;
    format      ascii;
    arch        "LSB;label=32;scalar=64";
    class       volScalarField;
    location    "0.01";
    object      iDofMean;
}
// * * * * * * * * * * * * * * * * * * * * * * * * * * * * * * * * * * * * * //

dimensions      [0 -3 0 0 0 0 0];

internalField   nonuniform List<scalar> 
546
(
1.547728395e+20
1.99482216e+20
2.013817293e+20
2.003694887e+20
2.002236927e+20
2.001237183e+20
2.002695143e+20
1.996613368e+20
1.985033002e+20
2.002486863e+20
2.008110422e+20
2.016399964e+20
2.012859205e+20
1.998862791e+20
1.996321776e+20
1.995363688e+20
1.998696167e+20
1.998779479e+20
1.985407906e+20
1.980992371e+20
1.554101761e+20
1.997029928e+20
2.005777686e+20
2.013525701e+20
2.015941748e+20
2.012692581e+20
2.006485838e+20
2.011109653e+20
2.002445207e+20
1.99711324e+20
1.996405088e+20
1.991864585e+20
1.995571968e+20
1.992447769e+20
1.998071328e+20
1.990614905e+20
1.992364457e+20
2.002028647e+20
2.008818574e+20
2.007527238e+20
1.544520883e+20
1.984574786e+20
1.994697192e+20
1.989448537e+20
1.988740385e+20
1.992905985e+20
2.003028391e+20
2.000279095e+20
1.997779736e+20
2.003319983e+20
1.998446231e+20
1.998571199e+20
1.990156689e+20
1.979784347e+20
1.987574017e+20
1.990614905e+20
1.981242307e+20
1.984616442e+20
1.979076195e+20
1.976701803e+20
1.550561002e+20
1.996446744e+20
2.002528519e+20
1.992406113e+20
1.997279864e+20
1.985449562e+20
1.986282682e+20
1.990240001e+20
2.000487375e+20
1.985657842e+20
1.996530056e+20
2.003319983e+20
2.019107604e+20
2.015275252e+20
2.008901886e+20
2.002486863e+20
1.999237695e+20
1.994655536e+20
2.012734237e+20
2.010234877e+20
1.550602658e+20
1.997196552e+20
2.001778711e+20
1.999862535e+20
1.99523872e+20
2.000237439e+20
1.991156433e+20
1.992739361e+20
1.981408931e+20
1.974993908e+20
1.971786396e+20
1.963830102e+20
1.966079525e+20
1.974410724e+20
1.994114008e+20
2.004944566e+20
2.015441876e+20
2.013775637e+20
2.002611831e+20
1.999029415e+20
1.549811194e+20
1.995780248e+20
2.002111959e+20
2.00531947e+20
2.012775893e+20
2.013650669e+20
2.005402782e+20
2.002111959e+20
2.011442901e+20
2.014817036e+20
2.023398171e+20
2.01581678e+20
2.012859205e+20
2.003070047e+20
1.999570943e+20
2.007069022e+20
2.00406979e+20
1.995072096e+20
2.00490291e+20
2.011859461e+20
1.54839489e+20
1.98370001e+20
1.996446744e+20
1.999695911e+20
1.990406625e+20
1.992156177e+20
1.997571456e+20
2.009859973e+20
2.003778199e+20
2.010109909e+20
2.012692581e+20
2.019399196e+20
2.025730906e+20
2.016191684e+20
2.014150541e+20
2.003195015e+20
2.008610294e+20
2.002361895e+20
2.005777686e+20
2.003319983e+20
1.547770051e+20
2.003111703e+20
2.016191684e+20
2.013900605e+20
2.016066716e+20
2.011817805e+20
2.018774356e+20
2.014817036e+20
2.022190147e+20
2.013609013e+20
2.009901629e+20
1.999029415e+20
1.996738336e+20
1.997279864e+20
2.001862023e+20
2.012400989e+20
2.012109397e+20
2.020440595e+20
2.02693893e+20
2.024397915e+20
1.550311066e+20
1.994655536e+20
1.995447e+20
1.999487631e+20
1.999904191e+20
1.993905728e+20
1.990031721e+20
2.000487375e+20
1.988532105e+20
2.006194246e+20
2.012692581e+20
2.017857924e+20
2.016899836e+20
2.018774356e+20
2.008568638e+20
1.993489168e+20
1.99669668e+20
1.994322288e+20
1.987907265e+20
1.984658098e+20
1.543146235e+20
1.979367787e+20
1.990698217e+20
1.989865097e+20
1.985699498e+20
1.994072352e+20
1.996155152e+20
2.002403551e+20
1.996738336e+20
1.990073377e+20
1.98307517e+20
1.986365994e+20
1.99482216e+20
1.998404575e+20
2.002611831e+20
2.004944566e+20
2.000945591e+20
1.986990834e+20
1.984199882e+20
1.976785115e+20
1.557934113e+20
2.000529031e+20
2.001612087e+20
1.999154383e+20
1.996113496e+20
1.990989809e+20
1.996530056e+20
1.982200394e+20
1.991031465e+20
2.001695399e+20
2.001862023e+20
2.001112215e+20
1.998404575e+20
1.993239232e+20
1.982283706e+20
1.985866122e+20
1.988990321e+20
1.999570943e+20
2.011984429e+20
2.016566588e+20
1.542937955e+20
1.996571712e+20
2.003528263e+20
2.00490291e+20
1.997613112e+20
1.990323313e+20
1.996863304e+20
1.987657329e+20
1.981992115e+20
1.981408931e+20
1.972494548e+20
1.982825234e+20
1.980825747e+20
1.991656305e+20
2.003903166e+20
2.000195783e+20
2.008901886e+20
1.990364969e+20
1.999737567e+20
1.999071071e+20
1.552185586e+20
1.996779992e+20
2.011567869e+20
2.003944822e+20
2.007568894e+20
2.004194758e+20
2.003694887e+20
2.002861767e+20
2.00886023e+20
2.005902654e+20
2.004194758e+20
2.012317677e+20
2.011692837e+20
2.003653231e+20
1.998821135e+20
2.006194246e+20
1.985866122e+20
2.001445463e+20
2.000862279e+20
1.999612599e+20
1.544687507e+20
1.977326643e+20
1.993697448e+20
1.994988784e+20
1.997029928e+20
2.001612087e+20
2.001778711e+20
2.013025829e+20
2.00865195e+20
2.008818574e+20
1.995613624e+20
1.983658354e+20
1.973744228e+20
1.985199626e+20
1.986241026e+20
1.993114264e+20
1.999362663e+20
1.992531081e+20
1.992989296e+20
1.996738336e+20
1.557184305e+20
2.001320495e+20
2.001778711e+20
1.989115289e+20
2.001403807e+20
1.99794636e+20
1.992864329e+20
2.000154127e+20
1.994863816e+20
1.988657073e+20
1.985199626e+20
1.995988528e+20
2.005611062e+20
1.997779736e+20
1.99669668e+20
1.989490193e+20
1.984866378e+20
1.989365225e+20
1.997613112e+20
1.999154383e+20
1.541313372e+20
1.98390829e+20
2.000237439e+20
2.005777686e+20
2.011192965e+20
1.996571712e+20
1.983575042e+20
1.979576067e+20
1.983533386e+20
1.99523872e+20
2.000529031e+20
1.9975298e+20
1.992322801e+20
1.995738592e+20
2.008818574e+20
2.006527494e+20
2.004861254e+20
1.993864072e+20
1.98245033e+20
1.986782554e+20
1.555976281e+20
2.010901373e+20
2.015108628e+20
2.002195271e+20
1.989115289e+20
2.010901373e+20
2.01935754e+20
2.023731419e+20
2.016691556e+20
2.024689507e+20
2.018357796e+20
2.00781883e+20
2.013067485e+20
2.000529031e+20
1.999737567e+20
1.994114008e+20
1.999237695e+20
1.992072865e+20
2.001153871e+20
1.99628012e+20
1.519485632e+20
1.947625921e+20
1.966371117e+20
1.976285244e+20
1.974535692e+20
1.976618492e+20
1.978659635e+20
1.979742691e+20
1.976701803e+20
1.974410724e+20
1.987782297e+20
1.988240513e+20
1.991198089e+20
1.989698473e+20
1.983158482e+20
1.984199882e+20
1.979909315e+20
1.988282169e+20
1.995946872e+20
1.992114521e+20
2.014580632e+20
2.015580708e+20
2.019297596e+20
2.014023912e+20
2.018402342e+20
2.029481133e+20
1.98751583e+20
1.993732073e+20
1.997830486e+20
1.985768378e+20
1.995928301e+20
2.00640501e+20
2.017684787e+20
2.022409276e+20
2.010089048e+20
2.005606981e+20
2.010006242e+20
2.016250844e+20
2.024701048e+20
2.02729415e+20
2.017460125e+20
2.011598815e+20
2.005479642e+20
2.006428792e+20
2.008541377e+20
2.021463694e+20
1.986596148e+20
1.97988408e+20
1.977825904e+20
1.976635269e+20
1.985871515e+20
1.982340442e+20
1.986953976e+20
1.994531248e+20
2.002527501e+20
2.013802571e+20
2.015733337e+20
2.018523753e+20
2.008892342e+20
2.020764417e+20
2.010798592e+20
2.011425675e+20
2.004346293e+20
2.003531217e+20
1.990013363e+20
2.000128397e+20
2.001436467e+20
1.994868521e+20
1.996686157e+20
1.992980987e+20
1.998506964e+20
1.995238358e+20
2.008443749e+20
2.023199534e+20
2.015306972e+20
2.008502167e+20
2.006954557e+20
2.006064783e+20
2.007324186e+20
2.014191979e+20
2.033533806e+20
2.0360962e+20
2.022261716e+20
2.016087326e+20
2.025389034e+20
2.026630503e+20
2.004864385e+20
2.007243336e+20
2.007154656e+20
2.008899911e+20
1.996444034e+20
1.995151794e+20
1.999551429e+20
2.002345866e+20
1.986520017e+20
1.979995716e+20
2.029026919e+20
2.031445754e+20
2.01304585e+20
1.99204207e+20
1.982734141e+20
1.982989665e+20
1.982551392e+20
1.978287335e+20
1.98457437e+20
1.988057697e+20
1.969205802e+20
1.967635539e+20
1.971638033e+20
1.969337304e+20
1.981659684e+20
1.985543293e+20
1.993405281e+20
1.977497105e+20
1.982761367e+20
1.984271684e+20
1.979740339e+20
1.992806067e+20
1.999610569e+20
2.010180254e+20
2.004738748e+20
2.003288749e+20
2.006046296e+20
2.008053168e+20
2.011857831e+20
1.993981694e+20
2.01414481e+20
2.008926982e+20
1.99969532e+20
2.000193583e+20
2.004137046e+20
1.999696362e+20
1.995410398e+20
1.994882467e+20
2.002483296e+20
2.008056754e+20
2.003025008e+20
2.001266377e+20
2.000585341e+20
1.996480576e+20
1.991071819e+20
1.991429577e+20
1.996456539e+20
2.009809279e+20
2.012874895e+20
2.018479425e+20
1.991194556e+20
1.998825103e+20
2.006307018e+20
2.008345096e+20
2.004008112e+20
2.014238993e+20
2.004520681e+20
2.004804416e+20
1.994700637e+20
1.993447184e+20
2.002815989e+20
2.008127237e+20
2.000627724e+20
2.010820411e+20
2.013420233e+20
2.00506328e+20
2.001338597e+20
2.003443413e+20
1.999830108e+20
1.983514496e+20
1.989731426e+20
1.993479526e+20
1.988803008e+20
1.988883878e+20
1.992060293e+20
1.99342053e+20
1.985123204e+20
1.987989786e+20
1.999697463e+20
2.011441895e+20
1.982583004e+20
1.988007675e+20
1.989693029e+20
1.992084748e+20
1.996315101e+20
1.987274544e+20
1.999289876e+20
1.995058063e+20
2.000449196e+20
2.005295192e+20
1.991027342e+20
1.9907436e+20
1.988082491e+20
1.98482946e+20
1.99180244e+20
1.997662141e+20
2.004041193e+20
2.013936107e+20
2.015881812e+20
2.006096936e+20
1.996879862e+20
1.987207929e+20
1.986217657e+20
2.000278939e+20
1.977275971e+20
1.976367581e+20
1.981418057e+20
1.963272704e+20
1.952382521e+20
1.967167814e+20
)
;

boundaryField
{
    flow
    {
        type            calculated;
        value           nonuniform List<scalar> 
48
(
1.547728395e+20
1.554101761e+20
1.544520883e+20
1.550561002e+20
1.550602658e+20
1.549811194e+20
1.54839489e+20
1.547770051e+20
1.550311066e+20
1.543146235e+20
1.557934113e+20
1.542937955e+20
1.552185586e+20
1.544687507e+20
1.557184305e+20
1.541313372e+20
1.555976281e+20
1.519485632e+20
1.519485632e+20
1.947625921e+20
1.966371117e+20
1.976285244e+20
1.974535692e+20
1.976618492e+20
1.978659635e+20
1.979742691e+20
1.976701803e+20
1.974410724e+20
1.987782297e+20
1.988240513e+20
1.991198089e+20
1.989698473e+20
1.983158482e+20
1.984199882e+20
1.979909315e+20
1.988282169e+20
1.995946872e+20
1.992114521e+20
1.996879862e+20
1.987207929e+20
1.986217657e+20
2.000278939e+20
1.977275971e+20
1.976367581e+20
1.981418057e+20
1.963272704e+20
1.952382521e+20
1.967167814e+20
)
;
    }
    obstacle
    {
        type            calculated;
        value           nonuniform List<scalar> 0();
    }
    frontAndBack
    {
        type            empty;
    }
    procBoundary2to0
    {
        type            processor;
        value           nonuniform List<scalar> 
31
(
1.547853363e+20
1.989031977e+20
1.997904704e+20
1.984824722e+20
1.992156177e+20
1.984408162e+20
2.000487375e+20
2.008110422e+20
2.022814987e+20
2.015441876e+20
2.005652718e+20
1.999112727e+20
2.003319983e+20
2.005611062e+20
2.000737311e+20
2.001278839e+20
1.997446488e+20
1.994363944e+20
2.003361639e+20
2.003361639e+20
2.003019625e+20
2.003634987e+20
2.000728354e+20
2.008536122e+20
2.031535555e+20
2.03571692e+20
2.00361026e+20
1.993816242e+20
1.999441025e+20
2.010308288e+20
2.010308288e+20
)
;
    }
    procBoundary2to3
    {
        type            processor;
        value           nonuniform List<scalar> 
19
(
2.037267513e+20
2.01546176e+20
2.017301354e+20
2.022371402e+20
2.003123114e+20
2.003437203e+20
2.033857574e+20
1.977772804e+20
1.995495601e+20
1.977413862e+20
1.997783845e+20
2.001732226e+20
2.020128012e+20
1.997380035e+20
1.990380686e+20
2.002450097e+20
2.019230655e+20
2.006084403e+20
1.958524517e+20
)
;
    }
}


// ************************************************************************* //
