/*--------------------------------*- C++ -*----------------------------------*\
| =========                 |                                                 |
| \\      /  F ield         | OpenFOAM: The Open Source CFD Toolbox           |
|  \\    /   O peration     | Version:  2406                                  |
|   \\  /    A nd           | Website:  www.openfoam.com                      |
|    \\/     M anipulation  |                                                 |
\*---------------------------------------------------------------------------*/
FoamFile
{
    version     2.0;
    format      ascii;
    arch        "LSB;label=32;scalar=64";
    class       volScalarField;
    location    "0.01";
    object      internalT;
}
// * * * * * * * * * * * * * * * * * * * * * * * * * * * * * * * * * * * * * //

dimensions      [1 2 -2 0 0 0 0];

internalField   nonuniform List<scalar> 
546
(
301.2969546
303.9373246
302.8981962
300.5677085
299.1548368
297.5850248
297.1516317
297.2773656
297.2266226
297.9549661
297.8504941
300.2607881
301.2650074
299.9002591
300.4812266
298.7477663
297.0149539
296.7885168
296.9017982
298.2808698
303.2466802
302.7115043
302.4778434
302.6024515
300.9945921
300.3176485
300.6351431
300.4209323
300.007909
299.7621121
298.8622504
296.6764027
298.9692321
298.9910307
299.9316789
300.7893259
302.4799931
303.09651
301.4488575
302.1926461
298.299711
298.8065329
299.193118
298.7714819
302.7552543
304.2233243
304.2063439
303.5537526
302.9099406
301.4804458
300.5364732
299.7404766
298.7159355
299.4096377
298.60517
299.8567951
300.2130348
301.0416365
303.5149967
302.9413766
301.0754895
300.4570944
300.4532107
300.2354113
299.0812618
297.3768991
300.0693624
300.1722774
300.3171209
299.448252
300.6293264
302.0940613
302.9065511
303.6659477
301.4123221
299.2904243
299.0538611
298.2544534
298.7227174
297.4308447
301.0632682
301.0336088
302.5368759
303.269701
302.5063945
303.2251711
300.2617793
298.4956288
300.0764811
300.7801722
300.1756876
299.325571
297.4898917
298.1956455
298.1955513
299.6656976
298.6167263
298.8279922
297.3485507
298.2265939
302.1359319
301.811466
300.6057357
301.1552867
300.9287052
301.0630715
302.9454493
303.5337237
303.9071846
303.4473542
302.4035756
302.6232661
301.1257824
301.5729414
299.4793641
298.6897187
299.1843712
301.3648747
301.7509646
301.924735
297.3673564
298.7269028
298.4865834
299.9869035
301.4351011
300.7516671
302.5361477
301.9338915
300.5928276
300.1862905
302.5261209
301.0239072
301.0933905
301.5797413
301.064944
301.0868943
299.9203795
299.0319359
300.356493
301.2395882
301.2415828
301.8290262
300.5300477
300.6575475
301.2527514
301.0009525
300.4747945
298.8389446
299.6604507
298.6861932
298.2679137
297.9623611
300.4895951
299.9176357
300.4913782
300.9778399
301.9160563
301.1294039
300.6471636
300.6782174
300.6320581
302.3664198
303.7840822
303.6412901
302.5808986
301.6358861
300.8960592
301.5477978
300.6716894
303.0262843
301.5905873
303.5619256
302.526461
302.1035305
301.6348281
301.6586681
300.885363
300.5574011
301.6910896
301.0266174
300.7210843
300.1974839
298.2657423
297.4333652
295.8850053
296.3290965
297.8555541
299.4245968
299.6894743
299.6525368
300.6882734
299.5231332
300.0262867
298.7336717
298.4949106
298.0150743
298.5641831
299.7874314
297.4310965
297.1250283
296.9006597
298.2787961
299.0886003
302.1795724
301.5849686
301.4654206
300.2337611
298.3671209
299.9205343
298.9741324
298.6849876
298.5889447
296.8077659
298.6425012
297.6767996
297.428561
298.2998293
298.4678372
300.8613524
302.5350106
303.5063854
302.7138991
300.9442913
300.2850867
300.3324431
301.3386054
298.7038527
300.0147355
298.0480674
297.7921993
296.2774888
297.8338001
298.6029617
298.2855716
298.225495
299.2741203
299.976649
300.6534057
300.153216
299.0764507
301.5780691
302.0961377
302.9646905
304.1406355
304.1498022
303.8912297
303.1846196
301.3037935
300.8180451
300.917432
302.2201044
301.481693
301.089404
302.2386841
301.5635104
302.9973458
303.1326114
302.7198374
302.6816269
301.4466335
302.7849299
303.0049822
304.6550965
302.4076881
302.9533092
303.0381637
302.6717576
304.6827707
304.2710949
304.4997837
301.0660246
301.4630995
301.3110112
299.8095994
300.3861248
299.5221142
297.6211252
300.275756
300.3048397
300.782689
302.4081142
302.7353144
302.5916413
303.5377391
303.2549041
304.212561
305.9153364
304.0190633
303.0449037
303.8868111
305.3508368
303.9125917
304.3627227
304.632072
303.1182536
301.7457172
304.1981334
303.9332998
303.2191442
303.4906305
297.1245033
297.7305888
297.2916826
298.3609428
298.9067737
299.910619
300.6512833
300.8662088
300.9123248
300.8156781
301.1380654
300.161742
300.7028136
300.6650183
300.0848072
301.6575917
301.2419034
300.8153231
298.4796695
300.2268675
298.3641328
300.6269333
302.9792111
301.2956039
301.7315937
301.5537146
300.2166463
300.5814543
300.8356049
300.5564591
301.1817216
300.7818429
301.0481696
301.5972366
301.4377397
300.9681602
300.6680735
300.2544728
300.1431831
299.2441103
301.5069594
299.6436194
300.7185308
302.388628
302.949057
301.3009406
301.6882241
301.2426604
300.4397272
298.4407284
297.1234096
297.3085957
298.1574852
296.4342744
296.685937
294.8444072
296.8966788
296.8285261
295.8216638
298.390986
303.3579671
304.3109598
305.386117
304.5824685
305.3508625
303.3759577
297.1657425
298.8967664
300.5344209
301.3387137
300.3537335
301.3584864
300.3021621
300.5266388
300.7104419
302.0583687
300.3010594
302.7464526
301.6374392
300.127991
301.9136265
302.6431544
302.6441791
303.1365679
303.5877547
306.1981451
305.1451471
302.9728313
300.2052483
299.9190397
298.6275719
298.0759958
297.9939874
299.8071049
298.9806697
299.5829942
295.0103518
295.9469817
297.4722748
297.9435905
296.5899843
298.1965909
298.8887717
297.0375122
296.221021
297.2889836
298.7614452
298.0353787
298.9494243
298.6085221
299.0375982
299.8073599
299.9197372
301.73846
300.9395985
300.2497669
301.5418306
302.1627108
301.4932348
300.9509329
299.5195246
298.8405716
299.8464071
298.1514082
299.9943689
300.5685047
301.9800941
302.4649317
302.4557571
301.5171349
301.5260189
303.4047008
299.8248
299.7547092
301.0698459
300.2845242
300.2661234
301.0756498
301.7228514
302.2939971
303.8516316
300.9094007
304.0402445
302.9486125
301.2087251
300.503153
300.685338
300.5133352
300.8460715
300.694143
299.5937917
300.2428654
299.6655746
299.8316745
301.5171254
302.7103213
297.4962647
297.969591
299.0311227
301.2045025
300.2491488
301.6952446
302.0714721
303.0495171
302.0867909
301.0687695
304.3091962
302.8640507
301.898229
301.6846685
301.8159127
300.5562001
300.4910122
298.8299274
298.671287
298.7840848
298.3531079
300.2353545
299.6587249
300.9267236
301.1760759
301.9810866
302.2208913
302.6710487
303.1751773
304.9015203
300.5126256
299.4852602
297.8869156
297.0095732
300.0021032
299.4484673
302.8505594
303.8850316
303.6951647
302.3267312
300.643523
302.3356649
302.9134654
302.6941791
302.1560224
301.8480146
301.7905874
299.8248678
301.8022959
303.0341041
301.4597949
302.6524387
302.4764686
302.3846543
300.9190974
299.4150876
298.7276095
300.3935863
299.9514532
300.0661807
300.7518147
300.2790395
299.6586005
299.9923025
301.0782152
301.3627467
301.801614
301.8783841
300.6486351
300.2910754
300.684997
300.252964
298.3707525
299.5712459
298.5889548
299.3334767
299.6495701
302.1587923
300.7176804
300.4901641
299.3111066
299.7042273
300.2774019
299.8792592
299.8268476
298.5648641
299.6444879
297.2959469
299.9253939
299.2592723
)
;

boundaryField
{
    flow
    {
        type            calculated;
        value           nonuniform List<scalar> 
48
(
301.2969546
303.2466802
298.299711
301.0754895
301.0632682
302.1359319
297.3673564
301.2415828
300.6320581
300.7210843
296.9006597
303.5063854
301.5780691
302.7849299
302.4081142
297.1245033
298.3641328
301.5069594
301.5069594
299.6436194
300.7185308
302.388628
302.949057
301.3009406
301.6882241
301.2426604
300.4397272
298.4407284
297.1234096
297.3085957
298.1574852
296.4342744
296.685937
294.8444072
296.8966788
296.8285261
295.8216638
298.390986
299.3111066
299.7042273
300.2774019
299.8792592
299.8268476
298.5648641
299.6444879
297.2959469
299.9253939
299.2592723
)
;
    }
    obstacle
    {
        type            calculated;
        value           nonuniform List<scalar> 0();
    }
    frontAndBack
    {
        type            empty;
    }
    procBoundary2to0
    {
        type            processor;
        value           nonuniform List<scalar> 
31
(
300.0878502
299.8183473
300.1129248
301.4424513
302.6035117
302.4685763
302.9533613
303.5174216
303.0694351
302.3265957
303.1248197
302.2369802
300.395768
301.8146205
302.2104191
301.9691448
301.7503536
301.1335783
300.7111457
299.3816879
302.7962896
301.9287793
304.7407273
304.6237357
305.5607695
307.6160561
301.0929918
299.0643108
299.8693562
301.6130603
301.6130603
)
;
    }
    procBoundary2to3
    {
        type            processor;
        value           nonuniform List<scalar> 
19
(
303.7869581
303.6059201
305.7364796
300.1491256
299.4645404
299.46514
299.4180744
303.0198355
300.5151804
303.0864238
301.020149
300.7072631
302.8417421
302.7489775
302.3698603
299.1580388
299.2006137
301.6979021
300.9521707
)
;
    }
}


// ************************************************************************* //
