/*--------------------------------*- C++ -*----------------------------------*\
| =========                 |                                                 |
| \\      /  F ield         | OpenFOAM: The Open Source CFD Toolbox           |
|  \\    /   O peration     | Version:  2406                                  |
|   \\  /    A nd           | Website:  www.openfoam.com                      |
|    \\/     M anipulation  |                                                 |
\*---------------------------------------------------------------------------*/
FoamFile
{
    version     2.0;
    format      ascii;
    arch        "LSB;label=32;scalar=64";
    class       volScalarField;
    location    "0.01";
    object      internalE;
}
// * * * * * * * * * * * * * * * * * * * * * * * * * * * * * * * * * * * * * //

dimensions      [1 -1 -2 0 0 0 0];

internalField   nonuniform List<scalar> 
546
(
0.3165495964
0.1795446566
0.3749093997
0.3873787778
0.7442345378
0.1517230216
0.2042281509
0.3615873137
0.5512308641
0.5260209316
0.541308102
0.4961634613
0.59767968
0.4834536732
0.3848832407
0.6122483582
0.695403983
0.44251061
0.291898215
0.675597947
0.5488415358
0.2357488224
0.2326929252
0.1771590898
0.3184514771
0.2725399847
0.3398814882
0.3556597183
0.4322070736
0.4845497802
0.4172911486
0.5407955068
0.2736612926
0.3047522416
0.6257654051
0.5429380322
0.6048856445
0.7273887157
0.3365033322
0.3927102248
0.1481089038
0.6575978034
0.241217718
0.5738757352
0.2988254984
0.3774661948
0.223137875
0.1809007381
0.4234997121
0.4920854532
0.3719493995
0.348573943
0.2309233558
0.7309889465
0.5976317046
0.5057234168
0.2609965747
0.2528621833
0.331485609
0.2408316985
0.3726450921
0.4044958476
0.452991521
0.3484028553
0.4386104173
0.4845460502
0.5069311091
0.322422161
0.1715112554
0.2540084606
0.1901298807
0.5191306148
0.4193490165
0.5455395071
0.5222602785
0.5067399812
0.5596099704
0.1422339035
0.3133018627
0.4906709825
0.5925658198
0.2706134114
0.6264348031
0.3079352356
0.5465967344
0.3980062095
0.5235393214
1.137000558
0.2433062465
0.473128854
0.3987285474
0.8243972295
0.2142283445
0.2500418282
0.3286803743
0.1118834412
0.3321083111
0.3029505737
0.4595922585
0.0390785245
0.1908203478
0.4785274444
0.3896315116
0.2583395493
0.7321088445
0.4490699947
0.09479997393
0.148291159
0.5706147954
0.4863635026
0.4190119861
0.3977865062
0.2891247847
0.227390121
0.2935944958
0.3555140972
0.203296975
0.3346068648
0.2934591033
0.4880329573
0.2473323847
0.2136527309
0.6023929229
1.027885784
0.7006575875
0.4438712359
0.1369564985
0.3194545516
0.2870628932
0.4357689217
0.8481386749
0.4791120388
0.8590306238
0.5573389294
0.2439806424
0.526956458
0.3480680713
0.6852990809
0.5621806991
0.5118554215
0.4572553082
0.4877672517
0.5804378969
0.4721293883
0.3618823416
0.4813948393
0.8305871781
0.2485064852
0.3457160375
0.2718243923
0.2035496836
0.3013171561
0.5309717492
0.5918008047
0.2314546056
0.3218911346
0.4936837493
0.3669374934
0.9841630912
0.7900272647
0.3178698285
0.4961832658
0.2722894977
0.5194929848
0.2208841274
0.3339284874
0.2716821087
0.32152428
0.472512679
0.6717730684
0.4132514739
0.3167700885
0.5082186982
0.4069221055
0.4098217445
0.5273427076
1.032143342
0.3657648022
0.06431983836
0.2131681509
0.3061399503
0.3647589973
0.5697983012
0.2447433424
0.3208537418
0.2642716386
0.0606504865
0.5374849664
0.3712047958
0.1596890709
0.4674583989
0.4101441327
0.497255609
0.593725062
0.6683387267
0.2717673116
0.9169720343
0.5459946481
0.3689726951
0.3430583985
0.1726294796
0.1527392816
0.4337923336
0.4743866134
0.5732276676
0.282805492
0.8561465086
0.1155126211
0.3396872356
0.4922355716
0.7949462075
0.412085774
0.4282913514
0.3104089642
0.2854385125
0.1554411816
0.7488010541
0.6690463317
0.2281745989
0.6857306294
0.3237596349
0.2525489689
0.4326480482
0.7531889049
0.3299778114
0.448305676
0.5155551378
0.3905719096
0.2134544943
0.3223114459
0.3326335639
0.2292123089
0.7682017209
0.3766311036
0.2874344235
0.3078075748
0.5066604264
0.32201619
0.161252038
0.5199935531
0.3435774511
0.6148049297
0.4072641608
0.5088185716
0.8415571193
0.5754082386
0.3473302693
0.7715838804
0.2877589165
0.2063844808
0.3560290279
0.4266898257
0.3937390105
0.832550301
0.2084036531
0.4461392054
0.4436589033
0.3139783774
0.4443896574
0.4260173583
0.7219338338
0.4261581755
0.4116860006
0.2605110839
0.4787695334
0.4698007052
0.2566087798
0.3926195482
0.5930461067
0.3115992541
0.5021261248
0.1011759274
0.4656577328
0.6753087278
0.439429372
0.5977228301
0.470685204
0.29407704
0.4580441684
0.4957583508
0.2592195426
0.4948031693
0.6904900097
0.2013071392
0.5803000488
0.2178850798
0.9067039748
0.7142037087
0.7146035929
0.8215864109
0.4713385935
0.2530636532
0.2455632401
0.3525510261
0.08440201971
0.5161500911
0.3836568821
0.509525557
0.4664350813
0.3207929005
0.09939571508
0.3010829939
0.3589311188
0.4635832748
0.5098809476
0.3821349497
0.219408986
0.360623457
0.4116756712
0.2884033192
0.3492121309
0.4081350561
0.8341097371
0.4021608798
0.3668918687
0.4060836183
0.4303183294
0.2305660026
0.3197370025
0.4504057083
0.291642431
0.1952737124
0.3084041429
0.2811871959
0.3365950999
0.2755500184
0.7642876103
0.1508109234
0.6570873245
0.3334693351
0.1314428026
0.3958600633
0.4287652399
0.3890330629
0.3667212106
0.3102681757
0.2897514455
0.102150849
0.6441142722
0.6577121613
0.239992455
0.293496416
0.4010872334
0.3582188264
0.4519491141
0.1393750964
0.2498152181
0.4506358005
0.3014684739
0.3418967498
0.378005206
0.1170063801
0.5095795016
0.3542595704
0.3276403742
0.5277761821
0.3719498804
0.4108308258
0.1797734191
0.2893132068
0.3355382717
0.4693170666
0.3176166376
0.5441981636
0.3747132339
0.6333980841
0.4693049283
0.3879572819
0.1034375737
0.3994400955
0.4459753579
0.3525449966
0.1706207032
0.5221209849
0.5091165299
0.4116530238
0.3207489807
0.264242145
0.4760277482
0.7484647706
0.276612105
0.1812974819
0.335398879
0.4167598023
0.3268504573
0.2419877119
0.5288428441
0.4600273788
0.2955755196
0.3341337791
0.3189839443
0.493185052
0.6944955322
0.4468941591
0.5153434604
0.4911302487
0.5204419326
0.1975430231
0.8699635768
1.066077479
0.07515697009
0.3945690419
0.2733056155
0.2611436292
0.238995739
0.2212336597
0.4343723309
0.5194343872
0.1651020524
0.3358541761
0.9144728297
0.3633363521
0.4159203147
0.4912249615
0.6378606627
0.3310571204
0.3680524724
0.3145452676
0.39118107
0.5407408852
0.2435121167
0.3780502734
0.6799020485
0.6983983058
0.3531138749
0.3392416731
0.4822012685
0.3224994181
0.6121649324
0.5551137525
0.2885485991
0.4188200139
1.268026212
0.1932159035
0.362723974
0.3349256081
0.5779495097
0.35773829
0.3222144074
0.3972436583
0.1655391516
0.6545816142
0.3123324922
0.4669449027
0.2781564723
0.2207932484
0.2734436655
0.3669267739
0.6982823135
0.301448579
0.4375442023
0.4763973442
0.4202603929
0.2830475491
0.195032756
0.06619601647
0.4240518964
0.1981157468
0.2414771045
0.3564031979
0.2684596109
0.230799341
0.7503380691
0.3160471125
0.2957130543
0.5163828911
0.4573995423
0.798836983
0.4183116786
0.5244491608
0.5225537437
0.3910888634
0.2391189208
0.5016172668
0.2716583431
0.2279462642
0.5001379041
0.5015465389
0.4678432712
0.1766680623
0.1955253018
0.380625299
0.4754982295
0.3280401341
0.6007784536
0.2892099738
0.2907696805
0.4670558263
0.3709759726
0.175436621
0.356527687
0.5221500476
0.2620712766
0.5556512853
0.4300361464
0.06631508049
0.4001583385
0.4972603901
0.1904109871
0.6307528955
0.3267921948
0.6176023461
0.2811171269
0.6914508885
0.2354783866
0.4400371981
0.2709955628
0.3359529317
0.4152832696
0.2748084459
1.141919613
0.199101399
0.6069288745
0.284233261
0.3888382671
0.4146653938
0.2353627761
0.4279633361
0.4399913519
0.1200928053
0.2929626076
0.4425333898
0.3317936584
0.1332057395
0.4007794026
0.1954651963
0.2788260686
0.2611006889
0.7751117464
0.4628403111
1.011252063
0.5407501379
0.1150756218
0.8784755379
0.5985882446
0.2318856056
0.4878016458
0.2170732556
0.6505460409
0.5162041377
0.4305394405
0.1418995892
0.5095856142
0.1909851932
0.4304601153
0.3958704713
)
;

boundaryField
{
    flow
    {
        type            zeroGradient;
    }
    obstacle
    {
        type            calculated;
        value           nonuniform List<scalar> 0();
    }
    frontAndBack
    {
        type            empty;
    }
    procBoundary2to0
    {
        type            processor;
        value           nonuniform List<scalar> 
31
(
0.1604644724
0.5106553075
0.3068571555
0.5186453817
0.2678016332
0.7614203558
0.2543980697
0.6951135325
0.228106757
0.4365564175
0.3402294679
0.3705274659
0.4210491046
0.5901877244
0.4893925934
0.3162362846
0.4673461501
0.399818461
0.4508869726
0.526032591
0.5833510146
0.312252923
0.3069061602
0.5192913328
0.4819688785
0.3932515723
0.3933426883
0.6839115596
0.385545958
0.3268483641
0.3268483641
)
;
    }
    procBoundary2to3
    {
        type            processor;
        value           nonuniform List<scalar> 
19
(
0.3688613099
0.2251435439
0.6747962907
0.2218445102
0.08479905507
0.6299671041
0.4824745756
0.2940489737
0.2941242133
0.3082316993
0.3042737205
0.2269007525
0.4967009268
0.4273082035
0.351339282
0.671585514
0.1831662672
0.4813623748
0.6878065859
)
;
    }
}


// ************************************************************************* //
