/*--------------------------------*- C++ -*----------------------------------*\
| =========                 |                                                 |
| \\      /  F ield         | OpenFOAM: The Open Source CFD Toolbox           |
|  \\    /   O peration     | Version:  2406                                  |
|   \\  /    A nd           | Website:  www.openfoam.com                      |
|    \\/     M anipulation  |                                                 |
\*---------------------------------------------------------------------------*/
FoamFile
{
    version     2.0;
    format      ascii;
    arch        "LSB;label=32;scalar=64";
    class       volScalarField;
    location    "0.01";
    object      internalEMean;
}
// * * * * * * * * * * * * * * * * * * * * * * * * * * * * * * * * * * * * * //

dimensions      [1 -1 -2 0 0 0 0];

internalField   nonuniform List<scalar> 
546
(
0.3219163936
0.4185446759
0.4210855656
0.4157454565
0.4134900822
0.4111149194
0.4108152582
0.4097409969
0.4072949634
0.4118830361
0.412894898
0.4179544012
0.4186158712
0.413821858
0.4140964326
0.4115099428
0.4098063625
0.4095110049
0.4069266905
0.4079076079
0.3253337426
0.4173179844
0.4188224617
0.4206135129
0.4188806253
0.4172649465
0.4164179549
0.4170801698
0.4147123291
0.4132691933
0.4118824922
0.4079401168
0.4118579867
0.4112431786
0.4137013402
0.4133360392
0.4160246285
0.4188946607
0.4180304898
0.4187925425
0.3180535291
0.4093654249
0.4119857339
0.4103226134
0.4156457878
0.4185360974
0.4206384545
0.4191599731
0.4177483382
0.4169299305
0.4146133248
0.413541044
0.4103923566
0.4092015438
0.4097078028
0.4120545822
0.4106016965
0.4124361772
0.4146639411
0.4133837063
0.3222685015
0.4140890957
0.4153451664
0.4129461114
0.4123649358
0.4075864043
0.411449286
0.4124104227
0.4147338739
0.4104684668
0.4143437552
0.4177785251
0.4222034054
0.4224585143
0.4179971597
0.4137291292
0.4127313399
0.4106846261
0.41505752
0.4127493611
0.3222640773
0.4150394645
0.4180690193
0.4186805338
0.4166611664
0.4186975342
0.4127233467
0.4106218698
0.4104494481
0.410079978
0.4085911746
0.4057899939
0.4037633505
0.4064362166
0.4104920456
0.4147563115
0.4154684115
0.4154186219
0.4110703995
0.4115467294
0.3232472006
0.4158168237
0.4154695735
0.416895938
0.418131263
0.4184997668
0.4193915229
0.4195163689
0.4219901147
0.4220584222
0.4223980227
0.4211210707
0.4184224143
0.417005814
0.4133874817
0.4138435428
0.4139094541
0.4150542145
0.417633776
0.4193242077
0.3178546894
0.4090759365
0.4113733431
0.414113945
0.4141801044
0.4136042828
0.4171893351
0.4189201663
0.4157974891
0.4165472391
0.4203334244
0.4196398943
0.4210528175
0.4197469848
0.4186062594
0.4163596974
0.415867769
0.4133460064
0.4158851583
0.4165968385
0.3218658951
0.4173685997
0.4182859923
0.4179879331
0.4192658826
0.4180325689
0.4187448007
0.4156486842
0.4183165238
0.4151871423
0.4138423583
0.4111820934
0.4141943746
0.4135181049
0.4152596732
0.4181216395
0.419364246
0.4200034444
0.4206795266
0.4201955509
0.3217419863
0.4163466417
0.4184646846
0.419114949
0.4177383053
0.4151845955
0.4133615724
0.416433422
0.4127420782
0.4196689929
0.4190335828
0.4228550146
0.4212125469
0.4210146241
0.4182363391
0.4151292082
0.4147312481
0.4137865512
0.4140113107
0.412424257
0.3203498787
0.4101919636
0.4098853572
0.4085704197
0.4055926575
0.4079141874
0.4104437041
0.4138973842
0.4130914894
0.4116618771
0.4116321333
0.4107175335
0.413158881
0.41211763
0.4126551882
0.4124717443
0.4124075317
0.4112092603
0.4074040981
0.4054639995
0.3193109787
0.4119275523
0.4132695209
0.4170278292
0.4155741492
0.41434313
0.4137985656
0.4082743757
0.4122284164
0.4131285482
0.4127633581
0.4124760801
0.4094607493
0.4109269669
0.407346886
0.4077427413
0.4095805041
0.4119912167
0.4178732976
0.4211548526
0.3232733448
0.417225532
0.41623173
0.4156049503
0.4141591211
0.4140301858
0.4117586788
0.4116590829
0.4077949413
0.4073249707
0.4034298865
0.4076730679
0.408313731
0.4101098908
0.4125485844
0.4132332622
0.4160061752
0.4130973877
0.4143521607
0.4127281151
0.3231446751
0.4164175175
0.4207075516
0.420740007
0.4215136061
0.4204474182
0.4193651697
0.4165903229
0.4171643689
0.4166878157
0.4181353399
0.4188042586
0.4181294364
0.4180480599
0.4161082483
0.4196289152
0.4155623843
0.4182522092
0.4180775603
0.416111678
0.3228705931
0.4136011992
0.4192965629
0.4164730352
0.4176513366
0.418726881
0.4182554093
0.4233999917
0.421909194
0.4222613242
0.4147551715
0.412814209
0.4105437808
0.4108689483
0.4118749865
0.4121114599
0.4107796624
0.4130275061
0.4131625025
0.4145983748
0.3250776109
0.4182474764
0.4181446983
0.4167986006
0.4189827626
0.4195797965
0.4208550909
0.4197762668
0.4173244593
0.4171817991
0.4184628425
0.418755319
0.4213973288
0.4201233594
0.4178089967
0.4144160042
0.4168131592
0.417394199
0.4181398885
0.4188371762
0.316142597
0.4077543943
0.4105044907
0.4131220426
0.414995225
0.4133618177
0.411685242
0.411148973
0.412034036
0.4143324359
0.4158762467
0.4139064609
0.4135716861
0.4142286742
0.4161389099
0.417842851
0.4169205551
0.4140464871
0.4084798818
0.4117688545
0.3204816649
0.4173229406
0.4214682797
0.416440374
0.4143185172
0.4186094757
0.4185059058
0.419922028
0.4188150858
0.4200858946
0.4196433733
0.4168979315
0.4183578541
0.4165103691
0.4161254056
0.4143087824
0.4149591528
0.4129032554
0.4146317636
0.4123829441
0.316262384
0.4028693072
0.4082059015
0.4125424885
0.4129411806
0.4111278934
0.4120814399
0.4116980634
0.4099700389
0.406770261
0.4077174415
0.4080656009
0.4098394736
0.4071639178
0.4061701324
0.4038609991
0.4057927092
0.4074152255
0.4075984783
0.4103492105
0.4218845888
0.4234200199
0.425699578
0.4234704653
0.4254617225
0.425030191
0.4077208679
0.411378522
0.414482747
0.4130828097
0.4138391493
0.4174030624
0.4182783441
0.4195711558
0.4172702363
0.4182060457
0.4166850049
0.4213832098
0.4215991769
0.4200266726
0.4204760619
0.4202675203
0.4189905084
0.4198708092
0.420938486
0.4272893838
0.418475135
0.4140922006
0.4098830345
0.4092457506
0.4093875688
0.4079048284
0.4087416659
0.4127968426
0.4133093224
0.4164737656
0.4105101839
0.4123835957
0.4125311613
0.4156266002
0.4116979031
0.4140571277
0.4135575551
0.4108289259
0.4069353975
0.4104783856
0.4127812498
0.4104267885
0.4120606372
0.4108269783
0.4125580479
0.4129435405
0.4158323966
0.4214276121
0.4186722207
0.4163020842
0.417771402
0.4184460026
0.4177810053
0.4184563453
0.4204652764
0.4200407771
0.4185909273
0.4149538573
0.4194451322
0.4205054677
0.417942868
0.4191106099
0.4190793815
0.4181421027
0.4155617203
0.4178802538
0.4138602664
0.4143417651
0.4128704563
0.4104410622
0.4205791581
0.4222157828
0.4192909334
0.4157015373
0.4158911312
0.4119170876
0.4161109349
0.4137251671
0.4126563455
0.4124123091
0.4087492417
0.4081896683
0.409472871
0.4087885077
0.4098410779
0.4115339406
0.4123690481
0.4093049229
0.4127014872
0.4146502825
0.4065775093
0.4099119536
0.4127769298
0.4179747663
0.4155211851
0.4172204798
0.4183157968
0.4200900599
0.4195489369
0.4144197802
0.4231159236
0.4200156571
0.4167522922
0.4165612533
0.4175640978
0.4148999185
0.4139208652
0.4115238446
0.412872519
0.4141780177
0.4125442509
0.4147824115
0.4138449034
0.4147433656
0.4139624966
0.4151435532
0.416521999
0.4199323478
0.4212733877
0.4248518545
0.4130760551
0.4132414238
0.4125745375
0.4117772885
0.4150279797
0.4163769648
0.4190757424
0.4205667365
0.4181857264
0.4160398044
0.4156679154
0.4191159701
0.4183487385
0.4201757228
0.4199709831
0.4178015135
0.4169460493
0.4146659095
0.4166479442
0.4149353999
0.414073522
0.4164947762
0.4152761254
0.4151669527
0.4138146207
0.4120275056
0.4093703941
0.4122478564
0.4140653293
0.416656483
0.4116169374
0.4120943653
0.411591528
0.4125451855
0.4149177616
0.4134290948
0.4165344503
0.41575852
0.4151837665
0.4156945582
0.4132782831
0.4126256611
0.4094908968
0.4104657499
0.4105571313
0.4127916755
0.4145471223
0.4200824381
0.4184828174
0.4161364681
0.4125991903
0.4111400474
0.4117210669
0.4140860435
0.4092525636
0.4073427776
0.4098604488
0.402924076
0.4042329867
0.4063896391
)
;

boundaryField
{
    flow
    {
        type            calculated;
        value           nonuniform List<scalar> 
48
(
0.3219163936
0.3253337426
0.3180535291
0.3222685015
0.3222640773
0.3232472006
0.3178546894
0.3218658951
0.3217419863
0.3203498787
0.3193109787
0.3232733448
0.3231446751
0.3228705931
0.3250776109
0.316142597
0.3204816649
0.316262384
0.316262384
0.4028693072
0.4082059015
0.4125424885
0.4129411806
0.4111278934
0.4120814399
0.4116980634
0.4099700389
0.406770261
0.4077174415
0.4080656009
0.4098394736
0.4071639178
0.4061701324
0.4038609991
0.4057927092
0.4074152255
0.4075984783
0.4103492105
0.4125991903
0.4111400474
0.4117210669
0.4140860435
0.4092525636
0.4073427776
0.4098604488
0.402924076
0.4042329867
0.4063896391
)
;
    }
    obstacle
    {
        type            calculated;
        value           nonuniform List<scalar> 0();
    }
    frontAndBack
    {
        type            empty;
    }
    procBoundary2to0
    {
        type            processor;
        value           nonuniform List<scalar> 
31
(
0.3206504316
0.4116741265
0.4139168157
0.4130286473
0.4161510047
0.4143476389
0.4183744861
0.4207506696
0.4232060851
0.4206299896
0.4196921398
0.4170983646
0.4154298842
0.4178694216
0.4174006355
0.4171802824
0.4160797142
0.4145884514
0.4158746805
0.4140360795
0.4186868829
0.4176156059
0.420893509
0.4223738165
0.4285244676
0.4322947762
0.4164544389
0.411626494
0.4138989148
0.418568371
0.418568371
)
;
    }
    procBoundary2to3
    {
        type            processor;
        value           nonuniform List<scalar> 
19
(
0.4272388983
0.4224140937
0.4257666517
0.4190362547
0.4141013523
0.4141671126
0.4203897823
0.4137148029
0.4139718322
0.4137306155
0.4151429478
0.4155310683
0.4223263978
0.4174428157
0.4154590748
0.4135385312
0.4170633358
0.4178064049
0.4068928834
)
;
    }
}


// ************************************************************************* //
