/*--------------------------------*- C++ -*----------------------------------*\
| =========                 |                                                 |
| \\      /  F ield         | OpenFOAM: The Open Source CFD Toolbox           |
|  \\    /   O peration     | Version:  2406                                  |
|   \\  /    A nd           | Website:  www.openfoam.com                      |
|    \\/     M anipulation  |                                                 |
\*---------------------------------------------------------------------------*/
FoamFile
{
    version     2.0;
    format      ascii;
    arch        "LSB;label=32;scalar=64";
    class       volScalarField;
    location    "0.01";
    object      linearKEMean;
}
// * * * * * * * * * * * * * * * * * * * * * * * * * * * * * * * * * * * * * //

dimensions      [1 -1 -2 0 0 0 0];

internalField   nonuniform List<scalar> 
546
(
5.883294087
7.889811194
7.888610648
7.831442688
7.833255791
7.834088662
7.851299885
7.833201996
7.804143628
7.872164816
7.894107095
7.936721193
7.927510916
7.856419772
7.850269872
7.848109293
7.852155791
7.859413957
7.804614432
7.783026023
5.918019142
7.948658537
7.901750411
7.924637871
7.918473034
7.894196333
7.876633992
7.888654258
7.850576209
7.826417897
7.837026894
7.815484097
7.830206165
7.839783629
7.856493935
7.824149427
7.832260387
7.858579193
7.884416722
7.884378168
5.868146847
7.868352678
7.839283432
7.811983877
7.825423572
7.855524816
7.877640276
7.881288194
7.874269578
7.87641607
7.858336532
7.856875218
7.804206242
7.768123075
7.806341245
7.82073021
7.78559278
7.792340629
7.790172021
7.770845234
5.903235308
7.941335734
7.887701768
7.838681462
7.858175656
7.816775165
7.818173384
7.827461787
7.873297497
7.806120929
7.843390372
7.883636896
7.949293192
7.928143008
7.907356364
7.869570844
7.871240925
7.845395112
7.900173351
7.90231199
5.910291914
7.928875226
7.860041155
7.840022075
7.828602244
7.833256248
7.80617655
7.824329738
7.776918006
7.769381112
7.772710402
7.738160283
7.747826278
7.774224678
7.834595598
7.877396849
7.914696407
7.911390186
7.860948845
7.843859715
5.888006483
7.918064998
7.849524819
7.866855739
7.889351369
7.903440581
7.864382505
7.849731659
7.884708653
7.902486802
7.922391719
7.896900486
7.892244393
7.871040803
7.867522913
7.894913729
7.866962097
7.827631298
7.860940975
7.903920411
5.884722937
7.874554887
7.845998591
7.860587061
7.822147686
7.823039541
7.842538519
7.901645783
7.878198745
7.882387359
7.912384617
7.916384813
7.939408338
7.90416515
7.878408484
7.840411459
7.849998459
7.845288043
7.8560402
7.846304654
5.900744767
7.971028041
7.935602367
7.925337374
7.93587654
7.919404472
7.936450957
7.907082461
7.937138303
7.904736026
7.890062016
7.839858597
7.825251219
7.839019668
7.851394499
7.888837125
7.902243037
7.920194688
7.933368053
7.925393266
5.892240565
7.911682803
7.820319806
7.822392286
7.823707289
7.80183139
7.796330131
7.851063284
7.807116442
7.87412794
7.886815927
7.91296936
7.914601201
7.916174604
7.879290737
7.808860338
7.824071642
7.812492479
7.808277189
7.810823257
5.862578262
7.854743905
7.828438462
7.832470467
7.824961112
7.842767891
7.855136067
7.872748169
7.852308677
7.828126935
7.785707617
7.80490678
7.834811743
7.854241975
7.874932895
7.878363034
7.856353149
7.79785833
7.791682414
7.764347877
5.928409555
7.951328331
7.881714232
7.854340071
7.84621006
7.802398542
7.827564993
7.775756983
7.812291014
7.837190735
7.846449586
7.834593051
7.820988542
7.811698849
7.777382146
7.800511776
7.818273649
7.863491935
7.916513189
7.928610169
5.868831787
7.926575011
7.865578498
7.87334734
7.845341093
7.829795614
7.849526029
7.818019016
7.802682378
7.790128243
7.765171845
7.809895302
7.805054175
7.833438436
7.866442028
7.856001119
7.877408619
7.802039677
7.841064856
7.830587586
5.921970393
7.946587465
7.89792104
7.871694428
7.884589037
7.875758676
7.874522869
7.860326484
7.881125313
7.881922073
7.861898923
7.899703024
7.903279455
7.870687985
7.858464561
7.880285876
7.807031687
7.874433274
7.867122139
7.859979928
5.867011095
7.865937481
7.847294847
7.840820411
7.845986387
7.843302578
7.856243566
7.878387966
7.887315952
7.885517741
7.830306955
7.783170253
7.743292487
7.780552214
7.789968528
7.818314859
7.842915681
7.823953064
7.838426603
7.841601467
5.899548132
7.907503621
7.822065815
7.783534301
7.824290752
7.81228609
7.804529461
7.834208322
7.809633733
7.786580393
7.765842081
7.817811869
7.851948949
7.831392958
7.825133514
7.796222371
7.784876508
7.787672231
7.829348869
7.835404303
5.85738585
7.866743519
7.859438664
7.883776298
7.903935341
7.855003371
7.793874224
7.782611637
7.814845982
7.84745779
7.880592722
7.845557545
7.833000719
7.825901741
7.87411461
7.863231378
7.866140001
7.811197088
7.767684586
7.788775435
5.910813594
7.997697254
7.928546574
7.875208308
7.839116303
7.906092896
7.937221812
7.964105564
7.904990867
7.950059284
7.913054046
7.881994986
7.901067489
7.84794158
7.857853853
7.828884432
7.862926145
7.827322012
7.864650564
7.842281901
5.7944401
7.737216377
7.716252451
7.743281448
7.746214584
7.766851091
7.756612136
7.749840477
7.745698511
7.732543067
7.779588627
7.780985232
7.797178324
7.796579435
7.765046644
7.771229599
7.744815727
7.767593954
7.809961979
7.805624752
7.899073564
7.906176101
7.927954345
7.904786383
7.926736768
7.961546916
7.799471627
7.835320009
7.866610498
7.81502001
7.854376172
7.890072549
7.924000924
7.93782916
7.892739156
7.887636882
7.899040313
7.919249321
7.930331298
7.942752338
7.902997865
7.880524804
7.879888882
7.879933394
7.898808558
7.92069438
7.793266588
7.766758164
7.762827311
7.762381981
7.801991706
7.781478012
7.804529084
7.832838962
7.863214745
7.892265292
7.930083127
7.943921254
7.908495337
7.945644017
7.907147313
7.891880251
7.861698159
7.856416526
7.799491695
7.83446854
7.845133395
7.821355227
7.833774749
7.828193973
7.860519056
7.844840929
7.890675272
7.949444103
7.907171966
7.875432936
7.895209781
7.897043317
7.902148115
7.895181467
7.962428736
7.959957805
7.911943346
7.895814197
7.941877098
7.924591533
7.8371912
7.832168017
7.837554401
7.857731316
7.81253967
7.814549762
7.84475387
7.86096002
7.808774305
7.80469254
7.944143795
7.958871735
7.90332412
7.812745413
7.788639415
7.780157371
7.779589603
7.763732091
7.78157365
7.7729508
7.737052307
7.722341888
7.752821686
7.742970537
7.777975795
7.791540613
7.796535247
7.736298264
7.76650455
7.781940956
7.793158429
7.844474624
7.841411955
7.877456975
7.857909079
7.86802732
7.8804154
7.894135576
7.907523558
7.836878641
7.904666306
7.885761544
7.874593233
7.881917183
7.8984165
7.875165716
7.852139748
7.844716998
7.861892141
7.886654802
7.857204085
7.866315844
7.841700752
7.832839269
7.815820921
7.814310322
7.833939152
7.884234022
7.901667249
7.924939715
7.8175813
7.833450737
7.868511785
7.863671171
7.86202026
7.903341345
7.863766136
7.873530314
7.843778148
7.84071044
7.872125033
7.884307483
7.85324145
7.888564955
7.890580283
7.85427879
7.845215009
7.856603612
7.831810339
7.77548691
7.811848973
7.820676524
7.804662573
7.81034437
7.831313551
7.839787108
7.792539909
7.815760357
7.836843028
7.884050531
7.769382335
7.788180167
7.804143435
7.807761396
7.836752998
7.783541813
7.829037947
7.789528423
7.811078083
7.839275021
7.799696194
7.792469386
7.774155627
7.758541118
7.787708523
7.814433146
7.851424731
7.887215039
7.896008806
7.858776857
7.825437072
7.804542432
7.805556359
7.874665913
7.782202231
7.77450038
7.796951024
7.724015499
7.680352245
7.746424197
)
;

boundaryField
{
    flow
    {
        type            calculated;
        value           nonuniform List<scalar> 
48
(
5.883294087
5.918019142
5.868146847
5.903235308
5.910291914
5.888006483
5.884722937
5.900744767
5.892240565
5.862578262
5.928409555
5.868831787
5.921970393
5.867011095
5.899548132
5.85738585
5.910813594
5.7944401
5.7944401
7.737216377
7.716252451
7.743281448
7.746214584
7.766851091
7.756612136
7.749840477
7.745698511
7.732543067
7.779588627
7.780985232
7.797178324
7.796579435
7.765046644
7.771229599
7.744815727
7.767593954
7.809961979
7.805624752
7.825437072
7.804542432
7.805556359
7.874665913
7.782202231
7.77450038
7.796951024
7.724015499
7.680352245
7.746424197
)
;
    }
    obstacle
    {
        type            calculated;
        value           nonuniform List<scalar> 0();
    }
    frontAndBack
    {
        type            empty;
    }
    procBoundary2to0
    {
        type            processor;
        value           nonuniform List<scalar> 
31
(
5.881612333
7.914818729
7.860615422
7.826063119
7.847623275
7.808382292
7.854019933
7.888360234
7.935084458
7.900380716
7.852722761
7.817433975
7.830299729
7.851886359
7.834319921
7.854227204
7.840414811
7.832550004
7.878197608
7.8792913
7.877132928
7.868608457
7.854647246
7.872757701
7.942413792
7.951360695
7.876321652
7.84367937
7.834204178
7.886322968
7.886322968
)
;
    }
    procBoundary2to3
    {
        type            processor;
        value           nonuniform List<scalar> 
19
(
7.971639557
7.922086434
7.920220473
7.932131954
7.836817019
7.863248901
7.970255844
7.793250801
7.801854526
7.753389715
7.854068542
7.86263391
7.922979832
7.83598355
7.816958696
7.842976971
7.89394462
7.86833698
7.680646583
)
;
    }
}


// ************************************************************************* //
