/*--------------------------------*- C++ -*----------------------------------*\
| =========                 |                                                 |
| \\      /  F ield         | OpenFOAM: The Open Source CFD Toolbox           |
|  \\    /   O peration     | Version:  2406                                  |
|   \\  /    A nd           | Website:  www.openfoam.com                      |
|    \\/     M anipulation  |                                                 |
\*---------------------------------------------------------------------------*/
FoamFile
{
    version     2.0;
    format      ascii;
    arch        "LSB;label=32;scalar=64";
    class       volScalarField;
    location    "0.01";
    object      linearKE;
}
// * * * * * * * * * * * * * * * * * * * * * * * * * * * * * * * * * * * * * //

dimensions      [1 -1 -2 0 0 0 0];

internalField   nonuniform List<scalar> 
546
(
7.100164977
4.881365103
8.70473198
5.871617298
9.13023619
5.484847174
4.790703696
5.703082622
18.70705289
9.569118132
8.251919708
8.37464021
8.288511505
10.30484435
6.90850366
10.43105278
9.445637788
7.319059848
5.447091095
11.15088236
5.819514591
7.782713843
8.099204672
6.281233675
8.333610131
6.927507833
6.137489715
8.453084247
5.536860322
10.33298873
4.940284365
5.349114487
5.025992595
6.358425962
9.716228923
9.552281178
9.515639541
9.833198747
9.487731613
6.827584763
3.929415621
14.15929725
6.312090598
10.30225016
5.553919028
8.403002837
6.906300022
6.682840801
9.75758172
7.383727617
10.64954981
4.725478786
3.954622145
8.872785444
8.45717133
11.84454474
8.33265903
7.391316772
3.331446368
6.931662826
5.882461418
6.253744544
9.837697065
10.94870408
11.07146325
5.213992482
7.306690816
10.43729346
7.898631216
5.174099069
4.47427541
10.67062555
9.936683245
11.3290694
8.625112241
7.361571986
9.896833863
4.428110401
5.207524345
4.290655829
3.940102899
9.637801394
7.176163239
6.736891911
12.50930638
9.928204133
4.356757613
10.22141389
6.235239772
10.80685767
10.36820533
10.31957419
4.192613782
7.220294673
6.796070441
6.324018497
11.03125507
5.589198514
9.739163726
2.79188183
4.990793145
8.504792464
8.83164255
6.621733357
5.107274207
10.14030257
0.9373493131
5.016445128
11.22642659
10.42619494
8.761929107
8.364826909
3.54377646
6.198590472
9.364202351
11.42508262
7.815178548
5.326153788
6.910991893
6.487015286
5.226049709
7.331761846
6.892453178
10.87779717
8.091635368
7.868215817
2.929254168
11.19631998
5.125165735
9.576898899
8.684345655
11.14628792
10.12088702
8.549837052
4.714209361
5.980531363
6.750698396
10.72504468
10.98734814
8.140089978
6.489067488
9.307904412
9.086404041
6.501563874
7.785589406
7.857491385
7.984465346
6.045702606
9.444366574
10.20983741
8.541882309
5.872481633
8.487473188
9.495288469
8.179895444
7.526732643
7.497147328
5.486177167
8.712998359
9.248796369
7.633229747
7.341459928
4.616930991
6.762430216
4.594544978
7.377212331
3.64638247
9.165497045
7.675552506
10.15124948
8.802467523
7.728807143
6.218545329
6.547274982
4.339804984
14.44290747
9.298474757
7.558885835
4.0801426
6.748024235
4.49560442
7.862172346
15.18118682
9.359454842
6.434200817
4.889578812
2.713205642
8.016933436
8.722325324
4.77613797
5.807150082
8.218959425
8.192645657
9.486695043
13.69225293
7.00662033
7.680093108
11.25585505
5.5517064
5.659252905
5.913380962
4.911928578
5.26756679
7.550621225
11.52951155
5.88051331
7.180355792
3.797788347
5.976753268
9.135328495
8.530145776
10.63618243
5.08779346
10.3917371
5.284298834
4.683985006
9.871678092
10.15485843
9.858613676
11.06091344
4.827352765
7.153897201
8.289466659
11.9550466
6.977974187
10.74460627
12.19692426
7.119977424
4.741370623
8.026237307
7.426026233
7.20046113
9.248414044
8.531312484
6.898975755
4.853920327
8.853466717
7.524064843
7.313021761
7.355102766
7.625668989
7.879139805
6.994766638
9.089057534
10.52623498
7.488639769
6.17502216
8.707716194
8.267511826
7.856289592
5.897906672
6.587776502
9.111967934
11.83452528
6.653428709
6.225126534
8.542794256
5.455572829
10.11047495
8.211033753
5.92810607
6.553965059
6.950739993
5.563800747
7.784557697
7.546178186
7.499040786
7.106721304
9.573284443
6.144845021
6.236239636
2.857090833
13.00033892
14.41734959
5.539119235
10.08153464
9.332596048
7.613548221
8.651669136
9.574393979
5.007686572
8.453230619
10.92275925
3.090772691
14.43056992
5.466846683
6.895203067
14.61333349
10.35215126
11.52385137
9.202041771
8.153104131
2.989298248
3.998871165
4.19860975
12.86861205
9.588670077
11.33452543
5.974385334
6.062675941
5.98359777
5.938145977
6.520737455
8.473444958
8.688277177
8.18728167
6.822895897
5.821059823
10.14125115
8.358895151
6.529336161
4.218922573
11.45351667
7.058160429
12.47370695
6.210580729
8.613654949
5.110930516
8.203376765
8.222733691
7.139176305
7.734331995
10.42561455
9.228988576
4.688879066
7.072829951
11.98751776
5.172601619
8.438388457
5.263297816
3.809443089
9.884385095
12.09360873
7.563452833
10.66739815
8.082174489
8.236216928
3.476690043
10.78064158
9.484259169
3.908014331
8.798351656
8.373807911
5.703349526
9.526523008
2.409913202
7.021469647
9.615984914
7.814324079
7.11405798
6.361891991
3.683249716
9.92879531
5.771284983
4.670169412
7.804713758
8.534621529
4.007301944
6.038097338
8.404644349
9.861478447
9.407168062
4.544240756
6.83700283
5.119621304
9.360752056
4.62970646
8.221317877
3.856818873
10.97760567
10.04291291
4.906302529
5.385772368
7.773486237
11.85463246
10.10720781
7.510687231
4.467297275
8.834450812
7.569218978
4.446621955
8.031656058
10.93887429
9.24474925
5.565385457
5.242405042
9.845444586
4.442542685
10.37268332
10.81319661
6.919451721
7.973479985
13.19368176
9.492789379
8.535639568
9.028486672
10.35590214
7.045551655
11.10040689
10.68900241
1.692067998
6.453861255
6.581785869
6.147806145
7.537948664
4.755458509
8.68289064
7.264668291
6.431280036
5.375310314
9.184313136
4.986367159
7.109587044
6.975362883
16.04157413
8.908619914
11.74559618
9.57156246
7.61281915
10.19506877
6.669183896
6.902472433
12.73456918
11.55836401
7.674891783
10.48651378
12.3707978
3.764627959
10.29529558
13.25473506
4.977285442
8.587113476
12.75621186
6.781777305
7.020084556
7.736927372
9.403906149
5.243287721
8.224628872
7.465921205
7.602027278
10.42997653
5.109183953
5.820582257
5.257844613
7.956213787
4.190286037
6.90235805
12.38500087
9.493171035
7.646663892
8.985825209
10.09012707
8.11620622
3.236818783
2.144719197
8.465391327
6.959845093
7.2584355
6.652971778
5.686840165
3.450572082
9.375003903
4.960584921
4.731779893
11.23520368
7.683616572
13.72457013
4.919962913
11.69362738
8.56383464
10.18711503
3.278874403
10.99543697
6.089000665
4.945023123
8.048009234
6.249609208
8.836466575
6.137415614
7.976266019
8.029975202
8.549164474
8.314941318
14.45505196
6.322946146
3.131994957
10.17182479
10.0489601
7.249741458
5.371947872
14.39772274
5.996289472
5.774041546
11.62736588
3.759273997
9.449847314
6.845758515
5.772743767
8.382461432
7.164054575
10.09273161
6.855993226
12.01921825
5.504983999
8.473389047
4.877797643
9.22196677
8.855838927
6.797716713
15.74113987
5.784455826
10.96605321
3.312965317
6.23849066
8.087512697
6.749806128
7.361055285
6.635768144
7.465251929
3.802134894
9.142578132
6.11807751
3.726509498
9.389966005
6.323168434
5.058300858
5.991904063
9.47968846
9.782502856
13.03187845
6.32668391
6.404335377
13.89791496
10.63590311
2.816919438
10.68635905
4.830270999
11.29865566
5.509155161
7.17486777
3.158461966
11.80426615
5.718396376
8.238937033
6.044612788
)
;

boundaryField
{
    flow
    {
        type            zeroGradient;
    }
    obstacle
    {
        type            calculated;
        value           nonuniform List<scalar> 0();
    }
    frontAndBack
    {
        type            empty;
    }
    procBoundary2to0
    {
        type            processor;
        value           nonuniform List<scalar> 
31
(
3.761900732
10.92971743
4.808313557
13.66881095
5.742653942
9.433919818
9.76616823
11.18732804
4.438347812
7.366898861
8.892813271
7.413864318
6.417006686
10.63888217
12.43645767
8.548892368
9.992964738
6.340354622
7.609110726
10.55775876
8.014665696
7.252316157
8.434924504
8.171587406
9.064212605
7.939375419
7.162214529
11.86642388
7.187011887
5.800566084
5.800566084
)
;
    }
    procBoundary2to3
    {
        type            processor;
        value           nonuniform List<scalar> 
19
(
4.675264941
4.24783512
12.24871863
6.32517944
3.675530255
11.07755594
8.838263645
6.054387229
9.750904048
4.978151086
7.196437807
5.596201277
5.915637188
9.677276534
9.035220443
8.171244545
8.099450281
5.450006643
12.70977235
)
;
    }
}


// ************************************************************************* //
