/*--------------------------------*- C++ -*----------------------------------*\
| =========                 |                                                 |
| \\      /  F ield         | OpenFOAM: The Open Source CFD Toolbox           |
|  \\    /   O peration     | Version:  2406                                  |
|   \\  /    A nd           | Website:  www.openfoam.com                      |
|    \\/     M anipulation  |                                                 |
\*---------------------------------------------------------------------------*/
FoamFile
{
    version     2.0;
    format      ascii;
    arch        "LSB;label=32;scalar=64";
    class       volVectorField;
    location    "0.01";
    object      momentum;
}
// * * * * * * * * * * * * * * * * * * * * * * * * * * * * * * * * * * * * * //

dimensions      [1 -2 -1 0 0 0 0];

internalField   nonuniform List<vector> 
546
(
(0.007589925615 9.599490416e-05 0.0002254577088)
(0.005150747044 2.884762199e-05 -9.194334592e-06)
(0.009402087693 0.0003327143169 -8.957209176e-05)
(0.006173030368 0.0001785034002 0.0003939735371)
(0.01005515592 0.0001407723455 -0.0005776281279)
(0.0058199818 0.0002676314264 0.0001583914702)
(0.004988071902 -0.0004427738976 -0.0006852975282)
(0.006053781405 0.0006539136485 0.0006435729818)
(0.0184894591 -0.0003846427558 -0.0005430970097)
(0.01017756997 0.0002106634542 -0.0003930980054)
(0.009133036724 6.838593505e-05 -0.000755805722)
(0.008626365934 8.790635762e-05 0.0001959631366)
(0.008813731055 -0.0003105728193 -7.815784369e-05)
(0.01068027836 0.0003614367489 0.0008784466528)
(0.0071651894 -0.0004191230718 5.831336932e-05)
(0.01116651108 0.0002416245094 -0.0003363365328)
(0.009788722431 0.0007581275084 -0.0001735558574)
(0.00740695099 -0.001303653982 -0.0001845590453)
(0.006084210793 -5.818006052e-05 0.0001274042688)
(0.01129261676 0.0001787304508 -0.0009025311528)
(0.00696986729 0.0001700486029 -0.0006256805062)
(0.008458611278 0.0002215451731 -0.0007227819139)
(0.008073038608 0.0001252231834 0.0001661272994)
(0.006898724577 0.0006938504739 -0.0001556597951)
(0.009007609771 -0.0006435048525 0.0002261019459)
(0.007489758147 0.000140051759 0.0005669201674)
(0.006275160318 5.768796668e-05 0.0001411270008)
(0.009338299572 0.0006154873713 0.0001985573519)
(0.005870191559 -0.0001757482313 -0.0004722035883)
(0.01095325101 -0.0005066977715 -0.0002626611914)
(0.005307127733 -0.0003644056236 -0.0002618020187)
(0.006310637886 5.433423416e-05 0.0001286890685)
(0.005436957169 -0.0005031580305 -8.981726524e-05)
(0.006810027406 -7.085958076e-05 -9.639877751e-06)
(0.009793830604 -0.0002799545266 0.0003495025699)
(0.01024257905 0.000327014717 -0.0003846569288)
(0.01022942971 0.000227514863 -0.0001633557688)
(0.01063644775 -0.0001339232025 -0.0001675593069)
(0.01000717729 0.000565668466 -0.0002375791177)
(0.007109215362 0.0001190879527 -9.323019421e-06)
(0.003830811272 0.0004802111075 0.0005609829021)
(0.01332437254 -0.0007230988257 -0.0007381531268)
(0.006338835663 0.000162208322 0.0001062433026)
(0.01094487956 -2.89880983e-05 -0.0007648677138)
(0.006411977738 -0.0001650324341 -0.0002664798177)
(0.009229381638 0.0005927923816 0.0002335377196)
(0.007179685705 -0.000131892439 0.0001437521704)
(0.007374716532 -4.717387574e-05 0.0001744223462)
(0.01076261626 7.501955059e-05 0.0001936200783)
(0.007929924902 0.0001993542508 -0.0009361164937)
(0.01095082093 0.0005975673703 -0.0002699556127)
(0.004741491949 0.0005737713229 -0.0001170634508)
(0.004600397352 -0.0003556532387 -0.0003212907224)
(0.009067352173 -3.258777562e-05 -4.281590368e-05)
(0.01015532338 -5.791223397e-05 -0.0002071239199)
(0.01089400046 0.000689594514 0.0009404505842)
(0.008348144417 0.0006539043219 4.208736731e-05)
(0.007824003859 -7.810326729e-05 -0.0006366712469)
(0.003530768168 0.0001792414731 0.0004015851656)
(0.007711757177 -0.0001569504288 -0.0004298635212)
(0.006237740531 -0.0002473340102 -0.0005305539041)
(0.006704341991 -0.0002753361767 0.0002758481669)
(0.010145491 0.0002921450257 0.0001370712794)
(0.01120928768 5.336134451e-05 -0.0001783613398)
(0.01177255435 -7.714703314e-05 -0.0004005299743)
(0.005927869031 0.0003090894733 -6.188058951e-05)
(0.007914165579 -0.000257883303 -0.0001639136797)
(0.01037144808 -0.000176792138 0.0004553770686)
(0.008028645616 0.0004414756189 0.0003285448839)
(0.004981063502 0.0001380075531 0.000199353725)
(0.004486800738 -0.0004688842019 -0.0001241197486)
(0.01163818506 -0.0001293665942 0.0006473243384)
(0.01080915798 -0.0008677169525 0.0005960667473)
(0.01089060018 -0.0005035959048 -0.001296637868)
(0.009725238543 0.0001862592338 0.0003581064915)
(0.008335960866 -0.0001962619191 0.000605428112)
(0.01061385874 0.0007936893324 0.0001327333933)
(0.004428303171 -0.0005442659005 -7.117058493e-05)
(0.005329830388 8.574718939e-05 5.820831314e-06)
(0.005040787256 9.907432719e-05 0.000515627282)
(0.004682181732 9.50499508e-05 4.979548379e-05)
(0.009849188578 0.0001909770206 -0.0002208304447)
(0.007734876378 -0.0009053581938 9.214633224e-05)
(0.007572835685 1.176171219e-05 -0.000200950312)
(0.01408774297 -4.873721319e-05 -3.212937447e-05)
(0.01050195987 -0.0001811271881 -0.001417480601)
(0.004863793176 -0.0003138830075 0.0001090422843)
(0.01061682479 -0.0001401548282 -0.0004715259262)
(0.006287100861 0.0002544917574 5.059969472e-05)
(0.01103212838 0.0007102922607 0.0005939930715)
(0.01020150596 -2.374459429e-05 0.0003047412992)
(0.01072383222 0.0001471070237 0.0007994333403)
(0.004371935672 -0.0003159936384 -0.0001175322875)
(0.007759214427 0.000941576537 0.0002448674669)
(0.006971650857 -0.0003554045625 -8.162952466e-05)
(0.006311222813 -0.0007268342973 0.0003234267392)
(0.01102023553 -0.001118486862 0.000712190375)
(0.006154467486 0.0002482064848 -0.0002971833062)
(0.01056006712 0.0001848015393 -0.0001454213083)
(0.003229943294 0.0002854424823 -9.028652645e-06)
(0.005627692864 -0.0004161579644 -0.0004059888795)
(0.008820230495 0.0008450474335 8.361714574e-06)
(0.008986025143 -0.0006792643044 0.0003880674196)
(0.006443662891 0.0003200058145 -3.987372971e-05)
(0.006023392904 0.0001929790846 -9.148824422e-05)
(0.01064554117 -0.0002499268235 0.0002396062055)
(0.001278434101 0.0002084191162 -0.0002319194009)
(0.005654482313 0.0002244053418 -0.0001955427389)
(0.01118205641 -0.0006275124361 -3.204621702e-05)
(0.0103425178 0.0002949074341 9.381957008e-05)
(0.009396197344 0.0007483131633 0.0003037920028)
(0.009036267683 0.000256312356 -0.0006769092432)
(0.003751313121 5.813920211e-05 0.000369599102)
(0.006495579098 5.8808672e-05 0.0002171440177)
(0.009766386202 1.497414082e-05 0.0004366048211)
(0.01194134318 0.000536351065 -7.195049366e-05)
(0.008034293937 0.0008509589594 -0.0004641198741)
(0.005867155887 -0.000213182073 -0.0007790970663)
(0.007185863995 -0.0001930385358 0.0005426775027)
(0.007054820589 -0.0005599413235 -0.0004607204077)
(0.005851997419 -2.781587136e-05 -0.0004050511912)
(0.007694949678 0.000575287611 0.0002041540109)
(0.008315937743 0.0003299276401 0.0004827755735)
(0.01224138853 -0.0001909091436 -3.680547706e-05)
(0.007625059521 -0.0007295074193 -0.0005393409863)
(0.009395554042 8.256619921e-05 0.0008548337892)
(0.003263066493 -0.0001574878028 -0.0001385934118)
(0.01110981726 -0.0006735857456 -0.0003077706399)
(0.005307666151 -0.0002910673627 -0.0001072008987)
(0.01000270284 -0.0005044827479 0.0003158012492)
(0.0102356708 0.0004020043917 7.837871524e-05)
(0.01136814507 -0.001146414071 7.738284401e-05)
(0.01100992386 0.0006195349353 -3.573389286e-05)
(0.008638661602 -0.000223036131 -0.0001350891978)
(0.004692835462 0.00046393232 -2.432905101e-05)
(0.006352410315 -0.0004780770437 -0.0001652013477)
(0.007388488012 -0.0001179729924 -0.0004655030651)
(0.0112258298 0.0004085339949 0.0004700401119)
(0.01083582046 0.0004613740977 0.0007889302746)
(0.00796443111 -0.0007078097417 -0.0006362435787)
(0.007013264177 0.0003461183343 0.0002911923318)
(0.01004664563 -8.407869044e-06 0.0001998808325)
(0.01036909369 -5.685970799e-05 0.0002488415257)
(0.007010924704 0.0004934139954 2.956293165e-05)
(0.008166582796 -0.0005749757232 0.0004121738662)
(0.008552984636 -0.0005752137021 0.00017704183)
(0.009189270455 -0.0003783008654 3.53386594e-05)
(0.006201692714 -0.0001882467437 -0.0008167371645)
(0.009395518593 0.0004725254196 0.0001688159802)
(0.01070929199 -0.0002458917358 -0.0003639233405)
(0.008961682136 -0.0009623843433 -0.0006526384819)
(0.006103345781 -0.0006438455225 -0.0004948951803)
(0.008888032393 -0.000730454322 2.914922183e-05)
(0.01020948906 3.732980425e-05 -0.0006975470763)
(0.008558812436 -0.0004009624414 -0.0007318735729)
(0.007973603522 0.0001426285545 9.52641759e-05)
(0.008656148131 0.000272198671 0.000445864199)
(0.005569138508 -0.0001897035278 -0.0001294307619)
(0.008991507872 -0.0008917905156 -0.0002165469814)
(0.01013879044 -0.0001315708573 0.000513164111)
(0.007874997965 -2.607613055e-05 -0.0004246406789)
(0.00773979121 0.0002675036605 0.0002619955112)
(0.005064716334 0.0001715638106 5.293050875e-05)
(0.007532808682 -0.0001876917062 0.0005419754144)
(0.005022582918 -2.178967636e-05 -0.0004126201833)
(0.008301252291 0.0001537897273 -0.0006337520581)
(0.003648459051 0.0003882671775 0.0003614039253)
(0.009643110568 -0.0003408857604 -0.00049097267)
(0.008329338101 3.839261386e-06 -0.0004941369939)
(0.01000918376 0.0001463718535 -0.0003013125443)
(0.00902519153 0.001356128193 -0.0006400717819)
(0.008561918008 0.0001017967646 0.0004896391946)
(0.006053149559 -1.428310529e-05 -0.0006599601343)
(0.007422258496 -0.0009802946749 0.000315446157)
(0.00488360659 4.410050136e-05 0.0005153099551)
(0.01521621965 -0.0001031638253 0.0003970817518)
(0.01048410321 0.0003741782113 -0.0001747665495)
(0.007799936966 -0.0005983999104 -0.0006653949516)
(0.00430333751 0.0002653077057 0.0003082764281)
(0.007797977394 0.0006633353194 7.969344349e-05)
(0.00501767406 -0.0003553071418 3.808911506e-05)
(0.008156651687 -0.0002790490779 0.0004119159402)
(0.01475359236 -0.0006601895521 -0.0007799566606)
(0.009050371324 -8.522924946e-08 3.36204055e-06)
(0.006946056355 0.0001841352339 0.0006834265132)
(0.005154512511 -0.0006858360546 0.0002543138745)
(0.003058526156 2.446263573e-06 -0.0001384903648)
(0.009133041875 -0.0005990208803 0.0002978099142)
(0.009134617857 -0.0003809740482 0.00042400217)
(0.004802612107 -4.368670644e-05 -0.0002380977373)
(0.006148877407 0.0006537919931 -0.0001900324641)
(0.008695001094 0.0002325456173 -0.0003114328821)
(0.008626029998 -0.0001612633027 -0.0002220127634)
(0.01028514666 0.000807530875 -0.0005228845057)
(0.01487546212 0.0002277363274 -8.845711987e-06)
(0.007609193669 -0.0007887666613 -0.0005061672281)
(0.008937932496 -0.0004559077335 0.0009012326893)
(0.011364853 0.0009133820795 0.0002863269605)
(0.005933029012 0.0006194114817 7.268899581e-05)
(0.006029979309 -0.000724888299 -0.0001206312226)
(0.006112818626 -0.0007300244372 0.0004508902913)
(0.005698239397 0.0002159044466 -0.0001492492563)
(0.005391643334 3.087775718e-05 0.0002091982121)
(0.00807143085 0.0004072989597 0.0004209719181)
(0.01144877059 0.0005005921794 -0.0001377106272)
(0.006492610573 -0.0002454891088 -9.351636272e-05)
(0.006735203035 0.0001494207564 0.0003310167492)
(0.004095752917 -0.0003989665772 4.734741744e-05)
(0.006716439932 0.0004347918331 -0.0001954542801)
(0.009485324073 0.0002503725656 -0.0003773547387)
(0.00948018206 -0.0002305090395 7.390221192e-05)
(0.01055687726 -0.0001955063402 -0.000399458201)
(0.005700232421 0.0002899295117 -0.0001080208241)
(0.01112862196 0.0005518473029 -0.0001914939215)
(0.005894836414 1.303307675e-05 -0.0004941433369)
(0.005164402093 4.522353937e-07 0.0001770582665)
(0.01065827219 -0.0008608227839 4.951247267e-05)
(0.01127394133 0.0002038195715 0.0004199796835)
(0.009610154845 0.001005082638 0.0002928162072)
(0.01042090875 2.227002059e-05 0.00123762899)
(0.005055368197 -0.0002775892105 -3.920677568e-05)
(0.007674299573 0.0004298980899 1.616371652e-05)
(0.008815423593 0.0004448556684 0.0001375686728)
(0.0123115104 -0.001192268964 0.0003715445773)
(0.007239499775 6.344693623e-05 0.0001102757796)
(0.01105375095 -9.794533638e-05 0.0001406217406)
(0.01271597023 0.000608511728 -0.0001439223951)
(0.007776722516 -2.929843546e-05 0.0001050723344)
(0.005086809225 0.0002833299346 0.0003131390272)
(0.007641603111 0.0003900528466 -0.0006634194047)
(0.00712874513 -0.0006804028926 -8.872322536e-05)
(0.007862413006 0.0005493180563 -7.143112568e-05)
(0.01013911926 -0.0005923614522 8.927850046e-05)
(0.009645903829 -0.000391263167 -0.0002455853617)
(0.007325348421 0.0001442758985 0.0003130594196)
(0.005609738192 0.0003207136186 -0.0006214087712)
(0.009885175154 -0.00110009244 -0.0003429465495)
(0.008281243094 0.0004562561582 -0.0006210117925)
(0.007309286928 0.0004034238043 0.0002533966353)
(0.00808794011 -0.0006814348491 0.0004756902315)
(0.008361710152 0.0004454487125 -3.657988658e-05)
(0.008034814934 5.512324967e-05 0.000387846935)
(0.007709982038 -0.0003919951089 -9.678383026e-05)
(0.009591028643 -0.0005632733697 0.0007922394486)
(0.01075230439 -3.143112076e-05 -0.0002111122901)
(0.008015063788 -0.0001496302147 -0.0004259557845)
(0.006729509816 -7.870272726e-05 -0.001010902696)
(0.009989644562 0.0007763346433 -0.0008877832497)
(0.008718387544 0.0002243852165 -4.591774496e-05)
(0.007904300371 0.0009822203071 -0.0006836998062)
(0.006339945876 -0.0001129898074 -0.0008492623852)
(0.007564491755 -0.0001147457493 0.0005925863254)
(0.009630846139 0.0001642674078 0.0001393232937)
(0.01254483365 0.0007352561426 -0.0009899583898)
(0.007723116123 -8.935505066e-05 -7.133714394e-05)
(0.006232472134 -5.678121597e-05 1.003094952e-05)
(0.009004840624 -0.0001089008451 0.0006409660607)
(0.005904038486 -0.0002192423553 -0.0002146001948)
(0.01088327342 -0.0002686932493 -0.0001235315118)
(0.008389169086 -0.000609691713 0.0004561961973)
(0.006237755386 0.0005090946787 0.0001370652715)
(0.006934549671 0.0004048399006 0.000363421871)
(0.007120493652 -0.0001995435299 -0.0007212064074)
(0.005681620259 -4.95193577e-05 0.0001983750804)
(0.00839856997 -0.0001674376909 0.0003064808945)
(0.007855015555 5.835427256e-05 -4.80649546e-05)
(0.008039434683 -0.0002298422403 -0.0001178753699)
(0.007525973899 0.0003106714742 0.000867216256)
(0.009393610815 -6.131639861e-05 -3.259886281e-06)
(0.00671553823 -0.0002741147248 -0.0002286258067)
(0.006380295475 2.658765141e-05 0.0002478071479)
(0.003294138449 -0.0001441934423 0.000237661029)
(0.0139281533 0.0001793325402 -0.0004992456315)
(0.01506268541 0.0006693281004 -0.0005327429028)
(0.005410642155 0.0001987145423 -2.840834773e-06)
(0.01079644669 -4.239333549e-05 -0.0004655884837)
(0.0102224257 -5.573302525e-05 -3.421616296e-06)
(0.007946511998 0.0001852653364 -0.00137175511)
(0.00935210027 -0.0004179474409 -0.0002482697479)
(0.009506198011 -0.0002635383101 0.001012686365)
(0.005193289576 -0.000106795691 -5.389862712e-05)
(0.00904873906 0.0003772256335 -0.0003020663122)
(0.01283903113 0.0006429721555 7.042022646e-05)
(0.00321460971 -0.0004461130226 -0.000328080929)
(0.01516622404 0.001324759807 0.000668054432)
(0.006370897757 0.0002776710463 0.000746022582)
(0.008654114938 -7.754196229e-05 0.0005206624464)
(0.01620978911 0.0001436986388 0.0005074320352)
(0.01076907659 -0.0005557770332 7.376667635e-05)
(0.01216373299 -0.0001571497726 0.0004131217253)
(0.009612012809 -0.000368504775 -0.0007527633081)
(0.008850658091 -3.550894669e-05 0.0001389108308)
(0.003601824596 -0.0001532484423 -0.0002034719773)
(0.004574429249 -0.0001020562237 0.0004643454461)
(0.004434654932 -0.0004578105158 0.0001532666048)
(0.01334428744 6.76186218e-05 -0.0002240425299)
(0.01012450549 0.000736484852 0.0008994277519)
(0.01205759998 -0.0002411810565 0.0006926969961)
(0.006191623807 -0.000129245339 -0.0001913307675)
(0.006381233857 -0.0002216071323 -0.0005763031141)
(0.00621260793 0.000865551879 0.0003943526665)
(0.006342618104 -0.0002709826764 -0.0002660406281)
(0.006885982756 0.0001098250483 -0.0003015530308)
(0.008397071708 0.0004768185173 -0.001112232274)
(0.00876091061 0.0001338584803 0.0008569268745)
(0.008790855786 -0.0004566769563 -0.001007410855)
(0.007207383707 0.0001896816592 0.0002288985933)
(0.00550235488 0.0005267449648 0.000344465292)
(0.01063686327 -0.0008598505283 0.0001685939807)
(0.008008327883 0.0001760756582 -4.019151757e-06)
(0.006774891595 -0.0002734552886 -0.0001902650815)
(0.004769324552 6.76059017e-05 -0.0003822291144)
(0.01127910241 0.0001850310396 -0.000393632745)
(0.007544928529 0.0002104102564 0.0004153791496)
(0.01266168679 0.0006911635583 0.001086057708)
(0.007352548206 0.0003261513756 -8.608182998e-05)
(0.009608603806 -0.0001993160517 -0.0004319198083)
(0.005723007226 0.0003595432177 -6.187113834e-05)
(0.008954235421 -0.0002175309915 0.0001724736059)
(0.008494225342 0.0004218315392 -0.0002541382905)
(0.007787567283 1.459256023e-05 -3.836146123e-05)
(0.008179129454 0.0002050852671 0.0003654850356)
(0.01099629284 -0.0006224437391 -0.0004739630047)
(0.009825218005 0.0007222354306 0.0002099998804)
(0.005118455077 -0.0004463784073 0.0001107677089)
(0.007614850703 -0.0006087226542 3.623655088e-07)
(0.01242747092 -0.0004272262712 -0.0002011919019)
(0.005019591334 0.0001847844061 -0.0003393276504)
(0.009170844072 0.0009367459893 0.0009667193974)
(0.005450366164 -0.0003132642233 1.002495995e-05)
(0.004185785231 6.883494091e-06 0.0002172053136)
(0.01018267059 -3.855936273e-05 0.0003447220258)
(0.0122191756 -0.0002080132089 0.0004402805366)
(0.007911436907 7.867486511e-07 0.0003633163131)
(0.01178143564 -0.0001938301546 0.0008642672781)
(0.008842734162 0.0005913180239 -8.350580294e-05)
(0.008343652206 -0.0004557279418 0.0008885428063)
(0.004099296183 3.164006101e-05 -8.462942025e-05)
(0.01162289116 -7.919011063e-05 -0.0003500362528)
(0.009739206385 -0.0005990871086 -0.0001376899501)
(0.004623457619 -0.0001086586644 -0.0002430479046)
(0.009416731605 -0.0004449368457 0.000477114316)
(0.009289765418 1.145434435e-05 0.0001736868122)
(0.006333548032 -9.733703842e-06 0.0006148128211)
(0.009938980951 0.0007312485513 -0.0004701927798)
(0.00247335786 -0.0001286236733 -6.802366002e-05)
(0.007799967742 0.0005643767716 4.977409326e-06)
(0.01069763265 -0.0002733992216 -7.147101211e-05)
(0.0084379408 0.0003815160675 -0.0007784258253)
(0.007548609225 0.0006142631583 -1.322183999e-05)
(0.006909034763 -0.0001732648909 0.0001401795382)
(0.003984227895 -0.0001987271234 0.0002803422745)
(0.01044675179 0.0005798582539 0.0005464380816)
(0.006506001534 -0.0002010918174 -0.0004047717046)
(0.004975910475 -0.0001762591766 5.591202562e-05)
(0.009195869708 -0.0005006116882 -0.0007768542784)
(0.008789417698 -2.009371535e-05 -0.0008263762557)
(0.00431025461 -0.0003081764873 -0.0001430450333)
(0.006674276389 0.0001040308739 4.593184704e-05)
(0.008841590974 -0.0004290826075 -0.0003552412084)
(0.01068413072 0.0002627437786 0.001223868627)
(0.009636488023 0.0007587310062 -0.0002879642035)
(0.005445150463 -4.055810806e-05 -0.0002271853027)
(0.007095122461 0.0007529575486 -0.0005977780716)
(0.006150990237 -0.0001174377905 0.0003514674543)
(0.01021769521 0.0002180600283 -0.0006743234099)
(0.005016049534 3.468034156e-05 0.000537460799)
(0.008816053332 0.0007866358124 -0.0001231729526)
(0.004650423749 -4.603093299e-05 0.0005058389276)
(0.01170864612 0.0001420625634 -0.0002456850951)
(0.01080896355 0.0004526382524 0.0003911694327)
(0.006017394121 -0.0004746396487 -0.0001128046548)
(0.005711931 -0.0005082225137 -0.0004098241179)
(0.008730507128 -0.001068202854 -0.0001891131707)
(0.01317499731 -0.0001018551559 -0.0004872672686)
(0.01099098359 -0.0004569294286 -0.0006791306541)
(0.007979733853 7.82673402e-05 0.0001299684973)
(0.004837655295 5.053319493e-05 -0.0003526333814)
(0.009482832298 0.0002697443605 -0.0001103514479)
(0.008628917136 0.00043381507 0.0005841147629)
(0.005087385412 -3.03540664e-05 -0.0001453994976)
(0.008470921486 -0.00032061759 -0.0009465971574)
(0.01145002919 3.412472742e-05 -6.930101064e-05)
(0.009542975173 -0.0003114204651 -0.0004638806683)
(0.005644526042 -0.0004619037607 -0.0006874118055)
(0.005595457487 0.0001553524763 -0.0001004953489)
(0.01035899091 -0.0002099660993 -0.0005591015267)
(0.004684406554 0.0003611751985 3.653901482e-05)
(0.0105630888 -0.0009329074529 -0.0003417636709)
(0.01133463521 -0.000120215628 2.363487361e-05)
(0.007360920692 0.0008899352851 0.0002747800297)
(0.009271545723 0.0004224093339 0.0008089675112)
(0.01425343894 -0.0002650915703 -0.0001627016786)
(0.01025553948 0.0003190615361 0.0003160712085)
(0.00874116963 -8.499659e-05 0.0004937790165)
(0.00966094978 0.0006704238815 -0.0005304591683)
(0.01130969844 -1.599546813e-05 -0.0004616504064)
(0.007070570481 -0.0005357823304 -0.0002463293892)
(0.01169132954 0.0004806410132 0.000118641923)
(0.01139681636 0.0006251397209 0.0001835904224)
(0.001833951528 -0.000151535818 0.0001835451022)
(0.007373524841 -0.0001224658913 -0.0004154020571)
(0.007183003379 0.0005122595736 0.0001325965353)
(0.006390875303 -0.0003020495924 -0.0008376208003)
(0.007934026162 0.0003959299413 -0.0008123033965)
(0.00488289822 0.0001717869424 0.0003984561378)
(0.008561830766 -0.0002280932519 0.0006369931596)
(0.007773945978 -0.0007472257624 0.0009738752551)
(0.006855376459 0.0004635741986 -0.0003080605061)
(0.005348947969 0.0003118468519 -0.0002004181109)
(0.01054912422 -0.0002304374014 0.0002975403995)
(0.005772134404 -0.0005413718184 8.355509286e-05)
(0.007654695834 -0.0003977177904 0.000259548985)
(0.007982558585 -0.00134026241 -0.0001797327695)
(0.01582156883 0.0007654104768 8.434672663e-06)
(0.009391507076 0.0002094499545 0.0002528211147)
(0.01205930978 -0.0006916811336 -0.0004586389612)
(0.0107116472 -4.255609185e-05 0.0003062767848)
(0.007613520757 0.0008179188985 0.0001144181602)
(0.01083097888 0.0002960872465 0.0001649848544)
(0.00655440099 0.000385640999 0.0001363454803)
(0.00721646074 0.0002823569566 -0.0005559358011)
(0.01341477068 0.0002076658388 -5.742374499e-06)
(0.01209903927 0.001064723154 0.0004921370916)
(0.007934234616 -0.000288311363 0.0003196518257)
(0.01107879948 -6.892344184e-05 -0.0005135125679)
(0.01323538303 0.0007625675939 0.0001461028027)
(0.004355506205 0.0004096141566 -0.0003202959275)
(0.01085443819 0.0004390280322 -0.0005034130256)
(0.01373426415 0.0007333512323 0.0005703529225)
(0.004765200981 0.0001471736158 -0.000490047353)
(0.008911592895 -4.801133363e-05 -0.0003640453023)
(0.01317562746 -0.001224768335 -6.333028992e-05)
(0.007569145568 0.001078500451 0.0004819510224)
(0.007285780938 -0.0001718234402 0.0007574742284)
(0.008436393108 0.0008823247337 -0.0005352718988)
(0.009949322631 0.0001893360096 -0.000463792538)
(0.005483044671 0.0006920521077 -8.35544193e-05)
(0.008760847536 -9.845652138e-05 -8.107900834e-05)
(0.007508030131 0.0002706590669 0.0003662234882)
(0.0080861764 -2.841488628e-05 8.257635147e-05)
(0.01189335464 -0.0004597765096 0.001373847212)
(0.005982262585 2.189503469e-05 -0.0001323563019)
(0.005433199698 0.000194101622 -0.0006301507208)
(0.005865705239 0.0002885976469 0.0001635951302)
(0.00816295819 0.0001771698999 0.000330558449)
(0.004673184954 -0.0002993789029 -0.0001823064906)
(0.006693322295 0.0004605065743 0.0002519604793)
(0.01233957881 -0.0001524210444 0.0003488864109)
(0.009994569583 0.0003272076789 0.0003561333097)
(0.007644267141 0.0002304923741 0.0004330770076)
(0.008687812281 -0.0001446051898 0.0001206917622)
(0.0114201196 -0.0007777188476 0.0002761425511)
(0.008493116946 -0.0003048842973 0.0004434034458)
(0.003604975132 -0.000322172811 -0.0002067668926)
(0.002522363928 7.509106212e-05 4.457175522e-05)
(0.009348268288 -6.104367427e-05 -4.190010896e-05)
(0.006808725838 -0.0004697683678 -0.0002149440318)
(0.008272895862 0.0004888207561 -0.0004817872401)
(0.007500078375 -0.0005234719264 -0.0002333456148)
(0.005718542298 2.786383151e-05 -0.0004608109184)
(0.004057764383 -0.0004267845532 0.0002326516188)
(0.01029574862 -0.001046911801 -7.64011587e-05)
(0.005344623122 0.0002416087026 -0.0003940953704)
(0.005214926134 0.000481930808 -0.0005555056483)
(0.01250866117 -0.001363977359 1.985160612e-05)
(0.00793134046 -1.029624111e-05 -0.0008249859682)
(0.01405262519 0.0005653428433 -0.0007776340778)
(0.005103977374 0.0001608059174 -0.0003323202501)
(0.01176181737 -0.0001265456745 0.0001454146682)
(0.009383844693 0.001170427056 -0.0005333204082)
(0.01005348935 0.000277413152 -0.0008594555904)
(0.003546784908 -0.0002864720041 -0.0002139629541)
(0.01091086341 5.673143746e-05 0.0006206794605)
(0.006347264758 -0.0004134227179 0.0001984784048)
(0.00579990457 -6.952706388e-06 -0.0002351015582)
(0.00838774473 -0.000724933326 0.001154587909)
(0.007351396529 -3.138605163e-05 0.0002489139851)
(0.009084867361 0.0001592891649 8.301506853e-05)
(0.006725163255 0.0002003178174 -0.0003864849223)
(0.00797719652 0.0004850746654 0.0003895531845)
(0.007382531086 -5.462153669e-05 -0.0001676203528)
(0.009080184779 0.000733620203 -0.0001779060434)
(0.008135339667 -0.0001776576341 0.0005979526143)
(0.01396062429 0.0001360431301 0.0005315195487)
(0.007008956773 -0.0002676738333 -0.0001434096485)
(0.003657024647 -0.0003328195817 -0.0005670632075)
(0.0105997427 0.0001109194527 -0.0006306814244)
(0.01030238421 -0.000774608279 -2.33464032e-05)
(0.007567329848 5.578958473e-06 -0.0002695695445)
(0.006018652511 -0.0002826933279 3.548629719e-05)
(0.01455172612 -0.0002483937182 -0.0002815386253)
(0.00676977515 0.0002733052451 -0.0004022235819)
(0.005926392956 0.0002990422288 -0.0002072493615)
(0.01202617813 -0.000169918235 -0.0007576979454)
(0.003988194709 0.0001210867232 0.0003502425552)
(0.009960403116 0.0003364557331 -3.277032983e-05)
(0.00787736491 0.0004846013279 -0.0001160976315)
(0.006108698952 0.0008571351204 -0.0001294728446)
(0.009380096779 0.001458848304 0.0005158026339)
(0.006960252533 -0.0004207247743 0.0003875212284)
(0.01063239672 0.0008680296066 0.0005697242221)
(0.007415965056 0.0001365519125 -0.0008104774848)
(0.01230830658 -6.329987001e-05 -0.0005872816527)
(0.005621179306 -0.000322102175 -0.0001266404315)
(0.008861575867 -0.0002706697762 -2.317588007e-05)
(0.005543475371 -0.0005151478612 3.494008362e-05)
(0.009635950555 7.348068802e-05 -3.324275755e-05)
(0.01002748388 0.000179563928 -0.0003339055741)
(0.007257171994 -0.0002651646652 -0.0004364055712)
(0.01663907779 -0.0004850679876 -0.0005080853675)
(0.006223041752 0.000177649167 -0.0004229065788)
(0.01254419187 0.000549850428 0.0004383218923)
(0.004041181152 0.0001342915926 -3.681023207e-05)
(0.006543420924 0.0003034814541 -0.0008505053087)
(0.008191858921 7.44999214e-05 -0.0006754329998)
(0.00722108571 -4.063558646e-05 0.0002950959486)
(0.008199825092 9.120556592e-05 -0.0004571900873)
(0.007147207058 0.0005418418183 -0.0008849502182)
(0.007982462505 0.00016440355 0.0003517715854)
(0.004349408133 3.272234023e-05 0.0002193266994)
(0.00963146761 7.205791933e-05 -0.001343146791)
(0.006770988477 -0.000774647196 -0.0002929371434)
(0.004320911521 -6.696986956e-05 -0.0001572432184)
(0.009944672085 -0.0004153567267 -0.0001989289409)
(0.006777494038 -0.0001142511899 -0.0007881697989)
(0.005557559 0.0008847541175 -1.989022049e-05)
(0.006777177426 0.0001195411975 -0.0005143208011)
(0.009847221545 -0.0005294000632 0.0007723488914)
(0.01056618709 -0.0001335594326 0.000157895005)
(0.01380932805 0.001150285569 -0.0001391961959)
(0.006503830926 0.000596361917 -0.0001850043206)
(0.006189276518 -9.509497394e-05 9.488715323e-06)
(0.01448003669 -0.0009274116055 0.0008265676377)
(0.01171988215 -0.0008004415859 -0.0003479949155)
(0.003311326252 0.0001389230209 -0.00047459809)
(0.01110801241 1.509503665e-06 -0.0002392387552)
(0.005213205047 0.0002770618024 0.0002780656859)
(0.0119984451 3.1434492e-05 -0.0001199753453)
(0.00606768433 7.487844655e-05 0.0002173162637)
(0.007948833359 -0.0001586276005 0.0002523404053)
(0.00377657014 0.0007135734947 -9.6467553e-05)
(0.01307118332 0.0005757719014 0.0005392097779)
(0.006307922508 -0.000193636577 -0.0004291867094)
(0.008443559684 -0.0006076467372 0.0005553722752)
(0.006555478876 0.0003427518049 -0.0001453629759)
)
;

boundaryField
{
    flow
    {
        type            zeroGradient;
    }
    obstacle
    {
        type            calculated;
        value           nonuniform List<vector> 0();
    }
    frontAndBack
    {
        type            empty;
    }
    procBoundary2to0
    {
        type            processor;
        value           nonuniform List<vector> 
31
(
(0.00419192203 0.0003147817235 0.0001142477061)
(0.01147176258 0.0007940210192 -0.0004257713731)
(0.005151712992 0.0006159003832 -0.000374778872)
(0.01432555658 0.001136972749 -0.0003492374011)
(0.006164029544 0.0003526014115 -0.0003030387042)
(0.009620507853 0.0009104733122 -0.0006706139793)
(0.01026423124 -0.0001139829556 0.0005370888703)
(0.01162646717 -0.000476833788 -0.0007085750809)
(0.004564537367 -0.0001252933887 -0.0001376048539)
(0.007437707121 0.0003435835332 -0.0001057025107)
(0.009314991049 -0.000298145561 -3.738913204e-05)
(0.008032939006 -0.0004991710081 -1.339881232e-05)
(0.006884469041 6.244835721e-06 2.680431988e-05)
(0.01073830386 -0.0006336946222 0.000758005142)
(0.01322303766 0.0002460927531 0.0003848625517)
(0.00869926729 -0.0003689409249 -0.0004589657066)
(0.01019422004 0.0006094262327 -0.0007418329965)
(0.006820498422 0.0004259942461 -0.0004321669619)
(0.008309009089 0.0004231266345 0.0003055735826)
(0.01126715237 -1.811385675e-05 0.0003675401939)
(0.009251833261 0.0008355568371 -0.000123270078)
(0.007507003887 -0.0001047399493 0.000429583624)
(0.009031823231 -4.273473395e-07 -0.0004784118624)
(0.008181652315 0.0003217723328 0.0001277914285)
(0.009983364771 0.0005422201113 -0.0007364030768)
(0.007869831836 0.0004576836922 -6.685060712e-05)
(0.007244112808 -0.0006088850983 -0.0001671737339)
(0.01198915806 -0.0008100705879 -0.0002350990701)
(0.007355383161 -0.0002069197967 -0.0001757929756)
(0.006631167383 0.0004912597409 0.0002956371627)
(0.006631167383 0.0004912597409 0.0002956371627)
)
;
    }
    procBoundary2to3
    {
        type            processor;
        value           nonuniform List<vector> 
19
(
(0.005059421049 -0.0001619209499 -0.0001423297006)
(0.004550394574 0.0002100110619 0.0002942011236)