/*--------------------------------*- C++ -*----------------------------------*\
| =========                 |                                                 |
| \\      /  F ield         | OpenFOAM: The Open Source CFD Toolbox           |
|  \\    /   O peration     | Version:  2406                                  |
|   \\  /    A nd           | Website:  www.openfoam.com                      |
|    \\/     M anipulation  |                                                 |
\*---------------------------------------------------------------------------*/
FoamFile
{
    version     2.0;
    format      ascii;
    arch        "LSB;label=32;scalar=64";
    class       volVectorField;
    location    "0.01";
    object      momentumMean;
}
// * * * * * * * * * * * * * * * * * * * * * * * * * * * * * * * * * * * * * //

dimensions      [1 -2 -1 0 0 0 0];

internalField   nonuniform List<vector> 
546
(
(0.006344826925 7.797229712e-06 -1.911001206e-06)
(0.00833557093 1.439228971e-05 -3.861937668e-06)
(0.008378771561 1.446387271e-05 4.007626119e-06)
(0.008324788948 9.33350391e-06 1.616263589e-06)
(0.008323920866 -7.417639024e-06 -1.262003466e-06)
(0.008323838313 -1.237232241e-05 5.086779775e-06)
(0.008333993544 -1.222164392e-06 6.448197141e-06)
(0.008311186708 -4.227557088e-06 5.228189209e-06)
(0.008273052566 -9.298263355e-06 7.138098081e-06)
(0.008344959114 -1.462928306e-05 3.521063573e-07)
(0.008366718874 -1.24447678e-05 -1.352136612e-05)
(0.008406274127 -3.186530581e-06 -4.723084282e-06)
(0.008395951849 5.283574362e-06 -3.758601401e-06)
(0.008329523946 6.510664906e-06 4.72986881e-06)
(0.008322993906 7.394857823e-06 1.222398789e-05)
(0.008319258878 5.217321495e-06 -3.210160589e-06)
(0.00832853562 -1.342298283e-06 -1.070649355e-05)
(0.00833325794 -9.142775058e-06 -5.74497649e-06)
(0.008276557744 2.902516803e-06 -7.57411087e-06)
(0.008253586658 1.283561702e-05 -1.102888028e-05)
(0.006377555956 8.276868558e-07 1.349297545e-05)
(0.008374458619 -8.638946013e-07 1.669577589e-05)
(0.008371991636 6.031669929e-06 2.268825146e-05)
(0.008397758085 5.37190435e-06 1.155379357e-05)
(0.008397417231 1.219609966e-05 8.508197339e-06)
(0.008377756219 9.068307483e-06 -1.355943232e-06)
(0.008355995529 -1.514692221e-05 -2.968713222e-06)
(0.00837114577 -2.251019395e-05 -1.097693748e-05)
(0.008331434396 -1.832491276e-05 -1.227742257e-05)
(0.008306613146 -6.156693565e-06 -3.892958989e-06)
(0.008314334738 4.622608007e-06 -4.412203065e-06)
(0.008291491026 -1.281464282e-07 -7.041235679e-06)
(0.008305908168 3.133960033e-07 -1.560929484e-05)
(0.008305571175 6.216956957e-07 -1.656512549e-05)
(0.008326129968 7.196960308e-06 -1.455244271e-05)
(0.008296072773 1.008201789e-05 -3.719939438e-06)
(0.008304064557 1.296797125e-05 -5.604192947e-07)
(0.00833684116 2.037062612e-05 -2.301910926e-06)
(0.008365447676 6.544987423e-06 4.830442415e-06)
(0.008365577766 3.239199921e-06 6.755569025e-06)
(0.006327003493 8.021045384e-07 -1.377577864e-05)
(0.00829968949 -3.11402631e-06 -1.994328137e-05)
(0.008313039553 -1.435387044e-05 -9.082152122e-06)
(0.008286791987 -2.111103338e-05 -7.504035198e-06)
(0.008293119384 -1.59388011e-05 1.042691965e-07)
(0.008315864391 -1.356572274e-05 5.484806255e-06)
(0.008349430779 5.685254285e-06 -6.851342447e-07)
(0.008346909405 2.18110598e-05 3.417780306e-06)
(0.008340337589 2.106585068e-05 -8.820874658e-07)
(0.00835222074 1.188762334e-05 -5.368414141e-06)
(0.008332658719 1.037671652e-05 -8.241975475e-06)
(0.008330393001 1.162467542e-05 -4.985984217e-06)
(0.008285923223 6.502587478e-06 2.491197784e-06)
(0.008245184149 9.006556793e-06 3.581609636e-06)
(0.008280259888 4.78173417e-06 2.524640738e-06)
(0.008293976058 3.457380153e-06 -5.709916509e-06)
(0.008256090772 -2.782310167e-06 -5.788761857e-06)
(0.008268093672 -7.257244028e-06 -5.346783211e-06)
(0.00825780269 3.317680808e-07 -2.62638208e-06)
(0.008241490457 -1.01845024e-05 -1.432687693e-05)
(0.006358215077 3.032189545e-06 -2.306259008e-06)
(0.008364736558 -7.368972183e-07 -1.225462676e-07)
(0.008355195633 1.259998821e-06 -5.807204216e-06)
(0.008308933186 3.043168664e-06 -9.833893562e-07)
(0.008332176655 1.916844119e-08 -1.428705706e-06)
(0.00828564541 3.828946246e-06 5.069644369e-06)
(0.008288629796 -7.537394111e-06 4.045372488e-06)
(0.008302084961 -1.082937285e-05 1.613483017e-06)
(0.008345354694 -3.398912726e-06 3.546491074e-06)
(0.008280231279 4.16018144e-06 5.019645017e-06)
(0.008321372035 -7.053766723e-07 4.915179118e-06)
(0.008357082195 1.211715124e-06 1.038424823e-05)
(0.008424746373 1.209399148e-05 -1.634075425e-06)
(0.008405266935 1.336382925e-05 -5.567416621e-08)
(0.008380233002 1.637146879e-05 3.425553962e-06)
(0.008344460831 1.181711558e-05 4.349303018e-06)
(0.008339157463 1.388008618e-05 7.356713012e-06)
(0.008313033819 5.520373148e-06 7.145298171e-06)
(0.008375820038 -4.098466651e-06 1.659548546e-06)
(0.008375638635 -1.07711874e-05 6.905417857e-06)
(0.006365632202 -5.660471449e-06 -6.019333971e-06)
(0.008361309446 6.472615028e-06 -4.349618154e-06)
(0.008337102834 8.803628805e-06 -3.573143322e-06)
(0.008320956754 7.157477608e-07 -1.165040093e-05)
(0.008305242524 7.095066121e-06 -9.148478129e-06)
(0.008317251216 1.029834999e-05 -1.218303799e-05)
(0.008284653478 1.259150058e-05 -4.590130877e-06)
(0.008298916256 1.001099112e-05 1.050338589e-05)
(0.008249675157 -5.915204554e-06 9.447269536e-06)
(0.008234856721 -7.268189749e-07 9.817978071e-06)
(0.008231754308 1.22732237e-05 5.739781775e-06)
(0.008198454959 5.585134212e-06 9.606975025e-06)
(0.008206098578 2.423133159e-06 1.139698706e-05)
(0.008237221049 1.78525129e-06 3.539580794e-06)
(0.008309821955 -4.956927598e-06 -2.995613854e-06)
(0.008353472428 -4.725566224e-06 -4.296642683e-07)
(0.008394033794 -1.363240895e-05 2.157706292e-06)
(0.00838895581 -1.107190078e-05 1.299523561e-06)
(0.008339726875 -1.089142205e-05 2.707970658e-06)
(0.008321834618 1.1875838e-06 5.883146866e-06)
(0.00634895799 5.489736444e-06 1.382712606e-06)
(0.008349008575 7.231145718e-06 -1.105911501e-06)
(0.008333495137 8.757791161e-06 1.371222669e-07)
(0.008349801372 2.240961583e-05 9.336924915e-06)
(0.008376639969 1.531068466e-05 1.145435429e-05)
(0.008386519869 1.360449761e-05 1.472379227e-05)
(0.008349083591 9.500716778e-06 1.020204384e-05)
(0.008333638219 4.17256041e-06 -2.503389755e-06)
(0.008371212453 1.636498538e-05 2.525277964e-06)
(0.008386568784 4.203564225e-07 9.940853109e-07)
(0.008411182304 -1.261284337e-05 4.015182008e-06)
(0.008384493583 -1.677567556e-05 -2.070748735e-06)
(0.008375024455 -1.818439002e-05 -4.276714805e-06)
(0.008343084808 -1.796187196e-05 4.353752878e-06)
(0.008332610744 -1.26419536e-05 5.33930996e-06)
(0.008362209567 -1.387632416e-05 1.317399958e-06)
(0.008339262423 -7.386561515e-06 -1.777449769e-06)
(0.008303065212 -4.619998031e-07 -3.009134188e-06)
(0.008341065055 6.442677433e-06 3.471848267e-06)
(0.008379260139 2.282184272e-06 -2.805977016e-06)
(0.006346513404 8.237453015e-06 6.369270283e-06)
(0.008307357856 1.3392754e-05 7.398537614e-06)
(0.008322920874 4.35224416e-06 7.194275166e-06)
(0.008335786488 1.793049257e-06 -4.324486917e-08)
(0.008295704639 -7.215810234e-06 -3.895715797e-06)
(0.008298297834 -7.35527825e-06 -3.770538646e-06)
(0.008320100679 -2.662648935e-06 -2.483541953e-06)
(0.008375248853 6.701983066e-07 -3.246387363e-06)
(0.008350417887 3.436320507e-06 -5.136787953e-06)
(0.008366959292 -1.195529655e-06 -3.443099673e-06)
(0.008390212244 3.968118989e-06 3.026398254e-06)
(0.008404600147 8.833724338e-06 -1.583120721e-06)
(0.008428760456 3.144801454e-06 -7.076578701e-06)
(0.008393009804 7.189135787e-09 -7.193699156e-06)
(0.008373631147 -3.38111731e-06 -3.002835431e-06)
(0.008331435845 -6.653051955e-07 -5.948219685e-07)
(0.008347420327 -3.99105182e-06 5.064659181e-06)
(0.008329540709 -3.22723239e-06 4.016716595e-06)
(0.008339917513 -5.836332572e-06 4.154754932e-06)
(0.008329522524 -5.414675828e-06 -1.555004163e-06)
(0.006354038462 -4.13972265e-06 8.495756928e-06)
(0.008395308024 -8.876493494e-06 -8.942926286e-07)
(0.008407325126 -1.174917054e-05 1.919622131e-06)
(0.00839750875 -6.826116e-06 -2.829172613e-06)
(0.008407418975 -8.462477879e-06 7.307992046e-06)
(0.008393240515 -5.165790697e-06 -3.692030613e-06)
(0.008413278711 2.820556657e-06 -1.259746214e-05)
(0.008389374155 4.542912255e-06 -1.213226036e-05)
(0.00842067703 -6.150856858e-06 -1.573360273e-05)
(0.008383629287 5.715667615e-06 -1.149533099e-05)
(0.008368139491 1.164874793e-05 -1.276952205e-05)
(0.008319976123 2.945413227e-06 -1.795398739e-05)
(0.008308214943 -7.485935035e-07 -8.856555054e-06)
(0.008316934322 -2.243102861e-06 -1.466851753e-05)
(0.008333139108 2.18935585e-06 -8.894467509e-06)
(0.008373278056 -2.474949863e-06 -1.117879909e-05)
(0.008380059404 -8.782576991e-06 -1.283185061e-05)
(0.008406255322 -7.261142547e-06 -1.782910182e-05)
(0.008426445944 -1.06881728e-05 -1.635570527e-05)
(0.008416184095 -1.040038083e-05 -1.524514437e-05)
(0.006351909837 -8.25184589e-06 -5.513018566e-06)
(0.008346513038 -1.73811008e-05 -7.070957903e-06)
(0.008304350535 -2.75156645e-05 -3.781262226e-06)
(0.008313432264 -1.812814982e-05 -1.068253723e-05)
(0.008315829255 2.560039015e-06 -6.603787329e-06)
(0.008289581547 9.263607038e-06 5.014115258e-07)
(0.008280754392 3.917366117e-06 4.304462354e-06)
(0.008330776319 -7.214161818e-06 6.285042005e-06)
(0.008280335891 2.465266312e-08 1.010663417e-05)
(0.00835346669 -6.076769262e-06 1.611317119e-07)
(0.008373309652 -9.736796996e-06 3.917313314e-06)
(0.008396606425 -9.432821733e-06 1.145466911e-05)
(0.008393952591 -1.271049896e-07 1.574975803e-05)
(0.008398986588 5.641455475e-06 1.160641921e-05)
(0.008357339406 -1.586357505e-06 5.455690895e-06)
(0.00828840518 1.567888842e-06 -1.564786865e-06)
(0.008304568903 -5.453093365e-06 1.892515352e-06)
(0.008293961486 -3.528317546e-06 5.056446062e-07)
(0.008280379612 8.0468724e-07 -7.723630119e-08)
(0.008274375649 -3.078294686e-07 9.063646407e-07)
(0.006322932371 -7.641421664e-07 -5.611984989e-06)
(0.008282431274 4.418768314e-06 1.920323217e-07)
(0.008297338671 7.370713089e-06 -5.538511856e-07)
(0.008299454189 -7.347490971e-06 1.873053049e-06)
(0.008285864888 -1.47842705e-05 4.860385385e-06)
(0.008312687916 -1.588227206e-05 8.321745122e-06)
(0.008324695549 -8.339559912e-06 1.094076175e-05)
(0.008344580367 -3.332058869e-06 3.097946522e-06)
(0.008320219191 -3.815476311e-06 3.119258147e-06)
(0.008293173211 -1.091543122e-05 1.042247025e-06)
(0.008255966933 -1.261695298e-06 -2.142864959e-07)
(0.008270404074 1.029776661e-05 -6.161301799e-06)
(0.008307375605 6.389560251e-07 -1.273896295e-05)
(0.008323631975 3.880782297e-06 -1.103517994e-05)
(0.008343135756 1.85445468e-06 -3.650866278e-06)
(0.008351179836 7.800718486e-06 -4.160575437e-06)
(0.00832998605 1.477100182e-05 -7.505426898e-06)
(0.008270544282 1.931908406e-05 -1.063275627e-06)
(0.008264096668 1.508185924e-05 -1.89168729e-06)
(0.008235851935 1.040301636e-05 -5.100775223e-06)
(0.006387189975 3.13777088e-06 -2.18701321e-06)
(0.008379155286 -5.090000709e-07 -4.308048479e-06)
(0.008352282233 7.233718587e-06 2.636936559e-06)
(0.008331003874 1.695717053e-06 9.683875605e-06)
(0.00832169846 -2.78054054e-07 -4.600000241e-06)
(0.008284408619 -8.78035984e-06 -6.457794997e-06)
(0.008311311751 -8.892262211e-06 -5.88711643e-06)
(0.008256442352 -6.571973922e-06 -5.539539248e-06)
(0.00829330758 -1.565996537e-06 -4.71383707e-06)
(0.008327373384 3.448224234e-06 -2.170880275e-06)
(0.008333439152 -3.872392664e-06 -2.86377295e-06)
(0.008325422216 -5.275891716e-06 3.970916538e-06)
(0.008310867665 -8.647761454e-07 5.193322117e-06)
(0.008295420936 -1.001843734e-07 4.142380341e-06)
(0.008257416333 2.095078389e-06 -2.207508012e-06)
(0.008276212117 7.177965287e-06 9.97603432e-06)
(0.008291721653 1.429614708e-05 5.202794294e-06)
(0.008338726042 9.517034615e-06 1.946794579e-06)
(0.008391606875 1.350148621e-05 4.294282235e-06)
(0.008406769494 1.10712198e-05 6.032813671e-06)
(0.006327175369 1.520042255e-06 5.901267866e-06)
(0.00835967523 6.841864136e-06 4.893732666e-06)
(0.008347728934 -2.406221739e-07 -1.158876844e-05)
(0.008350787106 6.874016295e-06 -1.447062647e-05)
(0.008322451921 1.277860165e-06 -1.216518155e-05)
(0.008300271653 1.388011379e-06 -1.455607831e-05)
(0.008323762886 -3.194938373e-06 -1.430733015e-05)
(0.008287732261 -1.328937099e-05 -1.739686795e-05)
(0.008269267423 -1.007430633e-05 -1.006370195e-05)
(0.008260343744 -1.22568161e-07 -1.168706994e-05)
(0.008229031612 -1.372045448e-06 -1.795831015e-05)
(0.008274217113 3.74434923e-06 -1.803304816e-05)
(0.008266519 8.485978186e-06 -9.707219507e-06)
(0.008301652375 1.681073602e-06 -3.40548637e-06)
(0.008343850412 2.545064596e-06 -5.918371563e-06)
(0.008332140136 -7.128611671e-06 -7.816937468e-06)
(0.008360199911 -8.814412838e-06 -9.534481614e-06)
(0.008281801439 -6.688827269e-06 7.853220614e-07)
(0.008318833529 -6.560457259e-06 -3.839667349e-06)
(0.00831353946 1.367957767e-06 -1.220601313e-06)
(0.006373485272 3.245089586e-06 -1.88964186e-05)
(0.008370207119 -1.901689585e-06 -2.527406579e-05)
(0.008379699633 3.904987801e-06 -2.067010781e-05)
(0.008348084475 9.416098757e-06 -2.146770874e-05)
(0.008361350624 9.934377374e-06 -1.922128261e-05)
(0.008351570166 2.772225996e-06 -1.777228056e-05)
(0.008348725498 9.190385574e-06 -1.243519533e-05)
(0.008338969724 1.258673317e-05 -8.851681902e-06)
(0.008363239829 5.96301039e-06 -7.965150371e-06)
(0.008359674568 -1.456325346e-05 -3.71938167e-06)
(0.008344805267 -6.286657157e-06 9.610603913e-07)
(0.008379943522 -1.475050187e-05 4.189498412e-06)
(0.008379428711 -1.266898302e-05 -4.715176389e-06)
(0.008346837637 -3.897976305e-06 -6.646551773e-06)
(0.008331814296 -3.855489085e-06 -4.434424682e-06)
(0.008355111629 2.690646169e-06 -1.529437813e-06)
(0.008276793269 2.231102832e-06 -5.990952011e-06)
(0.008345614786 3.87189508e-06 -5.331828451e-06)
(0.008341394433 1.308624495e-05 -5.629501086e-06)
(0.008333049347 1.440782751e-05 -2.336981676e-06)
(0.006330730094 4.965857706e-06 -1.519481235e-05)
(0.008289423362 2.670996098e-06 -1.502900479e-05)
(0.008317480442 -1.360513744e-06 -1.078185172e-05)
(0.008314691872 -2.238120064e-06 -1.128445076e-05)
(0.008322959095 -6.754561016e-06 -6.646034554e-06)
(0.008330946636 9.153433307e-06 -4.474444348e-06)
(0.00833624814 7.768263979e-06 -2.703845762e-06)
(0.008368453304 1.158141691e-05 -7.851877936e-07)
(0.008363885181 1.619766005e-06 -8.66875125e-06)
(0.008362211904 7.595691047e-06 -7.61652157e-06)
(0.008307651804 1.165199729e-06 -1.671228487e-05)
(0.008259753069 1.629986828e-06 -1.630897617e-05)
(0.008221254894 -1.383759242e-06 -2.259279468e-05)
(0.008264675963 3.16944009e-06 -1.139152163e-05)
(0.008270922956 7.102403631e-06 -9.11563303e-06)
(0.008300718947 7.497755125e-06 -1.111058947e-05)
(0.008325468848 1.54343353e-06 -1.249646148e-05)
(0.008302356753 -7.349415221e-07 -1.47744735e-05)
(0.008311464234 -9.181847516e-06 -7.372981218e-06)
(0.008320982197 -4.047102793e-06 -1.33317088e-05)
(0.006366918792 -5.435232195e-06 -4.868395037e-06)
(0.008352729352 -2.240219421e-06 -3.25874654e-06)
(0.00831569296 -4.994273007e-06 -1.826532624e-06)
(0.008270205988 5.215311509e-08 6.806135017e-06)
(0.008314979959 3.371240147e-06 6.984259847e-06)
(0.00829985499 5.103541398e-06 4.908305774e-06)
(0.008288241491 -8.115305394e-06 5.438193794e-06)
(0.008317617001 -7.535983585e-06 4.756350358e-06)
(0.008295015278 5.062331778e-06 3.643313021e-06)
(0.008269641758 2.054866988e-05 7.162523315e-06)
(0.008252446533 2.182063391e-05 5.053815108e-06)
(0.008302808667 1.790890574e-05 2.176293974e-06)
(0.008339446695 1.324243772e-05 1.306460612e-05)
(0.008313172055 -7.285565539e-06 1.221337324e-05)
(0.008308729349 -1.459400999e-05 -4.525273085e-06)
(0.0082801376 -1.912733138e-05 -8.38277481e-06)
(0.008263871146 -1.692542369e-05 -4.059317776e-06)
(0.008272843091 -1.250900504e-05 -6.436661818e-06)
(0.008313037219 -1.44335901e-05 -1.629673591e-05)
(0.00832117884 -1.211700149e-05 -1.568854396e-05)
(0.006315003694 9.175007688e-06 -5.325218929e-06)
(0.008299123255 1.188572828e-05 -8.600480785e-06)
(0.008333946554 1.489733071e-05 -7.771114098e-06)
(0.008355383582 1.005224309e-05 -4.754384813e-06)
(0.008377372593 5.190085836e-06 -4.465934204e-06)
(0.00832459912 8.716046323e-06 -3.610065962e-06)
(0.008262611815 1.046349134e-05 -2.193711138e-06)
(0.008252361326 1.718740846e-05 -6.73915656e-07)
(0.008280180833 4.94927868e-06 -7.252592391e-06)
(0.008320165777 -8.184452198e-06 -8.699099635e-06)
(0.008348370153 -7.962296234e-06 -6.137180686e-06)
(0.008320865294 -3.203535668e-06 -1.896965579e-06)
(0.008305056354 -1.621117597e-07 -1.517824772e-05)
(0.00830653653 6.745734296e-06 -1.612190055e-05)
(0.008358751304 5.408881608e-06 -9.056107402e-06)
(0.008348593778 -3.51164264e-06 -2.66954623e-06)
(0.008347455613 -6.035738656e-06 4.637916575e-06)
(0.008298346995 -1.081392581e-05 -2.068699109e-06)
(0.008250540348 -9.003327164e-07 -4.060307988e-06)
(0.008268267977 -3.642952673e-06 1.894398712e-06)
(0.006375112562 8.286063826e-06 3.889190982e-07)
(0.008427481774 7.239137587e-06 -1.742477029e-06)
(0.008404686843 2.618902705e-06 -1.131051817e-05)
(0.008349874932 4.817973782e-06 -1.126289677e-05)
(0.008305215379 6.190776279e-06 -1.085056619e-05)
(0.008385212748 8.49073792e-06 -1.04622301e-05)
(0.008416810152 9.06528446e-06 -1.419788763e-05)
(0.008440802924 4.56904775e-06 -1.303291211e-05)
(0.008392008039 1.106564833e-05 -4.139413964e-06)
(0.008431956006 8.371564274e-06 -1.161654827e-07)
(0.008398981567 -1.671274414e-06 -2.16949584e-06)
(0.008361124277 -5.272789904e-06 -2.952949328e-06)
(0.008381414428 -3.388929371e-06 -5.767094454e-06)
(0.008328165628 4.395630614e-06 -5.307553577e-06)
(0.008332897342 4.231856198e-06 -8.346855689e-06)
(0.008306500125 1.784964635e-05 -9.515226487e-06)
(0.008336485038 2.970276314e-05 -1.497286691e-05)
(0.008301478994 1.632723649e-05 -1.306397373e-06)
(0.008339031293 6.48749187e-06 -2.852691232e-06)
(0.008320682573 6.227141053e-06 -7.577110721e-06)
(0.006238296609 1.766679837e-05 -3.356691667e-06)
(0.008159429711 2.134995302e-05 -2.000678488e-06)
(0.008190315139 3.039935162e-05 1.017194236e-05)
(0.008227149938 3.117799214e-05 3.976848619e-06)
(0.008228502117 3.214133712e-05 -2.862975476e-06)
(0.008242524543 3.122529233e-05 -4.720853178e-06)
(0.0082387805 2.608584105e-05 -3.76314482e-06)
(0.008236412856 2.64123953e-05 1.118303669e-06)
(0.008225827236 2.574368696e-05 -5.536780776e-06)
(0.00821420109 3.199972907e-05 -1.401056076e-05)
(0.008265981768 4.607377447e-05 -1.707085094e-05)
(0.008268782662 5.086197193e-05 -4.872102621e-06)
(0.008282495716 4.068718359e-05 1.389525278e-06)
(0.008279981874 3.122708061e-05 5.262266041e-06)
(0.008249639394 3.481875023e-05 3.019373272e-06)
(0.008254900042 3.632492698e-05 4.529787705e-06)
(0.008231162349 2.03962966e-05 3.848486854e-06)
(0.008259118581 3.127667838e-05 -2.886672039e-06)
(0.00830029289 3.045531874e-05 1.042977928e-06)
(0.008291576533 3.044682316e-05 7.387267048e-06)
(0.008373613337 3.130899597e-05 -1.590495994e-06)
(0.008378458982 2.399790764e-05 -5.319727337e-06)
(0.008401117402 2.423434369e-05 -8.818093822e-06)
(0.008377785006 1.814248081e-05 -1.13853858e-05)
(0.008392031716 2.821716514e-05 -1.001556004e-05)
(0.008425846696 5.041160491e-05 -8.933226236e-07)
(0.008272831679 1.040756063e-05 -1.128696452e-06)
(0.008304999454 1.447912854e-05 -3.882512828e-06)
(0.00833160794 9.136544982e-06 -7.554310105e-06)
(0.008278241091 1.089229379e-05 -9.282211057e-06)
(0.008320272713 -2.164532264e-06 -5.295170061e-06)
(0.008359755658 5.86406577e-07 3.945636973e-06)
(0.008398172411 6.30264964e-06 7.974202745e-06)
(0.008408989469 2.44931799e-05 9.720183163e-06)
(0.008361937616 2.685759924e-05 1.449483118e-06)
(0.008347256165 3.274696418e-05 -7.099303931e-07)
(0.008378658354 2.012332333e-06 3.319602626e-06)
(0.008401483157 -8.420748217e-07 5.883610118e-06)
(0.008424304232 1.007217006e-06 1.76056157e-05)
(0.008432864351 -8.641800894e-06 1.534337642e-05)
(0.008388167689 9.164463524e-08 8.438569004e-06)
(0.008361474809 1.318808774e-05 1.126607211e-05)
(0.008350111147 1.273161567e-05 8.234758954e-06)
(0.008349930315 2.070423081e-05 1.348278288e-05)
(0.008364392051 2.141796847e-05 1.260189763e-05)
(0.008397261384 3.105216119e-05 1.100740501e-05)
(0.008270474493 -8.310999661e-06 -1.310982848e-05)
(0.008239703781 -7.779619709e-06 -8.702555904e-06)
(0.008231651927 -6.640590701e-06 -8.645601895e-06)
(0.008229509095 -9.490854869e-06 -6.372012588e-06)
(0.008271513458 -1.723926258e-05 -4.291139513e-06)
(0.00825257411 -5.771431721e-06 -1.099513515e-05)
(0.008271811048 -2.369595105e-06 -1.023871276e-05)
(0.008299307166 -6.020642856e-07 -1.757973918e-05)
(0.008328857265 2.403035492e-06 -1.082060938e-05)
(0.008366699231 4.675315987e-06 -7.609430023e-06)
(0.008403340586 -1.498285246e-05 -3.007664927e-06)
(0.008414220277 -6.10398647e-06 -9.410464654e-07)
(0.008376603371 5.210914688e-06 -4.155339978e-06)
(0.008420531778 1.262199143e-05 -1.063972379e-05)
(0.008381005227 1.432689105e-05 -4.505962672e-06)
(0.008371790876 1.089025752e-05 -3.962865565e-06)
(0.008340008383 -3.556389288e-06 9.207108505e-06)
(0.008337749545 -1.037007753e-05 1.072637422e-05)
(0.008274945392 -6.153443817e-06 6.329729544e-06)
(0.008312966461 -1.073840916e-06 -6.581583271e-07)
(0.008327159425 2.36156012e-06 1.84012489e-05)
(0.008302626179 7.390613675e-06 1.594739436e-05)
(0.008312481883 1.28077512e-06 1.486119712e-05)
(0.008302381289 3.803610895e-06 1.411101642e-05)
(0.008332412457 3.319950488e-06 3.611486041e-06)
(0.008315630413 -9.619386843e-06 4.086339412e-06)
(0.008362848391 4.87361388e-06 1.686445995e-06)
(0.008422879707 4.702416567e-06 -1.544653972e-06)
(0.008384231931 1.823267931e-07 3.095184229e-06)
(0.008351760955 9.540668577e-06 6.427068802e-06)
(0.008364966238 2.598975382e-06 -7.748362546e-06)
(0.008365126415 2.1657729e-06 -7.736846047e-06)
(0.008369683845 1.952804111e-06 -1.290478565e-05)
(0.008374830415 -4.082294909e-06 -8.789997381e-06)
(0.008445788544 -8.268396329e-06 -3.810240166e-06)
(0.008454152636 3.611504468e-06 -2.644583979e-06)
(0.008400471302 4.16292101e-06 -5.895047317e-06)
(0.008380624175 4.64982693e-06 -1.071887926e-05)
(0.008425463469 1.333789739e-05 -1.284868274e-05)
(0.008418768605 1.057695654e-05 -1.741134737e-05)
(0.008326370583 -4.235888463e-06 2.208847323e-06)
(0.008327888455 -9.694575108e-06 -3.837125639e-06)
(0.008329230765 -2.086494355e-05 -3.973185998e-06)
(0.008349759439 -1.561740105e-05 -7.177766114e-06)
(0.008299550729 -8.484956724e-06 -1.690217157e-05)
(0.00829955223 -1.212058094e-05 -1.844565661e-05)
(0.008325223007 -3.981705319e-06 -1.385278027e-05)
(0.008335609318 1.731563779e-06 -1.415489085e-05)
(0.008275033817 1.827690021e-06 -1.26911963e-05)
(0.008259475318 2.418183163e-06 -7.462940874e-06)
(0.00843686441 -9.496428132e-07 -6.596375997e-06)
(0.008446864104 -1.85933681e-06 -1.134480543e-05)
(0.008384283932 4.439821403e-06 -2.864915477e-07)
(0.00829086476 3.883714016e-06 1.865545347e-06)
(0.008256682133 5.894396974e-06 9.389469307e-07)
(0.008251452541 1.31830976e-05 4.299157157e-06)
(0.008250999166 5.950511974e-06 -3.588871313e-06)
(0.008234712773 9.319232972e-06 -5.316478042e-06)
(0.008256082485 -2.247775202e-06 -1.184562677e-05)
(0.008257081179 -3.48579013e-06 -1.557349738e-05)
(0.008204091927 3.184486802e-06 -4.522899792e-06)
(0.008190637708 1.230825293e-05 -5.125201519e-06)
(0.008215279765 1.977526087e-05 -5.846460274e-06)
(0.008209786054 2.169670942e-05 -1.156400378e-06)
(0.00825265344 1.399077855e-05 -2.563427063e-06)
(0.00827039057 9.813998998e-06 -8.438595847e-06)
(0.008288641263 -3.072886961e-06 -3.432709354e-06)
(0.008221719307 -1.830702022e-06 5.601695329e-06)
(0.008247453699 -2.861583668e-06 8.581226141e-06)
(0.00826087999 -1.127878937e-07 5.619133553e-06)
(0.008258607663 9.727132937e-06 -7.591608611e-06)
(0.008312400952 9.454179868e-06 -2.559642666e-06)
(0.008322131711 8.110884902e-06 -1.528468073e-05)
(0.008361400159 3.575280889e-06 -9.200289301e-06)
(0.008343160077 1.565253552e-06 -1.116801952e-05)
(0.008343685046 -4.213540871e-06 -6.391392641e-06)
(0.00835445525 1.197564276e-05 -8.359089802e-06)
(0.008367170778 9.341804753e-06 -1.45065436e-05)
(0.00838059598 1.706107675e-05 -6.16824479e-06)
(0.008306049801 1.895567446e-05 5.397560868e-06)
(0.008388906643 8.940382616e-06 3.696659361e-06)
(0.008368671367 -7.475825248e-06 1.305446277e-07)
(0.008344316634 -8.751027357e-06 2.463278995e-06)
(0.008347067096 -3.251303594e-07 5.201371212e-06)
(0.008362618564 1.131974654e-05 6.270633168e-06)
(0.008341605388 1.609252673e-05 4.597024108e-06)
(0.008318667545 5.146790485e-06 4.311620436e-06)
(0.008311468057 1.601904419e-05 1.611972652e-05)
(0.008337881291 1.01395229e-05 8.729282704e-06)
(0.008359792899 1.878660477e-05 -4.934051822e-06)
(0.008335169839 5.322444888e-06 1.755881405e-06)
(0.008340383127 1.422757448e-05 3.574145341e-06)
(0.008324840566 1.827011859e-05 2.829634464e-06)
(0.00831113323 1.540484723e-05 6.12339375e-06)
(0.008289689865 9.037970344e-06 9.708916538e-06)
(0.00829045501 5.102489676e-06 4.471872676e-06)
(0.008312994614 2.141538767e-06 2.691759899e-06)
(0.008369715041 -1.444611672e-06 -3.674830772e-06)
(0.008385909009 -1.263914605e-06 -1.005103046e-05)
(0.008408597097 -9.484429889e-07 -1.760244885e-05)
(0.008290726222 8.418434006e-06 -9.08061203e-06)
(0.00831267095 4.760798273e-06 -1.220177886e-05)
(0.008342992575 7.588317451e-07 -1.464744982e-05)
(0.008347792262 2.705991002e-06 -2.202312831e-05)
(0.008341442209 -2.299970409e-06 -1.426246268e-05)
(0.008384217208 -3.506067067e-06 -1.610617748e-05)
(0.00834326351 2.157438738e-06 -1.783523496e-05)
(0.00834716251 -4.825707679e-06 -1.955265459e-05)
(0.008312121067 -5.832996889e-06 -1.694023776e-05)
(0.008311409889 -1.580364658e-05 -9.507514802e-06)
(0.008350524766 -8.490445302e-06 -5.938625814e-06)
(0.008368481404 -1.257146301e-06 -5.066345818e-06)
(0.008339487172 -1.287914153e-06 1.007123063e-06)
(0.008375887665 6.584382529e-06 -8.571458035e-07)
(0.00837873656 1.374685299e-05 -6.498583585e-07)
(0.008345522019 1.548289803e-05 -1.075599898e-06)
(0.008333319306 1.158311585e-05 3.70533691e-06)
(0.008340592831 1.03590087e-05 9.237367411e-06)
(0.008321918606 2.367039971e-05 1.198914861e-05)
(0.008258289624 2.154743235e-05 6.998592017e-06)
(0.008288249532 -8.269444286e-07 -9.371546694e-06)
(0.008299767595 2.377269725e-06 -1.221290389e-05)
(0.008281732915 5.754319135e-06 -8.093749001e-06)
(0.008285998418 9.667854023e-07 -4.764017468e-06)
(0.008303791087 1.350862109e-06 3.846651329e-06)
(0.008309758042 3.073013345e-06 5.382430738e-07)
(0.008267028078 1.752961079e-05 -9.029232591e-06)
(0.008289539452 2.323440841e-05 -1.126490782e-05)
(0.008322021056 1.6025157e-05 -1.128292285e-05)
(0.008370047199 7.536067819e-06 -8.390714184e-06)
(0.008249855915 -6.489624793e-06 -1.387269116e-05)
(0.008271934177 -7.735191853e-06 -8.886119247e-06)
(0.00828518819 -3.884626862e-06 -1.568024976e-05)
(0.008290226773 -3.813948382e-06 -1.32508132e-05)
(0.008313622032 1.665057563e-06 -1.886321189e-05)
(0.00826725716 5.798851156e-06 -6.321311501e-06)
(0.008314703154 4.259844506e-06 -2.378156875e-06)
(0.008283104245 -5.907016423e-06 -9.263095445e-06)
(0.008304932062 -8.282078941e-06 -8.399117104e-06)
(0.008329160624 8.425761925e-06 -4.179765912e-06)
(0.008285764824 2.883936183e-06 -4.800996774e-07)
(0.008278471641 -5.583249662e-07 -1.578290981e-06)
(0.008265218102 -1.000464361e-05 -5.203251182e-06)
(0.008250610936 -8.08613529e-06 6.390652273e-07)
(0.008280568382 -8.049186031e-06 -6.508363259e-06)
(0.008306010671 -1.144092642e-05 -1.679768539e-05)
(0.008337188852 -1.118180604e-05 -8.430044439e-06)
(0.008376751281 -1.487069846e-05 -5.659855141e-06)
(0.008384191986 -1.433118976e-05 -4.747135313e-06)
(0.008344105674 -1.188679116e-05 -5.26063907e-06)
(0.008311199218 2.80910215e-05 7.605641149e-06)
(0.008282486185 3.216950093e-05 -9.720717107e-07)
(0.008280842952 2.729615156e-05 8.435264999e-06)
(0.008346887966 2.345314879e-05 9.184373464e-06)
(0.008249060518 2.348185127e-05 3.261552728e-06)
(0.008244926942 2.177890355e-05 1.298981876e-05)
(0.008268431537 1.866440146e-05 1.756135511e-05)
(0.008190771487 1.911851553e-05 1.203802226e-05)
(0.008147171691 2.85330642e-05 1.339584636e-05)
(0.008210996669 2.503162975e-05 1.466404527e-05)
)
;

boundaryField
{
    flow
    {
        type            calculated;
        value           nonuniform List<vector> 
48
(
(0.006344826925 7.797229712e-06 -1.911001206e-06)
(0.006377555956 8.276868558e-07 1.349297545e-05)
(0.006327003493 8.021045384e-07 -1.377577864e-05)
(0.006358215077 3.032189545e-06 -2.306259008e-06)
(0.006365632202 -5.660471449e-06 -6.019333971e-06)
(0.00634895799 5.489736444e-06 1.382712606e-06)
(0.006346513404 8.237453015e-06 6.369270283e-06)
(0.006354038462 -4.13972265e-06 8.495756928e-06)
(0.006351909837 -8.25184589e-06 -5.513018566e-06)
(0.006322932371 -7.641421664e-07 -5.611984989e-06)
(0.006387189975 3.13777088e-06 -2.18701321e-06)
(0.006327175369 1.520042255e-06 5.901267866e-06)
(0.006373485272 3.245089586e-06 -1.88964186e-05)
(0.006330730094 4.965857706e-06 -1.519481235e-05)
(0.006366918792 -5.435232195e-06 -4.868395037e-06)
(0.006315003694 9.175007688e-06 -5.325218929e-06)
(0.006375112562 8.286063826e-06 3.889190982e-07)
(0.006238296609 1.766679837e-05 -3.356691667e-06)
(0.006238296609 1.766679837e-05 -3.356691667e-06)
(0.008159429711 2.134995302e-05 -2.000678488e-06)
(0.008190315139 3.039935162e-05 1.017194236e-05)
(0.008227149938 3.117799214e-05 3.976848619e-06)
(0.008228502117 3.214133712e-05 -2.862975476e-06)
(0.008242524543 3.122529233e-05 -4.720853178e-06)
(0.0082387805 2.608584105e-05 -3.76314482e-06)
(0.008236412856 2.64123953e-05 1.118303669e-06)
(0.008225827236 2.574368696e-05 -5.536780776e-06)
(0.00821420109 3.199972907e-05 -1.401056076e-05)
(0.008265981768 4.607377447e-05 -1.707085094e-05)
(0.008268782662 5.086197193e-05 -4.872102621e-06)
(0.008282495716 4.068718359e-05 1.389525278e-06)
(0.008279981874 3.122708061e-05 5.262266041e-06)
(0.008249639394 3.481875023e-05 3.019373272e-06)
(0.008254900042 3.632492698e-05 4.529787705e-06)
(0.008231162349 2.03962966e-05 3.848486854e-06)
(0.008259118581 3.127667838e-05 -2.886672039e-06)