/*--------------------------------*- C++ -*----------------------------------*\
| =========                 |                                                 |
| \\      /  F ield         | OpenFOAM: The Open Source CFD Toolbox           |
|  \\    /   O peration     | Version:  2406                                  |
|   \\  /    A nd           | Website:  www.openfoam.com                      |
|    \\/     M anipulation  |                                                 |
\*---------------------------------------------------------------------------*/
FoamFile
{
    version     2.0;
    format      ascii;
    arch        "LSB;label=32;scalar=64";
    class       volScalarField;
    location    "0.01";
    object      overallT;
}
// * * * * * * * * * * * * * * * * * * * * * * * * * * * * * * * * * * * * * //

dimensions      [1 2 -2 0 0 0 0];

internalField   nonuniform List<scalar> 
546
(
293.3645255
304.0246641
299.9989042
299.9659417
299.1579628
298.1034309
298.8207559
299.8836817
299.1813216
299.9728864
300.7297457
301.9086702
301.2395676
300.0394727
299.2714241
299.1372415
297.8340903
297.407087
297.9518222
299.3940538
294.3246701
303.7561913
299.7562795
300.6246779
300.3792671
300.5310285
300.308184
300.0562526
299.9779589
300.0839357
298.8182414
298.5351034
299.9031316
300.5189972
300.9831353
299.9541692
300.6075629
301.3325253
300.3048818
300.2356082
293.6932276
303.1677685
298.8163259
299.2796673
301.5767828
302.6739679
301.876821
301.8730306
300.8146426
300.2891922
299.9066964
300.5727706
299.5665996
299.0075348
299.373605
300.1023179
300.3490148
299.510504
300.3432517
299.9592811
296.1054868
305.0592004
300.9429261
300.0502337
298.5277762
297.9291137
298.9214802
298.401798
299.4352819
298.5832583
298.8523937
299.5727199
300.2485632
300.6164761
300.192714
299.5029744
299.4074164
300.2532335
301.8443028
299.9125754
294.0661503
303.6104293
300.4150145
301.3266991
300.5019588
301.0248113
299.9437986
299.238157
300.2322553
299.8873587
299.5829338
298.229364
298.0175869
298.8958209
298.8342242
300.7116065
300.7262077
300.6650669
299.4481623
300.1156238
295.3175018
305.0619929
299.1893611
299.1470088
299.4805433
298.8582304
299.2130411
299.8813084
299.6104474
300.5617538
300.8970899
300.3316365
301.031124
301.31437
301.4029457
301.6668457
302.0419796
301.8865689
302.4685439
303.1832715
292.4557851
302.0849421
298.6896305
300.1086368
300.9616521
300.6886847
301.7219003
302.0597256
301.2234992
300.3063224
300.8995237
300.1360312
300.2924651
299.3825654
299.2600269
298.978507
298.4376043
299.3833439
300.2989191
300.1027423
294.1835731
304.3921647
300.0949472
300.1078111
300.4810588
299.8507388
300.4361655
299.6143708
299.8745611
300.5125936
300.0573159
299.2044117
299.7915567
299.5979713
299.5543132
300.1863167
300.5630204
299.7244975
299.9497172
300.3919765
295.0031497
304.07243
300.4073598
300.399317
299.7045336
299.9404719
299.2875392
300.1161313
300.229397
301.3179111
300.7291581
302.6180965
302.34256
302.0792075
301.6708498
301.1901229
301.1588539
300.7879755
300.8472076
301.5370527
293.8891652
304.4976108
299.717193
298.3164467
297.8286298
297.5943648
298.1182919
299.8973347
300.7763045
300.4074044
300.3246765
300.4130944
299.7591695
300.5712695
301.4137788
300.3259739
300.4999303
301.0893105
298.9550995
297.719615
294.0554513
303.4447576
298.6763857
300.3850286
300.2324535
301.1318107
299.8180514
298.0029661
298.9234268
298.8401137
298.6213464
298.6686956
298.8273794
298.9688766
297.4353547
298.051333
299.2103112
298.5695175
300.1629425
301.029554
294.6286045
304.1075194
299.0234841
300.5924785
299.822864
299.703395
298.5080443
298.7833706
297.9997603
298.261098
297.906138
298.1548814
298.7563543
299.8797615
299.7669796
299.8010638
300.1676235
300.7959546
300.8434726
300.3435336
294.9898046
304.2757616
300.0359199
300.7972298
301.2017081
301.0575533
301.3326614
300.1536712
299.4430402
298.7052378
300.2855955
301.1823626
301.4588416
300.8507334
300.4561923
302.0327696
301.0639571
301.0781429
301.1149487
301.6960769
293.7160089
304.139053
301.4743848
301.2413882
301.3496814
300.9020892
301.4239128
303.1083554
303.7014138
303.9163894
300.5208725
300.0693316
299.1922511
299.582082
300.6335887
299.519035
299.0088488
299.1548651
298.9489499
298.936299
296.7908952
306.0193323
300.6396823
300.6048745
301.4170633
302.5872977
303.6774393
303.7335873
302.8703449
303.8070815
303.1415193
302.7782219
302.5711676
301.7793089
300.4042878
299.8515312
301.5601957
302.1308757
301.6758111
300.3252619
293.1904677
302.2595785
298.44152
300.8785787
300.8864357
300.2479685
300.3643568
298.6469119
297.95479
299.0649135
299.9956652
300.1032576
299.9878475
300.7346029
300.2458791
299.4981493
299.3601864
298.1658146
297.8853994
299.8396214
293.7027726
303.6293006
300.697414
299.124497
298.554365
298.5187836
298.8831436
299.2535158
299.7764081
300.2484191
300.1548224
300.386883
300.8170724
300.6983706
300.7000629
300.6548062
299.9659283
299.6339568
299.768823
297.914735
294.8059499
302.2172232
298.9934643
298.6739589
297.7080726
298.0674442
298.6719302
298.9860327
298.8533296
298.32801
297.9615215
296.5343859
297.8685277
296.4538955
296.5737253
295.7384456
296.9309462
297.8926366
296.6803085
297.4257298
306.2169601
307.1916398
306.5104892
306.3712713
310.5402793
313.6152111
299.9068542
301.8376308
301.8598674
302.5941295
302.9696465
303.365373
303.9198351
307.0639833
306.056253
308.6237759
299.4457565
299.9431771
299.8746673
300.7602901
302.589835
304.1592207
304.0183397
304.8397443
306.2956232
308.7772688
302.1512816
302.6654323
302.1794307
301.9055067
300.2340461
300.4709502
301.3675468
303.0103488
304.1471265
305.2341936
298.1119599
299.4915888
299.9935072
300.3881599
299.554221
301.1647566
301.5994454
300.1051078
301.512011
302.3735188
300.4819648
299.9496022
300.425949
300.734128
300.9202529
301.4575886
303.3209683
304.308041
304.2135858
303.8053043
302.3350553
302.0626735
301.0242844
301.6414358
302.7486272
300.548884
300.5071128
299.2558662
300.5395155
300.3701567
301.2093557
301.1993836
302.3350781
300.0461204
300.8667051
301.2080324
300.1126648
301.86905
302.5797511
302.6015839
299.7721622
301.330994
300.2660826
300.4233717
301.7998729
300.6127166
301.7030937
301.7364179
301.3413261
300.9733801
300.6813319
301.0097415
301.8711252
300.1438049
300.6297973
300.4151481
299.5619493
300.0792265
301.4918572
301.0787817
298.540913
299.3387583
300.3106836
301.778861
300.045842
301.5628856
302.0215233
302.2055248
301.9717885
301.3974092
301.4283046
300.9384839
300.4283277
300.9172642
301.0111863
300.1916034
300.1269039
300.1327312
299.4804542
300.5209533
300.0293871
300.0985945
299.436793
300.664871
301.0293765
300.6734435
300.7274272
300.5983498
300.9886374
302.3752859
301.5395652
301.1910446
302.4177521
300.5537521
300.417629
300.6087421
301.9268962
302.0861089
301.0629824
299.7465139
299.0792523
299.5334639
298.81199
300.3994393
301.2005275
299.3996717
299.2458569
299.8563834
299.4326918
300.1166138
299.5666978
299.9781966
300.4736271
299.0762789
299.2194929
299.8112393
299.4181625
298.9126576
299.5972668
300.6659261
299.6359586
299.1075341
298.5359538
299.5538226
299.9770007
298.9996598
300.438656
300.9675482
300.4048628
300.5609688
298.4975677
299.6121384
298.1467285
298.4992002
298.4472161
299.0674853
299.8250835
300.6621523
301.0877112
300.3700086
298.5815216
297.5165174
297.8348264
298.183867
298.6175925
297.5328855
297.8813737
296.6214133
297.3542609
298.0314906
)
;

boundaryField
{
    flow
    {
        type            calculated;
        value           nonuniform List<scalar> 
48
(
293.3645255
294.3246701
293.6932276
296.1054868
294.0661503
295.3175018
292.4557851
294.1835731
295.0031497
293.8891652
294.0554513
294.6286045
294.9898046
293.7160089
296.7908952
293.1904677
293.7027726
294.8059499
294.8059499
302.2172232
298.9934643
298.6739589
297.7080726
298.0674442
298.6719302
298.9860327
298.8533296
298.32801
297.9615215
296.5343859
297.8685277
296.4538955
296.5737253
295.7384456
296.9309462
297.8926366
296.6803085
297.4257298
298.5815216
297.5165174
297.8348264
298.183867
298.6175925
297.5328855
297.8813737
296.6214133
297.3542609
298.0314906
)
;
    }
    obstacle
    {
        type            calculated;
        value           nonuniform List<scalar> 0();
    }
    frontAndBack
    {
        type            empty;
    }
    procBoundary2to0
    {
        type            processor;
        value           nonuniform List<scalar> 
31
(
294.0197603
303.9213008
299.4331796
300.5683896
300.2166278
300.2166236
300.2548112
301.5385879
301.5721785
300.816533
301.0321264
300.5989959
301.1643478
301.8992163
302.3127235
301.0500529
300.3404268
301.6472975
301.3652471
301.0585773
305.5885636
307.6043902
310.3253214
314.5563093
318.7235328
322.2729145
299.5602507
300.0023735
301.8125357
303.6259328
303.6259328
)
;
    }
    procBoundary2to3
    {
        type            processor;
        value           nonuniform List<scalar> 
19
(
317.9705864
313.5838712
311.7858394
308.1601604
305.4847776
304.7933428
301.9124405
303.6785773
301.3894386
301.0136783
301.5118095
302.3664353
301.6297192
300.256529
300.5255704
300.9218798
300.9258807
300.5239661
298.8735747
)
;
    }
}


// ************************************************************************* //
