/*--------------------------------*- C++ -*----------------------------------*\
| =========                 |                                                 |
| \\      /  F ield         | OpenFOAM: The Open Source CFD Toolbox           |
|  \\    /   O peration     | Version:  2406                                  |
|   \\  /    A nd           | Website:  www.openfoam.com                      |
|    \\/     M anipulation  |                                                 |
\*---------------------------------------------------------------------------*/
FoamFile
{
    version     2.0;
    format      ascii;
    arch        "LSB;label=32;scalar=64";
    class       volScalarField;
    location    "0.01";
    object      p;
}
// * * * * * * * * * * * * * * * * * * * * * * * * * * * * * * * * * * * * * //

dimensions      [1 -1 -2 0 0 0 0];

internalField   nonuniform List<scalar> 
546
(
0.3077909109
0.4187451313
0.4143679619
0.4143581829
0.4134972836
0.412308553
0.4146612278
0.415728192
0.4117592286
0.4165322127
0.4195471633
0.4217774087
0.4185569555
0.414142018
0.4113176959
0.4124040802
0.4116900347
0.4109335176
0.4093252546
0.4104447926
0.3093806636
0.4197183263
0.4125418249
0.416031713
0.417453425
0.4177590675
0.4156631549
0.41623635
0.4146433273
0.4140086672
0.4117814058
0.4121997443
0.4140022095
0.41474588
0.4161184958
0.4114232921
0.4117324599
0.4148314677
0.4153864996
0.4142722863
0.3098676441
0.419323591
0.4111210026
0.411485821
0.4129492933
0.4149835451
0.4152699114
0.4152919521
0.4129322355
0.4141842064
0.4131652816
0.4154548536
0.4123401716
0.4082856241
0.4114650497
0.4126168996
0.4109116632
0.408940014
0.4074418472
0.4066015927
0.313402091
0.424660111
0.4164734668
0.4125216203
0.4110930517
0.4088478513
0.4088260298
0.4083562832
0.4127041943
0.4084923176
0.4102619791
0.4119670774
0.4160287204
0.4153878322
0.4151782487
0.4142188329
0.4135445898
0.4152716951
0.4222862835
0.4184892544
0.3097809882
0.4209606318
0.413182097
0.4142098318
0.4120597732
0.4136337218
0.4119948821
0.4123242862
0.4108045656
0.4080512264
0.40724644
0.4033131489
0.4049570269
0.4080267643
0.4119573602
0.4171689853
0.4203599823
0.4196750006
0.4159080902
0.4158914353
0.3110891055
0.4232807756
0.4122069359
0.4122624319
0.4147776351
0.4133916151
0.4107797394
0.4111029821
0.4120463955
0.4153692227
0.4188909181
0.4158061373
0.4182031968
0.4164099064
0.4178128537
0.4207183737
0.4204984298
0.4162517186
0.4192890338
0.4222373774
0.3091047604
0.4167400886
0.4118397414
0.4143940209
0.4130958845
0.4134599236
0.4153179589
0.4192111486
0.4172514585
0.4168248386
0.4165667351
0.4175770007
0.4191861106
0.4146501683
0.4144236093
0.4115003722
0.4124410905
0.4141555804
0.4157522932
0.4139765189
0.3092971752
0.4232757714
0.4172766841
0.4167141519
0.4174758886
0.4153701919
0.4186550777
0.4174462236
0.4188146761
0.4194184393
0.4179803071
0.4140387685
0.4125907495
0.4127835311
0.413101401
0.4162889854
0.4162319468
0.4167375975
0.4190530273
0.4195288516
0.3117017166
0.420261823
0.4107122537
0.4116568098
0.4111198667
0.4112951939
0.4096786817
0.4131382353
0.4117301623
0.4157257087
0.4170387827
0.420663793
0.4207857994
0.4209581295
0.4183195831
0.4140545564
0.415359534
0.4143156159
0.412081209
0.4135898013
0.3082201204
0.4199848366
0.4132097327
0.4105921666
0.4100331204
0.410817046
0.4110471235
0.4149865009
0.4155882978
0.413390269
0.4108025467
0.4127514481
0.4125458135
0.4163427228
0.4193805184
0.4178024634
0.4168639532
0.4141855067
0.4108832516
0.4068163118
0.3142110334
0.4238180044
0.4123202161
0.4129001804
0.4124679471
0.4135789243
0.4128436425
0.4074438828
0.4099442779
0.4128198984
0.4126167781
0.4126596956
0.4141043411
0.4116754452
0.4067962226
0.4091656644
0.4116640656
0.4122251413
0.4162565681
0.4176619767
0.3075133803
0.4204268716
0.4118039955
0.4163140185
0.4129879366
0.410285636
0.4113088141
0.4088430959
0.4076847835
0.408393916
0.4071260035
0.408405558
0.4086633162
0.4137629507
0.4161025913
0.414445922
0.4164475793
0.4134238244
0.4159402903
0.4156424242
0.3113789954
0.4214249387
0.4139292262
0.4130313772
0.4147041228
0.4139132168
0.4150957868
0.4139400088
0.4139863512
0.4115823489
0.4136745375
0.4181112323
0.4189845133
0.4148484357
0.4135617189
0.4174024706
0.4108358779
0.4144718032
0.4144709488
0.4166855567
0.3067530588
0.4161812067
0.4120005447
0.4137960065
0.4139667353
0.4138076336
0.4153814607
0.4197535355
0.4205926396
0.4209129661
0.4135034823
0.4096332384
0.4057323415
0.4103492861
0.4124405042
0.4121043989
0.4139719124
0.4104578751
0.4100534238
0.4103566063
0.3150137709
0.4258092647
0.4136490835
0.4100865639
0.4147507693
0.4158437703
0.415723876
0.4191193121
0.4169238166
0.4169993751
0.4134166401
0.4161502752
0.4172632455
0.4135662013
0.41157425
0.4100802288
0.410788976
0.413268725
0.4145927889
0.411556479
0.3091661936
0.4180921264
0.4131506766
0.4189320686
0.4195760864
0.4141367563
0.4110304225
0.4060943362
0.4052845341
0.4103133714
0.4132467932
0.4137720496
0.4119328047
0.4143884531
0.4165111841
0.4128575763
0.4125800429
0.4079684517
0.4071244159
0.4108836579
0.3121368255
0.424269295
0.4161780099
0.4114389926
0.4070472387
0.4115877809
0.4154077055
0.4168300729
0.4163574446
0.4193683185
0.4172587031
0.415985543
0.4178226057
0.4144414563
0.4144281727
0.4135898507
0.4133440738
0.4114810557
0.4137698328
0.4093296302
0.3045474679
0.4086363025
0.404303125
0.4040960795
0.4010347878
0.4037743344
0.4052147552
0.4065579701
0.40636213
0.4065142052
0.4096342255
0.4062945543
0.4091774846
0.4072088349
0.4059140982
0.4059020034
0.4058707692
0.4098494863
0.4095702871
0.408136833
0.4285113314
0.4301003446
0.4283118162
0.4276155122
0.4375128768
0.4489388744
0.4139890223
0.4181244879
0.4175294014
0.4159510697
0.4198463284
0.4220358649
0.4266765202
0.4347826813
0.4296334467
0.4333559486
0.4147070349
0.4148802256
0.4174927948
0.4215015016
0.4220456581
0.4237763472
0.4221612298
0.4238025577
0.4271961277
0.4332878535
0.4116321714
0.4133919644
0.4143754268
0.4137633762
0.4130580859
0.4133671572
0.4164538702
0.4201476189
0.4252127939
0.4295673898
0.4177033873
0.420615576
0.4183585219
0.4213101595
0.4185556873
0.4209261429
0.4198085961
0.4179001822
0.4190496127
0.422179076
0.4167431523
0.4148202748
0.4154526141
0.4157010091
0.4168869593
0.4167318134
0.4236919554
0.4274090194
0.4262635976
0.4245184527
0.4196030252
0.4182151104
0.4166979595
0.420056525
0.4280202959
0.4240426929
0.4201281889
0.4175157498
0.4207154844
0.4200429752
0.4161650212
0.4161879315
0.4188006956
0.4147421129
0.4140472818
0.41283779
0.4145225188
0.4192127461
0.4163214565
0.4157194807
0.4194260157
0.4228125895
0.4159169211
0.4114141998
0.4112106216
0.4112401991
0.4107798754
0.4109660885
0.412959118
0.4134878798
0.4087401653
0.409313456
0.4117981557
0.4075415491
0.412203152
0.4119275119
0.412131384
0.4098681514
0.4126438443
0.4109254983
0.4089569816
0.4130511892
0.4157207326
0.4193031404
0.4150522508
0.4169154099
0.418200513
0.4181401433
0.4192827379
0.4151737317
0.4164398679
0.4155649902
0.4133704421
0.4147952211
0.4157085248
0.4140610784
0.4130849443
0.4145140338
0.4147367922
0.4181907969
0.4164073431
0.4144675161
0.4133340701
0.4141418812
0.413626436
0.4121474515
0.4130915024
0.4151395025
0.4162095877
0.4189850675
0.4154287248
0.4171642701
0.4230332479
0.4199667685
0.4159860554
0.4190658623
0.4169455122
0.4164173218
0.4121449045
0.4101219624
0.41206333
0.4126416697
0.4089079398
0.4148667675
0.4177575563
0.4121534096
0.4110864932
0.4147385545
0.4111957508
0.4082773484
0.4097397135
0.4103611848
0.4106932221
0.4075964179
0.409919215
0.4129360849
0.4109475943
0.4088605798
0.4132504402
0.4180444425
0.40907162
0.4094147978
0.4090215375
0.4115401998
0.4123884441
0.4080260332
0.4133992839
0.4136677895
0.4146227001
0.4163172497
0.4082674077
0.4111578927
0.4089784708
0.4080175955
0.4102323156
0.4121803227
0.4149518092
0.4166145476
0.4193410504
0.4158591375
0.4109229735
0.4061381428
0.4061392294
0.4101842606
0.4065015829
0.4049961685
0.4058410701
0.4014004212
0.3984574573
0.4036107903
)
;

boundaryField
{
    flow
    {
        type            calculated;
        value           nonuniform List<scalar> 
48
(
0.3077909109
0.3093806636
0.3098676441
0.313402091
0.3097809882
0.3110891055
0.3091047604
0.3092971752
0.3117017166
0.3082201204
0.3142110334
0.3075133803
0.3113789954
0.3067530588
0.3150137709
0.3091661936
0.3121368255
0.3045474679
0.3045474679
0.4086363025
0.404303125
0.4040960795
0.4010347878
0.4037743344
0.4052147552
0.4065579701
0.40636213
0.4065142052
0.4096342255
0.4062945543
0.4091774846
0.4072088349
0.4059140982
0.4059020034
0.4058707692
0.4098494863
0.4095702871
0.408136833
0.4109229735
0.4061381428
0.4061392294
0.4101842606
0.4065015829
0.4049961685
0.4058410701
0.4014004212
0.3984574573
0.4036107903
)
;
    }
    obstacle
    {
        type            calculated;
        value           nonuniform List<scalar> 0();
    }
    frontAndBack
    {
        type            empty;
    }
    procBoundary2to0
    {
        type            processor;
        value           nonuniform List<scalar> 
31
(
0.3098439536
0.4210635886
0.412354304
0.4110326194
0.4106801267
0.4092061058
0.4121633841
0.416178743
0.4197214706
0.4171283811
0.414863068
0.4133308982
0.4172013862
0.4180646297
0.4176361333
0.4150640232
0.4128394974
0.4157672308
0.4173823523
0.4179012274
0.4251218391
0.430699396
0.4337488054
0.4453270457
0.4592906672
0.4666237349
0.4129211074
0.4137783804
0.4183690828
0.4232240312
0.4232240312
)
;
    }
    procBoundary2to3
    {
        type            processor;
        value           nonuniform List<scalar> 
19
(
0.4604847722
0.4455516924
0.439807151
0.437676511
0.4279760522
0.4264488223
0.4262266934
0.4152137766
0.4159790422
0.4090149184
0.416273046
0.4193522684
0.4195093637
0.4117149972
0.4112356217
0.4176022484
0.4210714916
0.4150968622
0.4022090499
)
;
    }
}


// ************************************************************************* //
