/*--------------------------------*- C++ -*----------------------------------*\
| =========                 |                                                 |
| \\      /  F ield         | OpenFOAM: The Open Source CFD Toolbox           |
|  \\    /   O peration     | Version:  2406                                  |
|   \\  /    A nd           | Website:  www.openfoam.com                      |
|    \\/     M anipulation  |                                                 |
\*---------------------------------------------------------------------------*/
FoamFile
{
    version     2.0;
    format      ascii;
    arch        "LSB;label=32;scalar=64";
    class       volScalarField;
    location    "0.01";
    object      rhoM;
}
// * * * * * * * * * * * * * * * * * * * * * * * * * * * * * * * * * * * * * //

dimensions      [1 -3 0 0 0 0 0];

internalField   nonuniform List<scalar> 
546
(
4.496139531e-06
3.043386799e-06
5.53358202e-06
3.458697042e-06
5.948892263e-06
3.458697042e-06
2.905505464e-06
3.458697042e-06
9.753958881e-06
6.01783293e-06
5.395700685e-06
5.049331109e-06
4.980390442e-06
5.879951596e-06
4.01188862e-06
6.433143174e-06
5.53358202e-06
4.080829287e-06
3.874007286e-06
6.086773598e-06
4.427198864e-06
4.980390442e-06
4.496139531e-06
4.01188862e-06
5.187212443e-06
4.427198864e-06
3.596578377e-06
5.464641352e-06
3.389756375e-06
6.295261839e-06
3.043386799e-06
4.01188862e-06
3.181268133e-06
3.874007286e-06
5.53358202e-06
5.879951596e-06
5.948892263e-06
6.086773598e-06
5.53358202e-06
3.942947953e-06
2.00594431e-06
6.986334752e-06
3.52763771e-06
6.364202506e-06
4.01188862e-06
5.53358202e-06
4.080829287e-06
4.427198864e-06
6.571024508e-06
4.427198864e-06
6.01783293e-06
2.559135888e-06
2.974446132e-06
4.980390442e-06
6.502083841e-06
5.53358202e-06
4.496139531e-06
4.911449774e-06
2.00594431e-06
4.565080198e-06
3.52763771e-06
4.01188862e-06
5.53358202e-06
6.086773598e-06
6.77951275e-06
3.665519044e-06
4.980390442e-06
5.53358202e-06
4.427198864e-06
2.490195221e-06
2.421254554e-06
6.917394084e-06
6.502083841e-06
5.602522687e-06
5.879951596e-06
5.118271776e-06
6.01783293e-06
2.421254554e-06
2.905505464e-06
3.181268133e-06
2.974446132e-06
5.464641352e-06
4.496139531e-06
4.496139531e-06
8.439087484e-06
6.086773598e-06
3.043386799e-06
5.879951596e-06
3.389756375e-06
6.086773598e-06
5.464641352e-06
6.01783293e-06
2.421254554e-06
4.496139531e-06
3.874007286e-06
3.52763771e-06
6.086773598e-06
3.596578377e-06
6.295261839e-06
1.937003643e-06
3.458697042e-06
5.049331109e-06
5.049331109e-06
3.596578377e-06
3.874007286e-06
6.01783293e-06
9.685018214e-07
3.389756375e-06
6.433143174e-06
5.53358202e-06
5.53358202e-06
5.187212443e-06
2.074884977e-06
3.596578377e-06
5.53358202e-06
6.571024508e-06
4.358258196e-06
3.52763771e-06
3.942947953e-06
4.496139531e-06
3.52763771e-06
4.358258196e-06
5.53358202e-06
7.401644995e-06
3.942947953e-06
6.01783293e-06
1.937003643e-06
6.01783293e-06
2.905505464e-06
5.602522687e-06
6.502083841e-06
6.502083841e-06
6.433143174e-06
4.842509107e-06
2.490195221e-06
3.596578377e-06
4.565080198e-06
6.502083841e-06
6.01783293e-06
4.080829287e-06
4.01188862e-06
6.01783293e-06
6.433143174e-06
4.080829287e-06
4.702961533e-06
4.911449774e-06
5.53358202e-06
3.52763771e-06
4.911449774e-06
5.948892263e-06
4.980390442e-06
3.458697042e-06
4.911449774e-06
5.879951596e-06
4.842509107e-06
4.427198864e-06
5.395700685e-06
2.974446132e-06
5.187212443e-06
5.948892263e-06
4.496139531e-06
4.496139531e-06
2.974446132e-06
4.496139531e-06
2.905505464e-06
5.049331109e-06
2.00594431e-06
5.464641352e-06
4.911449774e-06
5.464641352e-06
5.049331109e-06
5.049331109e-06
3.112327466e-06
4.634020865e-06
2.974446132e-06
8.645909486e-06
6.502083841e-06
4.496139531e-06
2.559135888e-06
4.980390442e-06
2.974446132e-06
4.427198864e-06
8.02377724e-06
4.911449774e-06
4.01188862e-06
3.043386799e-06
1.937003643e-06
5.464641352e-06
5.049331109e-06
2.490195221e-06
3.389756375e-06
4.911449774e-06
5.118271776e-06
6.01783293e-06
8.854397727e-06
4.496139531e-06
5.948892263e-06
6.086773598e-06
3.458697042e-06
3.458697042e-06
3.52763771e-06
3.596578377e-06
3.043386799e-06
4.634020865e-06
6.086773598e-06
3.874007286e-06
3.389756375e-06
2.559135888e-06
4.080829287e-06
5.464641352e-06
5.53358202e-06
5.53358202e-06
3.389756375e-06
6.502083841e-06
3.52763771e-06
2.974446132e-06
6.433143174e-06
6.571024508e-06
4.980390442e-06
5.395700685e-06
2.974446132e-06
4.496139531e-06
4.911449774e-06
6.986334752e-06
4.01188862e-06
6.086773598e-06
7.055275419e-06
4.427198864e-06
2.974446132e-06
3.874007286e-06
3.596578377e-06
4.565080198e-06
6.086773598e-06
5.740404021e-06
4.01188862e-06
3.52763771e-06
6.086773598e-06
5.049331109e-06
4.01188862e-06
4.842509107e-06
4.980390442e-06
4.427198864e-06
4.496139531e-06
5.602522687e-06
5.948892263e-06
4.496139531e-06
4.01188862e-06
6.086773598e-06
4.980390442e-06
4.427198864e-06
3.596578377e-06
4.634020865e-06
5.464641352e-06
7.401644995e-06
4.911449774e-06
3.52763771e-06
5.118271776e-06
3.458697042e-06
6.502083841e-06
4.496139531e-06
3.458697042e-06
3.942947953e-06
3.942947953e-06
3.043386799e-06
4.980390442e-06
4.358258196e-06
4.496139531e-06
4.565080198e-06
5.395700685e-06
3.942947953e-06
3.389756375e-06
2.00594431e-06
7.954836573e-06
8.508028151e-06
2.905505464e-06
6.364202506e-06
5.948892263e-06
4.496139531e-06
5.464641352e-06
5.049331109e-06
2.905505464e-06
5.187212443e-06
8.092717908e-06
1.937003643e-06
8.923338395e-06
3.942947953e-06
5.811010928e-06
9.960780883e-06
6.01783293e-06
6.986334752e-06
5.464641352e-06
5.049331109e-06
2.421254554e-06
2.974446132e-06
2.490195221e-06
7.262097421e-06
5.948892263e-06
6.917394084e-06
3.389756375e-06
3.665519044e-06
3.458697042e-06
3.52763771e-06
3.942947953e-06
4.496139531e-06
4.911449774e-06
5.049331109e-06
4.01188862e-06
2.905505464e-06
6.01783293e-06
4.01188862e-06
3.942947953e-06
3.043386799e-06
5.948892263e-06
4.358258196e-06
6.917394084e-06
4.634020865e-06
5.879951596e-06
3.389756375e-06
5.326760018e-06
4.7719022e-06
4.496139531e-06
4.565080198e-06
6.086773598e-06
5.948892263e-06
3.043386799e-06
4.496139531e-06
7.262097421e-06
2.559135888e-06
5.602522687e-06
3.043386799e-06
2.490195221e-06
5.464641352e-06
6.571024508e-06
4.427198864e-06
7.055275419e-06
5.53358202e-06
4.496139531e-06
2.559135888e-06
6.639965176e-06
5.395700685e-06
2.974446132e-06
5.395700685e-06
5.602522687e-06
3.874007286e-06
5.53358202e-06
1.452752732e-06
4.496139531e-06
6.433143174e-06
4.980390442e-06
4.496139531e-06
3.942947953e-06
2.490195221e-06
5.879951596e-06
3.942947953e-06
2.974446132e-06
5.948892263e-06
4.980390442e-06
2.421254554e-06
4.01188862e-06
4.911449774e-06
6.20877634e-06
5.31800987e-06
3.547120169e-06
4.228242898e-06
3.817917805e-06
5.916870199e-06
2.915809127e-06
5.102080207e-06
2.956185592e-06
6.590989264e-06
6.279904467e-06
4.168450643e-06
3.547120194e-06
5.176315844e-06
7.857154509e-06
6.508379054e-06
4.581269166e-06
2.935858553e-06
5.559959955e-06
5.243855673e-06
3.068824086e-06
4.814861334e-06
6.225059723e-06
5.248974363e-06
3.230681895e-06
3.180473627e-06
5.96998855e-06
2.58587054e-06
5.840532695e-06
6.165488808e-06
4.139184227e-06
5.749527396e-06
8.468408918e-06
5.904657176e-06
4.772839418e-06
5.399077207e-06
6.525141886e-06
3.914478044e-06
6.755784708e-06
6.520357087e-06
1.07036012e-06
4.528337126e-06
4.125992745e-06
3.71787714e-06
4.699656027e-06
2.662680672e-06
4.512083987e-06
4.543109545e-06
4.011723974e-06
3.118060536e-06
6.708392337e-06
3.59367103e-06
4.342416144e-06
5.2489744e-06
8.371207083e-06
5.325361345e-06
6.663512183e-06
6.50034861e-06
4.081867159e-06
6.23612103e-06
3.568440103e-06
4.168450672e-06
7.382804882e-06
6.85273008e-06
4.405153714e-06
6.360947299e-06
7.566263461e-06
2.935858553e-06
6.192943924e-06
7.724519118e-06
2.640336237e-06
5.103116739e-06
7.382804882e-06
4.738608631e-06
4.112420122e-06
4.955000191e-06
5.553205511e-06
3.005519426e-06
4.997119205e-06
4.039693677e-06
4.638800223e-06
7.547228543e-06
3.763543538e-06
2.697145701e-06
3.671551023e-06
4.363491336e-06
2.915809127e-06
3.564490034e-06
6.545355108e-06
5.669356091e-06
4.139184198e-06
4.599968201e-06
6.948214598e-06
4.665950144e-06
2.129393466e-06
1.627094764e-06
5.484020362e-06
3.564490058e-06
5.067262391e-06
4.535826359e-06
2.997696e-06
2.515742865e-06
6.225059679e-06
3.134852892e-06
3.157498482e-06
7.617680863e-06
4.512084017e-06
7.618289874e-06
2.956185592e-06
6.236121073e-06
5.56690409e-06
5.389640914e-06
2.026925825e-06
5.831998656e-06
3.598367632e-06
3.624550681e-06
4.859681878e-06
4.962758428e-06
4.997119138e-06
4.03969365e-06
4.28144048e-06
3.665302074e-06
5.211596774e-06
4.300901418e-06
7.269918655e-06
4.216059536e-06
2.429840939e-06
6.011038852e-06
5.700246364e-06
4.1103259e-06
3.568440103e-06
7.905383816e-06
4.125992803e-06
3.207511456e-06
6.755866088e-06
2.218603602e-06
5.414835214e-06
5.0324193e-06
3.519026352e-06
6.024224364e-06
3.568440103e-06
6.181044922e-06
4.198133868e-06
6.925388551e-06
3.157498482e-06
4.955000226e-06
3.60933276e-06
5.521729093e-06
6.12280078e-06
4.180958094e-06
9.563831997e-06
3.665302074e-06
7.745254091e-06
2.6244872e-06
3.671551023e-06
4.289775436e-06
4.164486124e-06
4.893097588e-06
4.081867159e-06
4.535826359e-06
2.640336237e-06
5.606265308e-06
4.125992745e-06
2.697145701e-06
5.652808925e-06
3.845698382e-06
3.470962463e-06
4.053799817e-06
5.912371184e-06
6.165488808e-06
8.207240327e-06
3.593671055e-06
3.112529883e-06
8.091437103e-06
7.269918603e-06
2.071171818e-06
6.246729144e-06
3.005519406e-06
6.967909566e-06
3.684825441e-06
4.781056477e-06
2.587373891e-06
7.673112915e-06
3.790535685e-06
4.699656061e-06
3.698266581e-06
)
;

boundaryField
{
    flow
    {
        type            zeroGradient;
    }
    obstacle
    {
        type            calculated;
        value           nonuniform List<scalar> 0();
    }
    frontAndBack
    {
        type            empty;
    }
    procBoundary2to0
    {
        type            processor;
        value           nonuniform List<scalar> 
31
(
2.559135888e-06
6.433143174e-06
2.974446132e-06
8.092717908e-06
3.596578377e-06
5.326760018e-06
5.740404021e-06
6.364202506e-06
2.559135888e-06
4.080829287e-06
5.187212443e-06
4.565080198e-06
4.01188862e-06
5.879951596e-06
7.608466997e-06
4.911449774e-06
5.602522687e-06
3.942947953e-06
4.980390442e-06
6.502083841e-06
5.56690409e-06
4.240081687e-06
5.355879057e-06
4.373559968e-06
5.947311271e-06
4.216059536e-06
4.026115799e-06
6.500348567e-06
4.081867159e-06
4.1103259e-06
4.1103259e-06
)
;
    }
    procBoundary2to3
    {
        type            processor;
        value           nonuniform List<scalar> 
19
(
2.83070976e-06
2.682197329e-06
7.22618424e-06
3.203785551e-06
2.160609106e-06
6.481827365e-06
5.587163345e-06
4.321218212e-06
5.960239139e-06
3.352297983e-06
4.321218212e-06
4.694294037e-06
3.79962999e-06
6.259058671e-06
4.768550288e-06
5.587163305e-06
4.469730644e-06
3.278041791e-06
8.642436425e-06
)
;
    }
}


// ************************************************************************* //
