/*--------------------------------*- C++ -*----------------------------------*\
| =========                 |                                                 |
| \\      /  F ield         | OpenFOAM: The Open Source CFD Toolbox           |
|  \\    /   O peration     | Version:  2406                                  |
|   \\  /    A nd           | Website:  www.openfoam.com                      |
|    \\/     M anipulation  |                                                 |
\*---------------------------------------------------------------------------*/
FoamFile
{
    version     2.0;
    format      ascii;
    arch        "LSB;label=32;scalar=64";
    class       volScalarField;
    location    "0.01";
    object      rhoMMean;
}
// * * * * * * * * * * * * * * * * * * * * * * * * * * * * * * * * * * * * * //

dimensions      [1 -3 0 0 0 0 0];

internalField   nonuniform List<scalar> 
546
(
3.712634262e-06
4.784143313e-06
4.830292488e-06
4.80604091e-06
4.802968281e-06
4.801140249e-06
4.803744082e-06
4.790541549e-06
4.761948834e-06
4.804404246e-06
4.817920241e-06
4.837414038e-06
4.828437213e-06
4.794682196e-06
4.78844342e-06
4.786643298e-06
4.793936304e-06
4.793812877e-06
4.763247918e-06
4.752237239e-06
3.728803577e-06
4.791027466e-06
4.81198647e-06
4.829917875e-06
4.835025025e-06
4.828780583e-06
4.81328822e-06
4.823362972e-06
4.801287795e-06
4.788063684e-06
4.787699527e-06
4.776094959e-06
4.784742201e-06
4.778746946e-06
4.792704161e-06
4.774857818e-06
4.778994466e-06
4.802387513e-06
4.818725618e-06
4.817791483e-06
3.704294358e-06
4.757684635e-06
4.784073373e-06
4.772325258e-06
4.772140347e-06
4.780405188e-06
4.804656765e-06
4.79939528e-06
4.794135794e-06
4.807609758e-06
4.796057677e-06
4.796692931e-06
4.77730844e-06
4.750283448e-06
4.768490949e-06
4.775891928e-06
4.753866238e-06
4.761256095e-06
4.749353978e-06
4.742565009e-06
3.720405854e-06
4.789533682e-06
4.805824757e-06
4.781118172e-06
4.793538906e-06
4.76517859e-06
4.767667119e-06
4.776536971e-06
4.800293175e-06
4.765649052e-06
4.790072086e-06
4.806217157e-06
4.844646893e-06
4.835598794e-06
4.820353284e-06
4.803246043e-06
4.795374602e-06
4.784128192e-06
4.827084976e-06
4.821687609e-06
3.720544069e-06
4.790146358e-06
4.800055319e-06
4.795765668e-06
4.783098748e-06
4.795423964e-06
4.77420032e-06
4.778914736e-06
4.752130267e-06
4.737325644e-06
4.730764408e-06
4.711411159e-06
4.715441501e-06
4.736810817e-06
4.784289318e-06
4.811359339e-06
4.836523932e-06
4.832181129e-06
4.80519117e-06
4.795896885e-06
3.717628441e-06
4.785433274e-06
4.801905595e-06
4.80928033e-06
4.827760928e-06
4.828415968e-06
4.80859159e-06
4.800830121e-06
4.821862731e-06
4.831045045e-06
4.849713886e-06
4.832817924e-06
4.827389315e-06
4.802878429e-06
4.794536192e-06
4.813348038e-06
4.80523041e-06
4.785400033e-06
4.810104286e-06
4.828511944e-06
3.714983577e-06
4.759842374e-06
4.791698419e-06
4.799376826e-06
4.777420744e-06
4.780178579e-06
4.794203069e-06
4.822387805e-06
4.807392814e-06
4.823244669e-06
4.829869846e-06
4.844800895e-06
4.858956809e-06
4.836640236e-06
4.831191382e-06
4.804878708e-06
4.817882876e-06
4.802100628e-06
4.808511861e-06
4.801225853e-06
3.713020663e-06
4.803719838e-06
4.834902931e-06
4.829838146e-06
4.835026025e-06
4.827518865e-06
4.842562218e-06
4.833306299e-06
4.850793484e-06
4.830208093e-06
4.820678409e-06
4.794587012e-06
4.78927404e-06
4.790381423e-06
4.801145248e-06
4.825717285e-06
4.824584325e-06
4.843361472e-06
4.860193617e-06
4.854134086e-06
3.718818219e-06
4.783811065e-06
4.786271685e-06
4.796286618e-06
4.797613612e-06
4.782067762e-06
4.773929347e-06
4.798679963e-06
4.768333156e-06
4.81208632e-06
4.82784299e-06
4.840941675e-06
4.836921664e-06
4.841845235e-06
4.815704018e-06
4.778782854e-06
4.788611877e-06
4.783036264e-06
4.767955878e-06
4.760856572e-06
3.701636039e-06
4.747467336e-06
4.775244552e-06
4.77241132e-06
4.761209607e-06
4.781062561e-06
4.786911604e-06
4.802032021e-06
4.788129625e-06
4.770841139e-06
4.753536198e-06
4.759381117e-06
4.781923424e-06
4.791534836e-06
4.803288407e-06
4.808712018e-06
4.797980434e-06
4.765659716e-06
4.759032873e-06
4.740580185e-06
3.737906828e-06
4.798666508e-06
4.80231524e-06
4.796532139e-06
4.790771948e-06
4.778004511e-06
4.791561204e-06
4.757348513e-06
4.778059997e-06
4.803653355e-06
4.804288943e-06
4.802973071e-06
4.79667781e-06
4.782613955e-06
4.756742501e-06
4.76541632e-06
4.773989957e-06
4.79868642e-06
4.828444003e-06
4.839276769e-06
3.701593008e-06
4.789258919e-06
4.807252933e-06
4.810118074e-06
4.79274186e-06
4.774827909e-06
4.789812777e-06
4.766781887e-06
4.754520279e-06
4.753260894e-06
4.732507378e-06
4.756167732e-06
4.750760576e-06
4.77744453e-06
4.806483797e-06
4.798277775e-06
4.81839537e-06
4.775076428e-06
4.794344491e-06
4.794904472e-06
3.723410876e-06
4.789219221e-06
4.824759239e-06
4.80485713e-06
4.813241732e-06
4.807037655e-06
4.80575136e-06
4.802780246e-06
4.816974859e-06
4.809960614e-06
4.80818207e-06
4.828005449e-06
4.825904654e-06
4.805861331e-06
4.795385058e-06
4.81156237e-06
4.763417041e-06
4.801596924e-06
4.801592259e-06
4.798921151e-06
3.706239818e-06
4.74440383e-06
4.784740993e-06
4.787605468e-06
4.793867821e-06
4.804700587e-06
4.803778115e-06
4.830561919e-06
4.820185827e-06
4.819773516e-06
4.786190289e-06
4.758435651e-06
4.736681392e-06
4.766555404e-06
4.769583336e-06
4.784763904e-06
4.798808847e-06
4.781270841e-06
4.781757091e-06
4.790914828e-06
3.7347985e-06
4.799155425e-06
4.801075641e-06
4.770681804e-06
4.799873074e-06
4.791503594e-06
4.783148693e-06
4.800676577e-06
4.788762671e-06
4.774938672e-06
4.76532826e-06
4.791556872e-06
4.812219535e-06
4.791888329e-06
4.788942792e-06
4.773718193e-06
4.763202221e-06
4.774158414e-06
4.794134461e-06
4.796463198e-06
3.696892046e-06
4.756865803e-06
4.796802778e-06
4.811090241e-06
4.823680765e-06
4.789948326e-06
4.756008273e-06
4.746779596e-06
4.756642194e-06
4.786049408e-06
4.799480008e-06
4.791541626e-06
4.779848997e-06
4.788714517e-06
4.818973805e-06
4.810848054e-06
4.807332538e-06
4.782632742e-06
4.755585631e-06
4.765754567e-06
3.733699573e-06
4.824050712e-06
4.835445792e-06
4.802981736e-06
4.771136813e-06
4.823347517e-06
4.842897799e-06
4.854114966e-06
4.836644235e-06
4.855749631e-06
4.840214903e-06
4.815946205e-06
4.828494032e-06
4.799038788e-06
4.797901829e-06
4.785902529e-06
4.797663432e-06
4.779047286e-06
4.799802134e-06
4.789091129e-06
3.645508297e-06
4.672536871e-06
4.717594783e-06
4.741886058e-06
4.738452605e-06
4.743639817e-06
4.747530612e-06
4.750641606e-06
4.740993162e-06
4.736521266e-06
4.768147912e-06
4.767131256e-06
4.774986576e-06
4.770479648e-06
4.755177652e-06
4.75713011e-06
4.747223482e-06
4.768331157e-06
4.787351158e-06
4.778758068e-06
4.831547734e-06
4.833971337e-06
4.843838329e-06
4.831628218e-06
4.84336759e-06
4.870752226e-06
4.767010315e-06
4.784403812e-06
4.793701519e-06
4.764885985e-06
4.791054642e-06
4.815030315e-06
4.841401518e-06
4.852809867e-06
4.823395167e-06
4.813593585e-06
4.82356233e-06
4.836620635e-06
4.85818167e-06
4.86379252e-06
4.839209898e-06
4.825114571e-06
4.810817038e-06
4.812240291e-06
4.819752923e-06
4.849222016e-06
4.766075877e-06
4.74996415e-06
4.744272909e-06
4.74149016e-06
4.762907029e-06
4.754997225e-06
4.764931361e-06
4.781512313e-06
4.800428273e-06
4.829095225e-06
4.834400997e-06
4.84063732e-06
4.818564587e-06
4.847466651e-06
4.824731855e-06
4.826603078e-06
4.808903412e-06
4.807915693e-06
4.774479787e-06
4.798187363e-06
4.80206018e-06
4.787659068e-06
4.791391668e-06
4.783703636e-06
4.798017377e-06
4.788938913e-06
4.819843963e-06
4.853702657e-06
4.836097671e-06
4.818024957e-06
4.815207992e-06
4.812798721e-06
4.813165045e-06
4.827043706e-06
4.872100136e-06
4.879420641e-06
4.84553575e-06
4.830772824e-06
4.855059642e-06
4.858168266e-06
4.805837471e-06
4.810969102e-06
4.811564424e-06
4.817748581e-06
4.789209437e-06
4.786674679e-06
4.797856352e-06
4.803735645e-06
4.765699107e-06
4.749889819e-06
4.865391596e-06
4.870513785e-06
4.828403865e-06
4.77640688e-06
4.752824413e-06
4.752466679e-06
4.751852992e-06
4.743803342e-06
4.758570149e-06
4.765994894e-06
4.724010554e-06
4.718853109e-06
4.729507334e-06
4.725482988e-06
4.756258386e-06
4.767415051e-06
4.785341229e-06
4.745962277e-06
4.758321459e-06
4.761821773e-06
4.749817868e-06
4.78180502e-06
4.797713954e-06
4.822590068e-06
4.810315527e-06
4.806051538e-06
4.811528521e-06
4.817019651e-06
4.824741255e-06
4.781655314e-06
4.833364381e-06
4.821724278e-06
4.798907034e-06
4.798636483e-06
4.806526664e-06
4.796109029e-06
4.783972128e-06
4.782052796e-06
4.801276881e-06
4.813539467e-06
4.802916947e-06
4.800959749e-06
4.798268804e-06
4.789156155e-06
4.775225346e-06
4.775628047e-06
4.789506473e-06
4.823514874e-06
4.831672574e-06
4.845143768e-06
4.777043917e-06
4.793528334e-06
4.811038616e-06
4.816755291e-06
4.806539858e-06
4.831467877e-06
4.808443171e-06
4.805935102e-06
4.78105988e-06
4.780265145e-06
4.80638837e-06
4.81955836e-06
4.803052908e-06
4.827482906e-06
4.83232086e-06
4.812569799e-06
4.803454338e-06
4.80791499e-06
4.79936749e-06
4.760518349e-06
4.772327622e-06
4.780361461e-06
4.770538195e-06
4.768597911e-06
4.777495096e-06
4.78174694e-06
4.761915644e-06
4.770386823e-06
4.798166255e-06
4.82692387e-06
4.75562452e-06
4.768921168e-06
4.773210724e-06
4.779119498e-06
4.787686263e-06
4.765222632e-06
4.795040722e-06
4.785163951e-06
4.796957425e-06
4.807826507e-06
4.776060151e-06
4.775337923e-06
4.770069454e-06
4.762646495e-06
4.780011001e-06
4.793542723e-06
4.807645783e-06
4.831133438e-06
4.836585246e-06
4.811636662e-06
4.790981778e-06
4.767019962e-06
4.76444308e-06
4.798693672e-06
4.743676347e-06
4.742528619e-06
4.755551979e-06
4.710056862e-06
4.685904968e-06
4.720713644e-06
)
;

boundaryField
{
    flow
    {
        type            calculated;
        value           nonuniform List<scalar> 
48
(
3.712634262e-06
3.728803577e-06
3.704294358e-06
3.720405854e-06
3.720544069e-06
3.717628441e-06
3.714983577e-06
3.713020663e-06
3.718818219e-06
3.701636039e-06
3.737906828e-06
3.701593008e-06
3.723410876e-06
3.706239818e-06
3.7347985e-06
3.696892046e-06
3.733699573e-06
3.645508297e-06
3.645508297e-06
4.672536871e-06
4.717594783e-06
4.741886058e-06
4.738452605e-06
4.743639817e-06
4.747530612e-06
4.750641606e-06
4.740993162e-06
4.736521266e-06
4.768147912e-06
4.767131256e-06
4.774986576e-06
4.770479648e-06
4.755177652e-06
4.75713011e-06
4.747223482e-06
4.768331157e-06
4.787351158e-06
4.778758068e-06
4.790981778e-06
4.767019962e-06
4.76444308e-06
4.798693672e-06
4.743676347e-06
4.742528619e-06
4.755551979e-06
4.710056862e-06
4.685904968e-06
4.720713644e-06
)
;
    }
    obstacle
    {
        type            calculated;
        value           nonuniform List<scalar> 0();
    }
    frontAndBack
    {
        type            empty;
    }
    procBoundary2to0
    {
        type            processor;
        value           nonuniform List<scalar> 
31
(
3.714524236e-06
4.77154979e-06
4.793226777e-06
4.762209142e-06
4.779034164e-06
4.760730479e-06
4.79958998e-06
4.817534174e-06
4.852604728e-06
4.835765585e-06
4.81295064e-06
4.797248788e-06
4.804990013e-06
4.811640434e-06
4.800019412e-06
4.801071642e-06
4.792092485e-06
4.784043131e-06
4.804231999e-06
4.804121694e-06
4.802691032e-06
4.804292151e-06
4.79718764e-06
4.817183431e-06
4.871253071e-06
4.880060829e-06
4.80487265e-06
4.780726359e-06
4.795201439e-06
4.821234953e-06
4.821234953e-06
)
;
    }
    procBoundary2to3
    {
        type            processor;
        value           nonuniform List<scalar> 
19
(
4.888693994e-06
4.837030288e-06
4.839450941e-06
4.847451733e-06
4.806798407e-06
4.805256425e-06
4.877825342e-06
4.744339193e-06
4.784193234e-06
4.743786826e-06
4.791161887e-06
4.799376544e-06
4.845517976e-06
4.79310417e-06
4.775939611e-06
4.804505931e-06
4.842941532e-06
4.812034918e-06
4.699913651e-06
)
;
    }
}


// ************************************************************************* //
