/*--------------------------------*- C++ -*----------------------------------*\
| =========                 |                                                 |
| \\      /  F ield         | OpenFOAM: The Open Source CFD Toolbox           |
|  \\    /   O peration     | Version:  2406                                  |
|   \\  /    A nd           | Website:  www.openfoam.com                      |
|    \\/     M anipulation  |                                                 |
\*---------------------------------------------------------------------------*/
FoamFile
{
    version     2.0;
    format      ascii;
    arch        "LSB;label=32;scalar=64";
    class       volScalarField;
    location    "0.01";
    object      rhoN;
}
// * * * * * * * * * * * * * * * * * * * * * * * * * * * * * * * * * * * * * //

dimensions      [0 -3 0 0 0 0 0];

internalField   nonuniform List<scalar> 
546
(
9.372598272e+19
6.248398848e+19
1.145539789e+20
7.289798656e+19
1.24967977e+20
7.289798656e+19
6.248398848e+19
7.289798656e+19
2.082799616e+20
1.24967977e+20
1.145539789e+20
1.041399808e+20
1.041399808e+20
1.24967977e+20
8.331198464e+19
1.35381975e+20
1.145539789e+20
8.331198464e+19
8.331198464e+19
1.24967977e+20
9.372598272e+19
1.041399808e+20
9.372598272e+19
8.331198464e+19
1.041399808e+20
9.372598272e+19
7.289798656e+19
1.145539789e+20
7.289798656e+19
1.35381975e+20
6.248398848e+19
8.331198464e+19
6.248398848e+19
8.331198464e+19
1.145539789e+20
1.24967977e+20
1.24967977e+20
1.24967977e+20
1.145539789e+20
8.331198464e+19
4.165599232e+19
1.457959731e+20
7.289798656e+19
1.35381975e+20
8.331198464e+19
1.145539789e+20
8.331198464e+19
9.372598272e+19
1.35381975e+20
9.372598272e+19
1.24967977e+20
5.20699904e+19
6.248398848e+19
1.041399808e+20
1.35381975e+20
1.145539789e+20
9.372598272e+19
1.041399808e+20
4.165599232e+19
9.372598272e+19
7.289798656e+19
8.331198464e+19
1.145539789e+20
1.24967977e+20
1.457959731e+20
7.289798656e+19
1.041399808e+20
1.145539789e+20
9.372598272e+19
5.20699904e+19
5.20699904e+19
1.457959731e+20
1.35381975e+20
1.145539789e+20
1.24967977e+20
1.041399808e+20
1.24967977e+20
5.20699904e+19
6.248398848e+19
6.248398848e+19
6.248398848e+19
1.145539789e+20
9.372598272e+19
9.372598272e+19
1.770379674e+20
1.24967977e+20
6.248398848e+19
1.24967977e+20
7.289798656e+19
1.24967977e+20
1.145539789e+20
1.24967977e+20
5.20699904e+19
9.372598272e+19
8.331198464e+19
7.289798656e+19
1.24967977e+20
7.289798656e+19
1.35381975e+20
4.165599232e+19
7.289798656e+19
1.041399808e+20
1.041399808e+20
7.289798656e+19
8.331198464e+19
1.24967977e+20
2.082799616e+19
7.289798656e+19
1.35381975e+20
1.145539789e+20
1.145539789e+20
1.041399808e+20
4.165599232e+19
7.289798656e+19
1.145539789e+20
1.35381975e+20
9.372598272e+19
7.289798656e+19
8.331198464e+19
9.372598272e+19
7.289798656e+19
9.372598272e+19
1.145539789e+20
1.562099712e+20
8.331198464e+19
1.24967977e+20
4.165599232e+19
1.24967977e+20
6.248398848e+19
1.145539789e+20
1.35381975e+20
1.35381975e+20
1.35381975e+20
1.041399808e+20
5.20699904e+19
7.289798656e+19
9.372598272e+19
1.35381975e+20
1.24967977e+20
8.331198464e+19
8.331198464e+19
1.24967977e+20
1.35381975e+20
8.331198464e+19
9.372598272e+19
1.041399808e+20
1.145539789e+20
7.289798656e+19
1.041399808e+20
1.24967977e+20
1.041399808e+20
7.289798656e+19
1.041399808e+20
1.24967977e+20
1.041399808e+20
9.372598272e+19
1.145539789e+20
6.248398848e+19
1.041399808e+20
1.24967977e+20
9.372598272e+19
9.372598272e+19
6.248398848e+19
9.372598272e+19
6.248398848e+19
1.041399808e+20
4.165599232e+19
1.145539789e+20
1.041399808e+20
1.145539789e+20
1.041399808e+20
1.041399808e+20
6.248398848e+19
9.372598272e+19
6.248398848e+19
1.770379674e+20
1.35381975e+20
9.372598272e+19
5.20699904e+19
1.041399808e+20
6.248398848e+19
9.372598272e+19
1.666239693e+20
1.041399808e+20
8.331198464e+19
6.248398848e+19
4.165599232e+19
1.145539789e+20
1.041399808e+20
5.20699904e+19
7.289798656e+19
1.041399808e+20
1.041399808e+20
1.24967977e+20
1.874519654e+20
9.372598272e+19
1.24967977e+20
1.24967977e+20
7.289798656e+19
7.289798656e+19
7.289798656e+19
7.289798656e+19
6.248398848e+19
9.372598272e+19
1.24967977e+20
8.331198464e+19
7.289798656e+19
5.20699904e+19
8.331198464e+19
1.145539789e+20
1.145539789e+20
1.145539789e+20
7.289798656e+19
1.35381975e+20
7.289798656e+19
6.248398848e+19
1.35381975e+20
1.35381975e+20
1.041399808e+20
1.145539789e+20
6.248398848e+19
9.372598272e+19
1.041399808e+20
1.457959731e+20
8.331198464e+19
1.24967977e+20
1.457959731e+20
9.372598272e+19
6.248398848e+19
8.331198464e+19
7.289798656e+19
9.372598272e+19
1.24967977e+20
1.145539789e+20
8.331198464e+19
7.289798656e+19
1.24967977e+20
1.041399808e+20
8.331198464e+19
1.041399808e+20
1.041399808e+20
9.372598272e+19
9.372598272e+19
1.145539789e+20
1.24967977e+20
9.372598272e+19
8.331198464e+19
1.24967977e+20
1.041399808e+20
9.372598272e+19
7.289798656e+19
9.372598272e+19
1.145539789e+20
1.562099712e+20
1.041399808e+20
7.289798656e+19
1.041399808e+20
7.289798656e+19
1.35381975e+20
9.372598272e+19
7.289798656e+19
8.331198464e+19
8.331198464e+19
6.248398848e+19
1.041399808e+20
9.372598272e+19
9.372598272e+19
9.372598272e+19
1.145539789e+20
8.331198464e+19
7.289798656e+19
4.165599232e+19
1.666239693e+20
1.770379674e+20
6.248398848e+19
1.35381975e+20
1.24967977e+20
9.372598272e+19
1.145539789e+20
1.041399808e+20
6.248398848e+19
1.041399808e+20
1.666239693e+20
4.165599232e+19
1.874519654e+20
8.331198464e+19
1.24967977e+20
2.082799616e+20
1.24967977e+20
1.457959731e+20
1.145539789e+20
1.041399808e+20
5.20699904e+19
6.248398848e+19
5.20699904e+19
1.457959731e+20
1.24967977e+20
1.457959731e+20
7.289798656e+19
7.289798656e+19
7.289798656e+19
7.289798656e+19
8.331198464e+19
9.372598272e+19
1.041399808e+20
1.041399808e+20
8.331198464e+19
6.248398848e+19
1.24967977e+20
8.331198464e+19
8.331198464e+19
6.248398848e+19
1.24967977e+20
9.372598272e+19
1.457959731e+20
9.372598272e+19
1.24967977e+20
7.289798656e+19
1.145539789e+20
9.372598272e+19
9.372598272e+19
9.372598272e+19
1.24967977e+20
1.24967977e+20
6.248398848e+19
9.372598272e+19
1.457959731e+20
5.20699904e+19
1.145539789e+20
6.248398848e+19
5.20699904e+19
1.145539789e+20
1.35381975e+20
9.372598272e+19
1.457959731e+20
1.145539789e+20
9.372598272e+19
5.20699904e+19
1.35381975e+20
1.145539789e+20
6.248398848e+19
1.145539789e+20
1.145539789e+20
8.331198464e+19
1.145539789e+20
3.124199424e+19
9.372598272e+19
1.35381975e+20
1.041399808e+20
9.372598272e+19
8.331198464e+19
5.20699904e+19
1.24967977e+20
8.331198464e+19
6.248398848e+19
1.24967977e+20
1.041399808e+20
5.20699904e+19
8.331198464e+19
1.041399808e+20
1.289331604e+20
1.082039934e+20
7.628215418e+19
8.78048572e+19
7.738425015e+19
1.224886559e+20
6.270557261e+19
1.052279051e+20
6.35738837e+19
1.387037596e+20
1.289331604e+20
8.656319476e+19
7.628215471e+19
1.097560715e+20
1.65823392e+20
1.336239882e+20
9.405835955e+19
6.313674307e+19
1.165521201e+20
1.066951997e+20
6.446657977e+19
9.738359478e+19
1.307694081e+20
1.097560715e+20
6.632935727e+19
6.681199412e+19
1.254111452e+20
5.261395256e+19
1.165521201e+20
1.280342396e+20
8.595544028e+19
1.190243928e+20
1.743592108e+20
1.207316795e+20
9.94940352e+19
1.113533227e+20
1.35862074e+20
8.418232352e+19
1.377434147e+20
1.387037605e+20
2.148886007e+19
9.73835941e+19
8.717960478e+19
7.682924951e+19
9.94940352e+19
5.567666177e+19
9.405835892e+19
9.470511396e+19
8.476517826e+19
6.401712024e+19
1.396775905e+20
7.574279541e+19
8.717960539e+19
1.097560723e+20
1.768782861e+20
1.113533235e+20
1.35862074e+20
1.367962766e+20
8.476517826e+19
1.280342396e+20
7.521101025e+19
8.656319536e+19
1.525643094e+20
1.426828929e+20
8.843914303e+19
1.336239892e+20
1.567639326e+20
6.313674307e+19
1.271477674e+20
1.600428006e+20
5.372215018e+19
1.082039934e+20
1.525643094e+20
9.878046435e+19
8.84391424e+19
1.002179912e+20
1.149602165e+20
6.313674307e+19
1.059564735e+20
8.535616032e+19
9.669987032e+19
1.623059902e+20
7.628215418e+19
5.487803575e+19
7.738425015e+19
8.908265883e+19
6.270557261e+19
7.365953308e+19
1.377434137e+20
1.173647188e+20
8.595543969e+19
9.738359478e+19
1.416668597e+20
9.878046504e+19
4.421957151e+19
3.340599706e+19
1.149602165e+20
7.365953358e+19
1.059564735e+20
9.602568036e+19
6.446658066e+19
5.41019971e+19
1.307694072e+20
6.585364244e+19
6.63293568e+19
1.55894653e+20
9.405835955e+19
1.578418577e+20
6.35738837e+19
1.280342405e+20
1.181887304e+20
1.082039934e+20
4.358980269e+19
1.207316795e+20
7.738425015e+19
7.794732648e+19
1.045092877e+20
1.052279044e+20
1.059564721e+20
8.535615974e+19
8.595544028e+19
7.574279541e+19
1.08974506e+20
8.78048572e+19
1.547685003e+20
8.908265883e+19
5.225464384e+19
1.262734861e+20
1.165521209e+20
8.535616032e+19
7.521101025e+19
1.623059913e+20
8.717960599e+19
6.585364336e+19
1.437136064e+20
4.45413291e+19
1.149602165e+20
1.052279044e+20
7.416953048e+19
1.280342396e+20
7.521101025e+19
1.298447921e+20
8.717960478e+19
1.426828919e+20
6.63293568e+19
1.002179919e+20
7.315650138e+19
1.157506956e+20
1.271477683e+20
8.535615974e+19
2.041441693e+20
7.574279541e+19
1.634617601e+20
5.487803613e+19
7.738425015e+19
8.908265883e+19
8.360743071e+19
1.052279051e+20
8.476517826e+19
9.602568036e+19
5.372215018e+19
1.190243928e+20
8.717960478e+19
5.487803575e+19
1.105489288e+20
7.794732648e+19
7.315650138e+19
8.418232409e+19
1.271477674e+20
1.280342396e+20
1.719108806e+20
7.574279594e+19
6.53847045e+19
1.646341072e+20
1.547684992e+20
4.454132941e+19
1.254111452e+20
6.313674264e+19
1.48339062e+20
7.468664028e+19
9.669987032e+19
5.410199672e+19
1.63461759e+20
7.682925005e+19
9.949403591e+19
7.794732648e+19
)
;

boundaryField
{
    flow
    {
        type            zeroGradient;
    }
    obstacle
    {
        type            calculated;
        value           nonuniform List<scalar> 0();
    }
    frontAndBack
    {
        type            empty;
    }
    procBoundary2to0
    {
        type            processor;
        value           nonuniform List<scalar> 
31
(
5.20699904e+19
1.35381975e+20
6.248398848e+19
1.666239693e+20
7.289798656e+19
1.145539789e+20
1.145539789e+20
1.35381975e+20
5.20699904e+19
8.331198464e+19
1.041399808e+20
9.372598272e+19
8.331198464e+19
1.24967977e+20
1.562099712e+20
1.041399808e+20
1.145539789e+20
8.331198464e+19
1.041399808e+20
1.35381975e+20
1.181887304e+20
8.656319476e+19
1.089745067e+20
8.780485781e+19
1.216038217e+20
8.908265883e+19
8.360743015e+19
1.367962757e+20
8.476517826e+19
8.535616032e+19
8.535616032e+19
)
;
    }
    procBoundary2to3
    {
        type            processor;
        value           nonuniform List<scalar> 
19
(
5.608475512e+19
5.608475512e+19
1.458203644e+20
6.730170614e+19
4.486780409e+19
1.346034132e+20
1.12169511e+20
8.973560819e+19
1.233864621e+20
6.730170614e+19
8.973560819e+19
1.009525599e+20
7.851865717e+19
1.346034123e+20
1.009525607e+20
1.121695102e+20
8.973560819e+19
6.730170662e+19
1.794712164e+20
)
;
    }
}


// ************************************************************************* //
