/*--------------------------------*- C++ -*----------------------------------*\
| =========                 |                                                 |
| \\      /  F ield         | OpenFOAM: The Open Source CFD Toolbox           |
|  \\    /   O peration     | Version:  2406                                  |
|   \\  /    A nd           | Website:  www.openfoam.com                      |
|    \\/     M anipulation  |                                                 |
\*---------------------------------------------------------------------------*/
FoamFile
{
    version     2.0;
    format      ascii;
    arch        "LSB;label=32;scalar=64";
    class       volScalarField;
    location    "0.01";
    object      rhoNMean;
}
// * * * * * * * * * * * * * * * * * * * * * * * * * * * * * * * * * * * * * //

dimensions      [0 -3 0 0 0 0 0];

internalField   nonuniform List<scalar> 
546
(
7.738641973e+19
9.974110801e+19
1.006908646e+20
1.001847443e+20
1.001118463e+20
1.000618591e+20
1.001347571e+20
9.983066839e+19
9.92516501e+19
1.001243431e+20
1.004055211e+20
1.008199982e+20
1.006429602e+20
9.994313957e+19
9.981608879e+19
9.97681844e+19
9.993480837e+19
9.993897397e+19
9.927039529e+19
9.904961854e+19
7.770508807e+19
9.985149639e+19
1.002888843e+20
1.00676285e+20
1.007970874e+20
1.00634629e+20
1.003242919e+20
1.005554827e+20
1.001222603e+20
9.985566199e+19
9.982025439e+19
9.959322924e+19
9.97785984e+19
9.962238843e+19
9.990356638e+19
9.953074525e+19
9.961822283e+19
1.001014323e+20
1.004409287e+20
1.003763619e+20
7.722604416e+19
9.92287393e+19
9.973485961e+19
9.947242686e+19
9.943701926e+19
9.964529923e+19
1.001514195e+20
1.000139548e+20
9.988898678e+19
1.001659991e+20
9.992231157e+19
9.992855997e+19
9.950783445e+19
9.898921735e+19
9.937870087e+19
9.953074525e+19
9.906211533e+19
9.92308221e+19
9.895380975e+19
9.883509017e+19
7.75280501e+19
9.982233719e+19
1.001264259e+20
9.962030563e+19
9.986399319e+19
9.927247809e+19
9.931413409e+19
9.951200005e+19
1.000243688e+20
9.928289209e+19
9.982650279e+19
1.001659991e+20
1.009553802e+20
1.007637626e+20
1.004450943e+20
1.001243431e+20
9.996188477e+19
9.973277681e+19
1.006367118e+20
1.005117439e+20
7.75301329e+19
9.985982759e+19
1.000889355e+20
9.999312676e+19
9.9761936e+19
1.00011872e+20
9.955782164e+19
9.963696803e+19
9.907044653e+19
9.874969539e+19
9.858931982e+19
9.819150509e+19
9.830397627e+19
9.87205362e+19
9.970570041e+19
1.002472283e+20
1.007720938e+20
1.006887818e+20
1.001305915e+20
9.995147077e+19
7.749055971e+19
9.97890124e+19
1.001055979e+20
1.002659735e+20
1.006387946e+20
1.006825334e+20
1.002701391e+20
1.001055979e+20
1.005721451e+20
1.007408518e+20
1.011699085e+20
1.00790839e+20
1.006429602e+20
1.001535023e+20
9.997854716e+19
1.003534511e+20
1.002034895e+20
9.975360481e+19
1.002451455e+20
1.005929731e+20
7.741974452e+19
9.918500051e+19
9.982233719e+19
9.998479556e+19
9.952033125e+19
9.960780883e+19
9.987857278e+19
1.004929987e+20
1.001889099e+20
1.005054955e+20
1.00634629e+20
1.009699598e+20
1.012865453e+20
1.008095842e+20
1.00707527e+20
1.001597507e+20
1.004305147e+20
1.001180947e+20
1.002888843e+20
1.001659991e+20
7.738850253e+19
1.001555851e+20
1.008095842e+20
1.006950302e+20
1.008033358e+20
1.005908903e+20
1.009387178e+20
1.007408518e+20
1.011095074e+20
1.006804506e+20
1.004950815e+20
9.995147077e+19
9.983691679e+19
9.986399319e+19
1.000931011e+20
1.006200494e+20
1.006054698e+20
1.010220298e+20
1.013469465e+20
1.012198957e+20
7.751555331e+19
9.973277681e+19
9.977235e+19
9.997438156e+19
9.999520956e+19
9.969528642e+19
9.950158605e+19
1.000243688e+20
9.942660527e+19
1.003097123e+20
1.00634629e+20
1.008928962e+20
1.008449918e+20
1.009387178e+20
1.004284319e+20
9.967445842e+19
9.983483399e+19
9.971611441e+19
9.939536327e+19
9.92329049e+19
7.715731177e+19
9.896838935e+19
9.953491085e+19
9.949325485e+19
9.928497489e+19
9.970361761e+19
9.98077576e+19
1.001201775e+20
9.983691679e+19
9.950366885e+19
9.915375852e+19
9.931829969e+19
9.974110801e+19
9.992022877e+19
1.001305915e+20
1.002472283e+20
1.000472796e+20
9.934954168e+19
9.920999411e+19
9.883925577e+19
7.789670564e+19
1.000264516e+20
1.000806043e+20
9.995771917e+19
9.98056748e+19
9.954949044e+19
9.982650279e+19
9.911001972e+19
9.955157324e+19
1.000847699e+20
1.000931011e+20
1.000556107e+20
9.992022877e+19
9.966196162e+19
9.911418532e+19
9.929330609e+19
9.944951606e+19
9.997854716e+19
1.005992214e+20
1.008283294e+20
7.714689777e+19
9.982858559e+19
1.001764131e+20
1.002451455e+20
9.988065558e+19
9.951616565e+19
9.984316519e+19
9.938286647e+19
9.909960573e+19
9.907044653e+19
9.862472741e+19
9.914126172e+19
9.904128734e+19
9.958281524e+19
1.001951583e+20
1.000097892e+20
1.004450943e+20
9.951824845e+19
9.998687836e+19
9.995355357e+19
7.760927929e+19
9.983899959e+19
1.005783935e+20
1.001972411e+20
1.003784447e+20
1.002097379e+20
1.001847443e+20
1.001430883e+20
1.004430115e+20
1.002951327e+20
1.002097379e+20
1.006158838e+20
1.005846419e+20
1.001826615e+20
9.994105677e+19
1.003097123e+20
9.929330609e+19
1.000722731e+20
1.00043114e+20
9.998062996e+19
7.723437536e+19
9.886633217e+19
9.968487242e+19
9.974943921e+19
9.985149639e+19
1.000806043e+20
1.000889355e+20
1.006512914e+20
1.004325975e+20
1.004409287e+20
9.97806812e+19
9.918291771e+19
9.86872114e+19
9.92599813e+19
9.931205129e+19
9.965571322e+19
9.996813317e+19
9.962655403e+19
9.964946482e+19
9.983691679e+19
7.785921524e+19
1.000660247e+20
1.000889355e+20
9.945576446e+19
1.000701903e+20
9.989731798e+19
9.964321643e+19
1.000077064e+20
9.974319081e+19
9.943285366e+19
9.92599813e+19
9.97994264e+19
1.002805531e+20
9.988898678e+19
9.983483399e+19
9.947450966e+19
9.92433189e+19
9.946826126e+19
9.988065558e+19
9.995771917e+19
7.706566859e+19
9.919541451e+19
1.00011872e+20
1.002888843e+20
1.005596483e+20
9.982858559e+19
9.917875211e+19
9.897880335e+19
9.917666931e+19
9.9761936e+19
1.000264516e+20
9.987648998e+19
9.961614003e+19
9.97869296e+19
1.004409287e+20
1.003263747e+20
1.002430627e+20
9.969320362e+19
9.912251652e+19
9.933912768e+19
7.779881405e+19
1.005450687e+20
1.007554314e+20
1.001097635e+20
9.945576446e+19
1.005450687e+20
1.00967877e+20
1.011865709e+20
1.008345778e+20
1.012344753e+20
1.009178898e+20
1.003909415e+20
1.006533742e+20
1.000264516e+20
9.998687836e+19
9.970570041e+19
9.996188477e+19
9.960364323e+19
1.000576935e+20
9.981400599e+19
7.597428159e+19
9.738129604e+19
9.831855587e+19
9.881426218e+19
9.872678459e+19
9.883092458e+19
9.893298176e+19
9.898713455e+19
9.883509017e+19
9.87205362e+19
9.938911487e+19
9.941202567e+19
9.955990444e+19
9.948492365e+19
9.915792412e+19
9.920999411e+19
9.899546575e+19
9.941410847e+19
9.97973436e+19
9.960572603e+19
1.007290316e+20
1.007790354e+20
1.009648798e+20
1.007011956e+20
1.009201171e+20
1.014740567e+20
9.937579148e+19
9.968660363e+19
9.989152432e+19
9.928841891e+19
9.979641505e+19
1.003202505e+20
1.008842394e+20
1.011204638e+20
1.005044524e+20
1.00280349e+20
1.005003121e+20
1.008125422e+20
1.012350524e+20
1.013647075e+20
1.008730063e+20
1.005799408e+20
1.002739821e+20
1.003214396e+20
1.004270689e+20
1.010731847e+20
9.932980739e+19
9.899420401e+19
9.889129522e+19
9.883176345e+19
9.929357573e+19
9.911702208e+19
9.934769881e+19
9.972656238e+19
1.001263751e+20
1.006901286e+20
1.007866669e+20
1.009261877e+20
1.004446171e+20
1.010382209e+20
1.005399296e+20
1.005712837e+20
1.002173147e+20
1.001765609e+20
9.950066814e+19
1.000064199e+20
1.000718233e+20
9.974342603e+19
9.983430783e+19
9.964904936e+19
9.992534821e+19
9.976191788e+19
1.004221874e+20
1.011599767e+20
1.007653486e+20
1.004251084e+20
1.003477279e+20
1.003032392e+20
1.003662093e+20
1.00709599e+20
1.016766903e+20
1.0180481e+20
1.011130858e+20
1.008043663e+20
1.012694517e+20
1.013315251e+20
1.002432192e+20
1.003621668e+20
1.003577328e+20
1.004449956e+20
9.982220169e+19
9.975758972e+19
9.997757146e+19
1.001172933e+20
9.932600083e+19
9.899978582e+19
1.014513459e+20
1.015722877e+20
1.006522925e+20
9.960210348e+19
9.913670705e+19
9.914948327e+19
9.912756961e+19
9.891436675e+19
9.922871848e+19
9.940288485e+19
9.846029012e+19
9.838177694e+19
9.858190165e+19
9.84668652e+19
9.908298422e+19
9.927716467e+19
9.967026404e+19
9.887485526e+19
9.913806836e+19
9.92135842e+19
9.898701693e+19
9.964030335e+19
9.998052844e+19
1.005090127e+20
1.002369374e+20
1.001644374e+20
1.003023148e+20
1.004026584e+20
1.005928915e+20
9.96990847e+19
1.007072405e+20
1.004463491e+20
9.998476602e+19
1.000096791e+20
1.002068523e+20
9.99848181e+19
9.977051989e+19
9.974412335e+19
1.001241648e+20
1.004028377e+20
1.001512504e+20
1.000633189e+20
1.000292671e+20
9.982402881e+19
9.955359094e+19
9.957147885e+19
9.982282696e+19
1.004904639e+20
1.006437448e+20
1.009239713e+20
9.955972782e+19
9.994125516e+19
1.003153509e+20
1.004172548e+20
1.002004056e+20
1.007119496e+20
1.00226034e+20
1.002402208e+20
9.973503187e+19
9.967235919e+19
1.001407995e+20
1.004063618e+20
1.000313862e+20
1.005410206e+20
1.006710117e+20
1.00253164e+20
1.000669299e+20
1.001721706e+20
9.999150538e+19
9.917572478e+19
9.948657132e+19
9.967397628e+19
9.944015042e+19
9.94441939e+19
9.960301463e+19
9.967102652e+19
9.925616022e+19
9.939948929e+19
9.998487315e+19
1.005720948e+20
9.912915022e+19
9.940038373e+19
9.948465147e+19
9.960423738e+19
9.981575503e+19
9.936372718e+19
9.996449382e+19
9.975290314e+19
1.000224598e+20
1.002647596e+20
9.955136708e+19
9.953718001e+19
9.940412455e+19
9.924147302e+19
9.9590122e+19
9.988310704e+19
1.002020596e+20
1.006968054e+20
1.007940906e+20
1.003048468e+20
9.984399309e+19
9.936039646e+19
9.931088285e+19
1.000139469e+20
9.886379853e+19
9.881837905e+19
9.907090287e+19
9.816363522e+19
9.761912607e+19
9.835839068e+19
)
;

boundaryField
{
    flow
    {
        type            calculated;
        value           nonuniform List<scalar> 
48
(
7.738641973e+19
7.770508807e+19
7.722604416e+19
7.75280501e+19
7.75301329e+19
7.749055971e+19
7.741974452e+19
7.738850253e+19
7.751555331e+19
7.715731177e+19
7.789670564e+19
7.714689777e+19
7.760927929e+19
7.723437536e+19
7.785921524e+19
7.706566859e+19
7.779881405e+19
7.597428159e+19
7.597428159e+19
9.738129604e+19
9.831855587e+19
9.881426218e+19
9.872678459e+19
9.883092458e+19
9.893298176e+19
9.898713455e+19
9.883509017e+19
9.87205362e+19
9.938911487e+19
9.941202567e+19
9.955990444e+19
9.948492365e+19
9.915792412e+19
9.920999411e+19
9.899546575e+19
9.941410847e+19
9.97973436e+19
9.960572603e+19
9.984399309e+19
9.936039646e+19
9.931088285e+19
1.000139469e+20
9.886379853e+19
9.881837905e+19
9.907090287e+19
9.816363522e+19
9.761912607e+19
9.835839068e+19
)
;
    }
    obstacle
    {
        type            calculated;
        value           nonuniform List<scalar> 0();
    }
    frontAndBack
    {
        type            empty;
    }
    procBoundary2to0
    {
        type            processor;
        value           nonuniform List<scalar> 
31
(
7.739266813e+19
9.945159886e+19
9.989523518e+19
9.92412361e+19
9.960780883e+19
9.92204081e+19
1.000243688e+20
1.004055211e+20
1.011407493e+20
1.007720938e+20
1.002826359e+20
9.995563637e+19
1.001659991e+20
1.002805531e+20
1.000368656e+20
1.000639419e+20
9.987232438e+19
9.971819721e+19
1.001680819e+20
1.001680819e+20
1.001509812e+20
1.001817494e+20
1.000364177e+20
1.004268061e+20
1.015767777e+20
1.01785846e+20
1.00180513e+20
9.969081208e+19
9.997205124e+19
1.005154144e+20
1.005154144e+20
)
;
    }
    procBoundary2to3
    {
        type            processor;
        value           nonuniform List<scalar> 
19
(
1.018633756e+20
1.00773088e+20
1.008650677e+20
1.011185701e+20
1.001561557e+20
1.001718601e+20
1.016928787e+20
9.888864022e+19
9.977478007e+19
9.88706931e+19
9.988919226e+19
1.000866113e+20
1.010064006e+20
9.986900174e+19
9.95190343e+19
1.001225048e+20
1.009615328e+20
1.003042202e+20
9.792622583e+19
)
;
    }
}


// ************************************************************************* //
