/*--------------------------------*- C++ -*----------------------------------*\
| =========                 |                                                 |
| \\      /  F ield         | OpenFOAM: The Open Source CFD Toolbox           |
|  \\    /   O peration     | Version:  2406                                  |
|   \\  /    A nd           | Website:  www.openfoam.com                      |
|    \\/     M anipulation  |                                                 |
\*---------------------------------------------------------------------------*/
FoamFile
{
    version     2.0;
    format      ascii;
    arch        "LSB;label=32;scalar=64";
    class       volScalarField;
    location    "0.01";
    object      translationalT;
}
// * * * * * * * * * * * * * * * * * * * * * * * * * * * * * * * * * * * * * //

dimensions      [1 2 -2 0 0 0 0];

internalField   nonuniform List<scalar> 
546
(
288.0762395
304.0828905
298.0660429
299.5647639
299.1600469
298.449035
299.9335054
301.6212257
300.4844544
301.3181666
302.6492467
303.0072582
301.2226076
300.1322818
298.464889
299.3968917
298.3801812
297.8194671
298.6518382
300.1361764
288.3766633
304.4526492
297.9419036
299.3061621
299.9690504
300.6732817
300.0902112
299.8131327
299.9579922
300.2984847
298.788902
299.7742372
300.5257313
301.5376415
301.6841062
299.3973981
299.3592761
300.1565355
299.5422314
298.9309162
290.6222387
306.0752588
298.5651311
299.6184576
300.7911351
301.6410636
300.3238057
300.7525493
299.4177773
299.4950231
299.4868451
301.1276333
300.133709
298.7394663
299.885895
300.2659999
300.4396681
298.4897491
298.228755
297.9712175
292.7921517
308.1272711
301.2694029
299.926782
298.1587859
298.2972567
298.1562255
297.2214784
298.8473892
298.0065958
297.6677719
297.8918256
298.4765713
298.5834951
299.379642
299.6446745
299.6431198
301.5857536
303.9253598
301.5670626
289.401405
305.3283097
299.0004402
300.0313645
299.1656684
299.5579047
299.7318114
299.7331758
300.3361048
299.2921497
299.1877646
297.4985593
298.3693837
299.3626045
299.2600062
301.4088791
302.1325287
301.8897834
300.8479034
301.3749772
290.7718818
307.2290108
298.2451114
297.8081568
298.5151021
297.3883363
296.7247689
297.446365
296.7459559
298.6380202
299.8927661
298.8038835
300.9680183
301.1419891
302.6853335
303.651597
303.9470519
302.2343651
302.9469302
304.0222958
289.1814043
304.3236349
298.8249953
300.1897923
300.6460195
300.6466965
301.1790686
302.143615
301.6439469
300.3863436
299.8151256
299.5441139
299.7585149
297.9177815
298.0567489
297.5729155
297.4490874
299.6176159
300.2605365
299.3448451
289.4782332
306.1009236
299.8048801
299.7413202
299.9665971
299.0839296
300.4104128
300.1313216
300.0173013
301.7301939
301.2502506
300.0324455
299.3261977
299.3848618
298.9296031
299.6586346
299.6609965
298.7878933
299.4847529
300.2011491
291.2505441
305.2097701
298.1562115
298.2380015
297.7869569
298.8101958
298.2151925
299.161687
299.9345355
300.1789957
300.154872
301.9888771
302.2199592
302.0629922
301.6948642
300.8777594
301.3411812
300.9416918
300.2846196
301.877343
289.3345525
307.364362
300.6848268
298.9051677
299.1243795
298.437877
298.2934505
300.2124934
301.500858
300.9106494
300.0822786
301.0064019
299.5810914
301.7963348
303.3596909
301.8665736
301.7904284
301.95723
299.9711015
298.1160061
292.1586457
306.8887318
298.4015759
299.1886661
299.3307767
300.9094041
299.5409115
297.7601963
298.2586885
298.7507678
298.578919
298.7218629
300.1737884
299.1864602
297.2743914
298.4665144
299.8172991
298.6373044
299.6973359
300.0259163
288.710084
305.0365996
297.7429461
300.7974064
299.4831446
298.6132547
298.3775054
297.9624607
297.9675556
298.5736972
298.9919041
298.3689356
298.858616
300.9425547
300.794636
300.1523596
300.2949398
300.8909872
301.3036437
301.1882555
290.5976283
305.7288442
298.0834061
298.5682926
299.2363119
299.1684357
300.0980227
299.386923
298.5263703
297.2304416
298.995923
300.982809
301.7051334
299.9254329
299.7179802
301.3897188
299.6848542
299.9836799
300.0704965
301.8623724
287.6700616
304.8951003
299.3539104
300.463855
300.2805962
299.4780395
300.5920162
302.0587452
303.3216264
303.5274599
300.1574378
299.1401531
297.7797443
299.4304038
300.7985647
299.5169823
299.9339979
298.4076046
298.0450234
297.7053723
293.0460826
308.2086776
299.3383763
298.6496314
300.1918361
301.5037888
302.1855078
303.54327
302.7539724
303.7539284
301.668641
302.0219754
301.3767976
299.8774669
298.5949773
298.5887405
299.8015705
300.9292597
300.6469224
298.2150162
290.5677773
305.2789049
299.2080783
302.5570026
302.2062104
300.4728681
300.1730725
297.1673807
295.9831002
297.8977371
299.234065
300.064268
299.5112034
300.7809927
300.3532604
298.0585211
298.1057084
296.3994756
297.4892193
299.5814574
290.5951992
305.6308788
299.176216
297.6770925
296.4362126
296.4954963
297.9941417
298.3682235
299.0702769
300.0430591
299.4702229
300.1235765
300.6630076
300.0991266
300.2082784
300.4459035
299.4978314
299.2202794
299.5192496
297.0284847
290.3386103
303.9329591
297.84342
296.1975129
294.214083
295.91178
296.6610676
297.4816143
297.7957312
298.2528644
298.5202628
296.0182459
297.6758894
296.4669762
296.4989175
296.3344712
296.9537911
298.6020436
297.2527382
296.7822257
308.1229555
309.1120932
307.2600706
307.5638065
313.9998905
320.44138
301.7342621
303.798207
302.7434984
303.4310733
304.7135885
304.7032974
306.331617
311.4222129
309.6201271
313.000714
298.8755546
298.0743268
298.6994861
301.1818228
303.0406406
305.1699316
304.9344467
305.9751953
308.1008688
310.4966846
300.1553712
302.4604996
303.4955522
303.229818
301.3050289
302.0675865
303.6165865
305.1458447
307.591431
309.0016598
300.1796986
301.8546603
301.6743287
302.0178727
301.5303789
303.1435336
303.4065612
302.1501716
305.0393377
305.7632089
301.6289779
301.2257512
301.4102988
302.1511987
302.1753561
302.557741
305.5884558
306.021095
306.396244
306.1756626
302.8638718
301.9959819
300.7116508
302.1017711
304.9013622
301.687759
300.9475833
299.9921716
300.9029466
300.2379247
300.6955301
300.3556848
302.2546253
299.065444
300.4271626
299.7435868
300.3045747
303.2786106
303.5863546
304.1462904
299.4428548
301.5012235
299.2949033
299.1762881
300.4320337
300.4149272
300.1449932
300.9282882
301.4297267
301.2868648
300.6786612
301.340679
302.5544943
299.7769128
301.3204676
300.5300033
299.4928658
300.2442611
301.4750118
299.9910886
299.2373451
300.2515365
301.1637241
302.1617667
299.9103042
301.4746463
301.9882241
301.6428633
301.8951202
301.6165022
299.5077102
299.6547727
299.4483935
300.4056614
300.474702
299.9485389
299.884165
301.0012671
300.0198991
301.6788656
301.1469065
300.0074212
299.2888384
300.4903026
300.9315769
299.8016813
299.7317845
299.2165506
299.5309441
300.6911296
302.2241916
302.3282343
305.4383098
302.916538
300.6946462
301.3822587
301.3111207
300.8868272
299.3081943
298.026369
298.0364052
297.66533
296.0776732
298.8696129
300.5635309
297.7674431
297.5493699
299.8773938
297.8529557
298.1716203
298.304633
298.1953686
299.1383995
296.8706953
298.0864233
300.0753405
299.8785311
297.9253717
299.3611425
301.0657564
298.8920544
298.3265305
297.7875227
299.2615026
299.2428578
297.4242686
299.5300173
300.3603242
300.2423479
300.7408978
297.0392815
299.1849214
297.9973792
297.7845032
298.3527236
298.8901578
299.9420924
299.6643924
301.3343983
300.2899049
298.0951316
296.0580441
296.2064427
297.0536055
297.8114225
296.8448998
296.7059642
296.1717242
295.6401722
297.2129694
)
;

boundaryField
{
    flow
    {
        type            calculated;
        value           nonuniform List<scalar> 
48
(
288.0762395
288.3766633
290.6222387
292.7921517
289.401405
290.7718818
289.1814043
289.4782332
291.2505441
289.3345525
292.1586457
288.710084
290.5976283
287.6700616
293.0460826
290.5677773
290.5951992
290.3386103
290.3386103
303.9329591
297.84342
296.1975129
294.214083
295.91178
296.6610676
297.4816143
297.7957312
298.2528644
298.5202628
296.0182459
297.6758894
296.4669762
296.4989175
296.3344712
296.9537911
298.6020436
297.2527382
296.7822257
298.0951316
296.0580441
296.2064427
297.0536055
297.8114225
296.8448998
296.7059642
296.1717242
295.6401722
297.2129694
)
;
    }
    obstacle
    {
        type            calculated;
        value           nonuniform List<scalar> 0();
    }
    frontAndBack
    {
        type            empty;
    }
    procBoundary2to0
    {
        type            processor;
        value           nonuniform List<scalar> 
31
(
289.974367
306.6566032
298.9800162
299.9856818
298.6253718
298.7153217
298.4557777
300.2193654
300.5740074
299.8098246
299.6369976
299.5070063
301.6767343
301.9556135
302.3809265
300.437325
299.4004756
301.9897769
301.8013147
302.1765035
307.4500797
311.3881307
314.0483842
321.1780251
327.4987084
332.0441535
298.5384234
300.6277486
303.1079886
304.9678478
304.9678478
)
;
    }
    procBoundary2to3
    {
        type            processor;
        value           nonuniform List<scalar> 
19
(
327.4263386
320.2358386
315.818746
313.5008502
309.4982691
308.3454779
303.5753513
304.1177386
301.9722773
299.631848
301.8395832
303.47255
300.8217038
298.5948967
299.2960439
302.0977738
302.0760587
299.741342
297.4878441
)
;
    }
}


// ************************************************************************* //
