/*--------------------------------*- C++ -*----------------------------------*\
| =========                 |                                                 |
| \\      /  F ield         | OpenFOAM: The Open Source CFD Toolbox           |
|  \\    /   O peration     | Version:  2406                                  |
|   \\  /    A nd           | Website:  www.openfoam.com                      |
|    \\/     M anipulation  |                                                 |
\*---------------------------------------------------------------------------*/
FoamFile
{
    version     2.0;
    format      ascii;
    arch        "LSB;label=32;scalar=64";
    class       volVectorField;
    location    "0.01";
    object      UMean;
}
// * * * * * * * * * * * * * * * * * * * * * * * * * * * * * * * * * * * * * //

dimensions      [0 1 -1 0 0 0 0];

internalField   nonuniform List<vector> 
546
(
(1708.982484 2.100187942 -0.5147291843)
(1742.333033 3.008331642 -0.807237036)
(1734.63027 2.994409293 0.8296860136)
(1732.151079 1.942035884 0.3362983419)
(1733.078459 -1.544386427 -0.2627549032)
(1733.721133 -2.576955008 1.059494101)
(1734.895407 -0.2544191304 1.342327366)
(1734.915901 -0.8824799962 1.091356615)
(1737.32496 -1.952617233 1.498986724)
(1736.939418 -3.044973384 0.07328824537)
(1736.583101 -2.583016566 -2.806473633)
(1737.761966 -0.6587260376 -0.976365522)
(1738.854929 1.094261793 -0.7784302114)
(1737.242137 1.357892899 0.9864822353)
(1738.14185 1.544313501 2.552810343)
(1738.015215 1.089974993 -0.6706496367)
(1737.306274 -0.2799991902 -2.233340802)
(1738.336092 -1.907203158 -1.19841484)
(1737.587018 0.6093566518 -1.590114771)
(1736.779172 2.700963014 -2.320776453)
(1710.34913 0.2219711601 3.618580375)
(1747.946276 -0.180315101 3.484800705)
(1739.820278 1.253467766 4.714944983)
(1738.695833 1.112214429 2.39213044)
(1736.788784 2.522448095 1.759700786)
(1734.963118 1.877970499 -0.2808044823)
(1736.026422 -3.14689699 -0.6167744558)
(1735.541326 -4.666908563 -2.275785079)
(1735.249948 -3.816666182 -2.557110321)
(1734.858535 -1.285842038 -0.813054973)
(1736.603288 0.9655175688 -0.9215705872)
(1736.039819 -0.02683079573 -1.474266265)
(1735.915503 0.06549903632 -3.262306344)
(1738.022806 0.1300959651 -3.466416129)
(1737.250973 1.501649187 -3.036374084)
(1737.449174 2.111480231 -0.7790681062)
(1737.617529 2.713535524 -0.1172671989)
(1735.978435 4.24177059 -0.47932636)
(1736.029054 1.358240319 1.002431514)
(1736.39266 0.6723412445 1.402212829)
(1708.018554 0.2165336933 -3.718867161)
(1744.480798 -0.6545255832 -4.191803976)
(1737.648841 -3.000344962 -1.898414053)
(1736.426488 -4.423636746 -1.572406488)
(1737.819674 -3.339969057 0.02184956621)
(1739.573125 -2.837776759 1.147351749)
(1737.778823 1.183280006 -0.1425979582)
(1739.158564 4.544543328 0.7121272799)
(1739.695734 4.394087189 -0.1839930081)
(1737.291744 2.472668112 -1.116649314)
(1737.397521 2.163592938 -1.718489649)
(1736.695078 2.423477089 -1.039462874)
(1734.43338 1.361140391 0.521464715)
(1735.724666 1.896004079 0.7539780889)
(1736.45289 1.002777235 0.5294422837)
(1736.633949 0.7239234484 -1.195570711)
(1736.710786 -0.5852731288 -1.21769557)
(1736.536222 -1.524228876 -1.122977447)
(1738.721251 0.0698554124 -0.5529977534)
(1737.770688 -2.147467115 -3.020913134)
(1709.011147 0.8150157976 -0.6198944679)
(1746.461579 -0.1538557336 -0.02558626283)
(1738.556035 0.2621815992 -1.208367868)
(1737.864007 0.63649727 -0.2056818763)
(1738.209874 0.003998807888 -0.2980482132)
(1738.790111 0.8035262842 1.063893886)
(1738.508497 -1.580939676 0.8485014551)
(1738.09708 -2.267201724 0.337793474)
(1738.509376 -0.7080635707 0.7388071821)
(1737.482384 0.8729516996 1.053297245)
(1737.212277 -0.1472580495 1.026117985)
(1738.806617 0.2521141023 2.160586569)
(1738.980479 2.496361809 -0.337295052)
(1738.20602 2.763634829 -0.01151339649)
(1738.510127 3.396321352 0.7106437558)
(1737.254506 2.460235324 0.905492448)
(1739.000215 2.894473807 1.534126866)
(1737.627732 1.153893233 1.493542373)
(1735.17145 -0.8490562463 0.3437993228)
(1737.076168 -2.233904035 1.43215787)
(1710.941218 -1.521409596 -1.617863909)
(1745.52275 1.351235337 -0.9080345001)
(1736.876407 1.834068197 -0.7443962797)
(1735.063247 0.1492457744 -2.429309883)
(1736.372791 1.483361832 -1.912667626)
(1734.414158 2.147536916 -2.540554929)
(1735.296578 2.637405164 -0.9614449688)
(1736.569224 2.094825222 2.197860074)
(1735.995163 -1.244747981 1.988007274)
(1738.292307 -0.1534238998 2.072472701)
(1740.0474 2.594342613 1.213288441)
(1740.127253 1.185448271 2.039086529)
(1740.260923 0.5138719584 2.416950152)
(1738.980375 0.376888873 0.74724977)
(1736.897876 -1.036084415 -0.6261355982)
(1736.197993 -0.9821686328 -0.08930205334)
(1735.550968 -2.818637754 0.446127492)
(1736.059884 -2.291284305 0.2689310533)
(1735.566095 -2.266594952 0.5635510769)
(1735.198821 0.2476249653 1.226704203)
(1707.797885 1.476677008 0.3719340511)
(1744.671401 1.511074401 -0.2310995552)
(1735.455846 1.823815772 0.02855580232)
(1736.185208 4.659660966 1.941439108)
(1735.098339 3.171384186 2.372601805)
(1736.909149 2.817590221 3.04940427)
(1736.284614 1.975779519 2.121628267)
(1735.874424 0.8691331093 -0.5214493519)
(1736.09514 3.393913575 0.5237141962)
(1735.97404 0.08701148895 0.2057702426)
(1734.366707 -2.600739686 0.8279214203)
(1734.907815 -3.471199582 -0.428476464)
(1734.897252 -3.766920138 -0.8859270563)
(1737.100976 -3.739813994 0.9064882534)
(1737.938856 -2.636741718 1.113623872)
(1737.295849 -2.882884024 0.2736972161)
(1735.455267 -1.537191952 -0.369898968)
(1735.082784 -0.0965436118 -0.6288155989)
(1734.071563 1.339404938 0.7217823276)
(1735.371112 0.4726475359 -0.5811266594)
(1708.355709 2.217359201 1.71448141)
(1745.301042 2.813696956 1.554366097)
(1736.94589 0.9082884146 1.501403999)
(1736.847676 0.3736004322 -0.009010517559)
(1736.440034 -1.510398732 -0.8154433126)
(1735.980716 -1.538703655 -0.7887861474)
(1735.450201 -0.5553892685 -0.5180301955)
(1736.743122 0.1389764436 -0.6731908537)
(1736.995126 0.7147991936 -1.068518457)
(1734.715916 -0.2478683412 -0.7138554873)
(1737.150795 0.8215788657 0.6266003746)
(1734.766883 1.823341047 -0.3267669312)
(1734.685198 0.6472174126 -1.456398766)
(1735.29752 0.001486390436 -1.487333935)
(1733.243518 -0.6998516603 -0.6215517443)
(1733.953415 -0.1384645141 -0.1237954181)
(1732.590962 -0.8283829066 1.051220902)
(1734.561883 -0.6720459732 0.836449901)
(1734.407184 -1.213750271 0.8640417353)
(1734.87413 -1.127769448 -0.3238764871)
(1711.285511 -1.114920445 2.288098478)
(1747.668121 -1.847837466 -0.1861666914)
(1738.881886 -2.430073718 0.3970342648)
(1738.672911 -1.413321895 -0.5857696527)
(1738.857026 -1.750244536 1.51146902)
(1738.624074 -1.070071571 -0.7647884381)
(1737.360994 0.5824512996 -2.601404292)
(1735.742292 0.9399181377 -2.510136874)
(1735.93806 -1.268010456 -3.243511146)
(1735.666275 1.183317055 -2.379883179)
(1735.884201 2.416412574 -2.648905602)
(1735.28525 0.6143205284 -3.744636888)
(1734.754552 -0.1563062579 -1.849247919)
(1736.173717 -0.4682514111 -3.062077157)
(1735.656531 0.4560070019 -1.852572053)
(1735.13647 -0.5128667339 -2.316505181)
(1736.949515 -1.820380037 -2.659680035)
(1735.624188 -1.499194844 -3.6811421)
(1733.767543 -2.1991249 -3.365237387)
(1733.817803 -2.142582106 -3.140651678)
(1708.045261 -2.218943063 -1.482465192)
(1744.741363 -3.633316735 -1.478101415)
(1735.035343 -5.748872256 -0.79002248)
(1733.305977 -3.779621876 -2.227251638)
(1733.326176 0.5336067517 -1.37647336)
(1733.472205 1.937155118 0.104852451)
(1734.57833 0.8205747994 0.9016602554)
(1736.055829 -1.503363815 1.309743941)
(1736.526291 0.00517007984 2.119531886)
(1735.934506 -1.262813852 0.0334847925)
(1734.379032 -2.016800674 0.8114003131)
(1734.498572 -1.948550998 2.3662068)
(1735.391469 -0.02627807487 3.256153215)
(1734.666471 1.165145766 2.397106608)
(1735.434606 -0.3294134147 1.132895808)
(1734.417619 0.3280937614 -0.3274446472)
(1734.233034 -1.138762862 0.3952116816)
(1734.036923 -0.7376731749 0.1057162393)
(1736.672869 0.1687698587 -0.01619903857)
(1738.001455 -0.06465842101 0.1903784806)
(1708.145345 -0.2064336305 -1.51608233)
(1744.599949 0.9307632893 0.04044942451)
(1737.573559 1.543525784 -0.115983837)
(1739.048383 -1.539576218 0.392475192)
(1740.285678 -3.105150104 1.020829954)
(1738.669555 -3.321912621 1.740563947)
(1739.053536 -1.742158745 2.285557506)
(1737.718601 -0.6938851834 0.6451324166)
(1737.676262 -0.7968615326 0.6514564958)
(1738.304205 -2.287946906 0.218461901)
(1736.805315 -0.2654224656 -0.04507938657)
(1737.70578 2.163677663 -1.29455945)
(1737.245637 0.1336190416 -2.663983051)
(1737.153597 0.8099246755 -2.303057437)
(1736.963315 0.3860802273 -0.7600764244)
(1736.677057 1.622205376 -0.8652161788)
(1736.144231 3.078587339 -1.564288767)
(1735.44583 4.053811058 -0.2231119488)
(1736.507582 3.169101716 -0.3974940583)
(1737.308856 2.194460584 -1.075981214)
(1708.761151 0.8394459852 -0.5850903489)
(1746.142448 -0.1060711491 -0.897759507)
(1739.2199 1.506298155 0.5490969308)
(1736.880653 0.3535298012 2.018932705)
(1737.026632 -0.05803950951 -0.9601793386)
(1733.863708 -1.837662526 -1.351567371)
(1734.572803 -1.855817307 -1.228642645)
(1735.513455 -1.381436299 -1.164417371)
(1735.706037 -0.3277473573 -0.986558786)
(1733.550023 0.7178336943 -0.4519227584)
(1734.583255 -0.8060282614 -0.5960867434)
(1733.389318 -1.09846373 0.8267621906)
(1732.629957 -0.1802864774 1.082691463)
(1734.495197 -0.02094761868 0.8661331188)
(1735.939318 0.4404439359 -0.4640797798)
(1736.723837 1.506261952 2.09342346)
(1736.853602 2.994590942 1.089820955)
(1737.710138 1.983258288 0.4056932271)
(1737.952614 2.796239575 0.8893718623)
(1737.195431 2.287783966 1.246635388)
(1709.311465 0.4106454306 1.594250868)
(1745.504967 1.428585143 1.021814178)
(1736.486316 -0.0500539866 -2.410684148)
(1736.087759 1.429074336 -3.008372404)
(1736.469888 0.2666240333 -2.538250943)
(1738.339436 0.2906934879 -3.048503232)
(1737.805479 -0.6670278195 -2.987033276)
(1738.643063 -2.787912538 -3.649604359)
(1739.243275 -2.118890179 -2.116659801)
(1737.826711 -0.0257861211 -2.458747837)
(1738.831227 -0.2899193467 -3.794671347)
(1739.681521 0.7872618127 -3.791508033)
(1740.041172 1.786235709 -2.043297984)
(1737.67635 0.3518771576 -0.7128259364)
(1735.957254 0.5295065382 -1.231330805)
(1736.485574 -1.485660482 -1.62911316)
(1735.058929 -1.829325359 -1.978766972)
(1734.380918 -1.400779101 0.1644627208)
(1735.134708 -1.36837419 -0.8008743127)
(1733.827964 0.2852940607 -0.2545621753)
(1711.733001 0.8715367963 -5.075029113)
(1747.718518 -0.3970771638 -5.277283127)
(1736.811977 0.8093642827 -4.284173943)
(1737.42616 1.959704212 -4.467918225)
(1737.155765 2.063968096 -3.99341726)
(1737.363167 0.5767015354 -3.697137789)
(1737.236256 1.912372257 -2.587565273)
(1736.279675 2.62071811 -1.843032879)
(1736.201677 1.237916029 -1.653558635)
(1737.992312 -3.027728215 -0.7732665543)
(1735.542695 -1.307491494 0.1998801995)
(1735.694711 -3.055195779 0.8677493132)
(1736.343611 -2.625203756 -0.9770554388)
(1736.803678 -0.8110879688 -1.383009478)
(1737.465125 -0.8039998954 -0.9247275513)
(1736.465411 0.5592042587 -0.3178671906)
(1737.57477 0.4683828464 -1.257700503)
(1738.091497 0.806376533 -1.110428163)
(1737.214237 2.725396962 -1.172423809)
(1736.44223 3.002305529 -0.4869806364)
(1708.127484 1.339864108 -4.099792)
(1747.200209 0.5629782359 -3.167733044)
(1738.334521 -0.2843442824 -2.25338252)
(1736.712001 -0.4674821429 -2.357013509)
(1736.167831 -1.409000262 -1.386361661)
(1733.915878 1.905099629 -0.9312639294)
(1735.352454 1.617115486 -0.5628581705)
(1732.397482 2.397529958 -0.1625458501)
(1735.178991 0.336038083 -1.798426774)
(1734.980259 1.575943563 -1.580265451)
(1735.754599 0.2434503559 -3.491771923)
(1735.812707 0.3425467838 -3.427381889)
(1735.657143 -0.2921368627 -4.769751818)
(1733.888576 0.6649330222 -2.389885497)
(1734.097588 1.489103582 -1.911201124)
(1734.8231 1.567006288 -2.322076845)
(1734.903205 0.3216284664 -2.604075694)
(1736.433059 -0.1537125895 -3.090072491)
(1738.161114 -1.920182757 -1.5418979)
(1736.825324 -0.8447453019 -2.782706285)
(1704.755636 -1.455294628 -1.303522811)
(1740.458188 -0.4667945134 -0.6790250057)
(1732.047895 -1.040240434 -0.380442376)
(1733.548018 0.01093200453 1.426658766)
(1732.333299 0.7023602697 1.455092612)
(1732.202601 1.065123149 1.024376937)
(1732.8003 -1.696645017 1.136948513)
(1732.59266 -1.569775315 0.9907666727)
(1732.183415 1.057127305 0.7608046735)
(1731.884392 4.303441634 1.500024148)
(1731.768744 4.579041091 1.060538715)
(1732.799775 3.737596405 0.4541934974)
(1732.973035 2.751835742 2.714881569)
(1734.84261 -1.520395518 2.548759988)
(1734.98196 -3.047438782 -0.9449419802)
(1734.525849 -4.006799439 -1.756026324)
(1734.940228 -3.5533708 -0.8522245305)
(1732.837995 -2.620148717 -1.348229627)
(1734.001682 -3.010676947 -3.399307224)
(1734.857226 -2.526236728 -3.270856736)
(1708.192616 2.481816502 -1.440458326)
(1744.662052 2.49864696 -1.808014172)
(1737.396124 3.105679221 -1.620061207)
(1736.692343 2.089389844 -0.9882136012)
(1736.717872 1.075959643 -0.9258353571)
(1737.930882 1.819653518 -0.7536753461)
(1737.299715 2.200057431 -0.4612504884)
(1738.517906 3.62085665 -0.1419732352)
(1740.761759 1.040498418 -1.524729441)
(1738.420369 -1.710064293 -1.817595034)
(1739.432217 -1.658991437 -1.278717835)
(1736.573726 -0.6685814124 -0.3958987999)
(1737.514377 -0.0339156655 -3.175465946)
(1734.606751 1.408673303 -3.366644743)
(1734.55006 1.122413573 -1.879260558)
(1735.368419 -0.7299425383 -0.5549013813)
(1736.400706 -1.255527594 0.9647588427)
(1735.100193 -2.26108221 -0.4325440026)
(1734.915737 -0.1893211029 -0.8537976819)
(1734.933652 -0.7644020735 0.3975023652)
(1707.451935 2.219263672 0.1041645399)
(1746.972052 1.500634637 -0.3612062006)
(1738.141054 0.5416052248 -2.339084886)
(1738.477344 1.003121404 -2.344980136)
(1740.720441 1.297547424 -2.274209819)
(1738.463322 1.760341317 -2.169080718)
(1737.969807 1.871871932 -2.931692597)
(1738.896376 0.9412730809 -2.684920361)
(1735.088965 2.287877253 -0.85584421)
(1736.489038 1.724051879 -0.02392328509)
(1735.249722 -0.3452892997 -0.4482230403)
(1736.133237 -1.094860632 -0.6131607791)
(1735.823711 -0.7018605282 -1.194387819)
(1735.382021 0.9159397972 -1.1059618)
(1736.779459 0.8820222565 -1.739688719)
(1735.618324 3.729630146 -1.988178077)
(1737.61356 6.191089382 -3.120866463)
(1737.057304 3.416420788 -0.2733593737)
(1737.369804 1.351616523 -0.594335173)
(1737.424148 1.300276166 -1.58216048)
(1711.228202 4.84618246 -0.9207746612)
(1746.252611 4.569242279 -0.4281782132)
(1736.120951 6.443824241 2.156171276)
(1734.995282 6.575019255 0.8386638925)
(1736.537812 6.783087182 -0.6042005091)
(1737.59494 6.582559708 -0.9951963808)
(1735.38228 5.494612501 -0.7926530923)
(1733.747468 5.55975329 0.2354005547)
(1735.04305 5.430019845 -1.167852513)
(1734.226583 6.755955957 -2.957985401)
(1733.583337 9.662824081 -3.580184855)
(1734.54059 10.66930386 -1.022019819)
(1734.558953 8.520900099 0.2910008764)
(1735.670726 6.545899557 1.103089507)
(1734.875119 7.322281684 0.6349653983)
(1735.268923 7.635890996 0.9522101771)
(1733.889795 4.296468595 0.8106816265)
(1732.077389 6.559250469 -0.6053841362)
(1733.796544 6.361622061 0.2178611707)
(1735.09025 6.371283653 1.545854999)
(1733.111996 6.480117282 -0.3291897506)
(1733.245482 4.96442903 -1.100487977)
(1734.39261 5.003128107 -1.820476495)
(1733.946535 3.754941397 -2.356428369)
(1732.685277 5.825939208 -2.067891783)
(1729.886125 10.34986026 -0.1834054746)
(1735.433979 2.18324693 -0.2367723956)
(1735.848348 3.026318244 -0.8114935486)
(1738.032271 1.905947825 -1.575882452)
(1737.342954 2.285950562 -1.948044735)
(1736.626554 -0.4517861777 -1.105220136)
(1736.179237 0.1217866843 0.8194417719)
(1734.657284 1.30182337 1.647085604)
(1732.808352 5.047216061 2.00300103)
(1733.620681 5.568193837 0.3005109613)
(1734.100733 6.803018078 -0.1474844896)
(1737.027073 0.4171880024 0.6882056039)
(1737.056468 -0.1741039634 1.216471285)
(1734.044712 0.2073238661 3.623910529)
(1733.804293 -1.776761829 3.154611624)
(1733.375461 0.0189379335 1.743790656)
(1732.906999 2.733217533 2.334881783)
(1735.695014 2.646456011 1.711717342)
(1735.144093 4.302410011 2.80176842)
(1735.440008 4.443789715 2.61463561)
(1731.671875 6.403534646 2.26993216)
(1735.279653 -1.74378249 -2.750654588)
(1734.687572 -1.637827037 -1.83213086)
(1735.071334 -1.399706726 -1.822323897)
(1735.637704 -2.001660775 -1.343883963)
(1736.652302 -3.619483327 -0.9009496694)
(1735.558134 -1.213761323 -2.312332611)
(1735.976958 -0.497298896 -2.148763956)
(1735.70758 -0.125915034 -3.676606486)
(1735.023792 0.5005877299 -2.254092503)
(1732.560416 0.9681556831 -1.575746526)
(1738.23822 -3.099215905 -0.6221380744)
(1738.246376 -1.260988185 -0.194405489)
(1738.402219 1.081424684 -0.8623605439)
(1737.099476 2.603832546 -2.194903969)
(1737.092439 2.96946887 -0.9339301763)
(1734.509911 2.256298548 -0.8210465001)
(1734.28486 -0.7395426738 1.914596263)
(1734.171329 -2.156875908 2.230982177)
(1733.161677 -1.288819744 1.325742244)
(1732.52227 -0.2238013722 -0.1371681173)
(1734.080606 0.4917806174 3.831948833)
(1734.172392 1.543680026 3.330937756)
(1734.878394 0.26730754 3.101645232)
(1735.55511 0.7951184238 2.949809916)
(1736.636574 0.691942156 0.752703827)
(1736.424407 -2.008667686 0.8532870197)
(1735.086956 1.011155946 0.3498963883)
(1735.351401 0.9688307875 -0.3182423978)
(1733.67713 0.03770122225 0.6400168977)
(1733.440783 1.980203229 1.333963369)
(1737.197282 0.5397431194 -1.609143896)
(1738.100199 0.4500027999 -1.607556537)
(1738.914782 0.4057214106 -2.681143392)
(1734.981269 -0.8457132683 -1.820989806)
(1733.500607 -1.697090803 -0.7820529259)
(1732.614025 0.7401502625 -0.5419872919)
(1733.651703 0.8591250225 -1.216593504)
(1734.841294 0.9625430755 -2.21887463)
(1735.398551 2.747215972 -2.64645209)
(1732.910048 2.177149073 -3.583932547)
(1732.553511 -0.8814048516 0.4596175665)
(1731.020981 -2.015098186 -0.7975785247)
(1731.085782 -4.336415708 -0.8257576222)
(1733.124778 -3.241638866 -1.489859006)
(1732.968841 -1.771682119 -3.52921955)
(1733.886839 -2.532150555 -3.853542981)
(1735.196387 -0.8298925661 -2.887285333)
(1735.234812 0.360461921 -2.946642342)
(1736.373538 0.3835093194 -2.663029288)
(1738.877244 0.5091030014 -1.571181893)
(1734.0566 -0.1951832231 -1.355774939)
(1734.286048 -0.3817537312 -2.329283097)
(1736.450423 0.9195215494 -0.0593346281)
(1735.795331 0.813103681 0.3905750482)
(1737.215898 1.240188246 0.1975555689)
(1736.246269 2.773948454 0.9046159495)
(1736.37509 1.252250855 -0.7552572269)
(1735.888311 1.9645066 -1.120720582)
(1734.992283 -0.4723635738 -2.489324817)
(1732.498956 -0.7313877181 -3.267627793)
(1736.679424 0.6741066231 -0.957427961)
(1735.726355 2.608314487 -1.086111689)
(1737.026541 4.18125176 -1.236166869)
(1737.343267 4.591426839 -0.2447158059)
(1735.114615 2.941551408 -0.5389587477)
(1734.774607 2.058557707 -1.770056888)
(1732.089911 -0.6421458394 -0.7173384695)
(1732.360863 -0.3857388482 1.180307597)
(1733.269551 -0.6013851087 1.803414548)
(1734.815032 -0.02368587047 1.180038612)
(1738.720913 2.047895984 -1.598294676)
(1738.339585 1.9771153 -0.5352879626)
(1734.603561 1.69057284 -3.185825765)
(1733.798652 0.7413611439 -1.907748569)
(1734.430939 0.3253951935 -2.321681283)
(1736.078979 -0.8767157068 -1.329863525)
(1736.341209 2.488947681 -1.737304427)
(1737.001587 1.939332913 -3.011518459)
(1737.004232 3.536164087 -1.278461261)
(1737.065777 3.964249453 1.128805929)
(1735.624708 1.849722452 0.7648211618)
(1735.617983 -1.550446441 0.02707426227)
(1738.795225 -1.823545923 0.513300003)
(1739.466435 -0.06775473835 1.083926909)
(1739.846494 2.355078278 1.304608006)
(1739.24432 3.35532963 0.9584903263)
(1738.862043 1.0758404 0.9012637032)
(1738.054432 3.349825874 3.370880081)
(1736.596638 2.11183882 1.818116914)
(1736.724702 3.902867089 -1.025036121)
(1735.439095 1.108169253 0.3655864602)
(1737.232462 2.963485474 0.7444647586)
(1734.967528 3.807647994 0.5897198719)
(1735.406606 3.216609927 1.27859555)
(1735.978779 1.892679337 2.033184998)
(1735.992612 1.068443695 0.9363946755)
(1735.668312 0.4471314067 0.5620119554)
(1735.190055 -0.2994935664 -0.7618574563)
(1735.612023 -0.2615894569 -2.080238325)
(1735.469059 -0.1957512583 -3.633008573)
(1735.534855 1.762268497 -1.900885189)
(1734.144532 0.9931720312 -2.545469226)
(1734.135441 0.1577272198 -3.044550458)
(1733.073772 0.5617871033 -4.572191646)
(1735.43598 -0.4785085481 -2.967303528)
(1735.335393 -0.7256732647 -3.333599207)
(1735.127819 0.4486771832 -3.709149578)
(1736.844617 -1.0041142 -4.068439163)
(1738.551969 -1.220021718 -3.543197155)
(1738.692235 -3.306018829 -1.988909509)
(1737.380362 -1.766491729 -1.235569279)
(1736.358558 -0.2608426348 -1.051205409)
(1736.288842 -0.2681449024 0.209683941)
(1735.042428 1.363936995 -0.1775554301)
(1733.894913 2.844772395 -0.1344816243)
(1734.109294 3.217178903 -0.223498036)
(1734.85969 2.411413753 0.7713900558)
(1734.762958 2.154574014 1.921283431)
(1733.961532 4.931983175 2.498068472)
(1734.745887 4.526278605 1.470132348)
(1736.731044 -0.1732790567 -1.9637266)
(1736.221761 0.4972991571 -2.554807621)
(1736.016478 1.206220116 -1.696611298)
(1737.61734 0.202739971 -0.9990394571)
(1738.105623 0.2827553106 0.8051607069)
(1737.807991 0.642654951 0.1125620156)
(1736.071929 3.681209853 -1.896134511)
(1737.708023 4.870550183 -2.361424395)
(1734.416986 3.339850299 -2.351507274)
(1734.033398 1.561256822 -1.738315004)
(1734.757629 -1.364620938 -2.917112381)
(1734.550412 -1.622000361 -1.863339513)
(1735.768368 -0.8138393812 -3.285052907)
(1734.676602 -0.798044155 -2.77264739)
(1736.459236 0.3477791716 -3.93994319)
(1734.915197 1.216910857 -1.326551137)
(1734.021385 0.88838547 -0.4959617682)
(1730.996958 -1.234443894 -1.93579479)
(1731.291593 -1.726527507 -1.750925923)
(1732.417052 1.752509562 -0.8693670425)
(1734.853533 0.6038316295 -0.100522117)
(1733.588654 -0.1169184203 -0.3305087527)
(1732.724897 -2.097379023 -1.090812457)
(1732.358458 -1.697823951 0.1341827969)
(1732.332495 -1.683926256 -1.361579138)
(1732.749899 -2.386737134 -3.504231914)
(1734.152063 -2.325838163 -1.753466212)
(1733.910145 -3.078097232 -1.171537738)
(1733.4941 -2.963080156 -0.9815055606)
(1734.151238 -2.47042576 -1.093315942)
(1734.759096 5.863312116 1.587491145)
(1737.455738 6.748346177 -0.2039160143)
(1738.050558 5.729137928 1.770461911)
(1739.408376 4.88740278 1.913932018)
(1738.959388 4.950137732 0.6875580223)
(1738.508632 4.592255588 2.739006932)
(1738.690182 3.924760268 3.692811096)
(1738.996307 4.059083805 2.555812512)
(1738.654912 6.089125664 2.858753314)
(1739.354955 5.30250967 3.10631959)
)
;

boundaryField
{
    flow
    {
        type            calculated;
        value           nonuniform List<vector> 
48
(
(1708.982484 2.100187942 -0.5147291843)
(1710.34913 0.2219711601 3.618580375)
(1708.018554 0.2165336933 -3.718867161)
(1709.011147 0.8150157976 -0.6198944679)
(1710.941218 -1.521409596 -1.617863909)
(1707.797885 1.476677008 0.3719340511)
(1708.355709 2.217359201 1.71448141)
(1711.285511 -1.114920445 2.288098478)
(1708.045261 -2.218943063 -1.482465192)
(1708.145345 -0.2064336305 -1.51608233)
(1708.761151 0.8394459852 -0.5850903489)
(1709.311465 0.4106454306 1.594250868)
(1711.733001 0.8715367963 -5.075029113)
(1708.127484 1.339864108 -4.099792)
(1704.755636 -1.455294628 -1.303522811)
(1708.192616 2.481816502 -1.440458326)
(1707.451935 2.219263672 0.1041645399)
(1711.228202 4.84618246 -0.9207746612)
(1711.228202 4.84618246 -0.9207746612)
(1746.252611 4.569242279 -0.4281782132)
(1736.120951 6.443824241 2.156171276)
(1734.995282 6.575019255 0.8386638925)
(1736.537812 6.783087182 -0.6042005091)
(1737.59494 6.582559708 -0.9951963808)
(1735.38228 5.494612501 -0.7926530923)
(1733.747468 5.55975329 0.2354005547)
(1735.04305 5.430019845 -1.167852513)
(1734.226583 6.755955957 -2.957985401)
(1733.583337 9.662824081 -3.580184855)
(1734.54059 10.66930386 -1.022019819)
(1734.558953 8.520900099 0.2910008764)
(1735.670726 6.545899557 1.103089507)
(1734.875119 7.322281684 0.6349653983)
(1735.268923 7.635890996 0.9522101771)
(1733.889795 4.296468595 0.8106816265)
(1732.077389 6.559250469 -0.6053841362)
(1733.796544 6.361622061 0.2178611707)
(1735.09025 6.371283653 1.545854999)
(1734.759096 5.863312116 1.587491145)
(1737.455738 6.748346177 -0.2039160143)
(1738.050558 5.729137928 1.770461911)
(1739.408376 4.88740278 1.913932018)
(1738.959388 4.950137732 0.6875580223)
(1738.508632 4.592255588 2.739006932)
(1738.690182 3.924760268 3.692811096)
(1738.996307 4.059083805 2.555812512)
(1738.654912 6.089125664 2.858753314)
(1739.354955 5.30250967 3.10631959)
)
;
    }
    obstacle
    {
        type            calculated;
        value           nonuniform List<vector> 0();
    }
    frontAndBack
    {
        type            empty;
    }
    procBoundary2to0
    {
        type            processor;
        value           nonuniform List<vector> 
31
(
(1707.793785 4.039182046 0.4744483809)
(1747.216599 2.099192392 -0.5500172461)
(1738.329437 -2.216523174 -2.206021194)
(1740.05719 -0.470700284 -1.782727306)
(1739.650317 -0.3630636547 -1.870451536)
(1738.523436 0.9013090489 -1.226311309)
(1736.420801 1.017998131 -2.348379574)
(1736.573269 1.386267931 0.4899865659)
(1735.210495 2.232548381 0.8611617812)
(1734.559157 2.472455118 -0.3881748428)
(1733.365914 2.101421866 3.179177535)
(1732.236301 -1.588947451 2.664246257)
(1731.688982 -2.037100308 2.3824421)
(1732.926677 -3.240632805 0.9456947472)
(1732.985707 -4.603069812 -2.141988145)
(1735.653369 -3.71838954 -0.8000753313)
(1736.023479 -1.429655807 0.3895183096)
(1736.007037 2.288551982 -0.9941664265)
(1737.540567 2.849804048 -1.105611898)
(1737.596958 3.396834621 -1.566622301)
(1736.297293 4.317316859 -0.6923242107)
(1733.975088 6.443640941 0.1170530915)
(1733.033082 5.675199511 0.7409405722)
(1729.51533 7.324169333 -0.9820198362)
(1725.686941 8.798022262 1.37408667)
(1723.864118 11.94849921 2.86753079)
(1737.999175 2.647656967 -3.236862911)
(1738.300945 4.862905414 -2.769852492)
(1733.712727 3.008754387 -2.65828433)
(1734.396255 3.60812336 -1.2718134)
(1734.396255 3.60812336 -1.2718134)
)
;
    }
    procBoundary2to3
    {
        type            processor;
        value           nonuniform List<vector> 
19
(
(1725.842292 11.91762912 -0.4135009117)
(1731.810934 9.552636695 0.9708255558)
(1732.189636 8.297479498 1.11613283)
(1732.576081 3.441039807 0.03751817601)
(1730.20635 -1.153458515 0.2923635198)
(1733.933478 1.841388005 1.442300185)
(1733.71745 4.351463573 -4.245898983)
(1738.600242 -0.07471613197 0.08280343634)
(1732.241509 -0.07614679076 -2.567907857)
(1734.991797 0.898928053 -0.1889578338)
(1737.210235 2.932911339 2.590056458)
(1736.195791 3.315401931 -2.647516056)
(1735.075382 -1.847460355 -3.153357638)
(1735.510606 0.4315340968 -1.074328422)
(1736.420547 0.9446970764 0.6110695973)
(1733.226694 2.889794018 -1.580955824)
(1731.802258 1.900403945 -0.6677929086)
(1735.363586 -0.7257515151 0.5239029275)
(1735.414709 4.088504673 2.339160158)
)
;
    }
}


// ************************************************************************* //
