/*--------------------------------*- C++ -*----------------------------------*\
| =========                 |                                                 |
| \\      /  F ield         | OpenFOAM: The Open Source CFD Toolbox           |
|  \\    /   O peration     | Version:  2406                                  |
|   \\  /    A nd           | Website:  www.openfoam.com                      |
|    \\/     M anipulation  |                                                 |
\*---------------------------------------------------------------------------*/
FoamFile
{
    version     2.0;
    format      ascii;
    arch        "LSB;label=32;scalar=64";
    class       Cloud<dsmcParcel>;
    location    "0.007/lagrangian/dsmc";
    object      coordinates;
}
// * * * * * * * * * * * * * * * * * * * * * * * * * * * * * * * * * * * * * //

5158
(
(0.3090078467 0.3454960766 0.09339678663 0.25209929) 453 878 1
(0.6465503367 0.1767248317 0.1035971944 0.07312763721) 483 934 2
(0.6038232309 0.1980883846 0.1929939865 0.005094398034) 485 938 1
(0.5307867019 0.141774798 0.2346066491 0.09283185108) 504 972 1
(0.5104780397 0.2447609802 0.2286712204 0.01608975981) 385 729 1
(0.3567425327 0.09554444878 0.3216287337 0.2260842849) 445 862 2
(0.5961351795 0.009507889926 0.2019324103 0.1924245203) 455 881 2
(0.1875957652 0.4062021174 0.1546968851 0.2515052323) 464 880 1
(0.005022223477 0.4974888883 0.4407001259 0.05678876234) 505 974 2
(0.8158979383 0.09205103083 0.03849143349 0.05355959734) 484 934 2
(0.2067588844 0.3966205578 0.2365155871 0.1601049707) 374 727 2
(0.4217565226 0.2891217387 0.2182272272 0.07089451146) 444 861 1
(0.06132933328 0.4693353334 0.0502621409 0.4190731925) 372 724 1
(0.004092636213 0.4979536819 0.02855142357 0.4694022583) 432 838 1
(0.4679084095 0.2405460284 0.02549976681 0.2660457952) 444 842 2
(0.04085233783 0.140498851 0.3390749801 0.4795738311) 424 822 1
(0.3170857535 0.07751119602 0.3414571233 0.2639459272) 415 805 2
(0.1480211517 0.09415402205 0.3318354021 0.4259894241) 521 1006 1
(0.04601967358 0.4769901632 0.3216511217 0.1553390415) 395 748 1
(0.6361923473 0.1819038264 0.007398396743 0.1745054296) 395 2217 2
(0.2418398195 0.3790800903 0.0959602693 0.283119821) 453 859 1
(0.3236648641 0.03386457664 0.3043029913 0.3381675679) 415 786 2
(0.1429468448 0.105338931 0.4285265776 0.3231876466) 445 862 2
(0.08557837233 0.41965469 0.03755612388 0.4572108138) 405 2218 1
(0.2668900127 0.3665549937 0.2969245347 0.06963045897) 525 995 1
(0.2012400549 0.3993799726 0.1103312331 0.2890487395) 545 1042 2
(0.277933362 0.3277108658 0.361033319 0.03332245321) 504 975 2
(0.04807038107 0.07700480245 0.4759648095 0.398960007) 523 1008 1
(0.1683644868 0.4158177566 0.2384358344 0.1773819222) 374 709 1
(0.2145781253 0.3242479905 0.3927109374 0.06846294682) 414 804 2
(0.05028184877 0.4748590756 0.1855067762 0.2893522994) 464 898 2
(0.7550528077 0.02637515576 0.09609844038 0.1224735961) 422 800 2
(0.5123584732 0.03968679208 0.2438207634 0.2041339713) 415 805 2
(0.1735852852 0.1397789507 0.4132073574 0.2734284067) 464 896 1
(0.4321232003 0.2742289143 0.2839383999 0.009709485583) 404 782 1
(0.5557676578 0.1284755308 0.09364064024 0.2221161711) 523 992 2
(0.4153040801 0.29234796 0.1573748319 0.134973128) 485 2226 2
(0.3634105209 0.1131251311 0.3182947395 0.2051696085) 422 819 2
(0.8463114306 0.0768442847 0.06248573382 0.01435855089) 424 820 2
(0.833952422 0.08302378902 0.01981079146 0.06321299756) 455 879 2
(0.5771226679 0.1700902157 0.04134845035 0.2114386661) 434 823 2
(0.3734302998 0.1074095721 0.205875278 0.3132848501) 453 859 2
(0.5238635171 0.2380682414 0.1914330542 0.04663518725) 442 854 2
(0.4629707743 0.2685146128 0.107341237 0.1611733759) 442 856 2
(0.2533855995 0.09004373142 0.2832634688 0.3733072002) 491 931 2
(0.7681977722 0.04976235045 0.1159011139 0.06613876347) 443 859 2
(0.4116587275 0.2604745278 0.2941706362 0.03369610846) 544 1041 1
(0.3462635479 0.3268682261 0.2149894187 0.1118788074) 452 857 1
(0.3193347306 0.3403326347 0.103700609 0.2366320257) 483 932 2
(0.5459854226 0.07192170191 0.1550855868 0.2270072887) 383 744 1
(0.2663832267 0.1133163657 0.2534920209 0.3668083866) 375 2215 1
(0.3431421945 0.2763965411 0.3284289028 0.0520323617) 372 721 1
(0.1165348101 0.0723502911 0.441732595 0.3693823039) 365 708 1
(0.1147042874 0.4426478563 0.05010027511 0.3925475812) 371 703 1
(0.3403137319 0.329843134 0.2662571071 0.06358602695) 425 2220 2
(0.2099369855 0.3950315073 0.01522984275 0.3798016645) 522 1009 1
(0.1063388047 0.1609236827 0.285906915 0.4468305977) 544 1032 2
(0.03355912114 0.4832204394 0.3731383387 0.1100821007) 419 813 1
(0.1012357818 0.4493821091 0.3302257703 0.1191563388) 523 1008 2
(0.02072638991 0.3079990421 0.1816377629 0.489636805) 512 989 1
(0.0301353126 0.4849323437 0.2752750718 0.2096572719) 424 804 1
(0.01848874355 0.4907556282 0.4152631376 0.0754924906) 435 824 1
(0.6732566949 0.04458192252 0.1633716525 0.11878973) 365 710 2
(0.562460654 0.0680082193 0.1507614537 0.218769673) 423 820 1
(0.2116180186 0.04177099648 0.3941909907 0.3524199942) 374 725 1
(0.743944376 0.128027812 0.1025224335 0.02550537851) 403 764 1
(0.2260781672 0.1539030546 0.3869609164 0.2330578618) 482 930 1
(0.309167835 0.09331992667 0.2520961558 0.3454160825) 515 2229 1
(0.005075889914 0.497462055 0.1132021502 0.3842599049) 424 822 2
(0.661709069 0.1691454655 0.1462275679 0.02291789762) 455 862 1
(0.1016438459 0.1359940286 0.4491780771 0.3131840485) 503 970 1
(0.1771926541 0.1126715193 0.2987321537 0.411403673) 523 992 2
(0.1149776153 0.4425111924 0.3110732977 0.1314378946) 531 1023 2
(0.02234316076 0.06952220659 0.4888284196 0.419306213) 385 746 1
(0.5164738837 0.2417630581 0.2320253249 0.009737733215) 385 748 1
(0.4344825596 0.2711051436 0.01165357663 0.2827587202) 383 726 2
(0.1347678284 0.4326160858 0.350004234 0.08261185178) 392 761 2
(0.1456614642 0.4271692679 0.288271511 0.1388977568) 395 748 1
(0.2679584572 0.1205036066 0.3660207714 0.2455171648) 445 862 2
(0.763869127 0.1180654365 0.08518070742 0.03288472905) 410 793 2
(0.5714261421 0.214286929 0.1623175565 0.05196937249) 404 785 1
(0.1474124037 0.1347527134 0.2915410847 0.4262937981) 414 803 1
(0.3119814648 0.3440092676 0.2373435492 0.1066657184) 495 2227 2
(0.3199281938 0.275247017 0.3400359031 0.06478888611) 501 966 1
(0.2056709889 0.3971645056 0.2010201387 0.1961443669) 464 898 2
(0.683118305 0.1584408475 0.07900017549 0.07944067199) 473 916 1
(0.03799038344 0.4142504019 0.06675440636 0.4810048083) 533 1029 1
(0.384394811 0.1613701627 0.3078025945 0.1464324317) 479 927 2
(0.0608893866 0.1891519834 0.2804033233 0.4695553067) 505 2228 1
(0.5357713884 0.06000943067 0.1721048751 0.2321143058) 505 2228 1
(0.05431516404 0.472842418 0.2411657857 0.2316766323) 542 1040 2
(0.5653688135 0.2173155932 0.1950223727 0.0222932205) 525 1014 1
(0.4233913507 0.2353265182 0.05297780641 0.2883043246) 474 917 1
(0.8009672743 0.04951654482 0.09951636286 0.04999981804) 384 744 1
(0.5030149112 0.02559408285 0.2228984615 0.2484925444) 438 848 1
(0.7473625014 0.08280851595 0.04351023337 0.1263187493) 425 2220 1
(0.2899326929 0.3550336535 0.2824241364 0.07260951709) 409 793 2
(0.5947180484 0.2026409758 0.01812000856 0.1845209672) 374 725 2
(0.9053110069 0.01689903336 0.04734449656 0.0304454632) 392 759 1
(0.2852705193 0.3573647403 0.2959666143 0.06139812607) 524 994 1
(0.5964673243 0.1834199931 0.01834634479 0.2017663379) 405 767 2
(0.05247743144 0.1675665691 0.3061947152 0.4737612843) 435 824 2
(0.2072365116 0.3963817442 0.3356746495 0.0607070947) 502 968 2
(0.5229198283 0.2136773716 0.02486271424 0.2385400859) 480 928 1
(0.05901628204 0.1686063159 0.301885543 0.470491859) 415 2219 1
(0.1431397022 0.00843037771 0.4284301489 0.4199997712) 432 835 1
(0.5398908376 0.1178658132 0.2300545812 0.112188768) 442 857 2
(0.04467172181 0.4776641391 0.1712509185 0.3064132206) 538 1035 2
(0.1900631099 0.0989614881 0.306006957 0.4049684451) 502 952 2
(0.1776679323 0.3391384491 0.07202758475 0.4111660339) 531 1007 2
(0.5067303961 0.1892674896 0.2466348019 0.05736731236) 504 975 2
(0.3357980593 0.01013167771 0.3219692927 0.3321009704) 299 599 1
(0.6970116507 0.06651352354 0.0849806511 0.1514941746) 544 1042 1
(0.3413413453 0.202193048 0.3293293274 0.1271362794) 455 881 2
(0.456500775 0.2717496125 0.1728545442 0.09889506835) 395 767 1
(0.3270284347 0.3244557515 0.3364857827 0.01203003117) 391 760 2
(0.01164074877 0.4639124819 0.03026714371 0.4941796256) 414 803 1
(0.2098506588 0.3950746706 0.08503475119 0.3100399194) 415 786 1
(0.173079265 0.3314419152 0.4134603675 0.08201845234) 432 835 1
(0.05004002344 0.4749799883 0.03152444073 0.4434555476) 403 764 1
(0.5896990605 0.02317950784 0.1819709619 0.2051504697) 375 710 2
(0.03469361378 0.4826531931 0.473788224 0.008864969141) 395 765 2
(0.731729278 0.1091343641 0.02500099691 0.134135361) 465 2224 1
(0.1257758841 0.4371120579 0.08629654325 0.3508155147) 435 841 2
(0.247949836 0.07885607302 0.297169009 0.376025082) 485 919 2
(0.003886181505 0.4980569092 0.4893462771 0.008710632172) 451 874 1
(0.2766288298 0.1372573523 0.2244282328 0.3616855851) 445 843 2
(0.1783731922 0.4108134039 0.2827728216 0.1280405823) 483 934 2
(0.6084811597 0.1742637258 0.1957594202 0.02149569435) 485 938 2
(0.1485939668 0.03482687396 0.3908761426 0.4257030166) 505 2228 1
(0.1950791545 0.4024604228 0.06327420189 0.3391862209) 472 914 1
(0.3033892742 0.233776284 0.3483053629 0.1145290789) 502 968 1
(0.2408247324 0.05255948418 0.3795876338 0.3270281496) 513 992 2
(0.1263157045 0.4368421477 0.2597582923 0.1770838554) 543 1088 1
(0.3972459009 0.1948743274 0.1065027221 0.3013770496) 505 2228 1
(0.5660366279 0.02886725223 0.2169816861 0.1881144338) 392 759 1
(0.1079421528 0.4460289236 0.2359448709 0.2100840527) 372 721 2
(0.09378852452 0.04904921557 0.4040565222 0.4531057377) 471 893 2
(0.2267867272 0.3866066364 0.2927575266 0.09384910975) 404 766 1
(0.3024291009 0.3487854496 0.05251523944 0.2962702101) 405 786 1
(0.03819577577 0.1797301998 0.3011719123 0.4809021121) 531 1007 2
(0.1702875681 0.4148562159 0.3285963268 0.08625988916) 400 777 1
(0.007156232377 0.4935110337 0.002910850081 0.4964218838) 435 824 2
(0.1565797225 0.1020213639 0.3196887749 0.4217101387) 425 2220 1
(0.2438931497 0.009224539171 0.3780534251 0.368828886) 443 859 2
(0.3682319112 0.2166134755 0.3158840444 0.09927056886) 435 841 1
(0.8243476041 0.08782619797 0.06972861877 0.0180975792) 539 1084 1
(0.2787350783 0.3606324609 0.2504739206 0.1101585403) 511 987 2
(0.05271043664 0.1657531725 0.3078916092 0.4736447817) 523 1010 1
(0.1433820538 0.4283089731 0.2046652899 0.2236436832) 472 911 2
(0.2051608313 0.3974195844 0.2057546145 0.1916649698) 485 938 1
(0.9601659047 0.01991704764 0.003493695492 0.01642335215) 534 1013 1
(0.5224792756 0.2387603622 0.2000408394 0.03871952276) 474 917 2
(0.6343915917 0.1828042041 0.1760423369 0.006761867203) 370 719 2
(0.1175346879 0.441232656 0.2395130986 0.2017195574) 395 748 1
(0.0701308106 0.09857149407 0.3663631006 0.4649345947) 391 741 2
(0.5094163577 0.1583075623 0.2452918212 0.08698425884) 374 728 2
(0.9672028991 0.01639855043 0.002563894964 0.01383465547) 383 744 2
(0.1494126853 0.4252936574 0.03134187647 0.3939517809) 475 917 2
(0.5998624463 0.2000687769 0.1639864378 0.03608233904) 455 881 1
(0.08367408449 0.1376640852 0.4581629578 0.3204988726) 17 35 2
(0.2645041101 0.2003491494 0.3677479449 0.1673987955) 465 898 1
(0.8035015389 0.06562911966 0.03262011089 0.09824923055) 394 765 1
(0.4907156329 0.1242780185 0.2546421836 0.1303641651) 384 744 1
(0.7360742814 0.1319628593 0.03121432296 0.1007485363) 412 797 2
(0.0899380688 0.4550309656 0.1061400762 0.3488908894) 402 778 2
(0.2053950675 0.1909149124 0.2063875538 0.3973024662) 404 784 1
(0.07159189251 0.4642040537 0.3014053606 0.1627986932) 432 835 2
(0.5190532119 0.2235648467 0.01690854737 0.2404733941) 532 1027 1
(0.6078118311 0.1960940845 0.1672164619 0.02887762254) 505 957 1
(0.9491190499 0.02544047507 0.01298962681 0.01245084826) 523 1008 2
(0.2095128745 0.3952435627 0.2245461284 0.1706974344) 445 843 1
(0.3460419564 0.1277478625 0.1992311593 0.3269790218) 471 911 1
(0.238878178 0.09623574504 0.380560911 0.284325166) 434 842 2
(0.07634509443 0.4212206781 0.4618274528 0.04060677471) 472 914 2
(0.1091614199 0.44541929 0.2586403237 0.1867789663) 475 917 2
(0.6917756407 0.0002087162084 0.1541121796 0.1539034634) 474 915 1
(0.3001343582 0.3499328209 0.2562602982 0.09367252269) 445 862 1
(0.3888534902 0.1897875111 0.3055732549 0.1157857438) 455 879 1
(0.2741434364 0.35820086 0.004727421765 0.3629282818) 542 1028 2
(0.06083432535 0.1191454518 0.4695828373 0.3504373855) 503 970 1
(0.08591536181 0.4570423191 0.133407448 0.323634871) 544 1089 1
(0.01380547465 0.4930972627 0.2037050279 0.2893922348) 464 880 1
(0.06706552512 0.2374268117 0.4664672374 0.2290404257) 392 762 2
(0.2045457565 0.06904912822 0.3977271217 0.3286779935) 392 762 2
(0.2992461939 0.175825394 0.1745515091 0.3503769031) 373 725 1
(0.06014890583 0.4699255471 0.2910388215 0.1788867256) 433 840 1
(0.7471613414 0.01362626354 0.1127930658 0.1264193293) 425 805 2
(0.2273614273 0.3863192863 0.345358446 0.04096084038) 373 726 1
(0.1189997919 0.4401822902 0.440500104 0.0003178138407) 414 801 1
(0.06382698094 0.2685101567 0.1995763529 0.4680865095) 424 804 2
(0.4857468905 0.2571265548 0.02689616882 0.2302303859) 422 818 2
(0.3148096402 0.08229861496 0.3425951799 0.2602965649) 373 726 2
(0.7716730857 0.1141634572 0.09454448574 0.01961897143) 415 805 1
(0.3057422619 0.3471288691 0.01734649723 0.3297823718) 432 819 1
(0.4021253539 0.01447408517 0.298937323 0.2844632379) 432 835 1
(0.2821579218 0.08886557477 0.2700554643 0.3589210391) 435 824 2
(0.9320828311 0.03395858445 0.03013053594 0.003828048513) 449 870 1
(0.2402881667 0.3348800303 0.3798559167 0.04497588634) 424 820 1
(0.2374725081 0.381263746 0.2434981447 0.1377656013) 431 833 2
(0.709751909 0.1451240455 0.1277085799 0.01741546559) 423 818 2
(0.6081889649 0.1616297067 0.1959055175 0.0342758108) 481 931 2
(0.1944210847 0.009650925475 0.4027894577 0.3931385322) 473 913 1
(0.01333034114 0.4933348294 0.2780881693 0.2152466602) 474 899 1
(0.3511043151 0.05305305951 0.2713947829 0.3244478425) 485 919 2
(0.5049968646 0.1781113869 0.06939018074 0.2475015677) 443 858 1
(0.01585779717 0.3840259171 0.4920711014 0.1080451843) 535 1033 2
(0.5971464299 0.09377655731 0.201426785 0.1076502277) 484 937 2
(0.5439548852 0.2280225574 0.06122645515 0.1667961022) 445 862 1
(0.1338828906 0.4330585547 0.4069192738 0.0261392809) 484 937 1
(0.1256398394 0.4371800803 0.4092418701 0.02793821021) 531 1025 2
(0.4507979898 0.2746010051 0.2318030631 0.042797942) 399 774 2
(0.1628087351 0.4185956324 0.1117191807 0.3068764518) 374 728 1
(0.313456014 0.343271993 0.2464728711 0.09679912188) 439 850 2
(0.3228174768 0.3385912616 0.1623540647 0.1762371968) 425 822 2
(0.003361473374 0.4983192633 0.1267118677 0.3716073957) 434 842 1
(0.01455275337 0.3847200848 0.1080035385 0.4927236233) 469 907 1
(0.8912514178 0.05437429109 0.04068823149 0.0136860596) 395 767 1
(0.4768312582 0.1034744315 0.1581099394 0.2615843709) 362 704 1
(0.006135751952 0.1622115152 0.3347206088 0.496932124) 382 742 1
(0.3208976602 0.3395511699 0.2620913948 0.07745977511) 415 805 1
(0.4224151267 0.2887924367 0.28043431 0.008358126687) 404 782 2
(0.1523638271 0.1317851878 0.4238180864 0.2920328986) 455 879 1
(0.3775708475 0.3071111397 0.3112145762 0.004103436574) 425 822 1
(0.3695086555 0.1630900096 0.3152456723 0.1521556627) 464 896 1
(0.1949910999 0.40250445 0.06914696632 0.3333574837) 401 779 1
(0.6315436074 0.04889917367 0.1842281963 0.1353290226) 381 738 1
(0.3352992105 0.3323503947 0.1781442417 0.154206153) 445 860 2
(0.224678749 0.3251084989 0.06255212661 0.3876606255) 500 948 2
(0.2354967488 0.3044462788 0.3822516256 0.07780534679) 431 836 2
(0.7679206935 0.01338407784 0.1026555754 0.1160396533) 472 913 1
(0.6638537786 0.162191985 0.1680731107 0.005881125666) 524 1013 2
(0.4476565534 0.2761717233 0.147748636 0.1284230873) 425 822 2
(0.4004522225 0.2997738888 0.2675017962 0.03227209258) 414 803 2
(0.3036191176 0.1501405934 0.1980498478 0.3481904412) 473 915 1
(0.1345896717 0.4327051641 0.2143800958 0.2183250683) 471 893 1
(0.4093845584 0.2953077208 0.1959503429 0.09935737787) 419 813 1
(0.02462785737 0.4876860713 0.152988652 0.3346974193) 495 957 1
(0.5161756137 0.2348046598 0.007107533283 0.2419121931) 464 880 2
(0.4331944517 0.2834027741 0.05012197637 0.2332807978) 543 1040 2
(0.4183236004 0.2733042745 0.01753392533 0.2908381998) 524 1012 1
(0.1386336411 0.4306831795 0.322887921 0.1077952585) 543 1030 1
(0.1727769056 0.338820726 0.4136115472 0.07479082124) 504 975 2
(0.807502232 0.06428876322 0.09624888401 0.03196012079) 445 862 2
(0.3525168559 0.323741572 0.04046024949 0.2832813225) 424 804 1
(0.09305898216 0.3557850026 0.09768550631 0.4534705089) 395 2217 1
(0.3239472134 0.3380263933 0.05202894948 0.2859974438) 375 710 1
(0.1270442962 0.4364778519 0.3060063907 0.1304714613) 413 802 1
(0.3739433025 0.1331034868 0.1799248619 0.3130283487) 414 803 1
(0.2085848593 0.3957075703 0.3593632964 0.03634427394) 404 784 2
(0.1254880652 0.3166217119 0.4372559674 0.1206342555) 425 822 1
(0.7804155085 0.1097922458 0.04881555583 0.06097668993) 455 862 1
(0.02473980045 0.2673480485 0.2202820513 0.4876300998) 460 872 2
(0.008626267681 0.4956868662 0.2593510023 0.2363358638) 434 839 2
(0.1147017059 0.3296385222 0.1130106249 0.4426491471) 442 856 1
(0.7847885832 0.1076057084 0.03611290438 0.07149280401) 401 778 2
(0.04349891694 0.4782505415 0.2350432919 0.2432072497) 384 744 2
(0.07552697128 0.2901862462 0.1720502681 0.4622365144) 492 951 1
(0.7661657908 0.07570841338 0.04120869119 0.1169171046) 423 820 1
(0.537086639 0.2314566805 0.1502158649 0.0812408156) 485 936 2
(0.4674998395 0.0608207645 0.2054293158 0.2662500803) 435 824 2
(0.1282951635 0.4358524182 0.05693762224 0.378914796) 487 942 1
(0.7494703202 0.1252648399 0.09699513703 0.02826970286) 433 821 1
(0.0005556645393 0.4528344485 0.4997221677 0.0468877192) 494 956 2
(0.0846104365 0.4576947818 0.188123065 0.2695717167) 475 919 1
(0.2081477212 0.1199808187 0.3959261394 0.2759453207) 470 910 2
(0.1251334166 0.4374332917 0.01402389791 0.4234093938) 473 913 2
(0.4545353961 0.2727323019 0.1966534931 0.07607880882) 493 951 2
(0.5385867827 0.1422823386 0.2307066086 0.08842427) 425 822 1
(0.7474628981 0.04839997548 0.126268551 0.07786857548) 389 756 2
(0.2583247389 0.3708376305 0.2299944252 0.1408432053) 504 974 2
(0.1349673204 0.4325163398 0.3716353856 0.06088095421) 502 971 1
(0.06287782451 0.1893986854 0.4685610877 0.2791624024) 475 919 2
(0.03898164496 0.2400817424 0.4805091775 0.2404274351) 513 989 1
(0.08428078175 0.4578596091 0.2552016572 0.2026579519) 532 1009 1
(0.6535651611 0.1732174195 0.01484735312 0.1583700663) 541 1086 1
(0.268567767 0.07317514172 0.3657161165 0.2925409748) 523 1008 1
(0.4388082147 0.07409084318 0.2805958927 0.2065050495) 472 914 2
(0.2268762463 0.01330060084 0.373261276 0.3865618769) 502 970 1
(0.07254106958 0.4637294652 0.1887130226 0.2750164426) 443 859 1
(0.5523943248 0.2238028376 0.104928009 0.1188748286) 37 74 2
(0.8197206434 0.09013967828 0.03904934138 0.05109033689) 435 2221 2
(0.1653060842 0.4173469579 0.2589103059 0.158436652) 382 724 1
(0.3943550366 0.09528944267 0.207533039 0.3028224817) 414 785 2
(0.2188230617 0.3905884692 0.356485064 0.03410340515) 374 727 2
(0.7643699955 0.1178150022 0.08617776561 0.03163723663) 493 951 2
(0.7091261473 0.1454369264 0.04979520323 0.09564172313) 437 847 1
(0.4402218863 0.2798890569 0.2480324254 0.03185663144) 481 928 2
(0.0893990863 0.346974393 0.4553004569 0.1083260638) 482 933 2
(0.4852957051 0.03716914335 0.2573521475 0.2201830041) 380 736 1
(0.4955770847 0.2522114576 0.03935764781 0.2128538098) 445 2222 2
(0.1577890137 0.246703292 0.1744022012 0.4211054932) 469 907 1
(0.1566054258 0.07347634329 0.4216972871 0.3482209438) 394 763 1
(0.05478356475 0.05701308119 0.4155951364 0.4726082176) 439 850 1
(0.1728388618 0.4135805691 0.180701223 0.2328793461) 404 782 2
(0.3181965251 0.2156645231 0.1252372144 0.3409017375) 371 721 1
(0.354856708 0.2684471984 0.322571646 0.05412444758) 467 904 2
(0.5524115887 0.2237942057 0.04378457756 0.1800096281) 402 762 1
(0.2451261499 0.01831474188 0.3774369251 0.3591221832) 389 753 1
(0.2562624137 0.3718687931 0.1008458946 0.2710228985) 463 896 2
(0.6162596626 0.1918701687 0.1020492112 0.0898209575) 408 773 1
(0.133667216 0.0902032764 0.3429631156 0.433166392) 425 2220 1
(0.1946298623 0.4026850688 0.3022579942 0.1004270746) 511 987 2
(0.836538696 0.08173065198 0.01567994201 0.06605070998) 503 970 2
(0.5928620663 0.2035689668 0.1151047529 0.08846421389) 472 895 1
(0.2635218412 0.3682390794 0.1185174663 0.2497216131) 401 760 1
(0.3461539423 0.09904979993 0.3269230289 0.2278732289) 511 988 2
(0.05088083824 0.4745595809 0.2522952729 0.222264308) 454 879 2
(0.4053373328 0.1078086933 0.2973313336 0.1895226403) 538 1083 2
(0.01118043084 0.4944097846 0.01880502338 0.4756047612) 493 954 1
(0.8721708923 0.06391455386 0.0005976814124 0.06331687245) 500 948 1
(0.00835774137 0.4958211293 0.4431709169 0.05265021244) 514 994 1
(0.2306762913 0.321845838 0.06281601634 0.3846618543) 502 952 2
(0.06994313164 0.3772261318 0.4650284342 0.08780230242) 492 949 1
(0.7594479195 0.1202760402 0.05396593737 0.06631010286) 529 1021 2
(0.2905860252 0.3118878756 0.04281911179 0.3547069874) 540 1024 2
(0.4721116123 0.2000889547 0.2639441939 0.06385523919) 515 995 2
(0.5075922609 0.2462038696 0.03067944959 0.21552442) 504 974 2
(0.4512648944 0.2155048132 0.05886273958 0.2743675528) 394 765 1
(0.4162063528 0.1097805046 0.182116319 0.2918968236) 400 758 2
(0.2449509366 0.3775245317 0.2595548638 0.1179696679) 417 806 2
(0.03651346008 0.48174327 0.1902223781 0.2915208919) 415 2219 2
(0.7683209579 0.115839521 0.07107378313 0.04476573791) 424 822 2
(0.2623462932 0.3688268534 0.0332211814 0.335605672) 412 799 2
(0.4885112131 0.2557443934 0.2275749155 0.02816947798) 405 786 1
(0.6218190081 0.189090496 0.03885899395 0.150231502) 413 783 1
(0.3576714225 0.3211642888 0.1011868169 0.2199774719) 381 741 1
(0.05853879307 0.4707306035 0.2698929632 0.2008376402) 414 801 2
(0.04911924533 0.1876598509 0.2877805264 0.4754403773) 413 783 2
(0.2133718247 0.3933140876 0.05503030691 0.3382837807) 391 759 2
(0.2227114702 0.1003973414 0.3886442649 0.2882469235) 432 838 2
(0.922898255 0.0385508725 0.007196375022 0.03135449748) 411 797 2
(0.3372289021 0.331385549 0.09396776175 0.2374177872) 415 803 2
(0.01360874454 0.2565307002 0.4931956277 0.2366649275) 452 876 2
(0.3887261215 0.2506840933 0.05495284591 0.3056369392) 454 861 2
(0.250753837 0.3746230815 0.02291995947 0.351703122) 423 820 2
(0.7447506136 0.1276246932 0.0436093999 0.08401529332) 455 2223 2
(0.02254300303 0.4887284985 0.1000544947 0.3886740038) 413 799 2
(0.03191161964 0.4840441902 0.3595761241 0.124468066) 459 888 2
(0.2129229116 0.1957435248 0.1977950194 0.3935385442) 428 829 1
(0.5845763962 0.2077118019 0.187968617 0.01974318489) 441 854 2
(0.1505977064 0.08382469187 0.4247011468 0.3408764549) 450 869 1
(0.05054504656 0.09539929701 0.4747274767 0.3793281797) 443 856 1
(0.1703663627 0.3633044354 0.4148168187 0.05151238327) 531 1026 2
(0.550461186 0.224769407 0.1621203249 0.06264908205) 501 966 2
(0.1521268625 0.4239365687 0.2802715144 0.1436650543) 515 995 1
(0.5760712894 0.07378142987 0.1381829254 0.2119643553) 455 862 2
(0.2013043614 0.3993478193 0.2752331908 0.1241146285) 444 861 1
(0.3907725591 0.3046137204 0.2716991095 0.03291461091) 472 911 2
(0.4094958696 0.2710366765 0.2952520652 0.02421538865) 443 856 1
(0.02426075697 0.4878696215 0.01971470219 0.4681549193) 451 874 1
(0.18265886 0.40867057 0.2594041219 0.1492664481) 473 897 1
(0.1492805443 0.4253597279 0.2935544458 0.131805282) 484 934 2
(0.05063061566 0.4746846922 0.03996736511 0.4347173271) 529 1019 2
(0.6126972844 0.1936513578 0.01946703452 0.1741843233) 415 805 1
(0.2000305689 0.3999847156 0.3911530538 0.008831661754) 535 1014 1
(0.6454944898 0.1772527551 0.1283110734 0.04894168173) 525 1014 1
(0.1037858281 0.2799679808 0.1681391051 0.4481070859) 505 2228 1
(0.06095201397 0.469523993 0.3732171145 0.09630687851) 518 982 1
(0.00480209283 0.4975989536 0.0949441592 0.4026547944) 482 932 2
(0.09484807135 0.4525759643 0.1632224778 0.2893534865) 524 1013 1
(0.5000198424 0.2011231872 0.04886689164 0.2499900788) 502 952 2
(0.122896554 0.2042369685 0.2343147545 0.438551723) 445 843 2
(0.3430586222 0.3284706889 0.007925974496 0.3205447144) 534 1032 1
(0.2602233233 0.3698883384 0.2476866601 0.1222016783) 525 995 1
(0.6399643791 0.1800178104 0.08019067086 0.09982713958) 524 1012 2
(0.2471935969 0.3321801315 0.3764032015 0.04422307003) 365 708 1
(0.7695457849 0.1152271076 0.02346067283 0.09176643473) 425 2220 2
(0.4162143103 0.2918928449 0.2583231361 0.03356970879) 389 753 2
(0.7626513376 0.1186743312 0.03212603961 0.08654829157) 364 2207 2
(0.1079075029 0.4460462486 0.4381265452 0.007919703353) 391 757 2
(0.8758763384 0.06206183078 0.02113203967 0.04092979111) 424 820 2
(0.07380569886 0.3272917795 0.1358053711 0.4630971506) 408 773 2
(0.1183766265 0.4408116867 0.3656354952 0.07517619151) 413 783 1
(0.4649036895 0.03525595356 0.2675481552 0.2322922017) 391 760 2
(0.1343912307 0.4328043846 0.3889162128 0.04388817184) 407 771 1
(0.6526808592 0.0706139897 0.1030455807 0.1736595704) 444 860 1
(0.001338022195 0.1059474873 0.4993309889 0.3933835016) 431 836 2
(0.5832239316 0.2083880342 0.1606761029 0.04771193127) 413 802 1
(0.3085924245 0.2622221624 0.3457037877 0.08348162528) 392 759 1
(0.5301201808 0.2349399096 0.1152091244 0.1197307852) 442 854 2
(0.1052805005 0.4473597498 0.3279045923 0.1194551575) 384 747 1
(0.06823401264 0.4658829937 0.3369989139 0.1288840798) 393 745 1
(0.7895317582 0.06814810433 0.03708601657 0.1052341209) 435 2221 1
(0.08974219055 0.4551289047 0.4279870496 0.02714185516) 462 894 2
(0.3297085443 0.3351457278 0.1686589098 0.166486818) 493 951 2
(0.4018821812 0.2990589094 0.2391647455 0.05989416392) 444 861 1
(0.3458589693 0.1310968522 0.1959736632 0.3270705154) 422 818 1
(0.1806936789 0.4096531606 0.168474406 0.2411787545) 422 816 2
(0.6917164093 0.06810157487 0.08604022047 0.1541417953) 485 2226 1
(0.09351054553 0.3911683695 0.4532447272 0.06207635774) 412 797 1
(0.7232186822 0.1383906589 0.1334563217 0.004934337167) 497 942 1
(0.2552953138 0.06139562429 0.3723523431 0.3109567188) 493 954 2
(0.6058623419 0.1970688291 0.09872173754 0.09834709153) 451 874 1
(0.4971333629 0.133787156 0.2514333186 0.1176461626) 513 989 1
(0.3353814075 0.07734834617 0.2549609501 0.3323092962) 431 835 1
(0.1540865369 0.2013996656 0.4229567315 0.2215570659) 423 818 1
(0.3704740196 0.1417192551 0.3147629902 0.1730437351) 515 995 2
(0.2847468105 0.3576265948 0.3009925013 0.05663409348) 514 975 1
(0.03238912114 0.006363065328 0.4774423741 0.4838054394) 459 888 1
(0.1575113881 0.421244306 0.1285626177 0.2926816883) 523 1008 2
(0.08900659131 0.4554967043 0.1467823068 0.3087143976) 441 855 1
(0.4781656327 0.1572376844 0.1036794992 0.2609171836) 441 854 1
(0.0848312001 0.1122522667 0.4575843999 0.3453321333) 532 1025 1
(0.2934718928 0.1963182914 0.3532640536 0.1569457622) 533 1030 2
(0.418807101 0.2905964495 0.2008540528 0.08974239671) 495 938 1
(0.3863907604 0.3068046198 0.0294902665 0.2773143533) 514 991 2
(0.1576706157 0.4211646921 0.003959795284 0.4172048969) 470 910 1
(0.4021094532 0.2032776395 0.2989452734 0.09566763395) 509 984 2
(0.5520917674 0.04178509807 0.1821690182 0.2239541163) 507 979 1
(0.2940397819 0.1769366506 0.1760434585 0.352980109) 513 973 2
(0.5560212748 0.2219893626 0.04359399004 0.1783953725) 520 1002 2
(0.1724811574 0.3562906162 0.4137594213 0.05746880504) 493 951 1
(0.5138507434 0.1250074291 0.1180671992 0.2430746283) 392 743 2
(0.1481915571 0.4259042215 0.3676920154 0.05821220609) 394 763 2
(0.2262057483 0.3868971258 0.3780260668 0.008871059047) 485 936 2
(0.5109357386 0.008000365746 0.2445321307 0.2365317649) 430 834 2
(0.3833433633 0.001885500166 0.3064428182 0.3083283183) 384 746 1
(0.5073446033 0.2351108257 0.01121687262 0.2463276984) 394 747 2
(0.5329391239 0.03871060958 0.2335304381 0.1948198285) 388 754 2
(0.7523831106 0.05163378627 0.1238084447 0.07217465844) 425 824 2
(0.5665538045 0.04957717548 0.2167230977 0.1671459223) 98 194 1
(0.1745675648 0.4127162176 0.1905849706 0.222131247) 376 79 2
(0.1182130353 0.4408934823 0.08870254041 0.3521909419) 385 746 2
(0.2537056106 0.3602035269 0.01294366774 0.3731471947) 420 796 2
(0.4453667145 0.0240402187 0.2773166427 0.253276424) 401 776 1
(0.3851230053 0.09035440342 0.2170840939 0.3074384974) 398 754 2
(0.4401663345 0.06177698785 0.2181398449 0.2799168327) 431 835 1
(0.3715552815 0.3142223593 0.2047625358 0.1094598235) 384 744 2
(0.234218853 0.2293006473 0.1535899262 0.3828905735) 403 782 1
(0.2156833604 0.3921583198 0.1287373143 0.2634210055) 484 936 2
(0.04666081235 0.4766695938 0.02225370443 0.4544158894) 424 804 1
(0.6168931177 0.1915534412 0.01702656878 0.1745268724) 470 891 1
(0.6039305564 0.1980347218 0.03474569927 0.1632890225) 469 907 2
(0.6031863578 0.1984068211 0.1765811643 0.02182565682) 414 804 1
(0.4458050096 0.03804899846 0.2770974952 0.2390484967) 373 726 2
(0.2269528481 0.3865235759 0.1802576298 0.2062659461) 179 356 2
(0.7830007942 0.002091501987 0.1064081009 0.1084996029) 476 902 2
(0.1572891809 0.2182792588 0.4213554096 0.2030761508) 431 836 2
(0.9972538102 0.0004159009418 0.0009571939676 0.001373094909) 493 953 1
(0.161000776 0.2646493332 0.419499612 0.1548502788) 179 358 2
(0.6937074073 0.001949684038 0.1531462963 0.1511966123) 485 938 2
(0.6488027692 0.09640340956 0.1755986154 0.07919520586) 445 862 2
(0.5231731889 0.1399060742 0.09850733134 0.2384134055) 455 862 2
(0.6661747552 0.05303436649 0.1138782559 0.1669126224) 491 931 2
(0.8582862572 0.0135381405 0.05731873092 0.07085687142) 468 887 2
(0.3115262248 0.3442368876 0.2798592491 0.06437763846) 519 1002 2
(0.01328093032 0.4933595348 0.1113896089 0.381969926) 502 971 1
(0.2913049674 0.3543475163 0.3244610653 0.029886451) 457 884 2