/*--------------------------------*- C++ -*----------------------------------*\
| =========                 |                                                 |
| \\      /  F ield         | OpenFOAM: The Open Source CFD Toolbox           |
|  \\    /   O peration     | Version:  2406                                  |
|   \\  /    A nd           | Website:  www.openfoam.com                      |
|    \\/     M anipulation  |                                                 |
\*---------------------------------------------------------------------------*/
FoamFile
{
    version     2.0;
    format      ascii;
    arch        "LSB;label=32;scalar=64";
    class       scalarField;
    location    "0.007/lagrangian/dsmc";
    object      Ei;
}
// * * * * * * * * * * * * * * * * * * * * * * * * * * * * * * * * * * * * * //


5158
(
2.093170964e-21
4.780126092e-21
7.034672549e-22
6.909582828e-21
4.32411874e-21
5.966484852e-22
1.004494885e-20
9.657665737e-22
1.081485109e-20
1.874506535e-21
1.816330244e-22
3.275957902e-21
2.764848212e-23
2.580782293e-21
6.872332083e-22
3.917035781e-21
1.230899e-20
2.745011161e-21
1.302771249e-21
5.680898438e-21
1.556640741e-21
4.728525365e-22
8.881084609e-21
3.022248941e-21
5.633617457e-21
1.029846132e-20
6.120462099e-22
6.716327844e-21
6.434589547e-22
3.867125928e-21
2.921415807e-21
2.421166022e-21
3.601539393e-21
1.125195192e-21
2.59260026e-21
1.425758319e-21
9.647590324e-22
3.648520456e-21
1.98018346e-22
1.458325728e-21
7.203137892e-21
2.478973139e-22
6.096657797e-21
1.005272821e-20
2.177058085e-21
1.477284053e-21
8.129402912e-21
1.6527481e-21
1.142712354e-21
2.228997427e-21
7.436133446e-21
4.562988287e-22
2.379893138e-21
6.808652543e-22
2.071493629e-21
6.289341079e-21
1.129562125e-20
8.433032197e-21
3.561897222e-21
5.191414921e-22
3.815252823e-21
9.141305505e-22
3.72457885e-21
5.285078127e-22
3.229736787e-21
7.048945251e-21
5.118325961e-23
1.489548581e-21
7.580013957e-22
2.815787209e-22
5.17530018e-21
5.63872824e-22
1.717471989e-21
3.02139943e-21
4.447530626e-22
3.549864688e-21
5.970034939e-21
5.766036536e-21
6.824854984e-21
1.081326365e-21
4.321437338e-21
1.96698043e-22
1.805793383e-21
4.711633807e-21
4.170188872e-21
9.169796834e-22
1.062274057e-20
4.699174481e-22
2.665634717e-21
2.148277882e-21
1.015193613e-20
1.027179405e-20
1.906753066e-21
1.214290036e-21
1.257452698e-22
1.655269762e-20
3.294618944e-22
1.100439061e-20
8.158862734e-21
6.084376359e-21
6.136287706e-21
1.003190111e-20
8.909761363e-21
1.077746912e-20
4.888080266e-22
4.038137788e-21
7.250199181e-22
2.439293899e-21
1.035816672e-20
2.333986586e-21
1.378882086e-21
6.740397997e-21
1.002091572e-20
6.530297918e-22
2.010373947e-21
1.13300324e-20
6.688466188e-22
1.775302288e-21
4.595865194e-22
1.111621359e-22
5.718970846e-21
2.432397499e-21
6.719497594e-22
2.822402603e-21
3.824608642e-21
3.256531254e-22
8.55351165e-21
3.559616025e-21
3.11833811e-21
8.264925546e-21
7.993069736e-21
9.88721631e-21
2.345700451e-21
6.389918552e-22
4.25770572e-21
2.743100016e-21
3.794961187e-21
2.125595356e-21
1.206321006e-21
1.438314995e-21
1.311711165e-20
2.367169948e-21
4.858423956e-21
1.392285392e-21
3.798508179e-21
2.10371865e-21
6.185116309e-21
8.432620748e-21
2.677837051e-21
2.357154979e-21
5.876290458e-21
8.556336019e-21
1.028174441e-20
1.252288154e-20
8.548956984e-22
8.312820237e-21
1.425313359e-21
1.188343458e-20
2.482267208e-21
8.036937182e-21
3.108259996e-22
9.31735826e-21
1.03384952e-20
1.506016288e-21
2.15333254e-21
9.214046333e-21
4.010963878e-21
3.477312236e-21
4.903914684e-22
1.639829591e-21
8.973273474e-21
2.68479663e-21
9.874702878e-21
4.812835918e-21
7.648380515e-21
1.27531585e-21
4.585608456e-21
2.51130365e-21
4.4999814e-21
5.240597001e-23
1.271030479e-21
1.308552534e-21
6.526391948e-21
8.760311923e-21
6.162264221e-21
2.001577501e-21
2.53833981e-21
1.426632998e-21
7.127331103e-22
1.276319354e-21
1.007774898e-21
8.953967771e-21
3.419640795e-22
9.356678892e-21
2.762073198e-21
1.618646242e-21
1.974931801e-21
3.27241245e-21
1.85066366e-21
2.940726861e-21
9.797156818e-23
6.658349065e-21
3.870713514e-21
7.234107932e-21
5.341770851e-21
5.41876255e-22
2.791594911e-21
4.699916277e-21
8.094430773e-21
1.146632537e-21
1.364026154e-20
9.992242147e-22
2.481951368e-21
2.687118483e-21
1.777765094e-21
1.313638484e-22
7.271178396e-21
5.409183838e-21
7.717430576e-22
2.144825107e-21
1.954899117e-21
7.736116166e-21
1.513491866e-22
7.398638496e-22
4.348334558e-21
3.484187651e-21
2.348756722e-22
3.383368907e-21
1.384486383e-21
9.490161642e-21
9.87790793e-21
2.427575319e-22
1.181040813e-20
4.842716238e-21
6.299005107e-22
6.552725739e-21
2.632738836e-21
7.635578493e-22
1.788525698e-21
9.745475348e-21
1.186113295e-20
1.367801084e-21
3.785943945e-21
1.101251429e-20
2.092766131e-21
1.827403906e-21
5.053464676e-21
1.618685436e-20
2.965713925e-21
1.875431345e-21
4.044764409e-21
9.999026186e-21
1.609596945e-21
4.728181536e-21
4.088907046e-21
1.016370633e-20
1.602903697e-20
1.268815029e-20
1.830209008e-21
6.033288309e-21
3.380505305e-21
9.654337614e-22
3.762777657e-21
1.734711319e-21
7.25044363e-21
1.522533877e-22
4.22377849e-22
4.339563107e-21
1.747515663e-21
1.82075615e-21
7.793051879e-22
1.538801387e-20
3.965113755e-21
4.025261098e-21
3.03662969e-21
5.676507774e-22
2.357958618e-21
6.679112284e-21
2.883383282e-21
3.252059506e-21
1.530426792e-21
3.951752594e-21
7.662688009e-23
6.644861044e-22
1.123486301e-20
5.075217182e-22
2.355687013e-21
2.011608066e-20
4.872973991e-21
8.764457824e-22
4.331969822e-21
1.551318526e-21
2.664797384e-21
4.938325801e-21
7.937860411e-21
1.205689312e-20
2.412145288e-21
2.720313337e-21
7.952653464e-21
3.499720211e-21
1.111661985e-21
8.472976213e-21
1.837504856e-21
7.533348356e-22
1.141678178e-21
1.331686027e-22
6.28146133e-22
7.102449673e-21
5.082398126e-22
3.728291939e-21
5.27212129e-21
1.791655924e-21
2.058342471e-21
3.914857128e-21
4.283916277e-21
1.168922573e-21
7.476655537e-22
4.629316239e-21
9.263764431e-22
7.220889509e-21
1.801395838e-21
2.781245495e-21
1.0022897e-21
5.496646932e-22
4.994634161e-21
1.25506233e-23
3.062917453e-21
7.88884083e-21
3.340514402e-21
3.325495703e-21
2.075437656e-21
4.277049303e-22
6.470577388e-21
8.467393559e-21
2.814896655e-21
3.557910564e-21
8.807152022e-21
1.298378989e-21
3.694764927e-21
6.211937353e-21
7.4150755e-22
3.289366167e-21
2.038623732e-22
3.842623247e-21
2.469761084e-21
2.086739343e-21
1.993410928e-21
7.199529253e-22
2.761823724e-21
7.657477978e-21
2.142604647e-21
5.935946333e-21
2.347962196e-21
4.490332915e-21
1.264418612e-20
5.08961761e-21
2.757142305e-21
4.196812582e-21
9.239832922e-22
9.29557365e-23
1.817298869e-20
5.334053806e-21
6.229710053e-21
5.436565851e-21
1.211098579e-20
2.767821068e-21
6.150630847e-21
5.447376473e-21
9.995702489e-23
1.583651165e-21
2.691925914e-21
6.159538945e-21
2.198488412e-21
1.579812463e-21
2.456204166e-21
3.486029853e-23
1.706271475e-23
7.196560748e-22
1.209352498e-21
6.884749482e-21
8.093422e-21
2.848837393e-21
4.515886278e-21
4.840212711e-21
2.223004183e-21
2.305542912e-20
3.074789587e-21
2.647534351e-22
5.751963216e-21
1.242619881e-21
2.718229854e-21
1.659973299e-21
4.458802321e-21
6.582540897e-22
5.360900682e-22
3.231420547e-21
4.30311607e-21
6.517631426e-21
6.279010668e-22
6.221368333e-21
2.677251616e-21
2.386055858e-21
3.528387444e-21
1.120021661e-20
9.055448647e-21
9.719753972e-22
4.400761512e-21
3.596681037e-21
5.081657968e-21
1.601784866e-21
1.425947098e-21
2.675154356e-21
4.275930456e-21
4.363041465e-22
4.15769482e-22
3.330473916e-21
6.040671536e-21
1.462840809e-21
9.262954373e-22
1.461295934e-21
2.426896723e-21
8.082911423e-21
5.505315109e-21
9.178897167e-22
3.976815619e-21
3.881400205e-23
3.596746076e-21
1.150278992e-21
6.304207451e-21
9.742312765e-21
2.4968574e-21
2.241369738e-21
2.209763552e-21
7.974994843e-22
5.563450074e-21
1.268748687e-20
7.98195011e-21
5.262761713e-21
1.727602294e-21
6.738818811e-21
3.939756937e-21
1.531331187e-20
2.152220269e-21
5.544876424e-21
5.502857834e-22
3.403579795e-21
6.955243842e-21
1.480528364e-22
1.244199673e-21
1.777551211e-21
6.232582426e-22
4.757765645e-21
6.117459809e-22
4.143977802e-21
1.031959319e-20
1.986186001e-21
1.05551636e-20
6.871525536e-21
1.209390012e-20
1.093336624e-20
2.041656621e-20
9.643181372e-21
6.059300233e-22
1.060735356e-20
7.904930991e-21
6.495334355e-22
6.339714988e-21
6.95430728e-21
5.521098817e-21
7.887881197e-22
1.749581781e-21
6.987837478e-21
1.227990975e-21
2.479122733e-21
6.022029502e-21
5.659629625e-21
1.924841241e-21
6.452429017e-21
2.209887351e-21
2.434989497e-21
1.661432917e-21
9.300754619e-22
2.747083151e-21
4.023741172e-21
2.984714214e-21
1.611817923e-21
3.746873537e-21
1.533770108e-21
8.957152283e-22
3.302526786e-21
2.726901127e-21
3.348872196e-22
5.396928814e-23
1.174615852e-22
1.006862998e-22
5.475574421e-21
2.379737678e-21
1.442322236e-20
5.816668427e-21
3.214988962e-21
6.729802318e-22
2.414890562e-21
1.188543739e-20
9.020652976e-21
9.661023369e-22
5.591228078e-22
3.134620594e-21
3.851939649e-22
2.828378011e-21
1.94756804e-21
1.386860858e-21
4.685516901e-22
4.413997782e-21
3.462436955e-21
2.684736233e-21
1.266886111e-21
5.609076565e-22
9.86024396e-22
5.454111254e-21
5.888805507e-21
4.735325321e-21
3.294978211e-22
2.1495035e-21
9.59691233e-22
1.008521929e-21
1.040409214e-20
1.856950597e-20
2.239013359e-20
3.72310207e-21
5.630326066e-21
2.458559416e-22
6.82950479e-21
1.15217284e-21
9.240686457e-21
2.508276683e-21
9.764236234e-21
6.4294936e-21
3.496677274e-21
1.137172784e-20
7.802588597e-21
1.897721646e-21
2.39772048e-21
2.056559748e-21
2.534054361e-21
2.93680845e-21
1.490279611e-20
1.634880864e-20
2.351943255e-22
4.735942101e-22
1.767389786e-21
4.938462148e-21
9.105460363e-22
5.740240693e-22
1.683506052e-21
4.030689834e-21
9.48707953e-22
3.816741112e-24
1.452622886e-20
4.377946784e-22
1.382146256e-21
1.334769065e-21
5.793460193e-22
3.863717509e-21
7.549885078e-21
7.412339642e-22
7.240591157e-23
1.484951239e-21
6.702997055e-22
1.570327265e-20
8.856279978e-21
1.622027152e-21
3.04937821e-23
5.85896945e-21
9.058268713e-23
2.496539634e-21
2.892354799e-21
1.782287754e-22
2.892895866e-21
2.982901325e-22
9.5571718e-21
1.967473926e-21
4.884589786e-21
9.908516799e-21
9.810587547e-21
3.946545247e-22
8.018454602e-21
7.841296202e-21
1.848692667e-21
4.307117943e-21
9.99066e-21
3.020111577e-22
9.658425311e-21
7.468517704e-21
1.562664069e-21
4.440109696e-22
3.869602681e-21
1.189888721e-21
9.076022023e-21
3.066203715e-21
5.609679816e-21
2.093585115e-20
7.362571628e-22
1.160857684e-20
4.129275162e-21
3.550453091e-21
8.820378598e-22
5.853889335e-21
1.472402461e-20
1.206263833e-21
6.359881617e-21
2.644967145e-21
1.986191272e-21
4.129765297e-21
4.482734993e-21
3.988409555e-22
3.849140525e-21
6.570950723e-21
6.530859733e-21
1.701964732e-20
3.432720786e-21
6.050646361e-22
1.309598489e-21
9.583916638e-21
5.198370461e-22
4.658292108e-21
3.169106317e-21
8.594317122e-21
6.945432392e-23
4.083852092e-21
2.287806151e-21
3.690672829e-21
6.627741072e-21
1.667923558e-20
1.80902757e-22
3.649529357e-22
2.463520973e-21
5.393242608e-21
1.075966497e-20
3.66508129e-21
3.687811643e-21
2.184949792e-21
2.448877364e-21
8.300483846e-21
9.395658908e-22
3.524162224e-22
8.188799703e-21
1.482650279e-21
3.439666499e-22
8.86825802e-21
2.048786674e-21
1.046269169e-21
4.275587778e-21
4.381014549e-21
9.205954548e-22
7.572610441e-21
7.753307144e-21
1.629778766e-21
8.537115038e-21
7.044888549e-22
3.04299646e-21
3.229879512e-22
2.566201354e-21
4.627262094e-21
6.447122789e-22
1.434308086e-20
2.452513699e-21
2.274251623e-21
2.965812078e-22
4.288919815e-21
5.684214949e-21
2.709877995e-21
8.958469117e-22
2.39361567e-21
1.594168109e-23
1.374089655e-21
2.555508207e-21
1.976022766e-21
4.648337729e-22
2.360571507e-21
1.911081695e-20
2.678319037e-21
3.036202356e-21
4.809054893e-21
5.404269279e-21
1.101507192e-20
5.418220154e-21
5.511928157e-21
5.803202495e-21
5.176758515e-21
3.864831388e-22
1.735510945e-21
1.431497232e-21
2.91069856e-21
1.52071565e-22
3.738043651e-21
2.773883656e-22
9.588748351e-22
3.329032403e-21
2.631962374e-21
4.238571488e-22
2.394379016e-21
8.578482558e-21
6.475848856e-21
2.118792199e-21
1.208841786e-20
7.373022605e-21
2.230889367e-21
7.54170013e-21
6.514312356e-21
3.977941645e-21
3.552009941e-21
3.519371949e-22
1.483266377e-22
2.777041107e-21
6.585370947e-21
3.695757403e-22
7.376644419e-21
1.114284632e-20
6.180790516e-22
2.084836391e-21
5.989716104e-21
1.470337901e-21
2.728141654e-21
8.298979549e-21
2.056363591e-20
1.271950821e-21
8.342421384e-22
1.95946323e-21
5.965041476e-21
4.940620328e-22
2.437478529e-21
3.880569675e-21
2.937806867e-21
1.287705652e-20
3.447908479e-22
6.188919059e-22
9.868162384e-23
5.004175303e-22
3.531472938e-21
7.286487965e-21
3.643757914e-22
5.773198357e-21
1.156275205e-21
9.740952578e-22
3.53919999e-21
7.98835169e-22
9.266603772e-23
1.095313798e-22
4.088141825e-22
1.954635583e-20
7.203439722e-21
9.086795037e-21
9.640483554e-22
4.170676048e-21
1.279157395e-21
4.562531082e-22
9.396472509e-22
1.085815916e-21
3.360891612e-21
2.754704601e-21
6.661103211e-21
4.749499304e-21
3.560631725e-21
7.430161698e-21
5.59501996e-21
1.002898941e-20
5.477760954e-22
3.109213095e-21
7.54328231e-21
1.576641318e-22
7.199724893e-22
2.492516134e-21
3.400513888e-22
2.272989762e-21
1.22685307e-21
8.028562292e-21
1.221655061e-20
7.530105727e-22
1.451702271e-20
1.155886079e-21
4.122712798e-21
2.483402742e-21
1.362624893e-20
3.404207335e-21
5.14737319e-21
6.278148134e-22
1.030766759e-21
4.901451709e-22
2.218429027e-21
1.508746006e-20
1.82117197e-21
3.735604076e-21
5.266278832e-21
1.529076104e-21
4.83444241e-21
2.325119501e-21
7.379627911e-22
2.00872588e-21
4.729095103e-22
1.248948331e-20
3.846239075e-21
2.008929371e-21
4.153516473e-21
5.317054401e-21
5.566399081e-21
3.213727883e-22
7.927706297e-22
4.560116841e-21
5.635609376e-21
3.750541526e-21
8.38755907e-22
2.613206439e-21
3.892439814e-21
1.027682859e-21
1.048870109e-20
8.36323196e-22
3.924819513e-21
6.415982954e-22
2.616265579e-21
7.195591431e-22
3.827162907e-21
7.556908414e-21
1.059073691e-21
4.603437329e-23
7.329298846e-21
1.450869798e-21
7.284924755e-21
2.081636623e-20
1.879858427e-21
6.156265509e-21
1.744460822e-21
1.112792031e-20
6.171176466e-21
6.40739121e-22
1.698711328e-21
1.056802971e-20
2.34014622e-21
1.825742096e-21
7.282848183e-21
7.528874159e-21
1.234541159e-21
1.361352099e-21
4.353838171e-21
6.539051044e-23
9.598011227e-22
2.689530868e-21
5.048148541e-21
1.429371379e-21
2.9837367e-21
4.479585721e-21
3.73462832e-22
3.97777487e-21
2.641664221e-21
5.085871527e-21
6.313759155e-21
5.977204727e-22
7.534604645e-23
5.60620225e-23
1.289682049e-20
8.144044526e-22
4.381595989e-21
1.373013651e-21
5.187049226e-22
3.575913442e-21
2.629349418e-22
2.476045274e-21
4.477934431e-21
8.730364195e-22
3.99627507e-21
1.041812672e-21
4.163267129e-21
2.463834652e-21
6.833083483e-21
1.003346759e-20
6.422160085e-21
4.432187422e-21
5.394943853e-21
1.272704727e-21
4.551774852e-21
1.804708523e-21
3.546370658e-22
1.766445887e-21
2.987996867e-21
1.33050731e-21
7.056760655e-21
1.461037532e-21
6.162700659e-22
7.933893197e-21
1.290962801e-21
1.066735177e-20
1.13971965e-20
1.239931515e-20
1.085095325e-20
1.76044188e-21
9.193204825e-22
2.044528574e-21
8.418023541e-22
3.274786598e-21
1.164556614e-21
4.472998739e-21
2.656852174e-21
3.083650986e-22
8.543497082e-23
3.595626303e-21
8.768275064e-21
2.570402837e-22
1.475303149e-20
1.59775364e-21
3.22728514e-21
2.203796734e-21
6.329738603e-21
4.257916096e-21
4.719580361e-21
6.020569356e-21
8.697152709e-22
3.697310274e-21
2.430026415e-23
1.145148771e-20
4.70238061e-21
1.16138778e-21
8.050408119e-21
4.893416588e-22
8.079204805e-22
2.523906014e-21
3.288437377e-21
1.58474991e-21
8.161888828e-22
7.841293812e-22
1.779775058e-20
7.084760228e-21
1.181987179e-21
6.410743882e-21
3.391515924e-21
2.548181271e-21
4.440556519e-21
3.40177896e-22
5.05877206e-21
4.536177105e-21
5.803958208e-22
7.232472643e-21
3.72220991e-21
6.081251119e-22
2.024284005e-21
6.045912427e-22
5.213881267e-21
5.010999851e-21
7.367885335e-21
3.300776464e-21
1.662003116e-21
3.21382452e-21
6.139006178e-21
1.452648474e-21
4.543520714e-21
4.120492223e-21
3.886930161e-21
6.824964975e-21
1.090467565e-21
1.686226207e-21
7.553728288e-21
8.355838383e-22
4.819649263e-21
1.282949733e-20
6.808641582e-21
2.06368268e-21
3.645121162e-22
6.675258927e-22
6.106733624e-22
2.884730803e-21
8.789693544e-21
8.890160672e-21
2.020110918e-21
2.533084039e-22
7.141535247e-22
5.709747712e-21
7.949255619e-21
2.959070882e-22
5.325630831e-21
2.222221013e-21
3.176857783e-22
1.174818472e-21
5.546554286e-21
5.809420731e-21
5.332069921e-21
1.470917256e-21
2.80601526e-21
4.492457312e-21
2.219989416e-21
1.584359752e-21
3.436061745e-22
6.580819081e-21
1.075762889e-21
7.980178351e-21
1.17389713e-21
1.161600086e-20
2.277831274e-21
2.910741296e-21
1.864664377e-21
4.595673374e-21
2.280385548e-21
7.636275712e-21
3.431804042e-21
5.248695254e-22
1.309022469e-21
3.339681731e-21
1.272731723e-21
5.79500745e-21
1.618060921e-21
2.854867842e-21
5.627559374e-21
7.673974326e-21
7.919799401e-21
4.485300789e-21
8.92160083e-21
1.855974785e-22
1.568185849e-20
3.923445179e-21
5.725098152e-21
2.015022373e-21
2.203897076e-21
1.759486681e-21
1.647702941e-21
9.154257424e-21
5.912881024e-21
5.285792701e-21
1.074460383e-21
1.059694469e-22
3.90912071e-22
1.978856196e-20
7.198785955e-21
6.485646198e-22
2.13730253e-23
1.328470761e-20
4.988459613e-22
4.358132469e-21
3.157598833e-21
5.717502836e-21
8.540129304e-22
1.197592387e-20
4.321839057e-21
9.818704214e-22
9.843234414e-21
2.780115291e-21
2.799739731e-21
6.455780966e-22
1.724549913e-21
5.906814929e-22
7.375895449e-21
1.851132285e-20
5.498842838e-22
3.609974689e-21
8.778391615e-22
1.417602484e-21
3.922035283e-21
2.431452075e-21
4.140115872e-22
1.971591927e-21
8.227190672e-21
3.007263125e-21
2.578150595e-22
4.697011128e-22
5.120123723e-21
6.434214049e-21
3.839689535e-21
1.064607853e-21
7.869670431e-21
8.753862997e-21
8.675741107e-21
2.583003031e-21
5.09705581e-21
4.137997383e-21
6.542391286e-21
9.863561946e-22
3.311900733e-21
8.256742522e-21
4.789520327e-22
6.09913809e-21
1.260557453e-21
2.695959027e-21
7.820953697e-21
2.839290494e-21
9.21409131e-21
6.043065951e-21
1.34455108e-21
2.100008854e-21
7.185480711e-21
4.992814057e-21
7.701167232e-21
2.609292616e-21
6.781747777e-21
2.175148419e-21
1.935681801e-21
2.923811471e-21
5.087313676e-21
1.303192775e-24
1.71600918e-20
5.788398621e-22
9.849588359e-21
2.519449012e-22
2.565082481e-21
3.246227137e-21
6.846312053e-21
4.47948356e-22
3.228146241e-21
1.46810217e-21
1.935707658e-20
4.940795366e-23
4.174467574e-22
5.298929784e-21
1.199555931e-21
5.582888337e-21
3.381888461e-21
9.642372156e-22
5.00585003e-21
4.219710633e-20
1.495630558e-21
1.09993886e-21
1.948437651e-21
3.578769418e-22
4.294502256e-21
1.302705688e-20
4.09968024e-22
4.392130712e-21
2.754090139e-21
1.829364279e-21
6.159794514e-22
1.955544134e-21
3.046054498e-21
1.535482118e-21
1.235047575e-20
1.204458269e-21
3.087862792e-21
1.527900205e-20
7.182006324e-21
1.892419488e-21
3.614975376e-23
3.190409183e-21
1.55212783e-21
7.102988963e-24
7.335085953e-22
6.033831365e-21
6.499600392e-21
2.794053852e-21
4.512498531e-21
2.043239143e-21
1.308705729e-20
8.800216785e-21
6.558119978e-21
6.698942439e-21
9.219968125e-21
6.365947672e-21
6.803688314e-21
1.084846285e-21
2.626882533e-21
4.673022977e-21
1.9798926e-21
3.404912764e-22
2.512329807e-21
1.287150292e-22
4.200580067e-21
2.776640632e-21
2.112100341e-21
1.403696597e-22
5.59473268e-22
1.762790849e-21
1.092445303e-21
2.246988881e-21
3.00309776e-21
7.143230247e-22
7.34407184e-21
8.593306388e-21
2.559024937e-21
3.485707545e-21
3.9081747e-21
4.987344024e-22
1.267176233e-20
1.905963185e-21
1.765488128e-20
2.085143541e-21
2.677193708e-20
7.60303854e-22
2.028545895e-21
4.558241415e-21
1.311948141e-21
1.189331626e-21
7.498321095e-21
7.746149917e-21
2.035269698e-21
2.74058192e-21
6.14922137e-23
4.93280826e-21
2.497541895e-21
4.649646527e-21
2.854617145e-21
2.091325815e-21
1.060680762e-21
1.803316707e-21
3.402539591e-21
8.226907313e-21
9.524874048e-22
2.258515762e-21
1.03053295e-20
1.020892136e-21
5.170586816e-21
3.850695093e-21
2.53747233e-22
1.049359086e-20
8.405720643e-21
2.482987227e-21
2.258098377e-22
7.183385444e-22
1.85695927e-21
1.790307257e-21
8.820730039e-21
1.254979096e-21
3.360301338e-22
4.499151118e-21
4.829115359e-22
3.825501512e-21
4.443712706e-21
6.377958871e-21
7.941416618e-22
6.098294594e-21
9.985834738e-22
1.090944189e-21
2.775980331e-22
2.168006273e-21
2.660998413e-21
1.787239856e-21
2.40048644e-21
4.362339503e-21
1.703367789e-21
1.734449841e-21
3.88755693e-21
2.99102759e-21
9.054285659e-21
5.153907448e-21
3.661457211e-22
3.044428796e-21
2.41456571e-21
8.702385654e-21
5.474075332e-21
1.592241278e-21
6.27681368e-21
1.4348802e-20
1.980510949e-22
7.216630797e-21
3.312905338e-22
3.036478073e-21
1.840065194e-21
1.196693686e-21
2.181795941e-22
3.819820146e-23
1.238412263e-21
2.330825433e-21
1.832917931e-20
7.127579692e-21
9.045221205e-23
7.882211723e-22
3.295683686e-21
9.821350424e-21
2.320995741e-21
1.72780358e-21
2.367107268e-21
6.829156346e-23
3.339929187e-21
4.413291231e-21
5.385428085e-21
5.580811138e-21
1.009760067e-21
4.826294771e-21
1.556504077e-21
7.383406962e-21
4.098219897e-21
6.234157408e-22
6.5429876e-21
3.219333907e-22
2.226338109e-21
1.317352033e-20
5.259033682e-21
4.96263452e-22
7.362546026e-23
1.063559047e-20
4.664608802e-21
3.541281684e-21
5.308172344e-21
2.256659704e-21
2.26061003e-20
2.431784488e-21
2.740388559e-21
2.18706678e-21
1.636289041e-21
3.475893635e-21
3.151966696e-21
7.477330711e-21
9.439795496e-21
3.140520791e-21
1.27998073e-20
6.212415584e-21
5.642574024e-21
3.779885063e-21
4.552472694e-21
6.455412339e-22
1.80625532e-22
2.14157442e-21
4.064537209e-22
5.730266731e-21
5.566929836e-22
5.68414447e-21
6.713617326e-21
7.978521406e-21
6.213571217e-23
4.458641874e-21
9.504481833e-21
6.300759435e-21
1.676943034e-21
7.070739672e-22
1.788390443e-20
6.315326659e-21
1.301747188e-21
4.883183659e-21
1.887278303e-22
1.548602698e-21
9.396722688e-21
1.086102316e-20
2.059105757e-21
2.481846816e-21
2.036639454e-20
9.958523731e-22
2.111897275e-21
5.331187509e-21
2.248941878e-21
8.362456007e-22
4.33862487e-21
7.920803178e-21
7.745132801e-22
5.326164074e-21
3.913345703e-21
3.731792142e-21
1.094275926e-21
1.225117871e-21
7.680111937e-22
1.926123565e-21
1.52621449e-22
1.09350573e-20
2.953707074e-21
9.786016695e-21
6.465352753e-21
3.509158432e-21
1.690759993e-21
3.398332742e-21
1.698391934e-21
1.387687483e-21
4.159760175e-22
1.593477185e-21
1.264959554e-22
8.034274465e-22
9.659929759e-22
1.943493097e-21
2.240447171e-22
4.85715211e-21
7.022427383e-21
1.145076635e-20
1.223893259e-21
2.479494934e-21
5.718922193e-22
4.717409763e-21
2.693755288e-21
1.263764874e-20
6.438811701e-21
4.392910534e-21
4.396281457e-21
3.085800222e-21
9.803510647e-21
4.977504958e-21
1.933085603e-21
3.953764437e-21
8.686699347e-22
6.855520171e-22
6.65609685e-21
8.673721397e-21
2.437482799e-21
6.25747491e-21
2.366526913e-22
3.411865268e-21
1.393212353e-21
6.610944204e-21
1.092986974e-21
4.045758619e-21
7.430634056e-21
3.858571983e-21
3.34040638e-21
6.29414051e-21
2.943108172e-21
3.038915843e-21
9.872279521e-21
3.364180286e-21
1.084688648e-20
1.454679584e-21
6.302264386e-21
5.384145011e-21
7.072856638e-22
1.680565248e-21
1.939205015e-22
5.606879502e-21
7.180915574e-22
7.95582843e-21
3.131047834e-21
2.240598518e-21
5.927522469e-21
9.468859966e-21
7.886206693e-21
4.784155975e-21
1.303933479e-20
2.327237128e-21
1.184778016e-22
7.358144839e-22
2.489643914e-21
5.325698276e-21
1.488710369e-21
8.948981812e-21
1.886372898e-21
4.594253767e-22
1.835733022e-21
8.819846586e-21
7.706828957e-21
7.481871313e-21
5.089596026e-22
2.635279828e-21
6.068355448e-21
3.777851109e-22
7.287695905e-21
4.497601312e-21
9.735422755e-22
7.430211135e-21
1.392617465e-21
1.286622585e-20
2.082911951e-21
4.05404895e-21
2.534888779e-21
5.970641425e-21
3.000189758e-21
4.031762378e-21
9.365412454e-22
3.365186737e-22
3.690537982e-21
5.620860268e-21
1.471556356e-22
8.633928921e-21
2.870736357e-21
5.95743403e-21
1.153915962e-20
2.609712839e-22
1.931421286e-21
1.62713035e-21
3.528736242e-22
7.994841042e-21
1.344635514e-22
8.522692792e-21
5.980344113e-21
4.712098201e-21
1.41821014e-20
6.708537356e-21
9.587110776e-21
1.546771156e-22
5.921215815e-22
1.730207107e-21
6.17256912e-21
3.919142447e-21
1.484898182e-21
3.409586849e-21
7.18322245e-22
7.267324564e-21
2.280014539e-21
5.007082082e-21
9.249301398e-21
9.810905953e-22
9.202145957e-21
2.35399112e-21
1.839889568e-21
1.086969994e-21
4.24723455e-21
6.348763981e-21
1.945555705e-21
3.565087292e-21
3.314944734e-21
1.590211794e-21
3.272743162e-22
2.463836555e-21
2.41595932e-21
1.094733603e-20
7.665927114e-22
1.425104939e-21
3.779341188e-21
4.348723912e-22
8.10790547e-21
8.199193293e-21
6.681148521e-22
2.957931536e-21
4.141688942e-22
1.4828964e-21
1.796995205e-20
5.662150321e-21
1.778334255e-21
2.463680335e-21
3.839926896e-22
9.248004958e-22
6.800150975e-21
5.863681231e-22
2.566894928e-21
8.949952578e-21
8.630353989e-23
5.413344339e-21
8.315001112e-21
2.82040431e-21
5.036000303e-21
2.062081108e-21
1.622137324e-21
1.759813795e-22
2.261150436e-21
1.903018166e-21
2.88593079e-21
3.507186037e-21
1.340108823e-21
1.14068222e-20
1.162352575e-20
9.955558645e-21
6.564895575e-22
6.332675698e-21
9.383727147e-21
1.240546459e-21
3.663063321e-21
2.576695265e-21
4.712120981e-22
4.639316977e-22
2.786916219e-21
4.551494738e-22
3.260022559e-21
1.799725589e-21
3.303399606e-21
3.294245057e-21
9.862682221e-21
2.513960406e-21
7.077485092e-21
9.673276417e-21
9.988320561e-21
3.784607715e-21
2.818012912e-22
4.899840426e-22
2.698950831e-21
8.826493968e-22
3.725743085e-21
6.562289342e-21
4.666298579e-21
1.406195966e-22
5.415912662e-21
2.452331125e-21
8.800751076e-21
9.992297106e-21
7.160529352e-22
1.869407817e-21
1.15269488e-21
2.813755303e-21
5.036186431e-21
2.601120159e-21
2.182599843e-21
3.64395169e-21
7.836067386e-22
2.880882668e-22
2.166213514e-21
7.358292901e-22
8.168814149e-21
4.316360857e-21
1.733490812e-21
8.458479218e-22
2.489533069e-22
1.040568019e-21
6.716498647e-21
3.492051311e-21
3.112229583e-22
3.265290918e-21
1.020596443e-20
1.401491947e-21
5.096137221e-22
1.437489149e-21
1.756631136e-21
1.832194132e-21
2.915418257e-21
5.529761113e-21
1.687618389e-22
4.426804377e-22
7.633959835e-23
3.827756965e-21
5.243564761e-21
5.72567672e-21
1.314672807e-21
9.241661447e-21
1.156874542e-21
1.257476795e-20
6.301453012e-21
1.128653259e-20
7.446096463e-21
4.223905464e-22
1.610336103e-21
4.632733377e-21
9.84944169e-21
6.632918732e-21
3.710664381e-21
7.2171552e-21
1.007802625e-21
1.330761291e-21
1.746238268e-21
1.395991901e-20
6.953827055e-22
4.978839417e-21
1.784348803e-20
3.122339799e-21
1.007319336e-21
4.738654113e-21
1.09363352e-21
2.355274227e-21
6.782135231e-21
4.766157731e-21
5.719347378e-22
4.139226256e-21
1.555858395e-20
6.717747543e-21
2.608487336e-20
4.654593972e-21
6.584788602e-21
3.316451915e-21
9.038522801e-22
2.038540256e-21
8.744295288e-21
3.860768029e-21
9.559725404e-21
1.541157702e-21
3.451524072e-21
2.554500207e-21
7.572037438e-21
7.921471821e-21
1.786290414e-21
1.044646039e-21
2.807578577e-21
1.767302669e-21
1.217052331e-21
7.66932413e-21
1.830564202e-21
1.823462639e-21
7.327881079e-21
5.062984755e-21
6.773460365e-21
5.981764581e-22
7.92770212e-21
2.640824919e-22
2.387515532e-21
1.025398263e-20
3.313309145e-21
1.564896861e-21
1.802976605e-21
2.17998797e-22
1.857630897e-21
2.247189784e-20
3.366112675e-22
8.091258495e-21
9.669372104e-22
1.551833359e-21
1.84753677e-21
3.07794218e-21
4.29553686e-22
3.055501244e-21
1.572838306e-21
5.636563338e-21
6.183895477e-22
1.675971654e-21
3.602172442e-21
5.50953684e-21
1.817482489e-21
9.126030208e-21
4.831988388e-21
5.707131904e-21
1.201184788e-21
2.627992847e-21
1.479974629e-21
6.388085321e-21
7.780025988e-21
6.873458e-21
6.884395258e-21
3.200251039e-22
9.828396297e-22
1.939330467e-21
7.40659728e-23
2.663996131e-21
9.66381576e-21
4.077083909e-21
3.651086354e-23
4.23243732e-21
1.180969128e-22
4.881683303e-21
1.415432513e-20
4.879972125e-22
8.585843558e-21
1.646479022e-21
1.762645958e-20
3.272496598e-21
4.817023504e-22
5.727968375e-21
3.632829293e-21
7.339086381e-21
2.324593348e-21
2.149458475e-21
2.135247155e-21
1.241659532e-21
7.92972343e-22
1.709722285e-21
1.952761831e-21
2.640323154e-20
1.411591027e-21
5.356455463e-21
2.084840828e-22
1.521384252e-21
4.063182679e-21
1.377613951e-21
4.929585411e-21
6.098692164e-21
2.911514111e-21
5.69237599e-21
2.552385562e-21
9.624271435e-22
3.50595315e-21
7.371231725e-21
3.004583784e-21
5.108294323e-21
1.197034979e-21
1.043658234e-21
3.148815439e-21
1.3261912e-20
3.157638896e-21
1.336019735e-21
1.914737469e-21
2.935859457e-22
5.054084001e-22
9.045637773e-22
1.985163391e-21
2.243521325e-21
1.985723608e-21
4.663271336e-21
7.206467327e-21
3.301885394e-21
2.293868213e-21
6.072299913e-22
9.653636488e-22
8.010400763e-22
1.096220011e-21
2.473210008e-21
7.318047346e-22
2.417492091e-22
4.079820664e-22
3.321326962e-21
4.288033202e-21
8.610031757e-21
1.04145368e-20
5.748956799e-21
1.183629031e-20
2.947300703e-21
3.526660347e-21
7.323599896e-21
7.937617888e-21
1.648171389e-21
1.614354668e-20
4.452991797e-22
1.345800661e-20
6.096693592e-21
4.004364319e-22
2.998876788e-22
1.198578377e-20
2.749784362e-21
7.131522946e-21
7.107011724e-21
1.484654286e-21
1.024639926e-22
3.123974389e-21
2.720260919e-21
3.260120302e-21
1.60134782e-21
3.278924253e-21
1.120381414e-21
1.038365977e-21
4.440536926e-21
2.096180251e-21
4.67780025e-21
1.450585577e-21
2.330315567e-21
3.090868467e-21
1.561086412e-22
8.166034134e-22
2.077640343e-21
6.633348919e-22
9.320057748e-21
5.955614682e-21
1.857222818e-20
1.93309287e-22
4.280760076e-22
3.289988193e-21
4.24177261e-21
3.396430939e-21
5.947649379e-22
6.381332786e-22
7.264987236e-21
1.011397945e-21
1.043967241e-21
6.316916659e-23
1.328565747e-20
3.858108018e-21
1.425618778e-21
2.407102924e-21
2.120006701e-21
7.713225161e-21
1.835920128e-21
3.833678082e-21
5.057514123e-21
5.142885755e-21
7.922238886e-21
7.705311806e-21
3.88641391e-22
1.12126376e-20
2.513637574e-21
1.910023362e-21
7.500390406e-21
9.438129405e-22
1.72031673e-21
6.724817504e-21
7.777614405e-21
1.437956198e-21
5.091021446e-21
1.684039182e-22
3.915689432e-24