/*--------------------------------*- C++ -*----------------------------------*\
| =========                 |                                                 |
| \\      /  F ield         | OpenFOAM: The Open Source CFD Toolbox           |
|  \\    /   O peration     | Version:  2406                                  |
|   \\  /    A nd           | Website:  www.openfoam.com                      |
|    \\/     M anipulation  |                                                 |
\*---------------------------------------------------------------------------*/
FoamFile
{
    version     2.0;
    format      ascii;
    arch        "LSB;label=32;scalar=64";
    class       Cloud<dsmcParcel>;
    location    "0.007/lagrangian/dsmc";
    object      positions;
}
// * * * * * * * * * * * * * * * * * * * * * * * * * * * * * * * * * * * * * //

5158
(
(0.0564369092 0.2348028654 -2.168404345e-19) 453
(0.05849369868 0.2532783224 0) 483
(0.07091659586 0.2557323635 1.219727444e-19) 485
(0.06297986255 0.2688068135 -2.710505431e-19) 504
(0.07226503737 0.1825199571 -1.219727444e-19) 385
(0.07411111392 0.2287132092 1.084202172e-19) 445
(0.07385352041 0.2348615461 -1.084202172e-19) 455
(0.0628526696 0.2369520877 -4.33680869e-19) 464
(0.06859911147 0.2652150774 2.710505431e-20) 505
(0.06406482853 0.2537665267 -2.710505431e-20) 484
(0.06779130022 0.1755697878 2.168404345e-19) 374
(0.06310517388 0.2277371468 4.33680869e-19) 444
(0.04914672517 0.177876939 2.168404345e-19) 372
(0.04931241965 0.2211189678 0) 432
(0.06496216187 0.2239399601 2.168404345e-19) 444
(0.0684241652 0.2143667291 0) 424
(0.07439980287 0.2078667986 -2.168404345e-19) 415
(0.04515537482 0.2843933448 -2.168404345e-19) 521
(0.07120610387 0.1877932637 1.084202172e-19) 395
(0.07377316763 0.1901901754 -2.168404345e-19) 395
(0.05499152557 0.2295443447 0) 453
(0.0747072933 0.203141488 0) 415
(0.07485202938 0.2295127413 -4.33680869e-19) 445
(0.07587355099 0.1988822188 2.168404345e-19) 405
(0.07185818274 0.279880207 -1.626303259e-19) 525
(0.06934579478 0.2957054662 -2.168404345e-19) 545
(0.06502264218 0.2707603165 4.065758147e-19) 504
(0.05352292923 0.2849959867 -2.168404345e-19) 523
(0.06341757744 0.1732415546 2.168404345e-19) 374
(0.06529070336 0.2074276211 -4.33680869e-19) 414
(0.06838819551 0.2381067552 -2.168404345e-19) 464
(0.05025885593 0.2095829172 -1.084202172e-19) 422
(0.07394313351 0.2071421005 -3.252606517e-19) 415
(0.06162056368 0.2416976831 -2.168404345e-19) 464
(0.06260440719 0.1973997214 1.28749008e-19) 404
(0.05786101059 0.2806405401 -1.084202172e-19) 523
(0.07461577254 0.2535554985 1.084202172e-19) 485
(0.05109174915 0.2128044906 1.084202172e-19) 422
(0.06418056442 0.2111809766 -8.809142651e-20) 424
(0.07175350546 0.2331767649 1.626303259e-19) 455
(0.06508242786 0.217270654 0) 434
(0.05871706894 0.2302621865 0) 453
(0.0477135512 0.2232288935 2.710505431e-20) 442
(0.05157398789 0.2237263308 1.084202172e-19) 442
(0.04406732998 0.2576858024 0) 491
(0.05765047883 0.226128142 2.168404345e-19) 443
(0.06252653143 0.296698385 -2.168404345e-19) 544
(0.04867591776 0.2295017187 -3.252606517e-19) 452
(0.054555211 0.2528847277 0) 483
(0.058877309 0.1838574645 0) 383
(0.07518384908 0.179335432 -2.168404345e-19) 375
(0.04702582014 0.1746370391 -2.710505431e-20) 372
(0.06902345918 0.1724045092 2.168404345e-19) 365
(0.03891827243 0.1701066954 -2.168404345e-19) 371
(0.07490183226 0.2120774011 5.421010862e-20) 425
(0.04941299931 0.2849095691 0) 522
(0.0669481229 0.2933241706 -4.33680869e-19) 544
(0.02382653729 0.211792441 0) 419
(0.05372524728 0.279791027 1.084202172e-19) 523
(0.05326093873 0.2762961144 4.33680869e-19) 512
(0.06317227335 0.2081077323 1.084202172e-19) 424
(0.07181466179 0.2158376545 1.626303259e-19) 435
(0.07329206696 0.1714758627 0) 365
(0.05881446334 0.2122439242 1.084202172e-19) 423
(0.06176529393 0.1784898454 0) 374
(0.05695226093 0.1958700169 1.084202172e-19) 403
(0.04658033554 0.2549547453 2.168404345e-19) 482
(0.07502064204 0.2772709409 2.168404345e-19) 515
(0.06856063758 0.2092854441 2.168404345e-19) 424
(0.0722123082 0.2321582883 1.355252716e-20) 455
(0.05372680014 0.2701065324 -2.168404345e-19) 503
(0.05942553204 0.2793247843 0) 523
(0.03853754848 0.2868835718 -3.252606517e-19) 531
(0.06866502421 0.1867916471 0) 385
(0.07061958066 0.1857574233 6.776263578e-21) 385
(0.05723682152 0.1805641873 -6.505213035e-19) 383
(0.05282592518 0.1886448615 1.626303259e-19) 392
(0.07133092606 0.1881561412 -3.252606517e-19) 395
(0.07425960269 0.2290345711 -2.168404345e-19) 445
(0.03338693582 0.2011478125 1.626303259e-19) 410
(0.06353051902 0.1989391404 -5.421010862e-20) 404
(0.06801768254 0.2069536576 0) 414
(0.07500990911 0.2607680451 5.421010862e-20) 495
(0.03931749 0.2679045787 4.33680869e-19) 501
(0.06779545009 0.2387292447 -4.33680869e-19) 464
(0.05654490759 0.2477205093 -3.252606517e-19) 473
(0.06081508362 0.2898344743 4.33680869e-19) 533
(0.02778411333 0.2547095604 2.168404345e-19) 479
(0.0759677301 0.2704998878 -4.33680869e-19) 505
(0.07415623548 0.2696883234 1.084202172e-19) 505
(0.05313281362 0.2947731668 3.252606517e-19) 542
(0.07090131724 0.2839668354 4.065758147e-20) 525
(0.06696493681 0.2474873457 0) 474
(0.06400801118 0.1836793251 2.168404345e-19) 384
(0.02094130165 0.2243605466 4.33680869e-19) 438
(0.07334909568 0.2126959394 3.252606517e-19) 425
(0.02937407285 0.200876635 -1.084202172e-19) 409
(0.06322314772 0.176033008 1.084202172e-19) 374
(0.0491651413 0.1890738485 -2.710505431e-20) 392
(0.06430083771 0.2798000845 -3.794707604e-19) 524
(0.07252704317 0.1968797279 1.084202172e-19) 405
(0.07472296126 0.2161906546 4.33680869e-19) 435
(0.04650863403 0.2652372153 1.084202172e-19) 502
(0.03610534412 0.2530022145 0) 480
(0.07597487528 0.2077306709 8.67361738e-19) 415
(0.04626471502 0.2203353872 -2.168404345e-19) 432
(0.05038243714 0.2264399492 2.168404345e-19) 442
(0.01541000286 0.2950347146 4.33680869e-19) 538
(0.05186091359 0.2649182204 4.33680869e-19) 502
(0.0424580525 0.2862101479 -2.168404345e-19) 531
(0.06520481448 0.2699568403 4.878909776e-19) 504
(-0.001279558505 0.2761647697 -4.33680869e-19) 299
(0.06592118834 0.297069109 0) 544
(0.07335720128 0.2357253271 1.084202172e-19) 455
(0.07107073911 0.1930400537 0) 395
(0.04200020054 0.190539764 -2.100641709e-19) 391
(0.06853559535 0.2051609683 0) 414
(0.0700265262 0.2023033057 0) 415
(0.04637864937 0.2179128164 0) 432
(0.05377064083 0.1930809973 2.168404345e-19) 403
(0.07377389403 0.1759638467 0) 375
(0.06871202237 0.1875486368 -4.065758147e-19) 395
(0.0734087305 0.2406045805 -2.168404345e-19) 465
(0.06905862497 0.2184623788 0) 435
(0.0746532822 0.2518702729 2.168404345e-19) 485
(0.03818116392 0.23478786 -2.913793339e-19) 451
(0.07409886497 0.2239303418 2.168404345e-19) 445
(0.06027958579 0.2529666599 1.084202172e-19) 483
(0.07255098571 0.2557817156 2.846030703e-19) 485
(0.07563317041 0.2712619587 -4.33680869e-19) 505
(0.04904696847 0.2491006794 4.33680869e-19) 472
(0.04687454127 0.2684868912 1.626303259e-19) 502
(0.05964085773 0.2778415553 -4.33680869e-19) 513
(0.05517006654 0.2995504931 2.168404345e-19) 543
(0.07468465764 0.2692457224 0) 505
(0.04787404005 0.1900740217 -1.084202172e-19) 392
(0.04613077151 0.1724604829 0) 372
(0.04498848961 0.242749469 -2.168404345e-19) 471
(0.06405382948 0.1947374444 -2.710505431e-19) 404
(0.0719884365 0.2006904485 4.33680869e-19) 405
(0.04420475848 0.2857301046 0) 531
(0.0317853368 0.1973618759 0) 400
(0.07241214761 0.2158459338 0) 435
(0.07560270778 0.2148150092 0) 425
(0.05995936537 0.228148598 0) 443
(0.06998126217 0.2198399585 -1.626303259e-19) 435
(0.02613501837 0.2969823212 -1.355252716e-20) 539
(0.04465676788 0.2740045514 2.710505431e-19) 511
(0.06075893318 0.2844509773 0) 523
(0.04626563728 0.2446020998 -3.252606517e-19) 472
(0.07082120189 0.2571268597 2.168404345e-19) 485
(0.06464044966 0.2892583579 1.355252716e-20) 534
(0.06658695729 0.2468227515 -2.981555974e-19) 474
(0.03568013973 0.172883715 -3.625301014e-19) 370
(0.0708523539 0.1880061918 0) 395
(0.04470137195 0.1850442258 -2.168404345e-19) 391
(0.0654304833 0.178151312 5.421010862e-20) 374
(0.05727055209 0.1824819488 -1.355252716e-20) 383
(0.06914857197 0.2470033913 0) 475
(0.07113765168 0.2346847367 0) 455
(-0.01660997809 0.1721862222 4.33680869e-19) 17
(0.06958653852 0.2413907902 -1.084202172e-19) 465
(0.06551497339 0.1907821053 2.168404345e-19) 394
(0.06282737559 0.1841187461 0) 384
(0.04852111463 0.2029133553 -5.963111949e-19) 412
(0.04606225736 0.1949605565 2.168404345e-19) 402
(0.06779650262 0.199288274 0) 404
(0.04599244139 0.2151248158 0) 432
(0.05136006021 0.2893868432 0) 532
(0.07216714412 0.2670490744 -2.710505431e-19) 505
(0.05695182108 0.2821109813 -2.981555974e-19) 523
(0.0710883175 0.2234730937 0) 445
(0.04440002648 0.2474138943 -2.168404345e-19) 471
(0.066935462 0.2215882333 2.168404345e-19) 434
(0.04983907841 0.2495633796 3.794707604e-19) 472
(0.06899540063 0.2453953782 2.168404345e-19) 475
(0.06359249194 0.2480363457 0) 474
(0.07043590976 0.2286655735 1.084202172e-19) 445
(0.0700597351 0.234023658 -5.421010862e-20) 455
(0.04956478334 0.2938145843 4.33680869e-19) 542
(0.05357150173 0.2703679401 -2.168404345e-19) 503
(0.06375304114 0.2996964544 2.168404345e-19) 544
(0.06256476784 0.2363207161 0) 464
(0.05127498479 0.1924117881 2.168404345e-19) 392
(0.0520336014 0.1919952688 -2.168404345e-19) 392
(0.05981850917 0.177000248 0) 373
(0.05493201025 0.2213336758 1.084202172e-19) 433
(0.0732460309 0.2114992293 -2.168404345e-19) 425
(0.05451733319 0.1778992589 2.710505431e-20) 373
(0.06141284334 0.2043059924 1.467484581e-19) 414
(0.06629047903 0.2084983118 -4.33680869e-19) 424
(0.05148710791 0.2089167636 1.084202172e-19) 422
(0.05913202612 0.1781135796 0) 373
(0.07166600551 0.20603424 -1.355252716e-19) 415
(0.04701567582 0.214875161 -2.168404345e-19) 432
(0.04725027927 0.2194362967 -2.168404345e-19) 432
(0.07444651893 0.2169740498 4.33680869e-19) 435
(0.02643627879 0.2306817416 2.57498016e-19) 449
(0.06187439569 0.2117499513 -1.355252716e-19) 424
(0.03900370405 0.2149905756 1.084202172e-19) 431
(0.0560409224 0.2100303547 -2.168404345e-19) 423
(0.04216845102 0.2544995052 0) 481
(0.0540798589 0.2492750643 0) 473
(0.0631297593 0.2434302108 3.252606517e-19) 474
(0.07445640597 0.2522228611 2.168404345e-19) 485
(0.05903366208 0.2258943214 4.33680869e-19) 443
(0.07321323103 0.2929348136 -5.421010862e-20) 535
(0.06558755556 0.2555263555 -5.421010862e-20) 484
(0.07192094107 0.2279098379 0) 445
(0.061668661 0.2570055916 2.981555974e-19) 484
(0.04524074811 0.2890036033 2.846030703e-19) 531
(0.02876046388 0.1937313032 -2.710505431e-19) 399
(0.06391795302 0.1792036589 2.168404345e-19) 374
(0.02928434485 0.2226035338 -3.252606517e-19) 439
(0.06980844301 0.2109522785 -3.252606517e-19) 425
(0.06380444015 0.2221896194 4.33680869e-19) 434
(0.03042448958 0.2460665154 0) 469
(0.07207583765 0.1916161351 1.558540623e-19) 395
(0.05152111678 0.168764162 0) 362
(0.05331659504 0.1845338377 0) 382
(0.07039138087 0.2075043608 0) 415
(0.06256746396 0.1953385361 -2.032879073e-20) 404
(0.06915980219 0.235207274 -2.168404345e-19) 455
(0.07001680036 0.212141686 -9.825582188e-20) 425
(0.06236613299 0.240880112 -2.168404345e-19) 464
(0.04138222464 0.1981770685 4.33680869e-19) 401
(0.04050334562 0.1817072248 -3.252606517e-19) 381
(0.06985594074 0.2249091912 1.084202172e-19) 445
(0.03476564552 0.2644811727 -2.168404345e-19) 500
(0.04250181941 0.219781731 2.710505431e-19) 431
(0.05041074978 0.2470158969 -1.084202172e-19) 472
(0.064811769 0.2835228665 -3.930232875e-19) 524
(0.07028350307 0.2110948883 -3.252606517e-19) 425
(0.06705244011 0.2045865285 8.131516294e-20) 414
(0.05980182841 0.2481589715 2.168404345e-19) 473
(0.0402457587 0.2426425844 -3.252606517e-19) 471
(0.02517504595 0.2105250611 1.626303259e-19) 419
(0.07122411268 0.2647991719 2.168404345e-19) 495
(0.06482179164 0.2382317012 0) 464
(0.054988498 0.2960761708 2.168404345e-19) 543
(0.06698426818 0.2824952232 0) 524
(0.05632796876 0.2933706674 1.626303259e-19) 543
(0.06533911351 0.2711403222 -2.168404345e-19) 504
(0.07262980506 0.2270329159 -3.523657061e-19) 445
(0.06260977929 0.2091977471 -6.505213035e-19) 424
(0.0758450153 0.19230779 -2.168404345e-19) 395
(0.07020920268 0.1746018873 -2.168404345e-19) 375
(0.05481765272 0.2068216126 -1.084202172e-19) 413
(0.0671535607 0.2060896673 -2.168404345e-19) 414
(0.06778433488 0.1975781142 4.065758147e-19) 404
(0.06905752971 0.2128818094 0) 425
(0.07192175172 0.2325551941 -5.421010862e-20) 455
(0.03596843893 0.234758419 0) 460
(0.06099282651 0.216609381 -2.168404345e-19) 434
(0.05290246784 0.2257781829 0) 442
(0.04272643194 0.1948857857 1.084202172e-19) 401
(0.06112553134 0.1813393027 -2.168404345e-19) 384
(0.05305190072 0.2619334936 -2.168404345e-19) 492
(0.05803741904 0.2114019498 -2.168404345e-19) 423
(0.07062381849 0.2532674742 -5.421010862e-20) 485
(0.07395321131 0.2175844923 2.168404345e-19) 435
(0.01099557514 0.2623920847 0) 487
(0.05693117162 0.2172434628 3.252606517e-19) 433
(0.06512728187 0.2646793871 0) 494
(0.0709561113 0.250530435 0) 475
(0.03639177536 0.2484497993 -2.168404345e-19) 470
(0.05381618843 0.2463535824 0) 473
(0.05506970981 0.2593742992 1.626303259e-19) 493
(0.0706295271 0.2127866615 -5.421010862e-20) 425
(0.02726004936 0.1875028877 1.626303259e-19) 389
(0.06759459778 0.26729597 1.084202172e-19) 504
(0.04669752807 0.2707675173 3.794707604e-19) 502
(0.07451692698 0.2507736339 0) 475
(0.05348834254 0.2767213624 -4.33680869e-19) 513
(0.04798536531 0.2859449546 0) 532
(0.04179392878 0.297640863 -4.33680869e-19) 541
(0.05436202007 0.2842499206 4.33680869e-19) 523
(0.05110158428 0.2483234681 1.084202172e-19) 472
(0.05247457562 0.270497898 0) 502
(0.0557116764 0.2284738301 2.168404345e-19) 443
(-0.01734689857 0.1753584388 0) 37
(0.07307307683 0.2190221144 2.168404345e-19) 435
(0.04832196523 0.1785953055 -4.33680869e-19) 382
(0.0663495928 0.2026156987 0) 414
(0.06774528037 0.1764515198 -2.168404345e-19) 374
(0.05624876858 0.2602068331 8.131516294e-20) 493
(0.01104746427 0.223107954 -2.710505431e-19) 437
(0.03977526887 0.2511849446 -2.168404345e-19) 481
(0.05035504036 0.2567034717 3.252606517e-19) 482
(0.03232681304 0.1814294679 -1.084202172e-19) 380
(0.0743095615 0.2249889328 -3.252606517e-19) 445
(0.02987812529 0.2465234987 4.33680869e-19) 469
(0.06155594831 0.1926108328 0) 394
(0.03027103208 0.2264112718 0) 439
(0.06161772323 0.1959535579 -2.168404345e-19) 404
(0.0445062426 0.1748682909 2.168404345e-19) 371
(0.01184087887 0.2467380991 4.33680869e-19) 467
(0.04815582875 0.1943186533 1.084202172e-19) 402
(0.0237928454 0.1888588415 0) 389
(0.05998247313 0.2377433559 2.168404345e-19) 463
(0.01836285488 0.1989937714 -2.710505431e-19) 408
(0.0756901103 0.2149850051 4.33680869e-19) 425
(0.04497758637 0.2740820788 1.084202172e-19) 511
(0.05652340265 0.2678418605 -5.963111949e-19) 503
(0.04885322189 0.2447429257 -2.710505431e-19) 472
(0.04000593814 0.1924710544 0) 401
(0.04364483984 0.2771276028 2.168404345e-19) 511
(0.06838591061 0.2315370637 1.084202172e-19) 454
(0.02049238043 0.2985058417 1.084202172e-19) 538
(0.0570066548 0.2643695742 4.33680869e-19) 493
(0.03380363704 0.2668026924 -4.878909776e-19) 500
(0.06139299928 0.2787042368 -4.33680869e-19) 514
(0.05000761498 0.2650017092 2.168404345e-19) 502
(0.04598616706 0.2610758954 0) 492
(0.02758314118 0.2885433713 -1.626303259e-19) 529
(0.03461498611 0.2937882047 2.168404345e-19) 540
(0.07287439553 0.2773085402 2.710505431e-19) 515
(0.0666437451 0.2667415065 -1.084202172e-19) 504
(0.06685861075 0.1911063795 0) 394
(0.03567587078 0.1925977242 -4.33680869e-19) 400
(0.008552193531 0.2050326978 -1.084202172e-19) 417
(0.07606071501 0.2035907856 -2.168404345e-19) 415
(0.06564917277 0.2114318982 8.131516294e-20) 424
(0.05233927435 0.2010860627 2.168404345e-19) 412
(0.07065362198 0.1999125734 1.355252716e-19) 405
(0.05600240406 0.2024648342 5.421010862e-19) 413
(0.04113735057 0.1831180217 4.33680869e-19) 381
(0.06118276428 0.2023689467 -1.084202172e-19) 414
(0.05934266391 0.2007400823 4.33680869e-19) 413
(0.04490609535 0.1859790903 -2.168404345e-19) 391
(0.0517254345 0.2205132169 4.33680869e-19) 432
(0.04219961401 0.2023406756 1.897353802e-19) 411
(0.06986328395 0.2044063466 -2.168404345e-19) 415
(0.05133332521 0.2355460373 -6.505213035e-19) 452
(0.06518695755 0.2307400975 2.168404345e-19) 454
(0.06000348589 0.2087801854 2.168404345e-19) 423
(0.07335905905 0.2328311892 -2.710505431e-19) 455
(0.05342578618 0.202866788 2.168404345e-19) 413
(0.03035827545 0.2370704791 -1.084202172e-19) 459
(0.02204782758 0.2169016368 2.168404345e-19) 428
(0.04349013929 0.2241669241 -1.219727444e-19) 441
(0.03105310585 0.2332131297 0) 450
(0.05353234643 0.2277247101 2.168404345e-19) 443
(0.04230175945 0.2921684063 -1.355252716e-19) 531
(0.04019478565 0.2662871172 1.626303259e-19) 501
(0.07025362816 0.2783782369 3.252606517e-19) 515
(0.07344029216 0.2319401684 2.168404345e-19) 455
(0.06267179968 0.2284869907 1.084202172e-19) 444
(0.04720707646 0.2441671747 -1.897353802e-19) 472
(0.05489831433 0.2252843272 6.776263578e-20) 443
(0.04175966504 0.2349300577 0) 451
(0.0560117578 0.2436516707 2.168404345e-19) 473
(0.06152807411 0.2518472556 2.168404345e-19) 484
(0.02305267849 0.2886880006 0) 529
(0.07223883023 0.2066417399 2.168404345e-19) 415
(0.0723217785 0.2866705463 -3.117081246e-19) 535
(0.07140928712 0.2836925957 -2.710505431e-20) 525
(0.07580409645 0.269710278 -2.168404345e-19) 505
(0.01831587361 0.2780927611 1.084202172e-19) 518
(0.05332168231 0.2506956807 -2.168404345e-19) 482
(0.06352580964 0.2855159789 -2.168404345e-19) 524
(0.04990010473 0.2659634682 -2.168404345e-19) 502
(0.07417491059 0.2233967209 2.168404345e-19) 445
(0.06470803042 0.2917214091 -4.33680869e-19) 534
(0.07145762085 0.2798487735 -1.084202172e-19) 525
(0.06613880012 0.2816547718 -1.084202172e-19) 524
(0.06952066545 0.1701768098 -3.794707604e-19) 365
(0.07326447487 0.2117433298 1.626303259e-19) 425
(0.02444393385 0.1843901556 5.421010862e-20) 389
(0.06410700365 0.1683537803 -5.421010862e-20) 364
(0.0385106431 0.1845744424 1.490777987e-19) 391
(0.0642930711 0.211483663 -1.355252716e-19) 424
(0.02008451244 0.1971556334 0) 408
(0.05657661831 0.2007271357 3.252606517e-19) 413
(0.04367797924 0.1902106683 -4.33680869e-19) 391
(0.01109498533 0.1965393365 1.897353802e-19) 407
(0.066090292 0.2266240734 0) 444
(0.04490757627 0.2208042311 2.168404345e-19) 431
(0.05592299197 0.205294509 -1.626303259e-19) 413
(0.04689434175 0.1892195987 -5.421010862e-20) 392
(0.0477373608 0.2237789029 -1.084202172e-19) 442
(0.06227088407 0.1863022091 0) 384
(0.05616759256 0.1862628419 -1.084202172e-19) 393
(0.07318823597 0.2196472993 -5.421010862e-20) 435
(0.05299767646 0.2390737796 -1.76182853e-19) 462
(0.05459468799 0.2595567546 -1.084202172e-19) 493
(0.06294572116 0.2277966831 4.878909776e-19) 444
(0.05202071343 0.2120056879 2.168404345e-19) 422
(0.04640762586 0.2089239418 0) 422
(0.07356136441 0.2550543731 -1.084202172e-19) 485
(0.04607585234 0.2033633316 1.084202172e-19) 412
(0.01138924254 0.2655658608 2.371692252e-19) 497
(0.05951832753 0.2635849923 -2.168404345e-19) 493
(0.04115502014 0.2327942304 5.963111949e-19) 451
(0.05523181406 0.2758852505 3.252606517e-19) 513
(0.04444069104 0.2190076274 4.33680869e-19) 431
(0.05392636796 0.2123479905 1.084202172e-19) 423
(0.07370688149 0.2776817695 0) 515
(0.06433714204 0.272729941 -1.897353802e-19) 514
(0.03035645406 0.2414618073 0) 459
(0.05393940105 0.2812350308 2.168404345e-19) 523
(0.0407911192 0.2274112049 0) 441
(0.04389604206 0.2250833439 0) 441
(0.04604282328 0.2916968702 0) 532
(0.05834459018 0.2918464858 3.252606517e-19) 533
(0.07170422784 0.2593509524 -5.421010862e-20) 495
(0.06243037638 0.2750045803 2.168404345e-19) 514
(0.03425912342 0.2485332895 -2.168404345e-19) 470
(0.02739720715 0.2765785825 -1.084202172e-19) 509
(0.01313411975 0.275405607 -4.33680869e-19) 507
(0.05849011203 0.2726136075 -4.33680869e-19) 513
(0.03259596215 0.2814778249 -2.168404345e-19) 520
(0.05399636769 0.2611498708 -1.355252716e-19) 493
(0.05042734853 0.1872464902 2.168404345e-19) 392
(0.06152393006 0.1875305074 -2.168404345e-19) 394
(0.06944079872 0.2516120427 1.490777987e-19) 485
(0.03609009415 0.2183019999 0) 430
(0.06711770335 0.1858259971 4.33680869e-19) 384
(0.06485314533 0.1887434267 0) 394
(0.020532184 0.1875985681 -1.084202172e-19) 388
(0.07293649451 0.2132239573 -2.168404345e-19) 425
(-0.01308314673 0.2000035944 1.084202172e-19) 98
(0.0006643454067 0.1748940422 1.084202172e-19) 376
(0.06902984546 0.1832552834 0) 385
(0.03438749965 0.2064168452 2.168404345e-19) 420
(0.03979484757 0.1969502681 0) 401
(0.02070248758 0.1909998496 -2.168404345e-19) 398
(0.04404099 0.218711955 2.168404345e-19) 431
(0.06237392126 0.1816920265 -5.421010862e-20) 384
(0.06006655949 0.1981735653 0) 403
(0.06775725703 0.2523456269 2.168404345e-19) 484
(0.06130713688 0.2080036955 -2.168404345e-19) 424
(0.03295735494 0.2440086877 -2.168404345e-19) 470
(0.02817635085 0.2439742655 -4.33680869e-19) 469
(0.06342168464 0.2058918777 -8.131516294e-20) 414
(0.05896951926 0.1776289136 -4.33680869e-19) 373
(-0.006756196172 0.2273980678 -1.084202172e-19) 179
(0.00461743424 0.250642789 -1.084202172e-19) 476
(0.04345673407 0.2201343963 2.168404345e-19) 431
(0.05715592127 0.2608625845 -2.651213125e-19) 493
(-0.002630386025 0.2318962471 4.33680869e-19) 179
(0.07353891291 0.255522487 0) 485
(0.07299046968 0.227613723 5.421010862e-20) 445
(0.07313820855 0.2317343897 -2.168404345e-19) 455
(0.0427747613 0.2591238726 0) 491
(0.01948299522 0.2442079134 1.084202172e-19) 468
(0.02929170589 0.2812708553 5.421010862e-20) 519
(0.04868115113 0.271256807 2.168404345e-19) 502
(0.01412885614 0.2368333885 -4.607859233e-19) 457
(0.05611114081 0.288185993 -1.084202172e-19) 533
(0.02764783234 0.2263387832 -2.168404345e-19) 439
(0.06065880427 0.2394217092 0) 463
(0.0399600071 0.275655052 0) 511
(0.03460953565 0.2635992091 2.168404345e-19) 490
(0.05933267822 0.2493105831 0) 473
(0.0682555948 0.2510375225 -4.33680869e-19) 484
(0.06128472415 0.2715575628 3.523657061e-19) 504
(0.06780935874 0.2673018998 0) 504
(0.03996142663 0.2880644384 -2.710505431e-19) 531
(0.06502699516 0.2942490479 0) 544
(0.02978047865 0.2955106438 -5.421010862e-20) 539
(0.06384592092 0.2479246578 2.710505431e-20) 474
(0.05977474336 0.2733201253 -2.168404345e-19) 513
(0.01499725523 0.2870070636 2.168404345e-19) 527
(0.06022030782 0.2665179947 1.084202172e-19) 503
(0.03144381943 0.2915065175 2.168404345e-19) 530
(0.06742393009 0.2752674712 -1.558540623e-19) 514
(0.05287994345 0.2310540317 0) 452
(0.06929177304 0.1947300957 -2.168404345e-19) 405
(0.05947983477 0.1903699055 2.168404345e-19) 393
(0.05641518983 0.1918243584 2.168404345e-19) 393
(0.06652457532 0.2084743339 0) 424
(0.07116155041 0.1682894247 0) 365
(0.02745901956 0.1830647591 -4.33680869e-19) 389
(0.07212455424 0.2387600754 -6.234162492e-19) 465
(0.05422967946 0.1670464049 0) 363
(0.06362953837 0.2008756052 -2.168404345e-19) 404
(0.04948071744 0.1976254537 2.168404345e-19) 402
(0.04412819363 0.2434814626 -2.168404345e-19) 471
(0.06025967865 0.2386538356 3.252606517e-19) 463
(0.06818077772 0.2276515855 -4.33680869e-19) 444
(0.04750467672 0.2274233266 2.168404345e-19) 442
(0.03457026036 0.2348874381 0) 460
(0.06264625756 0.2026064915 2.439454888e-19) 414
(0.0696970185 0.1868152105 -2.710505431e-20) 385
(0.0212188367 0.2279769516 -2.168404345e-19) 448
(0.06804000413 0.1911947905 0) 394
(0.0284436151 0.2360796771 0) 459
(0.04201995962 0.1821970898 5.149960319e-19) 381
(0.03718143797 0.2417268498 -2.168404345e-19) 460
(0.05134400938 0.2285524381 -4.33680869e-19) 452
(0.06811426707 0.1804416565 4.33680869e-19) 384
(0.05590960174 0.20011059 2.168404345e-19) 403
(0.06207196174 0.2751141224 4.33680869e-19) 514
(0.03430288494 0.2626242862 -3.930232875e-19) 490
(0.0701812053 0.2167948619 0) 435
(0.03296798745 0.2136008623 -1.084202172e-19) 430
(0.03733845727 0.2979869259 4.33680869e-19) 540
(0.05950353701 0.220422185 0) 433
(0.05073689735 0.1917657683 -2.168404345e-19) 392
(0.05094223255 0.2370588831 0) 462
(0.07311144909 0.2781454355 2.710505431e-19) 515
(0.06122262484 0.2953026283 0) 544
(0.05926870262 0.2532018235 -5.421010862e-20) 483
(0.04444832655 0.2564516701 2.168404345e-19) 481
(0.06387604198 0.2477447353 -5.421010862e-20) 474
(0.05501934416 0.2423941707 -1.084202172e-19) 463
(0.04085342324 0.2333609174 4.33680869e-19) 451
(0.03792433282 0.2140142209 -4.33680869e-19) 430
(0.07149033848 0.2492619796 2.168404345e-19) 475
(0.04034133697 0.2637945435 2.168404345e-19) 491
(0.05038518514 0.2524777369 1.084202172e-19) 482
(0.05824229919 0.2565112036 0) 483
(0.0482879079 0.2784239956 -2.168404345e-19) 512
(0.0652972075 0.2666161387 3.252606517e-19) 504
(0.02455804389 0.2703128427 0) 499
(0.05103491867 0.2813847272 1.626303259e-19) 522
(0.04895314965 0.275030792 -7.182839393e-19) 512
(0.0630366707 0.2874532318 -6.505213035e-19) 534
(0.02812216721 0.2556549123 -1.084202172e-19) 479
(0.06327658658 0.2765411682 2.168404345e-19) 514
(0.03791511243 0.2815111341 5.421010862e-20) 520
(0.06792122708 0.2898311435 2.168404345e-19) 534
(0.06498017012 0.1779655945 1.355252716e-19) 374
(0.02503163743 0.1871477647 -2.168404345e-19) 389
(0.0104153863 0.1783367034 4.33680869e-19) 377
(0.06062739459 0.1767268681 2.168404345e-19) 373
(0.02302856161 0.1776729134 -2.168404345e-19) 379
(0.0528539432 0.2075498044 2.168404345e-19) 422
(0.04194284939 0.1779559358 2.168404345e-19) 381
(0.06865912599 0.18818931 1.084202172e-19) 395
(0.07381043256 0.1852122277 1.084202172e-19) 385
(0.04549923155 0.2214637414 -2.168404345e-19) 441
(0.001722098689 0.2100215743 1.084202172e-19) 416
(0.04414647252 0.2071652993 0) 421
(0.05489810775 0.177403993 -3.117081246e-19) 373
(0.06532109095 0.2323567898 -2.168404345e-19) 454
(0.05024924635 0.2358172988 0) 462
(0.04474150207 0.2282189364 4.33680869e-19) 451
(0.04960805582 0.2037605509 -2.439454888e-19) 412
(0.06198512597 0.2711507839 -3.794707604e-19) 504
(0.009228204606 0.2021406155 -2.710505431e-20) 407
(0.05428189586 0.2276901962 2.168404345e-19) 443
(0.04479139236 0.24006026 4.33680869e-19) 461
(0.04315600374 0.2256925752 0) 441
(0.058862791 0.2365408714 -2.168404345e-19) 463
(0.05453457282 0.2373173597 1.084202172e-19) 463
(0.05399348372 0.2303199425 -1.084202172e-19) 453
(0.05714650026 0.2347206597 0) 453
(0.03008498184 0.1735514204 4.33680869e-19) 369
(0.03594038545 0.264028996 0) 500
(0.04072532275 0.2545022918 -2.710505431e-19) 481
(0.07500349105 0.2219151724 4.33680869e-19) 435
(0.06446326597 0.2460577711 -2.710505431e-20) 474
(0.06684261618 0.2686544441 2.168404345e-19) 504
(0.06456351154 0.2250575277 -1.355252716e-20) 444
(0.06552083446 0.2568525549 5.421010862e-20) 484
(0.05106870326 0.2238656724 1.084202172e-19) 442
(0.04988482064 0.2643128045 4.33680869e-19) 502
(0.03218544538 0.2786498316 0) 520
(0.01503027811 0.2716960164 2.168404345e-19) 507
(0.06722333924 0.2281803431 -4.33680869e-19) 444
(0.04018759157 0.2595762782 1.084202172e-19) 491
(0.01845127827 0.2555473631 -4.33680869e-19) 478
(0.02211288067 0.2220583322 -5.421010862e-20) 438
(0.05281405758 0.2779500759 0) 512
(0.05541415958 0.2496744085 -1.084202172e-19) 473
(0.05764920617 0.2373400087 -2.168404345e-19) 463
(0.06033541976 0.2438143546 0) 473
(0.07610164974 0.2466075615 -2.168404345e-19) 475
(0.05101685943 0.2704163891 -2.168404345e-19) 502
(0.02115979277 0.2878607061 -1.084202172e-19) 528
(-0.002286820896 0.2710956016 -2.168404345e-19) 299
(0.05690613628 0.261289457 -1.897353802e-19) 493
(0.0501771628 0.2726874619 0) 512
(0.05118705159 0.2981355607 -2.168404345e-19) 542
(0.03909378861 0.2651542318 -2.168404345e-19) 501
(0.05200722141 0.2653617261 0) 502
(0.02370597448 0.2928839612 -4.33680869e-19) 539
(0.0489355617 0.2773523521 -2.168404345e-19) 512
(0.05273618233 0.2614775064 4.33680869e-19) 492
(0.03138734694 0.1890476286 -4.33680869e-19) 390
(0.03461468635 0.1705417359 2.168404345e-19) 370
(0.04186173348 0.1747386355 -1.084202172e-19) 371
(0.06022078021 0.2052151986 -4.33680869e-19) 413
(0.02841227113 0.2061658285 0) 419
(0.02381588598 0.2013715616 5.421010862e-20) 409
(0.05875833981 0.1853842788 -1.084202172e-19) 383
(0.07473856489 0.1778182824 0) 375
(0.0442588214 0.2164270197 5.421010862e-20) 431
(0.0750876354 0.1833733395 -1.084202172e-19) 385
(0.06828688114 0.1792326278 -4.33680869e-19) 374
(0.07157050277 0.2055276486 2.710505431e-19) 415
(0.0153445933 0.1818917629 1.490777987e-19) 388
(0.07601890092 0.1999579602 0) 405
(0.0589869904 0.1879907921 2.168404345e-19) 393
(0.006500173614 0.2187799483 0) 436
(0.07141588441 0.2004080302 1.084202172e-19) 405
(0.005105719355 0.2052210168 -2.168404345e-19) 416
(0.04964750267 0.2121707894 -6.776263578e-20) 422
(0.04922170013 0.269909606 -2.168404345e-19) 502
(0.07603002698 0.1986841317 0) 405
(0.04246240517 0.2082063957 -1.084202172e-19) 421
(0.03563856427 0.1897500226 -7.589415207e-19) 390
(0.05981343994 0.2656450505 0) 503
(-0.004781385762 0.1805041097 -1.084202172e-19) 59
(0.003600600643 0.2315431702 0) 446
(0.052022499 0.2089555161 1.084202172e-19) 422
(0.05132488247 0.1791844011 -2.168404345e-19) 382
(0.05731829679 0.2081297789 -2.168404345e-19) 423
(0.04761017615 0.2096102232 2.168404345e-19) 422
(0.04165640673 0.2350973895 -1.897353802e-19) 461
(0.03859615039 0.1938967124 0) 401
(0.05494403641 0.2596767957 2.168404345e-19) 493
(0.06893330266 0.2305374729 0) 455
(0.04945576678 0.2828011331 2.168404345e-19) 522
(0.04455708109 0.2306309017 -3.252606517e-19) 451
(0.0572798539 0.2448874976 2.168404345e-19) 473
(0.006623660549 0.2635908202 4.33680869e-19) 496
(0.04928593781 0.2592609601 4.065758147e-19) 492
(0.05809734808 0.2469673365 -4.33680869e-19) 473
(0.04700007623 0.2222172146 -5.082197684e-20) 442
(0.04805288052 0.2273294909 -2.168404345e-19) 442
(0.05682069835 0.2302288587 -4.607859233e-19) 453
(0.04694043679 0.2322648595 -5.421010862e-20) 452
(0.02528176755 0.290934724 3.252606517e-19) 529
(0.05228757843 0.2202442684 4.33680869e-19) 432
(0.01712249755 0.2588516002 4.33680869e-19) 488
(0.009456445828 0.2574865134 2.439454888e-19) 487
(0.07075873778 0.2818318843 0) 525
(0.03723633986 0.2653835944 -2.168404345e-19) 500