/*--------------------------------*- C++ -*----------------------------------*\
| =========                 |                                                 |
| \\      /  F ield         | OpenFOAM: The Open Source CFD Toolbox           |
|  \\    /   O peration     | Version:  2406                                  |
|   \\  /    A nd           | Website:  www.openfoam.com                      |
|    \\/     M anipulation  |                                                 |
\*---------------------------------------------------------------------------*/
FoamFile
{
    version     2.0;
    format      ascii;
    arch        "LSB;label=32;scalar=64";
    class       vectorField;
    location    "0.007/lagrangian/dsmc";
    object      U;
}
// * * * * * * * * * * * * * * * * * * * * * * * * * * * * * * * * * * * * * //


5158
(
(1530.861059 -452.4697266 305.8014325)
(1186.910362 -197.1862322 333.30834)
(1840.494326 -72.98181181 -649.0466209)
(1856.359916 212.0655563 63.87350041)
(1437.639969 178.9922704 -115.8810944)
(1818.321105 260.3699489 -477.1893672)
(1433.007347 230.9187944 264.8595907)
(1252.736062 -33.85026731 -480.544927)
(1506.033748 -69.62537829 57.1307919)
(1695.133302 -526.2827288 134.2811478)
(862.9441374 177.7477845 -170.1671822)
(2025.833117 -364.4169526 -24.7024366)
(1161.978238 -622.0811167 -295.8747414)
(1295.827943 -45.64586858 -138.669136)
(1335.758665 24.89113275 -94.12594985)
(1486.198684 430.8901062 170.2057646)
(1673.402387 473.8991846 144.9891934)
(1355.922185 161.2871643 83.1086706)
(1416.645786 -15.42343584 -91.63259293)
(1696.910824 516.8571652 282.6745201)
(1912.076738 -43.4222179 -92.19282647)
(1361.773388 -263.2903273 -214.5332249)
(1110.538863 -219.6790712 279.9640873)
(1452.464344 -245.3856871 163.2524378)
(1287.807993 -252.5887813 9.192230394)
(1682.56279 206.735955 -209.5254571)
(1510.762687 -207.9537066 -236.8786822)
(1529.153946 267.7458119 -69.41458261)
(1787.177652 -897.50795 -435.6205935)
(1198.948784 154.5118022 -267.835256)
(2372.87934 221.9352694 -293.2653166)
(1001.196113 -218.4897935 144.81973)
(1282.50577 311.8531953 -734.231217)
(1159.505018 338.0188398 -434.150291)
(1496.219987 12.90640869 -174.8833472)
(1354.310114 132.3195187 184.6115184)
(1242.67275 51.71470097 480.9409718)
(1649.744531 228.0011227 -82.25680376)
(1629.627065 309.265338 -23.17586658)
(1410.06764 38.23560887 93.13577952)
(1490.110162 148.8041071 100.0466472)
(1204.665717 -613.031349 -138.9087577)
(1403.01731 31.93347919 -445.5121818)
(1811.713275 -19.01494284 -36.20673024)
(1907.013636 -176.1179272 -317.4668455)
(1664.580874 281.7104822 346.5266935)
(1319.633957 12.00581154 208.7479251)
(1880.571234 -488.3667894 -86.7433836)
(1737.502809 312.4591889 201.2138513)
(1301.832558 -521.595408 85.32434)
(1372.206995 -60.89255074 293.5494159)
(1276.190946 -359.8799252 19.6517996)
(1555.835338 -132.7477715 -274.0850016)
(1614.914448 -261.9773281 -136.9730018)
(1548.627351 -117.2897864 478.3250901)
(1083.609761 164.6217422 200.1202232)
(1508.057121 605.5997239 -346.6998163)
(1408.050472 -628.2707131 -350.9337834)
(1076.634391 176.9652564 -368.9551818)
(1795.595687 -394.4345119 480.4649631)
(1662.554767 -442.104831 71.08178378)
(1187.563134 222.9208936 136.1414645)
(1877.662548 -11.02604737 -268.5648366)
(1631.316972 -2.082674117 -267.7133789)
(1434.464099 -340.8254016 191.0685328)
(1583.797828 79.16860219 -340.5651622)
(1498.76675 222.0083864 -712.5769154)
(1442.668423 -139.4848605 -126.5438551)
(2059.784093 53.10906692 -394.900234)
(1409.264508 -789.1660177 501.6306355)
(1209.249696 350.1137851 544.7259875)
(1323.773795 191.4124302 120.5268358)
(1353.487319 48.02811534 -508.9917345)
(1803.45594 -130.7633579 -301.6924168)
(1398.120855 -229.5761886 484.7554894)
(1373.569107 68.55332191 352.3692077)
(1412.628114 -38.90274971 -273.0273418)
(1701.439205 415.2352451 735.0387274)
(1918.828091 80.80263943 -147.5979182)
(1751.025197 -315.1971487 159.4295954)
(806.4833363 -315.7018417 57.88724836)
(1452.418417 -294.6764696 -389.2827795)
(1216.351253 145.8222639 169.5217182)
(1554.339732 -118.8520914 -64.44376645)
(1451.472709 -99.28476366 -135.909399)
(1445.835802 -8.818557309 200.3683894)
(1867.244829 -316.1753508 -231.7029084)
(1899.411417 -489.804845 -596.9482617)
(1957.124399 -329.1982941 -49.74921072)
(1139.534727 -277.6637358 227.0904997)
(1533.447167 91.47042525 -18.09461097)
(1269.210932 295.7289139 -181.4885641)
(1625.114955 653.8649397 350.3670718)
(1536.545074 -157.7080483 -258.4538786)
(2183.715683 -245.1648524 541.2223799)
(1936.802274 387.1605364 436.5626125)
(1173.771713 34.0489426 -68.75505933)
(1556.443808 -300.0229137 -28.56333334)
(1848.842493 171.1552921 -121.6542999)
(1311.153564 618.5310261 -140.0453963)
(1314.751785 -141.6085361 158.5267281)
(606.1714124 229.4217686 276.9353354)
(1094.861013 168.5541475 20.97664849)
(1715.805101 -203.6554856 -144.2587198)
(1876.039073 74.50574553 311.3200558)
(1348.405134 -194.0621092 214.7118784)
(1448.588837 -138.928186 -278.6795544)
(1205.224195 564.1247786 308.1588894)
(1675.09346 162.2916839 278.2213121)
(1331.603911 195.3439204 -55.85594989)
(1485.437014 -68.14929535 -111.49732)
(1323.099668 -342.9292747 -221.3548723)
(1524.985295 -486.9658464 263.9817566)
(1863.72083 477.7574844 -191.7855959)
(1952.639355 -237.7256885 -10.52314394)
(1573.163055 -107.0636869 -35.81603145)
(1792.933738 -29.51691828 -154.1776218)
(1910.914782 385.1162745 1117.648356)
(1214.41941 73.09797119 518.6907174)
(1601.37119 383.5384581 149.6458969)
(2032.308025 28.82176592 48.11767913)
(1188.633473 -40.94341487 -655.6237619)
(2034.011418 418.6842122 -157.048891)
(1345.560243 -74.77094311 190.9214069)
(1542.665865 489.045803 95.82210971)
(1085.244769 -298.7821545 565.9911994)
(1763.404619 -152.9046027 -327.039857)
(1325.568338 264.9821435 156.8646393)
(1632.865546 30.52641443 -344.3228298)
(1974.698646 -30.5058385 -186.0137882)
(1597.14903 -215.1644646 213.9732163)
(1376.252655 -90.00763674 292.5898388)
(1557.475956 -36.68022938 106.7541002)
(1693.516206 399.0131873 261.9098249)
(1650.982898 113.602168 287.4257077)
(2130.594881 287.9079441 236.1394133)
(1454.157794 -334.0533603 38.07811274)
(1573.157823 358.5173502 -591.0077429)
(1909.982474 -239.9379232 -111.6561334)
(1439.900364 197.7843358 -657.2418965)
(1178.047679 -249.1525506 514.3231963)
(1336.748483 326.4615748 31.87611024)
(1459.928052 -245.2449653 217.6285688)
(1557.536617 -313.7156721 -155.0561291)
(1236.046386 -225.7296096 -80.00819164)
(1673.165597 -774.5024825 -554.8993982)
(1619.891327 517.5605184 48.70926562)
(2044.192598 -408.506489 305.1029434)
(1509.224143 351.0762613 -295.0757472)
(1385.64466 -367.1095713 -218.1649108)
(1299.710844 -135.0840504 327.9654264)
(1859.723472 -111.5165479 379.286844)
(1493.420788 -316.1795861 429.471204)
(1331.199274 -250.9192488 -222.965314)
(1639.533467 -41.09166282 -350.701492)
(1403.554872 475.6756621 -200.7375051)
(1812.388768 -881.1937251 -544.0986579)
(1642.648292 317.2558716 226.8619851)
(1752.618374 205.3307058 -319.4476484)
(1407.401986 177.1528244 502.9902656)
(1136.060559 42.84580852 -314.891718)
(1637.380634 378.8597409 -150.8258717)
(1513.299423 253.9460378 -434.0824647)
(1817.593671 -258.6901499 423.4017663)
(1675.211604 -203.2416208 205.7006132)
(1360.053743 -212.2171407 -165.6379399)
(1360.037566 13.3511672 -467.9783533)
(1275.17822 -202.9650266 -545.4178796)
(1236.860579 132.4859152 -420.0927174)
(1683.302419 375.2889226 707.8059606)
(1658.069824 441.885609 -326.2615263)
(2105.265086 -104.1395035 -367.8500113)
(1373.124303 75.89265306 -356.0247013)
(1937.337841 -466.3279311 4.548832873)
(1578.138639 -478.7776601 -305.2807463)
(1599.327099 -317.5056497 170.2873734)
(1208.828254 335.7335078 277.630682)
(1396.998675 -148.1797477 374.0537521)
(1544.133372 -137.3730442 195.2192195)
(1306.009317 -54.85377993 353.8646473)
(1463.72838 33.50405436 -497.7356969)
(1889.127627 108.4741046 -400.3542476)
(1252.897514 -564.1062066 76.38170103)
(1678.328142 7.577208069 -193.6906392)
(1486.646393 203.1703394 190.3193277)
(1410.999521 -123.4771496 -183.5512887)
(1746.505127 395.1498434 39.40290385)
(1818.821551 -10.9433809 214.234668)
(1326.290931 -136.8790394 326.6074774)
(1509.806339 93.51118538 208.6682357)
(1647.672943 -156.68734 233.4728378)
(1443.675905 -47.06091618 -607.282676)
(1395.938516 -396.1424516 -283.2283129)
(1677.30254 -101.7810301 -364.460743)
(1527.261651 -112.8183348 314.5808027)
(1347.167509 -383.0813496 -73.8918569)
(1489.332851 1.048496112 -56.73323743)
(1218.135945 16.56637876 -184.5379065)
(2185.733927 -487.4772682 -260.4342064)
(1253.809834 25.53628536 -517.8845617)
(1731.336397 296.4337354 67.96828098)
(1418.055604 129.8776135 399.6401773)
(1611.389511 74.99529707 -318.0242273)
(1755.858809 -218.6840433 271.7683958)
(2210.469938 367.0730972 98.81174049)
(1832.75279 -196.3477541 478.9088204)
(1441.522429 -14.46706687 -197.0710691)
(1115.664097 137.1710038 -28.42399349)
(2221.964283 -56.76010003 -154.0742631)
(1547.942489 306.0920626 730.5536808)
(1626.769969 403.1025184 -13.73112588)
(1529.180162 399.1992583 -93.79541491)
(1353.58633 211.1893357 17.08735566)
(1765.19531 610.549875 -127.8965019)
(1639.780737 466.9879437 -267.1419246)
(1853.805069 189.174027 -58.42774562)
(1542.223105 173.2113515 223.3611864)
(1663.909719 70.30666722 684.8239243)
(1569.447953 -223.2208748 -288.0912442)
(1414.519637 172.7035767 -62.58170441)
(1515.662529 -209.8037928 -75.51667771)
(1711.13451 -292.5083631 -213.2083977)
(1949.492531 426.688407 -370.9593003)
(1429.3497 -195.8968977 -103.6112598)
(1839.505168 126.4477342 -79.04381054)
(2280.048761 -423.8001599 -244.5970539)
(1666.283927 -569.7839898 223.1991537)
(1763.201589 -441.02414 549.493106)
(1214.876058 316.6262693 -326.0606063)
(1327.077184 -199.6455557 120.2170604)
(1314.913788 -171.9974047 175.1947649)
(1727.36279 394.3258215 114.5044286)
(1973.687357 377.4229719 430.0118251)
(2033.645221 -320.8184738 -3.473642294)
(1626.30886 -137.0091713 195.5001983)
(1531.322055 -205.033694 204.998391)
(1746.237429 -584.8879199 -240.8588179)
(1861.963481 334.5689883 240.0488552)
(1583.992652 -52.70066538 -440.0860687)
(1701.263583 354.0479168 431.1598289)
(1691.145905 275.7387659 -202.6118959)
(1970.815048 11.09029721 5.345930237)
(1587.718707 -134.479311 193.504907)
(1752.531594 -367.0207415 873.5677346)
(1347.297284 135.011069 -174.0079597)
(1899.671144 306.6509827 1.418229348)
(1547.223706 31.48326118 382.8779349)
(1761.060709 -81.18496346 306.6328395)
(1796.894212 -1.076370199 193.4009386)
(1451.416109 519.5662363 -282.2578087)
(2337.044581 -101.6129125 286.4169511)
(1328.902368 -222.1388605 91.82051987)
(2000.986608 -64.01589168 715.5628297)
(2175.502619 433.4902307 -103.8256486)
(1914.256874 193.1420941 -396.8731273)
(1296.368606 -267.0261742 -119.5088071)
(2044.821267 290.6329809 6.402036949)
(1612.720711 205.4295614 -245.5431913)
(1691.063783 -171.7683028 244.4232419)
(1785.756966 441.0376328 188.3249669)
(1500.032298 -179.7339102 -851.134326)
(1208.657315 198.5046332 62.84661269)
(2004.688098 -340.9970415 -290.2936632)
(1839.526554 110.1576031 139.0849056)
(2126.575709 -264.6833702 -137.6323083)
(1528.83292 50.08620512 -212.7357118)
(1946.683833 -74.35540772 -327.5570432)
(1610.021077 42.42983992 -10.95724248)
(1574.734091 -351.617266 -279.3993725)
(1040.681921 -753.3282063 383.064989)
(1722.622476 276.1452473 -170.8436061)
(1544.804601 295.9043559 -158.4795725)
(2224.519289 91.88376736 168.8517777)
(1412.672005 197.2328422 -19.31637175)
(1684.708275 -77.60755544 164.298767)
(1586.305755 11.05085008 541.4162092)
(1563.188098 -48.33997254 -20.27752487)
(1590.012377 -364.7897717 -207.7176638)
(1601.745938 -458.5811295 561.6755292)
(1562.604206 -16.61929721 -828.3893381)
(1546.481829 18.14694026 326.6351935)
(1862.532824 -151.8689806 162.0880908)
(1687.001095 74.73234293 -416.6562017)
(1725.918619 11.31358406 -776.2449638)
(1376.909686 565.4237411 -74.23326605)
(1643.252662 508.7565357 528.7592488)
(1605.704725 146.6398966 -166.045036)
(1591.40056 397.5572941 -117.682536)
(1006.049706 62.92932591 -47.90925591)
(1768.350493 18.86524113 390.5011191)
(1963.119908 263.6491599 184.3671981)
(1064.000356 70.34258108 -327.1857009)
(1789.782403 112.3660178 -290.4792815)
(1423.815715 46.69804277 378.3008812)
(1685.833444 27.44610918 -329.6692336)
(1341.980476 71.1475222 157.3609831)
(1516.536954 -351.0372359 456.5693332)
(1372.899578 418.8685413 132.6779334)
(1807.92089 442.3074295 201.3462314)
(1470.636456 112.1462192 -75.18703085)
(1355.419483 -207.1196669 -278.7143117)
(1334.430691 -772.138945 349.2145468)
(1603.662976 78.28777776 269.249617)
(1828.644298 154.1508743 59.52295025)
(1654.965011 152.7155123 434.4293171)
(1529.602718 -458.7735418 -64.17985237)
(1749.62058 -341.5084803 60.83899997)
(2098.38808 -97.7550485 -123.4154658)
(1500.569661 420.246953 -491.362374)
(1814.074842 150.7367974 340.3222476)
(1601.551276 -386.5200033 -345.1272192)
(1726.220253 25.6873901 -352.0099678)
(1571.807899 199.9690598 230.8546655)
(2024.746729 -265.0828888 313.319078)
(1282.517495 -195.3454966 158.8010345)
(1187.031788 149.3253457 -28.76227539)
(1525.641092 -115.2706087 217.3059884)
(1123.995638 -155.0329651 -285.9290569)
(1360.55787 317.4249085 -81.54713493)
(1743.770001 -184.3366935 -311.054839)
(928.8548765 131.6521763 242.5584695)
(1901.846494 708.840569 -609.2096068)
(2036.460713 -79.82455222 296.4426936)
(1768.194573 232.2744642 104.4234149)
(1824.323648 164.736775 326.0197051)
(1757.852715 -43.02459426 256.2266327)
(1910.225716 -336.6480286 -319.7753605)
(1992.930419 -417.6836192 19.03090846)
(1710.334548 144.53561 283.7159434)
(1191.798306 225.4982857 294.3568972)
(1902.674781 135.6175579 -242.7015262)
(1074.422339 144.3571695 214.3426991)
(1657.535486 412.2639612 387.0668575)
(1667.361906 146.1971441 -439.4863278)
(1500.006236 -803.1449536 332.3421972)
(1758.089833 -68.49971503 -376.5881992)
(1781.038851 54.9851672 -347.9693625)
(1256.67162 20.39449325 99.83109955)
(1545.98423 -577.8290021 695.3978993)
(1355.275675 -252.0238097 -52.24337291)
(1245.947911 -417.4162831 -141.034544)
(1308.250218 154.3266 -9.149433005)
(1710.178991 121.4995751 180.5151119)
(1663.081678 -165.6562555 -555.1347143)
(1547.000495 -167.6838692 -335.8936356)
(1736.604728 791.7631912 -296.1599161)
(2018.029105 -345.9367332 370.5917447)
(2108.957163 144.9316991 -426.5476615)
(2034.915393 -278.0742745 137.6156707)
(1765.81891 -239.0009554 -52.2336042)
(1503.218534 -561.2887268 222.4211055)
(1343.79334 -6.284320234 169.3074302)
(1807.451208 -38.85111345 449.6091572)
(2296.6597 468.8805241 -70.67743878)
(1923.75401 -378.3198885 176.6233477)
(1761.739894 148.0125967 416.3694525)
(1716.28791 137.2791262 93.06939597)
(1553.363659 162.938836 191.0717074)
(1415.033041 231.4373816 -157.6010312)
(1701.221755 -225.6959835 -131.7581937)
(1640.314515 -8.024308663 222.2346941)
(1070.564003 -26.52505693 340.1192951)
(1879.86174 -176.876446 -146.4160446)
(1786.548688 -54.64983845 294.0994453)
(1858.91319 -106.3738369 250.0053378)
(1588.483154 207.3013025 -230.8851264)
(1197.430572 -318.5446652 -125.4539769)
(2259.443297 84.53923479 614.6651001)
(1575.632792 185.2652078 -99.31266314)
(2067.737727 -310.0753131 -352.6112679)
(2098.226955 -21.46646112 1.548116483)
(2288.095036 4.296260271 -242.0345492)
(1451.982894 -150.3881524 8.576634054)
(1739.307547 25.94138836 -232.0922567)
(1521.973343 151.8236256 132.5471851)
(1703.992248 -65.24972943 -498.9613952)
(1608.713729 88.40985107 356.408541)
(1565.923591 245.7734514 335.3050437)
(1387.920564 -129.5364414 343.7465657)
(1849.161594 -253.9346915 -280.6694504)
(1483.9658 11.63667553 -112.6145731)
(1667.92561 -612.5668154 97.00386422)
(1729.631092 -448.9410247 -358.3903999)
(2052.12798 -310.4803544 -38.81220182)
(1419.845469 148.5591916 -461.8959355)
(1589.118738 -478.6069653 -251.7895495)
(1766.754681 -7.857456601 -13.56984167)
(1753.091446 -200.7245814 375.8758311)
(1338.070969 469.8261431 -303.008277)
(1756.916577 -109.987943 -672.6574696)
(1468.580294 -41.10720121 -341.005465)
(1477.336469 180.5316665 -105.0880659)
(1560.005189 311.3184066 161.5981176)
(1402.897292 -314.198236 -51.79185862)
(1660.03494 10.54727947 267.2521106)
(1449.093813 -176.5194104 0.133149813)
(1070.257127 28.45227897 -402.9414489)
(1622.362938 -129.6793801 99.23559515)
(1965.153364 -469.1151497 213.9641217)
(1479.463609 -190.5273846 163.6102709)
(2001.410698 -56.93117754 178.0140305)
(1455.366589 -207.9562591 -265.1399331)
(1513.412141 7.72467389 130.243025)
(2105.370684 56.22961557 159.3585735)
(2025.191573 279.9323641 -558.5752593)
(1682.537507 -97.77671722 -312.3274989)
(1843.112133 85.05500913 283.3124869)
(1552.275903 -301.4186847 -126.8184323)
(1420.247447 -344.1210844 96.83974283)
(1318.600669 -62.65468671 -39.1010686)
(1868.857375 -313.3730471 -48.64247909)
(1918.757932 376.0772056 -231.6902277)
(1746.276076 -263.9212679 -652.4851662)
(1317.165031 287.4516036 733.7356226)
(1494.262356 640.3158932 552.5862507)
(1092.221194 150.0427959 -579.8203733)
(1249.307551 395.3293836 -189.2566112)
(1928.274636 -216.6297319 -277.2693621)
(1807.083443 -36.79592031 -280.0205753)
(1268.660374 161.3196961 -236.8329965)
(1994.747404 7.128284005 -89.99334899)
(1488.838981 -114.7513832 -337.2754421)
(1705.844598 -457.0702318 -4.946332263)
(1838.750059 365.1239151 -379.6786315)
(1734.465888 167.3414035 -65.44299347)
(1472.095629 384.4757466 115.5440135)
(1689.173178 139.8430775 317.6850248)
(1637.171476 -219.2958303 61.15820821)
(1783.913905 -263.6687867 -233.4072859)
(1485.309076 -407.0961428 394.6200115)
(2003.519853 472.6272979 -125.6763629)
(1876.344973 -15.42322239 -6.938680844)
(1502.59717 -23.4107382 -128.1618233)
(1790.261511 -284.4933316 -308.9026468)
(1726.719832 90.61510925 42.10300714)
(2565.586594 -83.51297598 55.70219538)
(1908.621236 283.2802762 -385.2945972)
(1778.113043 -309.2965014 506.5651637)
(1747.082944 193.1679628 -148.1435572)
(2178.351747 -79.92183382 -249.9515768)
(1223.511109 -88.46857407 -113.9435927)
(1865.038201 288.3926946 385.3217817)
(2201.633249 -437.4366355 287.0575781)
(1992.492309 -225.6163587 481.4977783)
(1244.254491 244.9237985 -234.2910565)
(1436.450314 -12.82782011 305.426772)
(1926.334712 549.4347114 210.5165963)
(1611.10526 -278.5437927 -161.6795806)
(1249.4228 51.07425347 -157.1416945)
(1892.987419 158.546386 149.1697453)
(1887.439316 -253.5274126 -484.6870655)
(1685.407943 -392.9065648 -164.6561743)
(1259.896764 259.035337 -15.29104866)
(1604.133555 -385.6370624 280.5992225)
(2033.509633 -760.4316044 30.98228368)
(1832.737322 -454.8553298 -213.9933387)
(1742.686582 656.4851337 16.97585134)
(2063.982255 13.74124334 241.7795405)
(1449.773926 362.8576554 -9.857165767)
(1667.543845 382.3939458 343.6140993)
(2021.035484 132.3276351 -423.588277)
(1470.312909 -294.2535836 -132.8300653)
(1586.319353 431.8849684 -14.15879277)
(1104.11213 -464.8511068 -226.3857366)
(1597.832928 -431.0514032 332.4226951)
(1694.062073 -279.0754803 -40.27989542)
(1782.333069 2.609351644 46.11740532)
(1697.515079 473.3752044 -351.9490581)
(1701.913705 224.8474373 -56.87462711)
(1824.568953 201.9095158 -105.1036135)
(1768.961806 365.1261398 116.8832303)
(1792.26034 394.1797038 -430.1938746)
(1784.477076 -469.0338301 475.0662581)
(1572.288411 155.5101841 264.9410508)
(2007.276555 697.0239219 -59.62737751)
(1516.201916 -72.38120994 -225.0563797)
(2149.253639 -289.3257338 347.1806833)
(2043.595943 595.342701 -130.8392712)
(1472.316881 417.8929502 -150.5655279)
(1491.169475 533.1246212 -22.96232475)
(1735.674606 -173.4765068 18.7504009)
(1435.725013 284.4977972 433.5816058)
(1361.383303 488.4428791 146.5464785)
(2032.261444 -61.56324255 -90.99943634)
(1547.40081 -349.1132079 199.9048708)
(1168.97361 27.72925972 -309.824962)
(1868.30512 -216.8832163 -255.3450394)
(1332.041508 -107.0697424 -125.9784161)
(1593.351575 -281.3457894 55.23490145)
(1206.775181 -24.99925986 -128.1754479)
(1701.166188 5.838679326 220.7077198)
(1912.634193 -158.8785365 221.1294828)
(2118.297142 -594.8684848 -426.7986041)
(1619.919395 251.2535028 -599.5168968)
(1938.08854 -98.18903839 -204.4607053)
(1388.165644 -111.8810091 -52.23851807)
(2119.118143 4.483950122 -58.29429299)
(1927.340402 9.62444002 240.440782)
(1589.075433 258.1078648 568.6379314)
(1958.479001 38.65247137 -151.1046438)
(1796.833189 -347.0431834 537.0092589)
(1911.283467 286.4846552 387.1396921)
(1903.390284 160.8403016 175.0424095)
(1785.366112 -461.3430836 446.4637363)
(1651.850215 19.85353551 202.0889304)
(1515.176054 -773.2614839 73.97411734)
(1712.971719 259.8821156 -124.4195863)
(1609.318708 -228.5012184 502.4546155)
(2087.392347 -723.4552079 -226.323929)
(1338.428586 -100.431766 356.1190733)
(1446.706469 -274.1040527 -301.661594)
(2250.676496 -591.8357236 -628.7618271)
(1886.684496 -48.84470449 118.8502348)
(1604.034042 249.5096052 78.47091583)
(2075.336728 -100.1174057 -385.887444)
(1442.377069 111.0752096 147.2867024)
(1717.632399 54.20311826 -213.3461211)
(2178.761364 577.4228645 -51.83873368)
(1576.478421 -135.0454123 -536.9593665)
(2115.071154 -172.4221424 -62.85971547)
(1827.937174 -9.396502894 -39.26438367)
(1552.283693 -209.9875815 -34.87376623)
(1861.411849 114.6871569 -190.234178)
(1698.961309 89.9440432 478.6980248)
(1509.290023 106.3507932 -333.4969447)
(1570.994909 -111.342697 172.603291)
(1806.313922 87.96784508 -3.087557257)
(1895.57777 256.4480097 147.0526129)
(1952.638225 684.0583118 -173.6549752)
(1759.79975 -89.29062028 70.81125153)
(1992.242186 112.1713571 -44.59311945)
(1937.511386 -472.2385339 -230.3134122)
(1844.501582 489.0263433 87.39311246)
(1159.584522 361.6368922 -189.6872439)
(1693.224174 -313.3105396 -146.8110135)
(1751.228746 143.9240519 -161.8867523)
(1918.962444 95.72034068 -672.8568221)
(1495.507739 342.4311945 -338.5238967)
(1527.393105 491.1354018 -101.8910923)
(1533.944761 -42.34774014 -37.90955945)
(2158.787381 -117.1210851 -729.5020523)
(1084.231665 113.7784203 577.2233898)
(1639.146419 514.1104651 86.97056901)
(1940.215599 21.46651846 506.7351532)
(1781.606758 -364.2792333 92.70916646)
(1628.278464 138.4224859 -452.4756324)
(1720.80538 442.9778118 512.9466796)
(2316.235551 -405.7508372 39.08999784)
(1625.595153 -79.17497132 398.4726929)
(1482.694361 -452.7993532 100.3545427)
(1220.193811 494.1470126 110.2275088)
(1522.003283 167.2893238 -127.6424064)
(1894.162989 106.3727395 -49.60296509)
(2020.107755 112.1983467 103.7731198)
(1960.77738 584.7415886 -71.32478557)
(2138.963365 -182.9146799 -138.9722665)
(1888.668007 23.16924452 176.9349682)
(1943.827653 93.13686375 206.2772234)
(1455.439823 -430.7360804 -827.7358535)
(1690.27165 54.65231104 -161.8196374)
(1632.400995 542.5474423 -72.71058785)
(1981.695397 254.0602752 -183.152126)
(1850.620932 451.5265763 -93.23011667)
(1946.281479 -28.8483994 -453.8202859)
(1216.703857 -431.4067497 504.3825765)
(1896.419442 126.7861091 -90.13662672)
(1388.611808 -509.1638251 -32.42852414)
(2066.481362 -217.8867079 -86.74189308)
(1793.520552 166.0991147 189.0370103)
(1925.833602 -260.7156818 108.9593343)
(1935.056407 -42.09724184 -89.26247148)
(1941.213309 319.924171 157.6749205)
(1436.490591 104.4948862 522.7202686)
(1973.497958 -104.6810748 112.4062968)
(1764.656905 189.7609026 29.49098723)
(2164.401687 262.2485116 -37.50640579)
(1580.309765 -312.012287 101.9447309)
(1674.836397 -467.8355753 -225.8986905)
(1934.927698 255.1549588 42.15968852)
(1780.45041 89.46346646 -790.2277383)
(1983.970632 -2.228640739 -129.6831283)
(1614.196479 182.526793 -303.4877431)
(1420.34202 -171.4983018 -206.7028543)
(1632.801643 -325.3484454 185.1258801)
(1927.340504 85.47411726 -452.5264853)
(1194.572658 -104.7732807 -146.2589397)
(1545.928824 141.2957388 -42.96415492)
(2154.457455 71.76252159 -28.1746928)
(2066.743169 -113.1621751 254.0978844)
(1609.843401 490.9647814 412.0074013)
(1833.784434 -357.6603517 55.00497397)
(1652.077956 -146.8712009 231.7801666)
(1654.131361 80.26934593 292.1241264)
(1422.118135 -122.1865709 32.90188256)
(1564.0782 -66.45826879 -610.3703556)
(1586.413501 -214.3265478 248.8188011)
(1492.545148 157.0801256 -259.6488923)
(1890.090172 -33.89423763 -282.0316604)
(1448.505995 83.68227477 -119.1284264)
(2100.916654 145.0937881 -84.42502167)
(2026.038616 564.3761467 -156.7331472)
(1574.795103 22.4778449 -42.65868365)
(1742.094126 -489.086145 -391.5088312)
(1821.928265 -701.0247028 -264.6229351)
(1636.19975 437.4428143 -167.4104385)
(848.4789851 -129.07297 42.74925157)
(1481.685756 263.9886365 31.17307909)
(1613.866777 183.4357306 -342.6880107)
(1487.184482 -91.51894244 -27.26092364)
(2077.623557 -91.55111423 36.47546339)
(1887.550075 15.49180107 -189.6867041)
(1839.580959 377.7558601 298.915151)
(2191.463867 -393.6303159 -629.7322908)
(1714.052807 34.65027391 262.6107478)
(1962.280891 175.3411685 -51.8816209)
(2138.822057 634.28907 -165.3892414)
(1375.362923 223.9116114 78.66472843)
(1791.377781 -95.02485851 658.1004154)
(1454.757009 0.7772585352 227.6834355)
(1889.54504 157.721769 411.9853248)
(1973.639966 360.8618826 326.478177)
(1396.74056 -632.654436 117.988501)
(1530.824965 -738.6894134 287.0329493)
(1229.728921 318.5395021 111.0327915)
(1702.565921 1.257924777 -227.7040555)
(1763.41018 368.926611 158.6380474)
(1873.064834 -172.1442054 -278.7670123)
(1467.449306 -197.2581515 654.6838238)
(1654.651079 28.52783038 -579.6328756)
(2018.154084 25.33140933 10.92632433)
(1672.739392 -396.2515005 210.9860728)
(1950.721604 -11.83778439 -350.8612297)
(1735.239489 28.36357656 -0.07275429074)
(2017.038344 -274.527037 177.5076743)
(2045.438487 138.1978603 168.4062068)
(1658.779106 -289.7508026 -249.3575261)
(1794.34229 -255.2013073 -6.516510722)
(1934.993109 195.6948749 288.0631571)
(1513.83327 40.11353481 -306.4758645)
(1591.012107 215.4440118 -390.2024756)
(1748.206088 -102.1059079 -210.3682555)
(2032.259305 -573.4607931 -36.91056856)
(2132.505494 428.5786299 114.8630266)
(1317.252116 71.06497966 -235.6150063)
(1754.732738 -37.03523446 -396.3141338)
(1288.679228 -354.8002622 -266.9785521)
(1634.852925 184.9762231 -615.350606)
(1588.549403 -197.0700081 129.3000286)
(1559.958665 -6.78502005 500.9093129)
(1067.231664 -156.5308675 645.9095779)
(1416.54485 -197.5616088 175.2954141)
(1698.46411 73.88426454 193.6264677)
(1478.217738 295.987771 158.0398709)
(1351.84357 239.7949165 335.8914216)
(1663.510841 200.7870678 437.6827393)
(1518.928971 -29.45813331 506.138377)
(1560.870392 173.1046273 157.9507902)
(1419.14915 -167.7683372 485.9675488)
(1941.224996 -278.2087234 -2.509838409)
(1815.12755 179.7397569 -113.4638331)
(1513.998864 180.6268642 -450.44949)
(1261.290039 -388.7711492 -52.84031268)
(2063.368519 -67.64973058 123.3950955)
(1586.581976 -598.3104765 -96.0847069)
(1633.350651 21.35502307 118.1162352)
(1830.075579 217.1057928 230.0181845)
(1795.695758 130.9222782 -508.1111289)
(1509.159915 82.70170877 123.2920506)
(1994.752726 63.03036519 98.98071516)
(1671.123995 -127.766474 -377.650394)
(2057.458163 317.5880702 68.36141528)
(1565.973226 155.8774971 36.40118559)
(1274.650983 491.4283371 -309.6265747)
(1805.616951 -259.3451313 154.0305888)
(1656.860174 94.65712841 -320.6420701)
(1757.14748 103.1016763 177.2564481)
(1799.320928 9.329477764 135.9241911)
(1800.902367 -346.4246052 162.7925413)
(2486.798696 205.8319184 235.0301502)
(1836.600175 -50.85691326 306.8335366)
(1243.591914 44.99644142 140.9026133)
(1646.901979 -305.0361192 525.7946668)
(1850.161157 -124.9705055 -239.6009687)
(1720.827008 -80.03913697 -198.1864166)
(2003.564322 -205.6109994 -90.48483818)
(1507.633729 -277.8617938 50.61280239)
(1942.825488 34.23834759 -255.026638)
(1876.585309 304.927565 19.13753313)
(1596.922892 -207.9919026 184.5918035)
(1839.30325 256.0775464 699.3781149)
(1549.971491 49.76352144 122.4504975)
(2131.538443 -365.4173834 373.429352)
(1305.100802 277.2726548 -205.521459)
(2064.065026 -72.04662094 213.1171053)
(1432.800205 424.9414716 -495.4474882)
(2015.228065 360.0835877 93.26373694)
(1191.587925 -106.0030529 -230.9106466)
(1968.394947 -131.7228335 44.03555833)
(1463.901437 159.5102422 -245.7158636)
(1942.287928 -142.9671464 -314.5156432)
(1519.159807 -195.6123732 -516.3081385)
(2126.636806 381.4205479 -216.4931968)
(2354.970683 81.53461654 0.3821951262)
(1851.346788 34.07116809 92.2223417)
(1581.377098 -296.7939257 3.003431115)
(1472.441033 -39.35717994 14.44440564)
(1470.43635 4.602679286 199.1930067)
(1552.751483 -281.0114197 375.8391191)
(2275.245124 -208.8542737 -17.86864982)
(1700.20906 176.0311802 241.3950838)
(2012.297226 291.5619218 -319.1807432)
(1396.521087 -147.8149411 209.3285139)
(1693.678797 -331.3398882 -176.7529141)
(1852.616268 -224.8047431 366.4892148)
(1565.709354 -138.8886598 -87.86639551)
(1655.904782 747.9319157 77.87167023)
(1329.416605 -63.22455141 -128.0241269)
(1710.480929 477.0517487 -132.6302495)
(1537.168089 -113.6208203 -199.1397356)
(1593.082791 -158.5602336 -68.43171945)
(1697.731357 345.4298282 -116.8345162)
(1581.977205 -251.5422809 -312.0082867)
(1884.921082 -199.0970298 -141.6336867)
(2281.844884 -383.2427814 158.3722394)
(1524.739108 -211.4291798 409.8154525)
(1404.196342 250.6225865 9.715363273)
(1814.203624 -111.6209583 -76.40818057)
(2154.930079 109.3780582 112.8159358)
(2311.075816 -148.8959482 283.0933035)
(1559.584815 -98.96159337 -366.1328364)
(1571.523341 -343.1804406 -292.2540249)
(2362.185983 -234.3293203 618.9796834)
(1895.535334 -299.9859907 -222.2339035)
(1723.657465 353.5898992 -21.26125588)
(1995.484477 361.4843935 374.5587016)
(1630.490538 -688.9113995 -451.2565379)
(2087.751001 87.90660267 -123.2924643)
(1676.046614 -120.3343508 -222.9933167)
(1648.299982 763.9721587 -124.1200224)
(1752.60969 -162.9284064 144.6330359)
(2492.150645 -194.989423 -61.65747665)
(1815.805451 -319.3427619 -309.3492744)
(1376.289738 -435.7994932 -527.1153595)
(2281.335516 -180.7664579 299.5886908)
(1107.855885 -584.1749253 148.2836936)
(1462.412927 232.9583226 209.0685646)
(2061.864367 -54.9086155 127.5769032)
(1850.947193 -500.7755601 -39.13683089)
(1991.211472 -304.3470808 -171.4954608)
(1629.204768 -285.1204115 28.31300397)
(1472.416176 -824.4993944 -107.7140944)
(2041.16271 189.7708909 508.5777571)
(1728.660403 -152.5537831 -329.8873686)