/*--------------------------------*- C++ -*----------------------------------*\
| =========                 |                                                 |
| \\      /  F ield         | OpenFOAM: The Open Source CFD Toolbox           |
|  \\    /   O peration     | Version:  2406                                  |
|   \\  /    A nd           | Website:  www.openfoam.com                      |
|    \\/     M anipulation  |                                                 |
\*---------------------------------------------------------------------------*/
FoamFile
{
    version     2.0;
    format      ascii;
    arch        "LSB;label=32;scalar=64";
    class       volScalarField;
    location    "0.008";
    object      dsmcRhoNMean;
}
// * * * * * * * * * * * * * * * * * * * * * * * * * * * * * * * * * * * * * //

dimensions      [0 -3 0 0 0 0 0];

internalField   nonuniform List<scalar> 
654
(
16.9495
17.60625
17.75875
17.5575
17.3825
17.3685
15.11675
15.64
16.14975
16.60225
17.0505
17.42425
17.37175
17.39
17.5715
17.41025
17.22375
11.379
11.91375
12.35825
12.887
13.45775
14.1235
14.66725
15.2045
15.7345
16.18375
16.58075
16.9625
17.0295
17.133
17.224
17.0935
9.32225
9.41875
9.492
9.7345
9.937
10.25325
10.5185
10.9535
11.446
11.89775
12.4525
12.983
13.63725
14.13525
14.675
15.191
15.65925
16.1445
16.59275
16.8
16.86025
17.0135
8.998
8.953
8.8855
8.89825
8.99475
9.0195
9.0665
9.10525
9.25325
9.37325
9.489
9.65575
9.86275
10.149
10.40325
10.7135
11.157
11.533
12.0395
12.59675
13.206
13.69925
14.29775
14.87525
15.391
15.87675
16.202
16.47925
16.644
9.10125
9.0425
9.06325
9.068
9.02175
8.96
8.96225
8.98775
8.99575
9.033
9.07
9.20625
9.304
9.4895
9.63125
9.90925
10.105
10.39125
10.7245
11.07425
11.64225
12.1515
12.76375
13.20175
13.857
14.456
14.85475
15.35875
15.67575
15.97975
9.0135
8.92825
8.8895
8.87125
8.84675
8.831
8.8515
8.8655
8.86625
8.9595
8.992
8.95875
9.0085
9.13075
9.27975
9.3795
9.5275
9.69325
10.054
10.329
10.59525
11.14825
11.72
12.27125
12.86175
13.30925
13.9745
14.557
15.083
15.418
9.05525
9.04775
8.967
8.92425
8.909
8.79175
8.715
8.658
8.6505
8.60725
8.58475
8.70025
8.7495
8.78125
8.9355
9.06825
9.24575
9.49125
9.5295
9.74425
10.1255
10.41775
10.7215
11.3245
11.8305
12.277
12.831
13.34825
13.92575
14.40125
9.0125
8.943
8.91
8.85175
8.76275
8.7205
8.72
8.706
8.64075
8.63525
8.57725
8.63
8.6155
8.57525
8.6195
8.749
8.80375
8.9575
9.17025
9.40425
9.58925
9.94725
10.21975
10.43975
10.8655
11.465
11.983
12.5045
13.027
13.64575
8.88725
8.84025
8.78525
8.7105
8.73125
8.7025
8.68825
8.629
8.61175
8.50975
8.56675
8.50825
8.45075
8.50125
8.53725
8.5135
8.596
8.769
8.948
9.0205
9.20975
9.43425
9.80875
10.069
10.423
10.84975
11.2465
11.7135
12.1395
12.56675
8.884
8.841
8.84025
8.78325
8.737
8.677
8.58975
8.53875
8.5465
8.5495
8.48275
8.4415
8.43925
8.43875
8.37475
8.33475
8.30375
8.4125
8.48775
8.6525
8.82325
9.02725
9.20375
9.539
9.8135
10.098
10.477
10.858
11.40725
11.98675
9.09575
8.971
8.84175
8.776
8.694
8.6665
8.60875
8.5565
8.4945
8.38225
8.40225
8.4175
8.33975
8.26525
8.32125
8.40925
8.40675
8.3725
8.472
8.46275
8.58825
8.6305
8.7585
8.90025
9.1245
9.426
9.7655
10.1635
10.66275
11.1265
8.86475
8.86525
8.7965
8.71875
8.62025
8.57825
8.51375
8.42125
8.36975
8.368
8.32125
8.24175
8.2845
8.275
8.241
8.28425
8.301
8.29425
8.27
8.317
8.347
8.3815
8.45175
8.57125
8.74175
8.96225
9.188
9.576
9.899
10.302
8.84625
8.7735
8.73225
8.666
8.6325
8.515
8.53225
8.43925
8.406
8.40675
8.32525
8.3065
8.236
8.25025
8.2775
8.2065
8.17675
8.1555
8.07625
8.1575
8.11525
8.19825
8.31525
8.43725
8.574
8.748
8.91325
9.08375
9.36225
9.687
8.824
8.71275
8.66125
8.6535
8.57825
8.61
8.6115
8.57625
8.48325
8.41125
8.33325
8.3225
8.22425
8.164
8.0355
8.05
7.97825
7.92625
7.94275
7.9295
7.8915
7.93625
7.9425
8.022
8.14525
8.281
8.45475
8.68025
8.78875
9.044
8.9415
8.856
8.7885
8.74075
8.682
8.62325
8.5265
8.51475
8.50575
8.42275
8.3445
8.268
8.21125
8.11025
8.057
7.99225
7.899
7.88875
7.85725
7.86525
7.86575
7.926
7.98725
8.02475
7.978
7.9925
8.08675
8.24725
8.511
8.7105
8.94375
8.94725
8.91875
8.7665
8.665
8.54675
8.4305
8.351
8.24475
8.204
8.17425
8.12275
8.1115
8.111
8.084
8.07025
8.0855
8.06925
8.09525
8.04
8.06925
7.99275
7.8625
7.84225
7.855
7.8185
7.8855
7.9605
8.02725
8.2515
8.97825
8.88225
8.83825
8.772
8.6995
8.6725
8.6015
8.55925
8.4145
8.3305
8.24125
8.213
8.16075
8.1275
8.0865
8.01975
7.9985
7.96675
7.86925
7.8015
7.77925
7.708
7.755
7.74575
7.83925
7.8325
7.89625
7.90075
7.91125
7.9875
8.89525
8.746
8.71375
8.691
8.64075
8.57925
8.4825
8.46825
8.4405
8.351
8.33125
8.3
8.235
8.10675
8.0615
7.9935
7.87925
7.84875
7.784
7.74375
7.72025
7.73925
7.68075
7.70025
7.682
7.63675
7.6165
7.68125
7.76675
7.76525
8.92275
8.816
8.79375
8.68225
8.64125
8.5825
8.53625
8.43725
8.41725
8.327
8.31175
8.17325
8.0805
8.0885
8.03775
8.0115
8.01725
7.90275
7.893
7.87725
7.795
7.72425
7.61225
7.62675
7.62725
7.68625
7.60075
7.5705
7.62475
7.657
8.9205
8.89225
8.76375
8.722
8.642
8.61275
8.61
8.596
8.5175
8.4665
8.3685
8.30875
8.304
8.2025
8.133
8.07675
7.9895
7.88825
7.82725
7.74875
7.73625
7.77175
7.78525
7.70575
7.5905
7.6055
7.65375
7.7165
7.73825
7.7465
9.017
8.9665
8.9245
8.876
8.78725
8.69275
8.5885
8.4625
8.41175
8.35425
8.26
8.2455
8.1695
8.0945
8.053
7.99325
7.94875
7.89925
7.81475
7.7725
7.68175
7.60025
7.55025
7.5375
7.534
7.5535
7.48225
7.42925
7.3915
7.409
8.96875
8.867
8.8045
8.749
8.70125
8.648
8.581
8.464
8.43125
8.36825
8.297
8.2675
8.23625
8.21175
8.07575
8.0085
7.9345
7.93275
7.87425
7.79225
7.71825
7.59425
7.593
7.51525
7.47575
7.36725
7.4215
7.4035
7.40375
7.39425
8.692
8.6865
8.628
8.61625
8.52325
8.43775
8.42425
8.39375
8.319
8.25425
8.22825
8.0615
7.96875
7.89325
7.85825
7.87125
7.79425
7.6895
7.585
7.58275
7.56975
7.5775
7.452
7.402
7.30975
7.25275
7.18875
7.1545
7.1315
7.188
)
;

boundaryField
{
    flow
    {
        type            calculated;
        value           nonuniform List<scalar> 
55
(
16.9495
17.3685
17.22375
17.0935
17.0135
16.644
15.97975
15.418
14.40125
13.64575
12.56675
11.98675
11.1265
10.302
9.687
9.044
8.7105
8.2515
7.9875
7.76525
7.657
7.7465
7.409
7.39425
7.188
8.692
8.6865
8.628
8.61625
8.52325
8.43775
8.42425
8.39375
8.319
8.25425
8.22825
8.0615
7.96875
7.89325
7.85825
7.87125
7.79425
7.6895
7.585
7.58275
7.56975
7.5775
7.452
7.402
7.30975
7.25275
7.18875
7.1545
7.1315
7.188
)
;
    }
    obstacle
    {
        type            calculated;
        value           nonuniform List<scalar> 0();
    }
    frontAndBack
    {
        type            empty;
    }
    procBoundary3to1
    {
        type            processor;
        value           nonuniform List<scalar> 
36
(
16.67775
17.96075
17.84925
17.609
17.29075
17.29075
16.0745
16.595
17.20025
17.404
17.66075
17.5565
17.5565
12.3105
12.794
13.29
13.926
14.47325
14.47325
9.67375
9.7625
10.10175
10.31925
10.598
10.93075
10.93075
9.102
9.08575
9.08675
9.16175
9.1125
9.13925
9.24475
9.24475
9.02525
9.02525
)
;
    }
    procBoundary3to2
    {
        type            processor;
        value           nonuniform List<scalar> 
19
(
9.13125
9.047
9.12975
9.047
8.96825
8.98625
9.1035
8.9325
8.895
8.92625
8.9745
9.03175
9.027
8.95525
8.9335
9.02425
9.025
9.0265
8.81975
)
;
    }
}


// ************************************************************************* //
