/*--------------------------------*- C++ -*----------------------------------*\
| =========                 |                                                 |
| \\      /  F ield         | OpenFOAM: The Open Source CFD Toolbox           |
|  \\    /   O peration     | Version:  2406                                  |
|   \\  /    A nd           | Website:  www.openfoam.com                      |
|    \\/     M anipulation  |                                                 |
\*---------------------------------------------------------------------------*/
FoamFile
{
    version     2.0;
    format      ascii;
    arch        "LSB;label=32;scalar=64";
    class       volScalarField;
    location    "0.008";
    object      iDofMean;
}
// * * * * * * * * * * * * * * * * * * * * * * * * * * * * * * * * * * * * * //

dimensions      [0 -3 0 0 0 0 0];

internalField   nonuniform List<scalar> 
654
(
4.828864754e+20
4.83591465e+20
4.92197239e+20
4.910662505e+20
4.90655359e+20
4.948236627e+20
3.93997516e+20
4.111364023e+20
4.282142875e+20
4.440593899e+20
4.60069194e+20
4.743356974e+20
4.771504372e+20
4.819770486e+20
4.914578169e+20
4.914386575e+20
4.906997806e+20
2.844661098e+20
3.002871434e+20
3.140772716e+20
3.302574197e+20
3.477962363e+20
3.681098096e+20
3.855652428e+20
4.031507658e+20
4.208497325e+20
4.366819048e+20
4.513733225e+20
4.659095579e+20
4.719855216e+20
4.791933971e+20
4.861813882e+20
4.869889948e+20
2.22161469e+20
2.262226214e+20
2.297851737e+20
2.375344528e+20
2.444243911e+20
2.542465904e+20
2.629542821e+20
2.760839578e+20
2.908930051e+20
3.049057356e+20
3.218169926e+20
3.383842262e+20
3.584891242e+20
3.747993627e+20
3.925113492e+20
4.098947905e+20
4.262875781e+20
4.434415283e+20
4.598806597e+20
4.698797058e+20
4.759138224e+20
4.847098174e+20
2.03350754e+20
2.038388846e+20
2.038182201e+20
2.056519418e+20
2.094638844e+20
2.116506008e+20
2.143972553e+20
2.169900738e+20
2.222475899e+20
2.269104417e+20
2.315439355e+20
2.375063716e+20
2.445634876e+20
2.537170728e+20
2.622148547e+20
2.722769665e+20
2.859224002e+20
2.980538321e+20
3.137931827e+20
3.311369842e+20
3.50160082e+20
3.66413019e+20
3.857924587e+20
4.049449521e+20
4.227451108e+20
4.400361763e+20
4.531542298e+20
4.651593456e+20
4.741828622e+20
2.04176551e+20
2.04356431e+20
2.063490164e+20
2.080044574e+20
2.085062126e+20
2.086546475e+20
2.103071754e+20
2.125350358e+20
2.143805433e+20
2.169575516e+20
2.195692716e+20
2.246444644e+20
2.288542316e+20
2.353081218e+20
2.407737272e+20
2.497635441e+20
2.568123201e+20
2.662983947e+20
2.771593146e+20
2.886352599e+20
3.060455767e+20
3.221997811e+20
3.413912595e+20
3.562193797e+20
3.772254113e+20
3.970634416e+20
4.117106743e+20
4.29569345e+20
4.424789728e+20
4.552585714e+20
2.022079761e+20
2.017744339e+20
2.02393138e+20
2.034913494e+20
2.044616993e+20
2.056505794e+20
2.077083296e+20
2.096441699e+20
2.112943897e+20
2.151922045e+20
2.176810243e+20
2.186051445e+20
2.215857026e+20
2.264123137e+20
2.319864999e+20
2.364111436e+20
2.421355131e+20
2.484106257e+20
2.59831202e+20
2.69211328e+20
2.785225659e+20
2.955983771e+20
3.134741406e+20
3.311119378e+20
3.501319802e+20
3.655656173e+20
3.873138772e+20
4.071451749e+20
4.257474383e+20
4.392544723e+20
2.03144593e+20
2.044750802e+20
2.041576304e+20
2.047070791e+20
2.059003905e+20
2.047365525e+20
2.045052356e+20
2.047373763e+20
2.061527837e+20
2.067317487e+20
2.078221961e+20
2.122974101e+20
2.152149753e+20
2.177458729e+20
2.233805188e+20
2.285660611e+20
2.349750132e+20
2.432339361e+20
2.462762522e+20
2.539706151e+20
2.66174018e+20
2.762290063e+20
2.867673206e+20
3.055660296e+20
3.2205854e+20
3.372127718e+20
3.556209034e+20
3.733376095e+20
3.930817699e+20
4.102875515e+20
2.021855422e+20
2.021077773e+20
2.028598751e+20
2.030440527e+20
2.02520333e+20
2.030773274e+20
2.04622565e+20
2.05872443e+20
2.059204283e+20
2.074042634e+20
2.076406339e+20
2.105832155e+20
2.119189217e+20
2.126377562e+20
2.154807675e+20
2.20519336e+20
2.237418532e+20
2.295554289e+20
2.369919515e+20
2.451089798e+20
2.520773516e+20
2.637535897e+20
2.73347041e+20
2.816930511e+20
2.957886003e+20
3.149095405e+20
3.321179427e+20
3.497387401e+20
3.677127779e+20
3.88763566e+20
1.99375696e+20
1.99785672e+20
2.000196063e+20
1.99804017e+20
2.017923221e+20
2.026581581e+20
2.038775245e+20
2.040516093e+20
2.052293202e+20
2.043899618e+20
2.073864467e+20
2.076123605e+20
2.078665013e+20
2.108028017e+20
2.1342458e+20
2.145835372e+20
2.184620192e+20
2.247247081e+20
2.312482192e+20
2.351070563e+20
2.421012436e+20
2.501512784e+20
2.623540509e+20
2.716892005e+20
2.837425412e+20
2.980104455e+20
3.117052805e+20
3.276152342e+20
3.426613393e+20
3.580231638e+20
1.993027872e+20
1.998026246e+20
2.012718306e+20
2.01472778e+20
2.019252103e+20
2.020643277e+20
2.015661313e+20
2.019174473e+20
2.036743254e+20
2.053446903e+20
2.05352948e+20
2.059835705e+20
2.075836295e+20
2.09253009e+20
2.09362207e+20
2.100781256e+20
2.110346646e+20
2.155886198e+20
2.193537184e+20
2.255156371e+20
2.319411293e+20
2.393595831e+20
2.46172152e+20
2.573883488e+20
2.67150288e+20
2.77362108e+20
2.903780093e+20
3.036877316e+20
3.219921412e+20
3.414991273e+20
2.04053166e+20
2.027405647e+20
2.013059821e+20
2.013064768e+20
2.009314171e+20
2.018198105e+20
2.020119847e+20
2.02337188e+20
2.024350986e+20
2.01327625e+20
2.034041815e+20
2.053979426e+20
2.051361896e+20
2.049507845e+20
2.080247504e+20
2.119559082e+20
2.136523458e+20
2.14563531e+20
2.189466823e+20
2.205700635e+20
2.257635682e+20
2.288396648e+20
2.342630768e+20
2.401531262e+20
2.483938252e+20
2.58904259e+20
2.706582467e+20
2.842632426e+20
3.009771596e+20
3.169908445e+20
1.988709332e+20
2.003506608e+20
2.002757439e+20
1.999932594e+20
1.992269436e+20
1.997647035e+20
1.997827251e+20
1.991389039e+20
1.994621422e+20
2.009853639e+20
2.014433077e+20
2.011094125e+20
2.037771815e+20
2.051925505e+20
2.060185614e+20
2.088052685e+20
2.109647751e+20
2.125582062e+20
2.137262839e+20
2.16771288e+20
2.194217104e+20
2.222373752e+20
2.260584529e+20
2.31275803e+20
2.379743242e+20
2.461664221e+20
2.546523935e+20
2.678314347e+20
2.794188062e+20
2.935010749e+20
1.984559074e+20
1.98277155e+20
1.988129216e+20
1.987832629e+20
1.995100596e+20
1.982917771e+20
2.002168441e+20
1.995645549e+20
2.003260273e+20
2.019160756e+20
2.01540144e+20
2.026893967e+20
2.025842074e+20
2.045788343e+20
2.069310329e+20
2.068455744e+20
2.078070399e+20
2.090024355e+20
2.087190915e+20
2.126141376e+20
2.133295837e+20
2.173784562e+20
2.224074936e+20
2.276601159e+20
2.334077087e+20
2.402816102e+20
2.470374909e+20
2.540636795e+20
2.642679784e+20
2.759798958e+20
1.979567517e+20
1.969042294e+20
1.971964175e+20
1.984965357e+20
1.982562605e+20
2.005040768e+20
2.020765174e+20
2.0280422e+20
2.021669963e+20
2.020241565e+20
2.017338073e+20
2.030798175e+20
2.022951895e+20
2.024401203e+20
2.00881222e+20
2.029009761e+20
2.027622837e+20
2.031274053e+20
2.052689755e+20
2.066716261e+20
2.07447757e+20
2.104314704e+20
2.124375735e+20
2.164555335e+20
2.217359622e+20
2.274545035e+20
2.343298132e+20
2.427781758e+20
2.480798116e+20
2.57661012e+20
2.005927352e+20
2.001416164e+20
2.000936041e+20
2.004979019e+20
2.006540805e+20
2.008126342e+20
2.000819137e+20
2.013499162e+20
2.027032009e+20
2.023003673e+20
2.020061507e+20
2.017499466e+20
2.019754233e+20
2.011072986e+20
2.014187068e+20
2.014453854e+20
2.00748194e+20
2.021663846e+20
2.030593507e+20
2.049970373e+20
2.06770854e+20
2.101596893e+20
2.136344991e+20
2.16529736e+20
2.17182962e+20
2.195302682e+20
2.241304139e+20
2.306675835e+20
2.402397676e+20
2.481596865e+20
2.006432129e+20
2.022038254e+20
2.030590907e+20
2.01088563e+20
2.002611835e+20
1.990311505e+20
1.978291897e+20
1.974776888e+20
1.964832264e+20
1.970463582e+20
1.978846893e+20
1.982056578e+20
1.995218308e+20
2.011258961e+20
2.020936841e+20
2.034113792e+20
2.05487976e+20
2.067920915e+20
2.092101192e+20
2.095516599e+20
2.12120359e+20
2.119295789e+20
2.102978183e+20
2.11605388e+20
2.138345659e+20
2.147510024e+20
2.185526193e+20
2.226474662e+20
2.265849694e+20
2.350829082e+20
2.014171811e+20
2.007348546e+20
2.012262938e+20
2.012147222e+20
2.010585303e+20
2.019595361e+20
2.01841857e+20
2.024022162e+20
2.005285935e+20
2.000846781e+20
1.995066454e+20
2.004078752e+20
2.007332545e+20
2.01535043e+20
2.021561838e+20
2.021385238e+20
2.032769265e+20
2.041653043e+20
2.033694718e+20
2.033354803e+20
2.044969858e+20
2.043793681e+20
2.074225204e+20
2.090015518e+20
2.134058079e+20
2.151355409e+20
2.188505618e+20
2.209763166e+20
2.233106405e+20
2.275616205e+20
1.995551672e+20
1.976556645e+20
1.983917198e+20
1.993567218e+20
1.997007295e+20
1.997879893e+20
1.99049416e+20
2.002503234e+20
2.011482077e+20
2.005770523e+20
2.016853923e+20
2.025307898e+20
2.025596116e+20
2.010205102e+20
2.015312033e+20
2.014768902e+20
2.002462583e+20
2.011412975e+20
2.011663096e+20
2.018303051e+20
2.02946022e+20
2.05207969e+20
2.054365619e+20
2.077738372e+20
2.091250313e+20
2.097588691e+20
2.110970801e+20
2.148371144e+20
2.192318449e+20
2.212297848e+20
2.001721024e+20
1.992376358e+20
2.002131343e+20
1.991560117e+20
1.997122852e+20
1.998636732e+20
2.003107077e+20
1.995172605e+20
2.005941296e+20
2.000006124e+20
2.012133289e+20
1.994379219e+20
1.987593113e+20
2.005679708e+20
2.009374702e+20
2.019305818e+20
2.037534462e+20
2.025251667e+20
2.039832582e+20
2.053098026e+20
2.049110155e+20
2.048102423e+20
2.036043965e+20
2.057906058e+20
2.076345867e+20
2.111184872e+20
2.106605569e+20
2.117395443e+20
2.152236128e+20
2.181457688e+20
2.001216232e+20
2.009608487e+20
1.99530103e+20
2.000678089e+20
1.997296189e+20
2.00568117e+20
2.020413171e+20
2.032712505e+20
2.029832189e+20
2.033511691e+20
2.025871514e+20
2.027443012e+20
2.042568308e+20
2.03394791e+20
2.033186458e+20
2.035752123e+20
2.030481954e+20
2.021535727e+20
2.022840455e+20
2.01960625e+20
2.033666218e+20
2.060697138e+20
2.082316171e+20
2.079222422e+20
2.066341531e+20
2.089005243e+20
2.121294902e+20
2.158230227e+20
2.184273742e+20
2.206956006e+20
2.022864948e+20
2.026388667e+20
2.031900047e+20
2.036003048e+20
2.030865663e+20
2.024311049e+20
2.015368004e+20
2.001143505e+20
2.004630559e+20
2.006551134e+20
1.99960551e+20
2.012009174e+20
2.009484817e+20
2.007167509e+20
2.013187083e+20
2.014705889e+20
2.020125611e+20
2.024354716e+20
2.019609992e+20
2.025796347e+20
2.019339552e+20
2.015223524e+20
2.019460844e+20
2.033823981e+20
2.050960687e+20
2.074722385e+20
2.073762376e+20
2.077889169e+20
2.086396713e+20
2.110803188e+20
2.012040604e+20
2.003902115e+20
2.004578852e+20
2.006871429e+20
2.010989755e+20
2.013889961e+20
2.013608063e+20
2.001498213e+20
2.00927768e+20
2.009913684e+20
2.00856258e+20
2.01737746e+20
2.025903568e+20
2.03624162e+20
2.018874422e+20
2.018549665e+20
2.016504029e+20
2.032939803e+20
2.034986913e+20
2.030943933e+20
2.028934487e+20
2.013632611e+20
2.030895179e+20
2.027820304e+20
2.035103445e+20
2.023565035e+20
2.056925052e+20
2.070687162e+20
2.089854536e+20
2.106600993e+20
1.949954766e+20
1.963109927e+20
1.964393942e+20
1.976420842e+20
1.969851277e+20
1.964928294e+20
1.976825279e+20
1.984886077e+20
1.98252703e+20
1.982532791e+20
1.991919359e+20
1.967110782e+20
1.960105531e+20
1.957264184e+20
1.964501105e+20
1.983955679e+20
1.980860392e+20
1.970601714e+20
1.960234402e+20
1.976340592e+20
1.989897559e+20
2.009191327e+20
1.993181993e+20
1.997262352e+20
1.989913691e+20
1.992115281e+20
1.992416641e+20
2.001044277e+20
2.013006583e+20
2.047840912e+20
)
;

boundaryField
{
    flow
    {
        type            calculated;
        value           nonuniform List<scalar> 
55
(
4.828864754e+20
4.948236627e+20
4.906997806e+20
4.869889948e+20
4.847098174e+20
4.741828622e+20
4.552585714e+20
4.392544723e+20
4.102875515e+20
3.88763566e+20
3.580231638e+20
3.414991273e+20
3.169908445e+20
2.935010749e+20
2.759798958e+20
2.57661012e+20
2.481596865e+20
2.350829082e+20
2.275616205e+20
2.212297848e+20
2.181457688e+20
2.206956006e+20
2.110803188e+20
2.106600993e+20
2.047840912e+20
1.949954766e+20
1.963109927e+20
1.964393942e+20
1.976420842e+20
1.969851277e+20
1.964928294e+20
1.976825279e+20
1.984886077e+20
1.98252703e+20
1.982532791e+20
1.991919359e+20
1.967110782e+20
1.960105531e+20
1.957264184e+20
1.964501105e+20
1.983955679e+20
1.980860392e+20
1.970601714e+20
1.960234402e+20
1.976340592e+20
1.989897559e+20
2.009191327e+20
1.993181993e+20
1.997262352e+20
1.989913691e+20
1.992115281e+20
1.992416641e+20
2.001044277e+20
2.013006583e+20
2.047840912e+20
)
;
    }
    obstacle
    {
        type            calculated;
        value           nonuniform List<scalar> 0();
    }
    frontAndBack
    {
        type            empty;
    }
    procBoundary3to1
    {
        type            processor;
        value           nonuniform List<scalar> 
36
(
4.751443945e+20
4.933285199e+20
4.947055109e+20
4.925066556e+20
4.880655342e+20
4.880655342e+20
4.189599664e+20
4.362409552e+20
4.560685258e+20
4.655037453e+20
4.765354146e+20
4.779359121e+20
4.779359121e+20
3.077528845e+20
3.224739293e+20
3.377571209e+20
3.568840528e+20
3.740403765e+20
3.740403765e+20
2.305381759e+20
2.344789214e+20
2.445461859e+20
2.518031128e+20
2.606832723e+20
2.710463431e+20
2.710463431e+20
2.057011043e+20
2.068612903e+20
2.08434552e+20
2.117418247e+20
2.122059698e+20
2.144606396e+20
2.18612367e+20
2.18612367e+20
2.024715759e+20
2.024715759e+20
)
;
    }
    procBoundary3to2
    {
        type            processor;
        value           nonuniform List<scalar> 
19
(
2.033590071e+20
2.014827036e+20
2.033256011e+20
2.014827022e+20
1.997288888e+20
2.001297607e+20
2.027409976e+20
1.989327125e+20
1.980975626e+20
1.987935208e+20
1.998680804e+20
2.01143076e+20
2.010372903e+20
1.994393687e+20
1.989549846e+20
2.00976046e+20
2.00992749e+20
2.01026155e+20
1.964216951e+20
)
;
    }
}


// ************************************************************************* //
