/*--------------------------------*- C++ -*----------------------------------*\
| =========                 |                                                 |
| \\      /  F ield         | OpenFOAM: The Open Source CFD Toolbox           |
|  \\    /   O peration     | Version:  2406                                  |
|   \\  /    A nd           | Website:  www.openfoam.com                      |
|    \\/     M anipulation  |                                                 |
\*---------------------------------------------------------------------------*/
FoamFile
{
    version     2.0;
    format      ascii;
    arch        "LSB;label=32;scalar=64";
    class       volScalarField;
    location    "0.008";
    object      iDof;
}
// * * * * * * * * * * * * * * * * * * * * * * * * * * * * * * * * * * * * * //

dimensions      [0 -3 0 0 0 0 0];

internalField   nonuniform List<scalar> 
654
(
4.273457701e+20
4.944066096e+20
5.820309436e+20
4.475044857e+20
3.951776227e+20
3.133868952e+20
2.606363908e+20
5.783248626e+20
4.772740863e+20
5.349388064e+20
3.237928699e+20
4.900091856e+20
3.57071434e+20
7.206097333e+20
4.475044857e+20
3.951776227e+20
7.407326682e+20
2.999906246e+20
3.024610825e+20
3.049725697e+20
5.12543524e+20
4.134970393e+20
4.170182287e+20
2.1029995e+20
5.303045358e+20
5.081918661e+20
6.206030006e+20
3.266727904e+20
4.944066053e+20
3.603048699e+20
3.076593339e+20
3.387236796e+20
5.128149242e+20
2.383131422e+20
1.681282919e+20
2.420829896e+20
2.440129979e+20
3.443636385e+20
3.223568795e+20
1.74994531e+20
3.024610849e+20
3.558013342e+20
3.587804668e+20
5.168712991e+20
4.170182253e+20
7.886248126e+19
4.772740863e+20
1.872285822e+20
5.666375222e+20
3.811182588e+20
6.042747451e+20
3.880206256e+20
3.076593312e+20
5.92766434e+20
5.128149242e+20
1.807964028e+20
1.138383137e+20
9.175317996e+19
2.542265456e+20
2.561608414e+20
1.877271253e+20
1.891775263e+20
1.906505138e+20
2.161649484e+20
2.17874694e+20
3.904207996e+20
1.96779222e+20
2.479668324e+20
2.499921892e+20
2.772559923e+20
3.049725672e+20
1.793902305e+20
3.618099064e+20
2.867000299e+20
3.680249095e+20
4.772740782e+20
3.209632811e+20
4.317238265e+20
4.355637205e+20
5.218736343e+20
3.048733487e+20
4.195354554e+20
5.92766434e+20
6.552635082e+20
3.365085307e+20
2.485950502e+20
3.870502611e+20
1.835063586e+20
6.933451245e+19
2.561608395e+20
3.05056574e+20
1.182359522e+20
1.668191983e+20
2.161649468e+20
3.631244844e+20
2.196116964e+20
2.951688283e+20
2.231701456e+20
9.999687567e+19
2.016407249e+20
2.541438101e+20
3.075261144e+20
2.842792168e+20
2.085091161e+20
2.628749398e+20
2.651522702e+20
2.942163435e+20
3.777583514e+20
4.355637281e+20
4.12005508e+20
3.880206291e+20
3.91566425e+20
4.234045957e+20
4.273457701e+20
2.019051184e+20
2.033959516e+20
2.049089647e+20
4.587658998e+19
1.61780529e+20
9.314939619e+19
1.877271239e+20
1.891775263e+20
1.429878853e+20
1.441099645e+20
1.210414948e+20
1.464077987e+20
2.705714302e+20
2.231701474e+20
1.499953123e+20
2.016407216e+20
3.049725697e+20
2.306445858e+20
2.067485196e+20
2.606363908e+20
2.891624289e+20
2.651522679e+20
2.674694032e+20
4.047410873e+20
2.994500579e+20
1.098681345e+20
4.98883666e+20
4.195354554e+20
5.363124928e+20
4.843252062e+20
2.467729243e+20
2.48595052e+20
4.553532517e+19
1.376297699e+20
2.080035373e+20
1.862987938e+20
2.346589049e+20
2.364719061e+20
1.906505138e+20
1.200916371e+20
1.452497949e+20
9.760519991e+19
2.705714302e+20
7.439004912e+19
9.999687487e+19
2.772559945e+20
2.033150481e+20
3.075261144e+20
2.842792145e+20
2.867000299e+20
1.314374688e+20
2.916674972e+20
1.872285822e+20
3.50775609e+20
1.633363966e+20
2.472033026e+20
5.820309385e+20
2.517212732e+20
3.387236766e+20
3.703663341e+20
1.346034123e+20
2.033959516e+20
2.276766275e+20
1.376297699e+20
2.080035373e+20
1.397240943e+20
2.111930144e+20
2.601190987e+20
1.668191995e+20
2.882199313e+20
3.389161881e+20
1.22006498e+20
1.721818179e+20
1.983734643e+20
2.249929703e+20
2.520509041e+20
2.287294254e+20
2.818989359e+20
2.067485196e+20
3.648909501e+20
3.680249157e+20
1.856065875e+20
3.744571613e+20
4.587065656e+20
3.811182555e+20
1.648022018e+20
3.048733514e+20
4.475044857e+20
4.798585418e+20
3.988560485e+20
1.346034123e+20
2.711946002e+20
2.276766242e+20
1.146914741e+20
3.697840691e+20
1.630114458e+20
2.581247973e+20
1.418831447e+20
1.191565711e+20
1.681282919e+20
2.662912906e+20
7.320389993e+19
2.213766247e+20
1.487800982e+20
1.249960936e+20
1.764356329e+20
3.812157152e+20
2.306445858e+20
2.325920846e+20
2.085091126e+20
2.365874418e+20
4.507588555e+20
3.477102242e+20
3.777583482e+20
1.905591277e+20
5.218736343e+20
2.494418286e+20
2.796903011e+20
3.669506496e+20
5.697943602e+20
1.794712177e+20
1.355973021e+20
1.593736392e+20
2.064446534e+20
2.080035358e+20
1.862987924e+20
2.346589031e+20
3.074134756e+20
2.383131404e+20
1.921466194e+20
2.662912886e+20
1.464077976e+20
2.21376623e+20
1.735767813e+20
1.74994531e+20
2.016407216e+20
1.27071904e+20
2.818989382e+20
2.584356495e+20
2.867000299e+20
2.628749375e+20
3.446979512e+20
1.872285822e+20
2.158619132e+20
3.266727933e+20
3.570714403e+20
3.325891106e+20
3.635973946e+20
3.104967063e+20
5.128149242e+20
2.019051199e+20
1.581968513e+20
1.138383137e+20
1.835063599e+20
2.542265456e+20
2.561608395e+20
1.407953429e+20
2.364719079e+20
3.813010275e+20
1.441099645e+20
3.147078889e+20
2.196116998e+20
3.197662357e+20
3.471535626e+20
2.749914081e+20
1.260254531e+20
3.049725697e+20
2.050174079e+20
1.550613897e+20
2.867000323e+20
2.891624313e+20
1.856065875e+20
2.674694032e+20
1.888791757e+20
2.450045949e+20
3.021373699e+20
1.940103145e+20
4.195354591e+20
3.66950653e+20
1.709383065e+20
2.243390205e+20
3.163937003e+20
9.107065033e+19
2.293829499e+20
1.61780529e+20
2.09586143e+20
1.173294524e+20
3.074134779e+20
1.906505138e+20
1.921466194e+20
2.420829896e+20
9.760519915e+19
1.967792204e+20
2.231701456e+20
1.999937497e+20
2.268458118e+20
3.049725697e+20
3.075261144e+20
2.842792168e+20
1.824454751e+20
2.1029995e+20
2.121218161e+20
3.209632838e+20
2.428446524e+20
3.266727933e+20
4.120055044e+20
3.603048667e+20
2.517212732e+20
1.975888113e+20
2.279177441e+20
1.794712177e+20
1.355973021e+20
2.049089632e+20
2.064446534e+20
2.311150415e+20
1.397240943e+20
2.111930144e+20
1.655303355e+20
1.429878853e+20
1.921466208e+20
2.420829934e+20
2.928155975e+20
2.951688306e+20
1.983734643e+20
1.999937497e+20
1.512305424e+20
1.270719051e+20
1.537630572e+20
2.067485196e+20
2.60636393e+20
2.365874438e+20
1.590913594e+20
1.604816405e+20
2.428446524e+20
3.266727904e+20
3.296044035e+20
2.217260738e+20
4.195354554e+20
1.693618383e+20
1.709383065e+20
3.365085307e+20
1.355973001e+20
2.276766258e+20
2.293829499e+20
9.24460166e+19
2.561608414e+20
1.642612346e+20
9.458876315e+19
2.14481828e+20
9.607330968e+19
1.694580927e+20
1.464077987e+20
1.229870137e+20
2.479668304e+20
2.499921872e+20
2.016407216e+20
2.033150464e+20
1.793902334e+20
1.292178248e+20
2.606363908e+20
1.840124563e+20
1.325761351e+20
1.604816419e+20
1.079309566e+20
2.722273253e+20
3.296044006e+20
2.217260718e+20
3.076593339e+20
2.258157864e+20
2.279177462e+20
2.019051184e+20
3.163937025e+20
2.276766275e+20
2.293829499e+20
2.080035389e+20
1.164367461e+20
1.407953419e+20
1.655303343e+20
2.383131422e+20
4.323298936e+20
1.936663917e+20
1.708090985e+20
2.213766247e+20
2.479668304e+20
1.249960946e+20
2.016407249e+20
3.049725697e+20
1.281358799e+20
2.067485196e+20
2.085091126e+20
2.1029995e+20
2.916674972e+20
2.139755226e+20
1.349136958e+20
2.450045949e+20
3.570714403e+20
2.771575897e+20
3.076593312e+20
1.693618383e+20
2.564074597e+20
2.467729243e+20
1.355973011e+20
1.821413007e+20
2.981978349e+20
1.61780529e+20
2.095861414e+20
1.407953429e+20
1.891775249e+20
2.144818263e+20
1.921466194e+20
2.420829915e+19
1.464077987e+20
7.379220766e+19
1.983734643e+20
1.74994531e+20
2.268458118e+20
1.016575232e+20
1.537630572e+20
1.550613897e+20
2.085091144e+20
2.628749375e+20
1.590913608e+20
2.942163435e+20
1.618964363e+20
2.450045949e+20
2.19736269e+20
1.662945553e+20
2.237522429e+20
2.540427574e+20
1.994280261e+20
2.467729225e+20
2.033959516e+20
3.187472762e+20
1.376297689e+20
1.386690249e+20
1.862987938e+20
1.877271239e+20
2.364719061e+20
1.668191995e+20
1.441099656e+20
1.69458094e+20
1.464077987e+20
1.229870137e+20
1.735767827e+20
2.249929703e+20
2.016407233e+20
1.01657524e+20
1.793902319e+20
3.359663416e+20
1.042545563e+20
2.365874438e+20
7.954568038e+19
1.069877604e+20
2.698273915e+20
3.266727933e+20
2.746703363e+20
8.314727692e+19
1.957832125e+20
2.258157844e+20
3.703663307e+20
3.365085307e+20
1.581968501e+20
2.959796136e+20
3.211361299e+20
3.004495539e+20
1.630114433e+20
1.642612334e+20
3.31060671e+20
1.906505138e+20
3.602749113e+20
1.936663932e+20
1.464077999e+20
3.197662357e+20
1.735767813e+20
7.499765675e+19
2.268458137e+20
1.016575224e+20
2.306445839e+20
1.292178248e+20
1.042545563e+20
2.102999483e+20
1.060609072e+20
2.407224629e+20
2.428446524e+20
1.633363952e+20
2.746703363e+20
2.49441833e+20
3.076593339e+20
1.975888131e+20
3.13386901e+20
1.346034142e+20
3.841923559e+20
2.049089647e+20
9.175317996e+19
2.080035373e+20
3.493102357e+20
1.642612334e+20
2.364719079e+20
3.336383991e+20
2.88219929e+20
9.683319584e+19
9.760519839e+19
1.475844153e+20
2.231701474e+20
2.249929685e+20
1.512305424e+20
1.779006671e+20
2.306445858e+20
1.550613897e+20
1.563818358e+20
1.840124578e+20
2.121218161e+20
1.337347016e+20
2.968101307e+20
8.16681976e+19
1.648022018e+20
3.048733514e+20
2.796903036e+20
5.64539461e+19
2.848971775e+20
1.794712164e+20
2.033959502e+20
1.366059755e+20
1.605680649e+20
1.386690249e+20
1.397240953e+20
7.039767146e+19
1.18235953e+20
3.336383991e+20
1.921466194e+20
2.178746923e+20
2.684142998e+20
1.229870128e+20
1.735767799e+20
9.999687487e+19
2.016407216e+20
2.795581889e+20
2.306445858e+20
2.842792168e+20
2.085091144e+20
3.417374159e+20
1.060609072e+20
1.069877613e+20
1.618964349e+20
1.905591294e+20
1.922692354e+20
1.940103128e+20
2.237522429e+20
1.975888113e+20
1.994280261e+20
1.121695102e+20
2.033959516e+20
2.959796136e+20
1.605680637e+20
1.617805302e+20
1.397240953e+20
2.111930144e+20
1.18235953e+20
2.144818263e+20
1.20091638e+20
1.69458094e+20
2.440129979e+20
1.721818192e+20
1.735767813e+20
3.999874995e+20
2.520509041e+20
2.287294291e+20
1.28135881e+20
2.325920846e+20
1.563818345e+20
1.840124563e+20
3.446979483e+20
2.94216341e+20
2.698273939e+20
2.177818622e+20
2.472033026e+20
1.385787949e+20
1.957832107e+20
2.258157844e+20
5.69794355e+19
2.916407287e+20
2.033959516e+20
2.959796136e+20
2.293829499e+20
2.080035373e+20
2.09586143e+20
3.050565763e+20
1.418831437e+20
2.859757706e+20
1.681282919e+20
2.662912906e+20
2.440129979e+20
1.967792204e+20
3.471535626e+20
1.999937513e+20
3.024610849e+20
2.54143806e+20
2.818989359e+20
2.067485196e+20
1.563818358e+20
1.314374688e+20
2.651522679e+20
1.872285822e+20
2.698273915e+20
1.633363966e+20
2.19736269e+20
2.494418308e+20
1.118761214e+20
1.975888131e+20
1.424485913e+20
1.794712164e+20
2.033959516e+20
2.276766275e+20
1.605680649e+20
2.311150415e+20
1.862987924e+20
3.519883573e+20
2.601190987e+20
2.383131422e+20
1.441099645e+20
1.936663917e+20
9.760519915e+19
2.459740275e+20
1.239834152e+20
2.749914059e+20
2.016407233e+20
1.524862861e+20
2.050174096e+20
2.067485196e+20
2.345727517e+20
2.628749375e+20
2.651522702e+20
1.872285822e+20
1.079309566e+20
2.994500579e+20
1.922692354e+20
3.048733514e+20
1.118761214e+20
2.258157844e+20
3.703663307e+20
)
;

boundaryField
{
    flow
    {
        type            zeroGradient;
    }
    obstacle
    {
        type            calculated;
        value           nonuniform List<scalar> 0();
    }
    frontAndBack
    {
        type            empty;
    }
    procBoundary3to1
    {
        type            processor;
        value           nonuniform List<scalar> 
36
(
5.982840782e+20
5.493406677e+20
3.048733487e+20
2.796903036e+20
4.234045957e+20
4.234045957e+20
4.952091425e+20
3.94312403e+20
5.037893048e+20
3.477102212e+20
5.666375271e+20
5.716773932e+20
5.716773932e+20
2.749914081e+20
1.764356343e+20
2.287294272e+20
5.381706958e+20
3.876534743e+20
3.876534743e+20
2.383131422e+20
3.602749113e+20
1.69458094e+20
3.660194968e+20
3.689610383e+20
3.223568795e+20
3.223568795e+20
1.581968501e+20
2.276766258e+20
2.523212449e+20
2.773380518e+20
9.314939689e+19
3.519883573e+20
3.31060671e+20
3.31060671e+20
2.019051199e+20
2.019051199e+20
)
;
    }
    procBoundary3to2
    {
        type            processor;
        value           nonuniform List<scalar> 
19
(
2.227066471e+20
1.55894653e+20
1.336239882e+20
1.336239873e+20
1.781653177e+20
1.55894653e+20
1.781653189e+20
2.227066471e+19
1.113533235e+20
1.55894653e+20
2.449773118e+20
1.781653177e+20
8.908265883e+19
2.4497731e+20
1.336239892e+20
2.227066471e+20
2.672479765e+20
2.004359824e+20
2.672479765e+20
)
;
    }
}


// ************************************************************************* //
