/*--------------------------------*- C++ -*----------------------------------*\
| =========                 |                                                 |
| \\      /  F ield         | OpenFOAM: The Open Source CFD Toolbox           |
|  \\    /   O peration     | Version:  2406                                  |
|   \\  /    A nd           | Website:  www.openfoam.com                      |
|    \\/     M anipulation  |                                                 |
\*---------------------------------------------------------------------------*/
FoamFile
{
    version     2.0;
    format      ascii;
    arch        "LSB;label=32;scalar=64";
    class       volScalarField;
    location    "0.008";
    object      internalT;
}
// * * * * * * * * * * * * * * * * * * * * * * * * * * * * * * * * * * * * * //

dimensions      [1 2 -2 0 0 0 0];

internalField   nonuniform List<scalar> 
654
(
699.7252864
650.9102107
663.6816298
678.92817
682.5414095
689.38205
541.0035799
560.5823286
575.5679385
591.7438953
607.8685666
618.6766131
630.80133
639.7883787
652.7063837
662.6862967
675.6679092
430.1152737
442.3410813
464.112654
475.4783972
496.8548807
514.9105049
532.4562652
546.270626
564.5945904
580.9441657
596.2901463
610.4061248
616.4096091
628.4211025
642.057175
649.7855651
345.3546153
350.7707971
358.8937744
365.7181219
376.9455112
389.7932093
402.9197399
418.0533193
430.439596
451.5450699
469.4709836
477.7299006
498.5198432
518.674853
532.2356805
550.4995411
566.9284831
581.849388
597.2661157
607.31277
612.6474484
629.6354328
307.5645658
311.9218987
312.7253167
317.1328978
319.6462605
323.1544764
327.6820335
337.3358184
340.5614259
346.9063057
351.6524273
365.5846608
377.5516274
392.1443227
398.054352
406.2134756
420.3046714
439.4470102
456.3297033
471.5683815
490.2930711
508.6988667
525.1164766
539.4295997
555.7710004
575.4192012
588.9328536
604.8265235
611.3261795
304.3509899
304.9328682
305.9193155
307.5507187
310.1288181
316.0052162
319.488677
325.1259278
330.3437517
337.5610169
338.7122987
343.3581501
351.7441119
357.027116
367.7977946
377.7293616
392.3624627
400.4091362
414.3030299
433.1946808
444.1623825
459.3648173
478.628017
499.3282463
520.2886525
529.7113083
544.2538122
560.2317267
574.3140727
588.45336
302.6787051
303.8723887
307.1513381
308.0417562
307.8795394
309.3735783
312.1784049
316.3663259
317.9361865
326.1566726
327.5281292
329.8223327
337.5366307
344.0700767
353.8419757
362.9165302
370.4630096
377.1465832
386.7592454
395.0200383
416.4781231
435.1196333
455.3501351
472.6239413
484.3904605
502.0456496
521.3436449
531.7299222
545.5099476
565.1026684
305.015559
303.9223356
304.1660897
306.975358
310.791281
312.0230657
312.5079137
314.1294635
314.9509893
312.5186085
320.7757475
323.598991
324.9592146
329.6737029
331.387288
342.401905
352.6246609
370.1608642
381.9633054
389.2085697
392.7456944
407.0865011
420.2787049
437.4926876
455.9919971
469.7549033
489.9698293
512.1057338
524.5683357
539.2924496
300.5724801
302.2902199
303.961588
304.4451328
303.1485844
304.8604067
307.3968169
307.3018047
309.83757
312.744427
316.3683419
320.5969909
326.2221574
331.5211138
336.0662008
339.9024024
345.5826314
354.0547139
357.46277
372.5024386
381.9677345
390.7699264
403.0495216
411.9011887
431.6488105
449.7436912
460.9188362
477.0572521
497.3128302
513.2519203
298.7193907
299.7811477
299.1018113
299.8965602
301.5643818
300.521057
300.9499518
305.4365853
307.9564874
312.2264726
313.5617494
316.2779099
317.3374912
320.7449925
323.8988226
328.6400952
332.7718933
337.6550395
345.3729078
350.0343543
360.4819753
369.0824707
381.4469874
396.967362
406.698567
425.3712893
443.9210967
461.1820375
475.9370759
489.8540368
299.5593252
301.2713967
300.248646
301.9548769
300.0875955
300.0114578
302.4171596
306.6355213
308.5777438
308.9413577
310.4244202
311.2746217
314.3395161
314.2283657
317.7954697
321.2577729
323.3997766
331.7451021
335.3999514
340.138812
350.8734716
358.0324176
362.5507575
374.6792809
387.7888535
397.6462156
411.4303073
429.4421528
449.6295879
465.7332044
298.8813015
301.1752967
303.5362833
303.4245566
307.1851046
307.6392531
306.4193063
304.7402451
304.2993224
304.6051073
305.5948805
307.8953336
309.3004893
310.8814584
313.3019181
316.5750124
317.9803101
320.386665
327.7942328
336.6137812
341.9711949
344.1610436
355.1346068
363.4137697
372.5019802
383.353946
395.9856645
411.6440675
426.4047678
437.4197892
302.0646507
301.8442465
303.3079425
302.3235063
300.0620049
300.3346597
298.6119557
303.1541045
300.5588924
303.960465
303.7956638
305.1177587
304.8923562
307.6534107
311.5120313
313.7885505
315.1462093
318.2884948
320.8829267
322.8718246
327.9680165
335.0824964
338.579002
346.7366632
358.2127106
366.9868303
377.6143893
386.1288019
404.0147911
418.2286135
300.9748856
300.4690337
298.6381462
301.3556034
301.3759603
299.8483795
301.2265553
302.323896
302.630759
302.7265508
305.1753579
305.2545606
307.442169
307.4718938
310.7989954
312.5127092
312.9959222
314.3143809
313.8701358
319.5860481
323.123531
325.8570738
333.1857703
339.8188603
345.3039271
353.8252882
363.0228994
373.7847522
378.7844534
392.1583504
301.2538689
301.4336782
299.1936696
300.4153392
300.5461349
301.9196341
302.3333543
301.1008405
299.9869161
302.4244329
302.3305625
301.8845748
303.2794002
304.4161159
304.8235688
305.1197901
308.8423863
313.2099336
316.125703
319.1498952
320.7523865
322.1166253
326.6761368
333.4704071
336.4153204
342.3461351
347.7032259
359.5556822
373.7586769
384.4976486
299.0071413
298.7048806
301.1264667
301.7391388
302.6192374
301.24184
300.3896851
300.0214004
302.3231594
300.0692925
300.6286352
303.7517065
301.9407838
301.198357
302.7389674
304.7361458
305.6123414
307.3987355
310.8634652
313.2687068
319.0875349
322.8263845
324.0800023
327.8360996
334.4866025
337.9225358
342.2281517
349.7020985
357.8000608
365.8075735
300.8948025
303.5067034
303.5128824
304.0626334
300.6989885
302.4221589
303.5315539
305.0605416
304.3730962
304.2271397
301.9468289
300.4683744
301.890104
303.6373703
305.5789298
307.4218301
308.4653327
309.2157675
309.79107
309.8406161
309.8990373
312.4331494
316.2267684
316.5598505
320.9896968
327.1910524
334.1307709
339.2166962
344.5589672
354.8874448
302.8366071
302.3765583
300.0444809
300.8485248
303.4365912
304.4261171
304.2766769
302.4312529
301.6238938
303.2728415
303.1884579
305.3211899
302.529785
302.7458973
299.8624598
300.2937909
299.9492928
300.0817267
300.3038584
306.0939454
307.0791082
307.6264458
313.0012825
315.290466
319.9064933
320.4765522
320.6684496
326.6049283
333.4077676
338.2287266
302.8620426
304.0227735
303.7517401
304.8269251
302.2921347
299.2577431
302.4917474
303.3510925
304.0533738
305.0320149
302.3473855
300.3726638
302.9941635
301.7255225
303.7395512
303.2367598
301.0758996
304.4128025
306.7267163
306.5362073
309.1326701
307.9445832
308.1845557
313.15365
316.2533262
317.9097328
320.1735849
325.0265268
328.6938431
333.5100443
302.9166643
303.0762004
302.668688
301.8704083
302.7440683
305.2294516
304.9464015
304.5360448
301.9213301
300.2061313
302.947939
304.4261321
306.6855677
305.0617295
303.4114956
303.6916072
307.5613705
304.6797064
305.0432226
306.8651747
308.2496912
308.3092241
308.1793118
307.8705248
309.6754128
311.266301
317.303894
321.6492358
324.8434511
330.0524416
297.4055066
298.3247078
297.5804419
298.011814
298.1790994
299.2780075
298.6825705
300.1526371
302.0631071
302.7478135
302.1351305
300.3621384
300.9109072
301.4608753
301.9089366
302.3256754
302.4698307
301.5705082
300.9654532
302.9230872
303.9917083
305.1530914
303.6422562
304.9927105
307.4330324
308.3036342
307.7300406
310.7453308
315.7038705
319.5835641
299.1260791
300.5708819
300.5219841
298.3842648
298.8816354
299.4625356
302.2097728
300.9243141
300.7595252
301.7841697
304.3023763
304.2245347
300.6433872
301.0617622
299.5014094
298.2405347
297.3147
300.0377825
302.9571583
299.0628943
299.6104705
304.3328792
305.6228565
309.3794363
308.9390219
312.5474478
316.22929
315.6908041
314.7392718
320.3584918
302.203779
302.1783077
300.658823
300.2507991
301.0404172
299.9362451
297.0991226
297.1830024
297.6092072
297.7021959
298.3251015
300.5444553
300.7847799
300.6486401
302.4069759
302.4517484
302.5038359
302.5979708
301.5371359
306.556498
304.6452437
304.0638695
305.6387884
304.4547396
304.5495343
305.8230737
307.3348115
310.4098957
314.2938845
312.5396408
300.3900475
299.2064045
300.1409637
301.615011
302.3099151
300.1523157
301.4698363
303.2353048
302.2858153
301.2656375
299.1386457
298.8247693
297.7014606
297.8398021
298.8035294
300.7893626
302.3193783
302.3016165
302.9641332
303.0956294
302.6279123
299.4032429
302.8320914
302.393091
304.8678117
305.9908395
308.8723915
308.5789585
307.0098607
311.2911405
)
;

boundaryField
{
    flow
    {
        type            calculated;
        value           nonuniform List<scalar> 
55
(
699.7252864
689.38205
675.6679092
649.7855651
629.6354328
611.3261795
588.45336
565.1026684
539.2924496
513.2519203
489.8540368
465.7332044
437.4197892
418.2286135
392.1583504
384.4976486
365.8075735
354.8874448
338.2287266
333.5100443
330.0524416
319.5835641
320.3584918
312.5396408
311.2911405
300.3900475
299.2064045
300.1409637
301.615011
302.3099151
300.1523157
301.4698363
303.2353048
302.2858153
301.2656375
299.1386457
298.8247693
297.7014606
297.8398021
298.8035294
300.7893626
302.3193783
302.3016165
302.9641332
303.0956294
302.6279123
299.4032429
302.8320914
302.393091
304.8678117
305.9908395
308.8723915
308.5789585
307.0098607
311.2911405
)
;
    }
    obstacle
    {
        type            calculated;
        value           nonuniform List<scalar> 0();
    }
    frontAndBack
    {
        type            empty;
    }
    procBoundary3to1
    {
        type            processor;
        value           nonuniform List<scalar> 
36
(
719.7186374
684.0267361
689.3789776
696.7315212
700.6298234
700.6298234
572.232939
582.3104652
598.6490019
621.9592
627.3364314
640.1451277
640.1451277
453.2990367
465.5645919
486.0790203
508.4043906
525.4812341
525.4812341
363.6361368
368.597901
375.3417383
390.5589154
400.4714805
416.1105543
416.1105543
317.6936165
317.4687274
322.2363743
326.4469781
331.5575854
334.0573565
338.1048146
338.1048146
307.2240783
307.2240783
)
;
    }
    procBoundary3to2
    {
        type            processor;
        value           nonuniform List<scalar> 
19
(
302.5701275
302.2422049
305.8145819
298.8586228
297.1704708
301.393663
299.6201729
299.3688113
301.0900978
301.3121134
299.0844869
299.3748721
304.5500686
302.6732747
303.8767229
298.3236658
299.8815509
300.4993082
298.9743104
)
;
    }
}


// ************************************************************************* //
