/*--------------------------------*- C++ -*----------------------------------*\
| =========                 |                                                 |
| \\      /  F ield         | OpenFOAM: The Open Source CFD Toolbox           |
|  \\    /   O peration     | Version:  2406                                  |
|   \\  /    A nd           | Website:  www.openfoam.com                      |
|    \\/     M anipulation  |                                                 |
\*---------------------------------------------------------------------------*/
FoamFile
{
    version     2.0;
    format      ascii;
    arch        "LSB;label=32;scalar=64";
    class       volScalarField;
    location    "0.008";
    object      internalEMean;
}
// * * * * * * * * * * * * * * * * * * * * * * * * * * * * * * * * * * * * * //

dimensions      [1 -1 -2 0 0 0 0];

internalField   nonuniform List<scalar> 
654
(
2.332524489
2.172967912
2.255031286
2.30153465
2.311847343
2.35485425
1.471455811
1.591032079
1.701419277
1.813963089
1.93057395
2.025830525
2.077789408
2.128709051
2.214408343
2.248179108
2.288773192
0.8446348567
0.9169541394
1.006267672
1.084019202
1.19291099
1.308466911
1.417213955
1.520298752
1.640277659
1.751270339
1.858006041
1.96324321
2.008406778
2.078811866
2.154892623
2.184453517
0.5296483262
0.5477886906
0.5693004538
0.5996898419
0.6360287093
0.6841368882
0.7313956852
0.7967580311
0.8643688249
0.9504303596
1.042968829
1.115953596
1.23370702
1.341984927
1.442147914
1.557696921
1.668339976
1.781150207
1.896123515
1.969938658
2.012762578
2.106806151
0.4317533222
0.4389211431
0.4400070625
0.4502230358
0.4622025984
0.4721535762
0.4849818131
0.5053077117
0.5224997863
0.5434008044
0.5620832347
0.5994001286
0.6374139548
0.6868299513
0.7205319933
0.7635172113
0.8295947583
0.9041798527
0.9884981124
1.077968248
1.185157291
1.286723604
1.398501643
1.507941052
1.621914951
1.747939246
1.842321506
1.942165256
2.001116854
0.4289771737
0.430175973
0.435775594
0.4416141594
0.4463902757
0.455172395
0.4638346225
0.4770190669
0.4888831461
0.5055692593
0.5134003127
0.5324718873
0.5556987051
0.5799515598
0.6113245237
0.651273481
0.6955957306
0.7360818822
0.7926860031
0.8631496535
0.9383859197
1.021731004
1.127987057
1.227883826
1.354873961
1.451953636
1.546846462
1.661324933
1.754267013
1.849369878
0.4225068469
0.4232636561
0.4291427671
0.4327221678
0.4345566455
0.4392044782
0.4476209163
0.4578536091
0.4637474431
0.4845140822
0.4921786588
0.4977302527
0.5163167895
0.5377749253
0.5666640554
0.5922816742
0.6192370637
0.6467462926
0.6937222248
0.7341183145
0.800767028
0.8879005535
0.9853733032
1.080299458
1.170795281
1.266957806
1.393929288
1.494493375
1.603276104
1.713551461
0.4277409823
0.4289993229
0.4286768319
0.4338004293
0.4417530923
0.440997053
0.441183287
0.4439759116
0.4482143759
0.4460018516
0.4602004691
0.4742479436
0.4827863089
0.4955504103
0.5110162867
0.5402583875
0.5719893806
0.6215388355
0.6493783128
0.6823692794
0.7216567776
0.7762642471
0.8319948642
0.9228465037
1.013784489
1.09352556
1.202846533
1.319820842
1.423438068
1.527447464
0.4195202352
0.42175547
0.4256655077
0.426729739
0.4238164202
0.427381841
0.4342166696
0.4367339267
0.4404403635
0.4477760496
0.4534808645
0.4660545972
0.4772399511
0.4866370552
0.4999043912
0.5174334633
0.533768253
0.5610628981
0.5848143427
0.6302922168
0.6646822905
0.7114970663
0.7605475797
0.8009820445
0.8813848524
0.977697489
1.056745476
1.151775523
1.26238547
1.377430647
0.4111395279
0.4134492976
0.4129953982
0.41364645
0.4200860738
0.4204289377
0.4235622352
0.4302438604
0.4362971394
0.4405375038
0.448907696
0.4532895094
0.4553648372
0.4667559524
0.4772076602
0.4868223957
0.5018526048
0.5238146764
0.5513409695
0.5681067324
0.6024682657
0.6373525789
0.6908369612
0.7445275602
0.7966190683
0.8750910898
0.9552203057
1.043013846
1.125818154
1.210685717
0.412144793
0.415539862
0.4171744055
0.4199639623
0.4183041652
0.4184861535
0.420801803
0.4274151497
0.4338648707
0.4379385034
0.4400585081
0.442618842
0.4504490579
0.4539109922
0.4593033269
0.4658950322
0.4711368953
0.4937236755
0.5078805694
0.5295249807
0.5618002171
0.5915981025
0.6161143734
0.6657361857
0.7151622302
0.761373198
0.8247334425
0.9002964144
0.9994331628
1.097944536
0.4210131732
0.4215155495
0.4218139072
0.4216596807
0.4260902549
0.4286068859
0.4273137446
0.4256563574
0.4252461599
0.4233447251
0.4291010259
0.4365689031
0.4380024026
0.4398433266
0.4499162351
0.4632076903
0.4689877463
0.474552145
0.495442523
0.5125450717
0.5329629116
0.5436840777
0.5743153706
0.6024808186
0.6387383364
0.6851611572
0.7398681455
0.8077857138
0.8859499601
0.9571913106
0.4146911985
0.417471933
0.4193394663
0.4173888813
0.4126792958
0.414169211
0.4118307077
0.4167476568
0.4138506696
0.4217306199
0.4224623556
0.4235975937
0.4288996473
0.435789664
0.443031674
0.4523057899
0.4589608446
0.4670382155
0.4734325857
0.4831539202
0.4967806724
0.5140702165
0.5283654035
0.5535840448
0.5884704989
0.6236384659
0.6638193369
0.7139163804
0.7793032715
0.847377718
0.4123328071
0.4112690241
0.4098675068
0.4135353955
0.4150754115
0.4104497663
0.4163393584
0.4164947054
0.4185082728
0.4219636215
0.4245849821
0.4271169363
0.4299546236
0.4342298993
0.4439753247
0.446238995
0.4490064061
0.4534915512
0.4522366678
0.4690655654
0.475853506
0.4889869343
0.5115516182
0.5340575182
0.5563784682
0.5868985063
0.6190852976
0.65556803
0.6910194791
0.7471237032
0.4116769519
0.4097325053
0.4072911963
0.4116504904
0.4113312061
0.4178959531
0.4217504093
0.4215436552
0.4186645352
0.421768148
0.421031257
0.4232152306
0.4235279438
0.425419927
0.4227089922
0.4273740171
0.4322924741
0.4391952659
0.4479574095
0.4553330393
0.4593378584
0.4679262745
0.4790737166
0.4982870425
0.5149505207
0.5375434457
0.5624577015
0.6026003809
0.6400830233
0.6839053451
0.4140476867
0.4126989113
0.4159448359
0.4176332621
0.4191776611
0.4175994579
0.4149028803
0.4170203886
0.4230440837
0.4190557722
0.419226319
0.4230442111
0.4209920616
0.4181518596
0.4209414863
0.4237745735
0.4235221577
0.4290072412
0.4357589127
0.4433208939
0.455462643
0.468351636
0.4779442285
0.4900359277
0.5014851542
0.5121122506
0.5295050744
0.5568502334
0.5933882068
0.6266680106
0.4167664601
0.4236539467
0.4254545452
0.4220889908
0.4157022232
0.4155164907
0.4145222234
0.4158700784
0.4128433987
0.4138280917
0.4124737052
0.4111198217
0.4158080566
0.4215769089
0.4263141504
0.431681612
0.4375688307
0.4414171056
0.4474094812
0.4482115611
0.4537913174
0.4570905929
0.4590785472
0.4624195165
0.4738300539
0.4850541448
0.5041109025
0.52137305
0.5389497267
0.5759241518
0.4210740591
0.4190101167
0.416796413
0.4178892903
0.4211570318
0.4244239417
0.4239684108
0.4225669568
0.4175376586
0.418890928
0.4175645602
0.4224013828
0.4192191047
0.4211942564
0.4184684606
0.4190337889
0.4209102769
0.422936427
0.4215996818
0.429656619
0.4335016784
0.4340245761
0.4481832543
0.4548979197
0.4712842124
0.4759507593
0.4844595255
0.4982210416
0.5139711387
0.5313284978
0.4172164527
0.4148288792
0.4160024788
0.419505646
0.4167351185
0.4127322205
0.4156502443
0.4193458902
0.4222013284
0.4223575574
0.4209536341
0.4199572314
0.4236826893
0.4187029499
0.4225686232
0.4217554349
0.4161922646
0.4226859015
0.4259517978
0.4270923161
0.4330908911
0.4362348853
0.4370611565
0.4491608965
0.4565567022
0.4603389878
0.4665748514
0.4820384921
0.4974492832
0.5093380444
0.4185817774
0.4168471296
0.4183248464
0.4150186031
0.4173822977
0.4211277916
0.4216783266
0.4194428325
0.4180859921
0.4144808643
0.4208025375
0.4191247155
0.4207987334
0.4223795764
0.4208686366
0.4233392033
0.4326038218
0.4259671697
0.429545829
0.4349215143
0.4360352074
0.4359049405
0.4331558998
0.4373682564
0.4438743247
0.4536406578
0.4614368046
0.4701517962
0.4826336902
0.4970308496
0.410862613
0.4138607892
0.4098891407
0.4115895108
0.4111244197
0.4143719056
0.4165850427
0.4211838633
0.4232640879
0.424992524
0.4225389267
0.4203852262
0.424295202
0.4232767206
0.4237471386
0.4248675181
0.4239696796
0.4208466655
0.4202733767
0.4223307287
0.4267711116
0.4340957596
0.4364781252
0.4377679988
0.4385369936
0.4446023722
0.4506346104
0.4629733411
0.4760368501
0.4868909623
0.4177099004
0.4204586147
0.4215335922
0.4193802193
0.4190193023
0.4184786873
0.4204520414
0.415708701
0.4162050435
0.4180231061
0.4200522062
0.4225496962
0.4170517872
0.4171505486
0.416233094
0.4147934853
0.4146181968
0.4192916004
0.4223790128
0.4182268562
0.4176571684
0.4233754785
0.4260640283
0.4343685862
0.4374049612
0.4476406845
0.4527043686
0.4528328372
0.4533163957
0.4668072403
0.4197495442
0.4180164664
0.4160549552
0.4159655112
0.4179152959
0.4169829417
0.4129808485
0.410613075
0.4128002242
0.4130599106
0.4136459401
0.4185520621
0.4206571039
0.4226123218
0.4214583985
0.421452991
0.4210983907
0.4246627149
0.4236000743
0.4297956959
0.4266935005
0.4226673058
0.42849877
0.4261925053
0.4278563981
0.4272096136
0.436399078
0.44371453
0.4534251344
0.454507438
0.404355801
0.4054796903
0.4070122311
0.4115152923
0.4110923843
0.4071383444
0.4114013882
0.4154980123
0.4137047309
0.4123097259
0.4113370956
0.4057878258
0.402822779
0.4024257715
0.4052206809
0.4119533519
0.4134028398
0.4112377054
0.4099707056
0.4135186166
0.4157127097
0.4152708018
0.4166798051
0.4169275384
0.4187930012
0.4208007388
0.4248277259
0.4262619906
0.4266297349
0.440064745
)
;

boundaryField
{
    flow
    {
        type            calculated;
        value           nonuniform List<scalar> 
55
(
2.332524489
2.35485425
2.288773192
2.184453517
2.106806151
2.001116854
1.849369878
1.713551461
1.527447464
1.377430647
1.210685717
1.097944536
0.9571913106
0.847377718
0.7471237032
0.6839053451
0.6266680106
0.5759241518
0.5313284978
0.5093380444
0.4970308496
0.4868909623
0.4668072403
0.454507438
0.440064745
0.404355801
0.4054796903
0.4070122311
0.4115152923
0.4110923843
0.4071383444
0.4114013882
0.4154980123
0.4137047309
0.4123097259
0.4113370956
0.4057878258
0.402822779
0.4024257715
0.4052206809
0.4119533519
0.4134028398
0.4112377054
0.4099707056
0.4135186166
0.4157127097
0.4152708018
0.4166798051
0.4169275384
0.4187930012
0.4208007388
0.4248277259
0.4262619906
0.4266297349
0.440064745
)
;
    }
    obstacle
    {
        type            calculated;
        value           nonuniform List<scalar> 0();
    }
    frontAndBack
    {
        type            empty;
    }
    procBoundary3to1
    {
        type            processor;
        value           nonuniform List<scalar> 
36
(
2.360706309
2.329501003
2.354281476
2.368815109
2.360588905
2.360588905
1.655003745
1.753616538
1.884759608
1.99865888
2.063712964
2.112037916
2.112037916
0.9630315821
1.036401789
1.133352462
1.252535478
1.356842062
1.356842062
0.5787133346
0.5966371165
0.6336382069
0.6788928772
0.7206731781
0.7785847362
0.7785847362
0.4511268886
0.4533501691
0.4636581277
0.4771697518
0.4857023078
0.4945637019
0.5102460876
0.5102460876
0.4294107521
0.4294107521
)
;
    }
    procBoundary3to2
    {
        type            processor;
        value           nonuniform List<scalar> 
19
(
0.4247594626
0.4203842924
0.4292436273
0.4156781141
0.4097322415
0.4163891405
0.4193399423
0.411117874
0.4117458269
0.413497053
0.4126586285
0.4156942661
0.4226578361
0.4167144573
0.41735523
0.4138906411
0.4160866098
0.4170130482
0.405393638
)
;
    }
}


// ************************************************************************* //
