/*--------------------------------*- C++ -*----------------------------------*\
| =========                 |                                                 |
| \\      /  F ield         | OpenFOAM: The Open Source CFD Toolbox           |
|  \\    /   O peration     | Version:  2406                                  |
|   \\  /    A nd           | Website:  www.openfoam.com                      |
|    \\/     M anipulation  |                                                 |
\*---------------------------------------------------------------------------*/
FoamFile
{
    version     2.0;
    format      ascii;
    arch        "LSB;label=32;scalar=64";
    class       volScalarField;
    location    "0.008";
    object      internalE;
}
// * * * * * * * * * * * * * * * * * * * * * * * * * * * * * * * * * * * * * //

dimensions      [1 -1 -2 0 0 0 0];

internalField   nonuniform List<scalar> 
654
(
2.074600669
2.762321867
3.04331724
3.067481919
1.099108386
1.798696087
1.212977395
2.325553338
1.615296933
1.775859221
1.337674945
2.438399443
2.104741653
2.422049408
1.664813292
1.878662944
2.847809161
1.026193787
1.13001278
1.046485095
1.468595846
1.564448993
2.001599388
1.040919046
1.334167291
2.509174471
1.975269023
0.9195263664
2.378485802
1.956166193
1.016600989
1.365531822
2.555377279
0.4984200657
0.3089464223
0.3864997821
0.6635853606
0.6260263265
1.102133664
0.2343760889
0.688068927
0.9778775392
0.7113093443
0.9963228854
1.988721283
0.2374474769
1.891849669
1.04174737
1.77154692
0.8209706972
1.565996513
1.049224256
1.314298199
2.2782383
1.578859199
0.4040875357
0.1499124226
0.2917273414
0.791138997
0.9179008204
0.327841425
0.4791689028
0.3367070249
0.1792601273
0.7597262447
1.096528632
0.5395371473
0.5726501887
0.420814032
0.6313517364
1.402229317
0.4051971634
0.6803248671
0.5752783881
0.9448653925
1.585029795
0.5671578705
1.067987768
2.088589605
1.935889354
1.470748275
2.384892367
2.164030195
3.336650501
0.5896169941
0.7006323581
1.021376137
0.2162152751
0.1328746453
0.400181845
0.5929673305
0.1805453354
0.5889745885
0.5648761115
0.9446794666
1.022455443
0.9861321089
1.229145974
0.139182765
0.54126247
2.365910219
0.7896498925
0.6101302929
0.6633250452
0.8447609911
0.5157588648
1.73415309
1.15916856
1.693734538
1.339480694
1.451568535
2.123561684
2.701849617
1.612429865
0.1858780527
0.2636100262
0.4252585484
0.09730461906
0.4912374742
0.2646989164
0.2690183553
0.6394260255
0.3880686099
0.4345570204
0.2523593482
0.2552406822
0.5766937327
0.3916707654
0.6051109436
0.4856822993
0.7716947449
0.5652051287
0.2295418616
0.4813035137
0.8518471827
0.7101558873
0.4082630042
0.9886966323
0.2978750471
0.156322831
1.395607358
2.074303788
2.530275279
1.450881186
0.300253837
1.033801189
0.09186569478
0.2766359584
0.5915777598
0.5014138316
0.5268684959
0.7351101679
0.1845352747
0.2902247965
0.3249116679
0.190928139
0.7376281133
0.08531436155
0.1843343581
1.172645018
0.3529921978
0.4857842551
0.7372627728
1.041333205
0.1936548549
0.9239327107
0.675565355
1.291685338
0.5911038445
0.5238447431
2.437530312
0.8306659302
0.9535291288
1.353992384
0.3534208526
0.4942370432
0.5901774624
0.2610970169
0.5031985877
0.2979854031
0.4154458282
0.5223304764
0.2134708085
0.5489034296
0.4299096143
0.4689648323
0.4596165905
0.6201380706
0.6436465191
0.6563579695
0.3851344826
0.6107559242
0.4985289597
0.8078958065
1.376224393
0.3710856342
0.8167542645
0.9858932402
1.387508831
0.1936131401
0.9310493652
1.832255087
1.594938897
1.479258827
0.2378316396
0.2924839961
0.2257058908
0.3199975685
1.052712263
0.3518829888
0.4065281438
0.3777905088
0.3910788285
0.5904729774
0.7223610557
0.1163643854
0.2763097076
0.1528086431
0.279774599
0.5982372958
0.8693755704
0.4990868084
0.34377102
0.8916987836
0.8584321912
1.276300148
0.538944274
0.6199021221
0.2710833308
1.807069816
0.9779418477
0.8002131478
0.9036719831
2.062565684
0.4143671391
0.3901895521
0.3471509187
0.3097072717
0.1776296977
0.6147084251
0.6491475316
0.6924997216
0.5968097347
0.5020021317
1.007915481
0.7325527614
0.4261211795
0.3345630352
0.4708769964
0.5975799659
0.2305863562
0.5977442486
0.4971668655
0.571199794
0.5255781721
0.697829836
0.3732401944
1.003943039
1.454525605
1.263758104
1.78613986
1.275663385
0.8593033118
2.108202914
0.5459687161
0.3987860023
0.2348236855
0.4820023119
0.4024704413
0.8709096949
0.07969626482
0.9284413199
0.8708485168
0.2333979744
0.9082007704
0.4044298812
0.6556203134
0.383131197
0.4805394407
0.3537464634
0.7920937889
0.5016280425
0.3550326387
0.3247896352
1.045566745
0.5396807768
0.6186220702
0.252852794
0.4256109138
0.9991362267
0.3233012514
2.100621222
0.8354779015
0.1067676596
0.6262484156
0.9081517651
0.2227479078
0.3332375811
0.3377523507
0.4182629626
0.2415661144
0.5124904203
0.4753344385
0.7327539131
0.4799922229
0.1325609819
0.3675310043
0.4708732008
0.7679562451
0.2148342755
0.4359999991
0.3283120627
0.8071049142
0.2936924067
0.3525415016
0.5130311661
0.9826581015
1.290864513
1.263510785
0.9918127656
0.5800987808
0.4954925526
0.6049815439
0.3821129488
0.3537790924
0.3046674467
0.553599654
0.4325265335
0.2167276272
0.2299590708
0.6339427726
0.3192167404
0.3201433272
0.2615180823
0.2127046789
0.6059793122
0.3892772654
0.4717643167
0.4028249469
0.7496411917
0.3558238925
0.5388843167
0.8872563025
0.92653781
0.4965051258
0.2355517496
0.5987588866
0.4149959156
0.6630448617
0.5551215875
0.6327638162
1.193778284
0.1516365588
0.3577768451
0.757469122
0.5503267906
0.3963444916
0.6700673616
0.1870049523
0.4528329448
0.3240398643
0.1712801901
0.351648533
0.04448517599
0.3485610384
0.2687795751
0.5106673265
0.8020985437
0.3991470442
0.354477035
1.158666645
0.4102260505
0.1974067841
0.3267017034
0.1718624543
0.5566126775
0.1531435026
0.7920680203
0.8676728741
0.4434972314
0.2664050312
0.5968097922
0.7501255092
0.6672962885
0.331940972
0.6847714612
0.4843503047
0.372053499
0.638172314
0.1487829817
0.1318135587
0.3119889703
0.383632546
1.218757769
0.3623638399
0.33736919
0.4118473173
0.4304550224
0.1147478475
0.519361215
0.6629570825
0.4001536975
0.291457158
0.3839191129
0.631271441
0.8181198066
0.4584448652
0.3585871559
0.6226239875
0.7140833729
0.7364907027
0.6558139922
1.132264084
0.4788112386
0.6525610774
0.3954706538
0.5681583076
0.8323039441
0.5383685852
0.4159212884
0.2869570035
0.3672232186
0.4609674954
0.6340359183
0.00462918262
0.4834413575
0.2258657401
0.3654876672
0.3325550808
0.4797308295
0.3318092154
0.4638507724
0.1860445865
0.3630306061
0.7653240259
0.5478269499
0.5757632636
0.3946029793
0.309242376
0.6478594933
0.4320275393
0.5590693157
0.8786606658
0.5538390272
0.5231762131
0.4030051485
0.708601975
0.3554418508
0.2626615953
0.2569039804
0.1776569401
0.4259499075
0.3347760545
0.3880004451
0.3132322529
0.2171257688
0.5426368791
0.2372420052
0.4290060905
0.4644202116
0.6058114468
0.505184283
0.6509817472
0.5645418654
0.5153816349
0.1642343034
0.2414041641
0.595612003
0.8112259893
0.3830421915
0.1009216391
0.6482195626
0.3713697877
1.205350228
0.382677681
0.178577485
0.6655311265
0.6502307974
0.9708105686
0.4753395414
0.2826839648
0.4634134484
0.3113134548
0.7424774039
0.2930736883
0.1553923871
0.8565108707
0.5592634376
0.1065141496
0.3465670617
0.4804392969
0.1851060334
0.2908077098
0.2917660057
0.4132788456
0.1418942194
0.5750479013
0.5345025206
0.490140237
0.4576585748
0.6652327025
0.886494661
0.3153413027
0.5887547823
0.1282161049
1.154146627
0.3643531021
0.4574961015
0.5657469566
0.6401048926
0.4822252498
0.4913397981
0.6403741027
0.5703819737
0.3586176705
0.1957813387
0.1624540025
0.7096891698
0.4568162979
0.3044216457
0.2170002809
0.862360792
0.5392090298
0.1639316403
0.6413460147
0.3186352215
0.1604749536
0.8170475311
0.1642175755
0.2252267648
1.053267752
1.308503075
0.08907046548
0.5819607809
0.3972242252
0.54776955
0.1838352065
0.2497499535
0.2378542933
0.3350803786
0.4335351299
0.3172332763
0.6456213653
0.2094628619
0.4227892441
0.5415711328
0.2421976074
0.3368999338
0.13384862
0.5263796981
0.8129626183
0.5988344694
0.5812328591
0.6396965476
0.6574518309
0.4911202224
0.1444982778
0.4385388682
0.2884916976
0.2456277154
0.5917290049
0.56180387
0.3917797623
0.2261961125
0.1673707743
0.4602171136
0.4892547679
0.3760223386
0.2541724379
0.07740807118
0.4654297329
0.2537922202
0.519301934
0.2842948571
0.1953413489
0.3949790705
0.2631848235
0.3802760761
0.9979324386
0.3885257591
0.5669721867
0.2933256798
0.2982255354
0.3967650328
0.4652749261
0.5249819294
0.3947469134
0.7053544675
0.3064637749
0.729601175
0.3208713653
0.3608973269
0.3497418782
0.1926373674
0.3203312165
0.3203209427
1.013806975
0.2958656524
0.1804120182
0.3318220157
0.5083938085
0.5384924085
0.3368103225
0.429797654
0.4738769617
0.8328779875
0.7146227295
0.5244246436
0.314135115
0.807901862
0.5488672803
0.505732323
0.3572696494
0.5008264698
0.3159455259
0.5741839959
0.4547768983
0.6520047017
0.2914417392
0.361517479
0.3740965783
0.2076092173
0.6122807068
0.4187099661
0.1883894366
0.3967470499
0.7869396602
0.2835487416
0.3737742601
0.2065876557
0.7812111736
0.6161689204
0.3566810634
0.9294464211
0.1686002664
0.3132325027
0.3720444482
0.3623145368
0.4852351586
0.4385849059
0.156459523
0.4410574449
0.4423982414
0.6174047958
0.7295477464
0.3830730803
0.5065133431
0.3690561397
0.7343895209
0.4634142034
0.717697491
0.3398251273
0.4791715881
0.6746219997
)
;

boundaryField
{
    flow
    {
        type            zeroGradient;
    }
    obstacle
    {
        type            calculated;
        value           nonuniform List<scalar> 0();
    }
    frontAndBack
    {
        type            empty;
    }
    procBoundary3to1
    {
        type            processor;
        value           nonuniform List<scalar> 
36
(
2.42525251
1.759542175
0.9877735744
1.166005296
2.203411967
2.203411967
1.903030792
1.211887054
3.077699836
1.314187759
2.306082574
2.90807558
2.90807558
0.8631544061
0.2633625662
0.7698017141
1.308709974
1.814914009
1.814914009
0.4041695774
0.9754333036
0.9013410123
1.201807965
1.67173201
0.8683932653
0.8683932653
0.2430408588
0.5635581271
0.4770736261
0.386951227
0.1814685156
0.8569926022
0.7969219641
0.7969219641
0.5274073809
0.5274073809
)
;
    }
    procBoundary3to2
    {
        type            processor;
        value           nonuniform List<scalar> 
19
(
0.4583266786
0.2588182832
0.5680071938
0.3277091707
0.3984132334
0.2703803315
0.2596086003
0.000899012843
0.160540841
0.4672742962
0.3787043495
0.6461623957
0.1098724298
0.5269100022
0.367876688
0.7438510156
0.4164561002
0.2523894332
0.6410380264
)
;
    }
}


// ************************************************************************* //
