/*--------------------------------*- C++ -*----------------------------------*\
| =========                 |                                                 |
| \\      /  F ield         | OpenFOAM: The Open Source CFD Toolbox           |
|  \\    /   O peration     | Version:  2406                                  |
|   \\  /    A nd           | Website:  www.openfoam.com                      |
|    \\/     M anipulation  |                                                 |
\*---------------------------------------------------------------------------*/
FoamFile
{
    version     2.0;
    format      ascii;
    arch        "LSB;label=32;scalar=64";
    class       volScalarField;
    location    "0.008";
    object      linearKE;
}
// * * * * * * * * * * * * * * * * * * * * * * * * * * * * * * * * * * * * * //

dimensions      [1 -1 -2 0 0 0 0];

internalField   nonuniform List<scalar> 
654
(
12.9198523
14.04861093
17.35149083
15.2480429
11.02272509
7.489264575
10.2642829
16.89785582
14.25412512
16.99988409
9.879819031
17.23646688
10.59788021
23.68385521
12.58878471
15.18195261
25.32826796
13.29344367
13.13837407
10.78448767
20.78045158
15.31781698
13.99383919
6.788784517
19.53674695
18.24212515
16.47106081
11.24323939
16.16368746
11.24202297
11.02351827
14.03412267
16.19823762
8.758735881
7.012644092
9.232613171
8.235817216
16.90567798
11.9452307
7.493603543
10.47720461
12.25293244
13.00725249
18.57020883
13.59849007
3.22180141
14.94127867
5.336909188
18.65280424
14.45502523
18.62749402
15.83567874
9.712251446
19.38006354
20.48384447
7.24346976
4.291437511
3.377614168
8.231551544
8.920489349
9.026179236
5.890974017
6.390778689
7.533021751
7.850301205
14.20115175
8.240052812
9.345145366
10.05012139
9.96874868
11.58282803
4.614189524
13.43771791
10.35708122
14.42260068
20.19931397
11.81132591
10.92574619
16.52413241
20.53688386
7.241017781
11.13750071
20.85516055
22.9847391
12.47193941
9.529939942
15.50558325
6.947984747
3.025924687
10.97461824
12.62821333
4.463587411
5.567181535
9.09221114
13.48921973
8.436796204
12.21095878
7.14577728
3.43388106
6.978903472
11.95387346
11.77748709
12.42923636
9.15880623
8.777885159
9.480001056
10.51841365
13.18931064
13.24333724
12.98532326
13.06660999
15.63018596
11.92937955
15.08271225
6.684387488
8.335408282
8.690458211
2.675432869
6.727791896
3.549638116
6.236039267
7.099847069
5.510041857
4.778025434
3.707650623
4.465519121
10.69640622
8.410263066
6.386035624
8.555327331
9.598154746
5.731249954
7.225193656
11.13528067
11.00688256
9.100619965
8.626396248
16.09476437
10.46483881
3.960616533
19.43247048
15.17542599
19.72680973
17.57379722
9.803293827
8.135682102
1.565955
5.616940352
8.371518142
6.812680916
8.272916752
8.763420464
8.235641338
4.832715046
6.272376353
5.485809234
9.878299168
2.437321151
3.351170676
11.33648627
9.319189106
12.08322881
10.87651636
8.817319948
6.665322976
12.62541349
7.611822217
10.62687263
6.577430309
10.35108416
20.5613194
8.917565097
15.50126904
13.72441482
4.780624154
6.915329408
10.72365614
5.617051337
7.499914613
4.859622861
8.950812107
8.51315732
5.407068187
12.34171338
13.72274899
4.749171433
6.141444421
7.751856305
6.347707388
10.40154092
8.247690636
9.899545947
9.319599791
13.12021825
13.00534492
7.605716455
15.4724555
14.01738048
15.30584677
6.887880899
8.749206226
13.65199334
14.73454883
18.42437894
5.282483063
10.60154156
7.333245269
4.048291371
15.24355202
6.666208283
8.499434972
6.095750596
6.733484595
7.354675152
11.48208755
2.081842367
7.608529426
5.743939592
6.301526746
5.966404118
15.53685449
7.529663279
9.074944015
6.489692672
8.48577435
17.91888675
11.4056219
14.56489134
8.189750129
16.12161898
9.202774758
10.31623789
12.50762086
18.76908233
7.772744297
4.945614317
6.482146506
7.603217067
8.27750839
8.791447766
8.397795524
11.16833848
10.42684926
6.953825996
10.87234465
5.197117767
8.644779185
7.661240039
6.558892712
8.240447983
4.49551525
9.500627752
10.86982218
11.47487804
8.467175676
12.89814337
4.872338291
7.135362707
11.33145254
13.03836711
11.37174744
12.24550448
9.445365948
14.76920756
9.423223861
5.988391852
5.07008049
7.903740675
10.81048751
8.849618799
6.31452866
11.21123894
13.33818376
5.707090988
13.21188841
10.34991069
12.50065511
14.83084825
13.00435514
5.53038664
13.2765438
7.511704062
6.828570786
11.81041348
11.62583201
7.834145211
9.587932749
7.061759329
7.336096122
12.26784401
7.245877807
13.4295479
12.2521892
6.564218251
9.693916527
12.4908016
2.968379208
10.36622346
6.163043184
8.1346739
4.595750895
11.04665196
8.166654617
7.838650613
9.904019868
3.389439008
7.566354695
9.168915824
7.877254616
10.2013953
13.32601643
8.571162996
10.5527148
7.852387267
8.10935278
8.070499401
14.75376717
7.960527266
11.87011115
16.08877479
12.10235093
7.910261686
5.773873378
10.47736764
7.992711877
3.638169166
6.565421883
7.126169828
8.424564402
4.866892487
8.580131984
5.86873807
4.36301671
9.216231472
9.376355802
11.52744123
11.67066125
6.751562746
8.466489738
5.096386281
4.465341837
5.803648853
9.343548152
9.361851285
8.970633437
4.591294245
4.788429205
10.24554997
11.69954804
11.57444099
8.857916679
17.16195991
5.619569633
5.279364352
12.4318151
4.256459138
9.861285536
8.28118277
3.7779956
9.630243788
8.742454602
2.597573722
8.02546431
5.118052063
5.413225907
5.423846964
5.925184855
11.03558355
10.65322306
7.110325796
6.407682088
8.149499346
5.099576118
9.2812237
6.999001682
5.959431131
5.310250427
3.79399643
11.53014552
10.89973117
7.997893841
9.187737062
8.632999797
8.965985216
8.598159961
12.91427303
9.835825774
10.17489616
8.028558902
3.54975733
4.280114566
6.910962974
11.63086851
17.18478882
5.78904088
6.390417627
7.123906981
9.165821354
4.414207402
7.225731642
12.119772
4.742517326
8.921112201
9.84479365
7.376241814
8.380898446
6.956921774
4.505029418
8.546599031
13.43035906
11.80610044
10.66556992
6.365762184
9.854999225
11.5628545
7.529802651
7.790799346
11.97131989
6.268839419
7.855270042
5.981237116
6.55181234
8.215672167
6.059365688
0.7453559415
5.820602203
3.20808268
5.770705735
5.850998824
9.828526329
3.254756833
6.608223337
4.974580008
7.074667736
9.847143667
6.303669895
12.70615546
6.957196518
9.472113102
7.359381498
5.738634169
7.436668284
6.985391411
7.614669629
9.864409189
7.800752533
13.74483911
5.177992011
5.325406026
7.469061575
6.478674466
10.59594998
7.707117468
5.833469392
6.799221432
4.918607015
5.699544836
6.881551954
7.903893187
8.846612873
3.153808636
7.977170838
15.70005845
4.572841552
7.187263583
3.16957066
3.13640057
9.643451114
14.01185035
10.93222286
3.710737594
7.846067775
8.932663753
18.28098937
15.07112879
6.123151302
12.48963748
12.88029059
10.58660206
5.455267822
5.724232045
12.81099136
7.27266035
12.03024469
6.912451673
5.19844768
12.33498159
5.49589945
2.610902726
8.15055001
3.465920357
9.269849407
4.059118234
3.600860846
6.336049699
3.962825679
9.398429705
10.60029353
4.747552834
9.167715444
9.0222642
12.89165365
8.252501236
12.06371822
5.300417098
14.21307659
8.228002435
4.569458444
7.3016738
13.80912604
7.082529175
8.223185533
14.2966362
11.06755459
3.984419002
3.292575001
6.252783294
8.344851286
8.693474975
7.734907114
7.498987653
8.355735701
5.617197761
6.651291774
7.865432801
8.485508538
5.96570339
9.769809391
3.82773731
7.93588375
14.13604394
11.24076962
2.636689556
12.49844209
6.863248206
6.291724989
5.742612048
6.725784714
5.353136506
6.000548253
1.609498117
5.247782918
12.57164827
8.745851271
9.593998841
9.703003088
6.907115474
6.783071682
4.267849639
8.444129093
11.33738794
8.837645153
10.4136304
8.046451561
13.02286855
3.578227593
3.824127854
5.817491699
6.959588385
6.272889897
8.678225684
8.746711129
7.788007268
6.915716352
4.151731295
8.212696461
11.04768075
5.3540357
7.449349772
3.644259541
8.976747879
3.931339758
9.437801339
5.744345761
6.927829573
9.260044044
6.617209325
6.391564673
15.54311452
11.10690383
8.171611921
5.233410343
9.437445605
6.329584248
7.208322156
16.60554149
11.50366935
8.460309094
7.40218635
9.698950651
4.463868668
6.622690189
10.10705208
1.56965888
10.30517068
7.99232783
11.73113583
8.197675369
7.808644919
8.126303553
11.38866011
5.284594151
11.15996691
7.842870782
9.126671444
10.90745595
7.392575428
14.97987408
6.817611761
13.42396128
9.270192169
11.39691576
9.458178032
6.256925493
5.165106862
11.01724848
8.626800997
9.910704119
5.386910795
8.89423964
10.10277765
4.586848863
6.927782155
6.265292116
6.431946296
8.659052767
8.938819889
7.036768922
8.8997225
6.157526964
13.82786797
10.70554446
9.267605366
5.695409747
7.058403143
5.027199838
9.566495546
5.511186079
12.66809152
7.074454392
5.53917888
6.773972313
6.816468914
9.242404176
13.08672152
10.35333527
7.209988517
5.298143576
14.77925495
7.07149161
12.16713956
4.356184139
9.182027202
13.83264419
)
;

boundaryField
{
    flow
    {
        type            zeroGradient;
    }
    obstacle
    {
        type            calculated;
        value           nonuniform List<scalar> 0();
    }
    frontAndBack
    {
        type            empty;
    }
    procBoundary3to1
    {
        type            processor;
        value           nonuniform List<scalar> 
36
(
14.76393021
16.55314613
6.715997161
11.5624425
12.35036218
12.35036218
16.17740176
13.82504507
14.51815999
14.10935856
16.96964648
11.9082265
11.9082265
6.927369134
6.606580081
6.335008228
21.74600461
12.14987487
12.14987487
10.19290423
14.76497021
5.416751686
15.28194028
13.70796669
13.88130348
13.88130348
6.554035603
9.302875544
11.33842009
11.02954714
5.185010419
12.66457485
13.07139514
13.07139514
7.344245717
7.344245717
)
;
    }
    procBoundary3to2
    {
        type            processor;
        value           nonuniform List<scalar> 
19
(
9.707225322
5.609702628
5.497497713
5.465654045
7.130885085
7.19284767
7.164230749
0.660279609
3.797566365
6.269407527
8.769146475
9.440353899
3.782446327
11.01878943
6.07442008
8.801619411
12.65061637
8.077709713
10.44287154
)
;
    }
}


// ************************************************************************* //
