/*--------------------------------*- C++ -*----------------------------------*\
| =========                 |                                                 |
| \\      /  F ield         | OpenFOAM: The Open Source CFD Toolbox           |
|  \\    /   O peration     | Version:  2406                                  |
|   \\  /    A nd           | Website:  www.openfoam.com                      |
|    \\/     M anipulation  |                                                 |
\*---------------------------------------------------------------------------*/
FoamFile
{
    version     2.0;
    format      ascii;
    arch        "LSB;label=32;scalar=64";
    class       volScalarField;
    location    "0.008";
    object      linearKEMean;
}
// * * * * * * * * * * * * * * * * * * * * * * * * * * * * * * * * * * * * * //

dimensions      [1 -1 -2 0 0 0 0];

internalField   nonuniform List<scalar> 
654
(
14.70208854
15.58159471
15.70494573
15.51190772
15.43235395
15.38703504
13.46427277
13.99049169
14.47306797
14.87716921
15.28111137
15.51946157
15.57723343
15.69238319
15.9183128
15.82091632
15.65076244
10.37137791
10.85099553
11.23667446
11.71863304
12.18460825
12.82222878
13.27265167
13.74623202
14.30622927
14.78310522
15.21211161
15.46861767
15.58839443
15.67509363
15.82354242
15.81561823
8.491722238
8.628675643
8.726742805
8.980105436
9.232573768
9.492087485
9.750108526
10.13240341
10.64304499
11.05143714
11.56307323
12.01456844
12.63671964
13.06633669
13.53369837
14.02314063
14.55657543
15.01692935
15.36392332
15.63326093
15.74655341
15.96915469
7.949680078
7.942163191
7.932530512
8.00736492
8.153723693
8.229609095
8.29917446
8.351155741
8.52462659
8.667156873
8.798862822
8.989068222
9.228342604
9.519507699
9.761255403
10.03933196
10.44157664
10.84463796
11.30494841
11.80476906
12.44210024
12.88961401
13.46175445
13.98898372
14.57605151
15.08849947
15.35107665
15.67800192
15.87011972
7.99475815
8.016244531
8.068282973
8.150447554
8.153054652
8.131956178
8.184225796
8.254566629
8.31207038
8.370743674
8.435578471
8.623231681
8.734596399
8.939370733
9.089873016
9.397375258
9.612379367
9.930111676
10.2607631
10.58651954
11.08860273
11.6033048
12.18189036
12.63587047
13.27029761
13.82103143
14.26714103
14.84597526
15.17629862
15.52574153
7.950994567
7.9350081
7.957634421
7.979166603
8.01114221
8.029310203
8.095711199
8.176408444
8.241486261
8.339740056
8.401757064
8.414917172
8.533026727
8.671119732
8.813956639
8.944325342
9.127763941
9.330395526
9.675752562
9.993004834
10.32338528
10.80306332
11.34973696
11.86876439
12.42125228
12.90551767
13.58941678
14.17522945
14.74504107
15.09809213
7.965783023
8.002621281
7.983079394
7.994244657
8.046310047
8.021472838
7.995223757
7.984763737
8.047668537
8.054167001
8.062502586
8.2103905
8.307740533
8.395052089
8.570053379
8.761702188
8.965390935
9.223240982
9.324551281
9.534483207
9.927315218
10.27083195
10.59992872
11.12417264
11.58425377
12.08385434
12.62157243
13.19971939
13.71428548
14.24816764
7.927553709
7.908047648
7.955735732
7.943502118
7.931827168
7.941509012
7.998301136
8.049436438
8.043110137
8.102190903
8.09902311
8.199299643
8.228873353
8.236784788
8.341584707
8.504718299
8.579755022
8.767480997
9.020330759
9.282939498
9.490685406
9.791891407
10.11081439
10.40335236
10.84079644
11.41087668
11.92864006
12.43866255
13.03590699
13.70477056
7.801915507
7.824835086
7.817714456
7.809367048
7.877701587
7.913505201
7.963953414
7.987301689
8.013638719
7.982140394
8.088433235
8.084139221
8.089443449
8.190168001
8.269182503
8.296552252
8.435898468
8.653011253
8.854907296
8.926847886
9.147867057
9.407371556
9.811127073
10.09050651
10.48245775
10.92005166
11.36417089
11.85750593
12.35559217
12.74988315
7.812917211
7.823982442
7.87799202
7.895357548
7.912920621
7.9351582
7.909273507
7.910546198
7.970110019
8.023761277
8.020465431
8.009109585
8.067014627
8.152516928
8.13516662
8.168487045
8.182350457
8.318186839
8.429244027
8.643259931
8.873236311
9.138249936
9.332080219
9.682375923
9.959989916
10.29509939
10.77553899
11.14849179
11.69781537
12.32771187
7.998559783
7.954062688
7.897372965
7.907205345
7.885370004
7.918317306
7.92247771
7.908672954
7.904439557
7.883002013
7.954891986
8.025583255
8.005326937
7.992357998
8.107399088
8.238924688
8.297963659
8.313073078
8.478534252
8.502502981
8.65304251
8.756121283
8.952977842
9.147725199
9.410095802
9.718829049
10.05783657
10.54500907
11.1075686
11.57847765
7.822448196
7.883720634
7.872605691
7.832510667
7.781560469
7.809540109
7.834190941
7.805998364
7.825871805
7.87407386
7.8980231
7.888548529
7.983610935
8.015860688
8.029613917
8.138094443
8.1897138
8.255410813
8.269680769
8.376901325
8.456325838
8.548935303
8.639305784
8.805366737
9.025861081
9.295616246
9.592251773
10.01332769
10.37249687
10.83153495
7.770553671
7.761682386
7.779268725
7.776463504
7.828065837
7.773571149
7.825349088
7.815746375
7.855020926
7.91528298
7.897747824
7.940175754
7.926557895
8.015480146
8.062951592
8.066262261
8.077484398
8.119253456
8.09774497
8.217243183
8.243071246
8.372887866
8.55939991
8.713933356
8.897555791
9.148367852
9.347823746
9.554348246
9.894604326
10.29626279
7.7513197
7.745087817
7.755776241
7.812853791
7.782401132
7.871118213
7.908177346
7.934374451
7.898790902
7.907168744
7.899653628
7.954554807
7.932410222
7.941582684
7.869109065
7.920619116
7.929659992
7.919262921
8.002618855
8.060900493
8.077333873
8.164023253
8.219710086
8.345361073
8.519601393
8.687069763
8.932855599
9.201255321
9.351923768
9.674753262
7.875324395
7.833638567
7.842087795
7.853235473
7.863108094
7.899129295
7.865050157
7.906891909
7.949915361
7.929418644
7.912015219
7.89107878
7.896503388
7.842719721
7.853914322
7.848527646
7.845613497
7.920910549
7.927323922
8.022624126
8.099281778
8.203476559
8.309260663
8.402429239
8.399844604
8.49329012
8.59387281
8.818302424
9.137846902
9.372315214
7.874490362
7.917937701
7.953109387
7.878007763
7.849797563
7.803017694
7.760490993
7.741771246
7.684809001
7.717901877
7.737550063
7.759546402
7.792989999
7.869634624
7.925893656
7.969671035
8.023515569
8.052953932
8.148795406
8.157657781
8.238166023
8.239561949
8.186167124
8.239668123
8.308930691
8.352445279
8.48093374
8.605611517
8.703773974
8.932916569
7.90469818
7.88368833
7.904656301
7.900282718
7.90209582
7.929638759
7.906054243
7.922703285
7.858245535
7.841423867
7.81032694
7.85394587
7.880201718
7.898692178
7.913713634
7.909618112
7.96665318
7.993824708
7.946435546
7.930582625
7.97084307
7.983636639
8.07313195
8.152024723
8.323858559
8.340897532
8.479849979
8.562036992
8.649156659
8.799325965
7.804213527
7.745461955
7.755602352
7.789182141
7.806972563
7.795755176
7.778780082
7.83751077
7.86878305
7.835901092
7.887338431
7.911628931
7.909972559
7.870656363
7.899054575
7.893474236
7.844801762
7.865169914
7.86086705
7.911643092
7.956015341
8.028493411
8.040971703
8.095103786
8.107716832
8.140127763
8.193318487
8.302217419
8.468600091
8.538337189
7.87817493
7.807107072
7.838019767
7.788431258
7.813774777
7.811868233
7.827990409
7.80302591
7.86599753
7.820639123
7.883143464
7.827418985
7.781377015
7.82009689
7.826062531
7.874123744
7.97350119
7.903992111
7.974306089
8.013463062
7.988568018
7.958465008
7.902185557
7.996586829
8.085546775
8.202256962
8.189321972
8.242134721
8.334582687
8.420863779
7.848873137
7.883911677
7.853597198
7.873138819
7.833806335
7.87607555
7.918266545
7.963389564
7.949116008
7.957311874
7.93166579
7.906571199
7.96450546
7.936085209
7.950447169
7.967583756
7.951284012
7.934326244
7.939420111
7.910273913
7.94225117
8.071770195
8.15974837
8.131440997
8.072132612
8.149124131
8.237147362
8.369074891
8.435176123
8.506840965
7.909249872
7.929554908
7.926459427
7.953404037
7.943655832
7.919391965
7.88821626
7.845631167
7.849067232
7.877073764
7.851208111
7.911325091
7.903795977
7.92216652
7.918978391
7.899531444
7.905941452
7.919063841
7.900745254
7.94949981
7.945364178
7.901181312
7.910480387
7.966040394
8.033793179
8.093546051
8.085416879
8.097936333
8.088437748
8.174814613
7.899695926
7.866715532
7.889888131
7.886608443
7.902883779
7.911057848
7.919643338
7.886485644
7.912827399
7.907448121
7.88926772
7.931756312
7.956947276
7.997929932
7.934473123
7.948378912
7.920436611
7.967097196
7.959807038
7.951328627
7.928746258
7.873390856
7.93719932
7.930778663
7.968000978
7.912212534
8.006803207
8.030169346
8.126187673
8.187161984
7.654276543
7.721016527
7.719685365
7.75928281
7.741729941
7.721747914
7.775734043
7.78463118
7.798587579
7.800381115
7.828261719
7.739392394
7.68751299
7.697669887
7.72369013
7.785288528
7.768519411
7.757319455
7.715212842
7.772741053
7.821937181
7.88553393
7.821181116
7.836052033
7.8066396
7.821102957
7.827598568
7.869865092
7.912344537
8.015651332
)
;

boundaryField
{
    flow
    {
        type            calculated;
        value           nonuniform List<scalar> 
55
(
14.70208854
15.38703504
15.65076244
15.81561823
15.96915469
15.87011972
15.52574153
15.09809213
14.24816764
13.70477056
12.74988315
12.32771187
11.57847765
10.83153495
10.29626279
9.674753262
9.372315214
8.932916569
8.799325965
8.538337189
8.420863779
8.506840965
8.174814613
8.187161984
8.015651332
7.654276543
7.721016527
7.719685365
7.75928281
7.741729941
7.721747914
7.775734043
7.78463118
7.798587579
7.800381115
7.828261719
7.739392394
7.68751299
7.697669887
7.72369013
7.785288528
7.768519411
7.757319455
7.715212842
7.772741053
7.821937181
7.88553393
7.821181116
7.836052033
7.8066396
7.821102957
7.827598568
7.869865092
7.912344537
8.015651332
)
;
    }
    obstacle
    {
        type            calculated;
        value           nonuniform List<scalar> 0();
    }
    frontAndBack
    {
        type            empty;
    }
    procBoundary3to1
    {
        type            processor;
        value           nonuniform List<scalar> 
36
(
14.14093652
15.42127351
15.30994115
15.1896819
14.93530948
14.93530948
14.11323583
14.56769474
15.01409479
15.23805462
15.47499552
15.49145805
15.49145805
11.03548736
11.46286249
11.93507157
12.48252817
12.95721437
12.95721437
8.709590018
8.835197897
9.182261624
9.396909338
9.658864775
9.955485902
9.955485902
8.044673155
8.071959801
8.086077365
8.203043881
8.190916757
8.242185024
8.37394729
8.37394729
7.907057403
7.907057403
)
;
    }
    procBoundary3to2
    {
        type            processor;
        value           nonuniform List<scalar> 
19
(
7.973836073
7.93544588
7.963517318
7.896093959
7.818832757
7.844849993
7.921227321
7.824205956
7.751807723
7.793466781
7.844176559
7.897436752
7.900269856
7.817174255
7.814092313
7.879532794
7.850684255
7.891461611
7.734777555
)
;
    }
}


// ************************************************************************* //
