/*--------------------------------*- C++ -*----------------------------------*\
| =========                 |                                                 |
| \\      /  F ield         | OpenFOAM: The Open Source CFD Toolbox           |
|  \\    /   O peration     | Version:  2406                                  |
|   \\  /    A nd           | Website:  www.openfoam.com                      |
|    \\/     M anipulation  |                                                 |
\*---------------------------------------------------------------------------*/
FoamFile
{
    version     2.0;
    format      ascii;
    arch        "LSB;label=32;scalar=64";
    class       volVectorField;
    location    "0.008";
    object      momentum;
}
// * * * * * * * * * * * * * * * * * * * * * * * * * * * * * * * * * * * * * //

dimensions      [1 -2 -1 0 0 0 0];

internalField   nonuniform List<vector> 
654
(
(0.0131428753 0.005901828916 -0.001245686842)
(0.01466604381 0.00527014248 0.0002907994364)
(0.01844294766 0.00444646753 0.0008300627885)
(0.01445968864 0.006899884673 0.0006788547514)
(0.01151630732 0.003130359523 0.002078421366)
(0.008805312211 0.001964458407 -0.0004077884704)
(0.01004888946 0.001630147146 0.0002745028291)
(0.01829022822 0.004636297803 -0.0008101773966)
(0.01338182089 0.005922528307 -8.404374801e-05)
(0.01711432299 0.005201569183 0.000325869397)
(0.008621703286 0.004126715341 0.00203915183)
(0.01669546233 0.00599791055 -0.003530846237)
(0.01124448268 0.00315292416 0.001179067862)
(0.02246811871 0.006461224328 -0.001212841997)
(0.0131852008 0.00435136089 0.0003624622326)
(0.01481785179 0.004378761237 0.0003985780556)
(0.02529304434 0.007409906976 0.001529744657)
(0.01208009078 0.002204019567 -0.001125314987)
(0.01213552143 0.003121720315 -0.001865283517)
(0.01132574619 0.001290868225 -0.00120011504)
(0.02012609221 0.004428131066 -0.0003704902824)
(0.01569358616 0.002955664654 -0.0003222835949)
(0.01455289404 0.002951872801 0.0007661615781)
(0.00677488434 0.0008968427174 0.0005924018958)
(0.01789466336 0.00426598269 -0.001014045933)
(0.01792461842 0.004888135949 0.001585519315)
(0.01785270232 0.005254627637 -0.0003116847844)
(0.01124733583 0.003139967239 0.001810496905)
(0.01625366657 0.005187103683 0.002298546741)
(0.01255546226 0.001446244529 -0.0004187034135)
(0.01044108302 0.004659048138 -0.001223525912)
(0.01353014065 0.003211780342 -2.659594306e-05)
(0.01521910627 0.00581660906 0.003709230263)
(0.009166900907 0.0009286775031 0.0001802403005)
(0.007119613907 0.0002862062146 0.0003424647505)
(0.009808477526 0.0003695737616 -0.0006147979692)
(0.009468790824 -0.0004791232153 0.0002715421191)
(0.01520482245 0.00310810854 0.0006847672319)
(0.01277107635 0.001258308244 -0.001263435371)
(0.007458669783 3.02977149e-05 -5.127991836e-06)
(0.01092805684 0.002290717515 0.001054034719)
(0.0127548749 0.00148173823 -0.0002622365652)
(0.01327140066 0.001050690601 0.0004784601372)
(0.01820174371 0.003771009168 -0.001068573848)
(0.01444855575 0.00259768661 0.00192464065)
(0.003287175983 0.0002848848097 0.0004396238731)
(0.014913087 0.005524519066 0.0004042312534)
(0.005383437023 0.00187186619 0.0009728546058)
(0.01923132241 0.005231561762 0.000587452217)
(0.01380781971 0.004512077773 0.001114919386)
(0.01805526653 0.006414317324 0.002054929626)
(0.014719946 0.004473935585 0.001938276957)
(0.010757496 0.001156844053 -0.0009235358272)
(0.0212558828 0.00430793532 0.0003490600488)
(0.01963150539 0.005319041714 -0.0002760340763)
(0.007728678627 0.0008999156819 -0.0001629893346)
(0.004588053666 -0.0003088921174 0.0002916624589)
(0.003274884683 0.0008292308741 6.296863789e-05)
(0.009282711641 2.47235512e-05 -7.726792944e-05)
(0.009776403164 -0.0003318370592 -7.572804455e-05)
(0.008743744016 0.0001028806052 0.0001870177373)
(0.007018547215 -5.336067281e-05 -0.0004119072402)
(0.007362537004 0.0005119557739 -0.0006527808696)
(0.007984674911 0.001257707558 -0.0001112301131)
(0.008604794029 0.0001751245578 4.611758089e-05)
(0.01451494298 0.001199428674 0.0005905932084)
(0.008311466829 -0.0001004996934 0.0005926824882)
(0.009695218426 -6.352875984e-05 -0.0004633425732)
(0.01012278214 -7.659342965e-06 -0.0003643154105)
(0.01069410242 0.000465931834 0.001134661131)
(0.01089216805 0.003314731072 -0.001077056972)
(0.005341189778 0.00102179645 -0.0001096830341)
(0.01302672323 0.003893371946 -0.001126862405)
(0.01055702496 0.002489019037 -0.0008489205766)
(0.01428746747 0.003342274333 0.0004419425899)
(0.01819792833 0.005544950608 -0.0006330092478)
(0.01227752522 0.002175639452 -0.0003625635541)
(0.01229313175 0.003854093589 -6.585401699e-05)
(0.01633486896 0.005447497704 -0.001406455344)
(0.01802868398 0.007204299014 0.0006250655645)
(0.00823499644 0.00289117285 0.001222120829)
(0.01247528888 0.002805490625 1.375432992e-05)
(0.01966242107 0.00923843174 0.0005206905783)
(0.02349283853 0.006180318742 -0.0002906500806)
(0.01377184094 -0.0001216979891 -0.0004621989565)
(0.01041059286 0.0002831845791 0.0006345728099)
(0.01625371875 0.0001783145354 -0.001130633435)
(0.007485736429 0.0001865406426 0.0002263296318)
(0.003052494206 1.933296997e-05 -0.000175512333)
(0.01095229839 0.001180842651 0.0007662907894)
(0.01245999062 0.0002396802371 0.0002898415396)
(0.004690315702 0.0004133975877 1.214127738e-05)
(0.006239764708 0.000446725168 0.0001955925018)
(0.009568252177 0.0007069674737 -0.0004595861462)
(0.01447711512 0.0002103232737 -0.0004293603)
(0.008637416852 0.001546436186 -0.0005794629386)
(0.01237380653 2.926075573e-05 -0.0008878431712)
(0.007289546289 0.001713480539 -0.001485293036)
(0.003661573947 0.0004446473307 -0.0001301242638)
(0.007463115212 0.00053091269 -0.0002128456949)
(0.01109989223 0.001900185792 -0.001242700998)
(0.01131886786 0.0009310037351 0.0004722157792)
(0.01184255349 0.001926818537 0.0008495699217)
(0.008581973139 0.0006838867151 0.0002501880682)
(0.008736412736 0.002686354542 -0.0002671148941)
(0.009329505674 0.003411023553 -0.0001334685906)
(0.01044934036 0.003155812522 2.722118098e-05)
(0.01301156951 0.004220808153 0.0011185973)
(0.01460304681 0.002970080475 0.0001836485171)
(0.01273325314 0.003605424467 -0.001411876226)
(0.01279716335 0.00474401702 0.0008831518198)
(0.01537109196 0.003704898239 0.0003960595677)
(0.01316155932 0.003429377044 8.255421234e-05)
(0.01514719478 0.004499031627 -0.0003823900722)
(0.007736566935 0.0003021530364 -0.000431369251)
(0.008704392802 -0.0003380667563 -0.0008841026548)
(0.008861984531 -0.0009701490674 9.078289135e-05)
(0.002332352959 6.271971736e-05 7.960703983e-05)
(0.006942251323 0.0003186468683 -0.0006166102468)
(0.003857075615 -0.0001153879019 0.0003589963047)
(0.007024300915 -0.0005308191106 0.0004342519649)
(0.007685499906 -0.0007084516651 0.0003284020233)
(0.00594710899 0.0003078391577 -0.0003076103859)
(0.005463604252 0.0007886470311 8.448450046e-05)
(0.004361917282 0.0004218164325 -0.0001377215566)
(0.005086857881 -0.0006298176797 -0.0003300650407)
(0.01137467258 0.0009908239701 -0.001230869377)
(0.008848009829 0.0007196556896 -0.0009325655962)
(0.006327977415 6.591405858e-05 0.0006464456337)
(0.008161007299 0.0005058046966 -0.0009842191022)
(0.01117219718 0.0002139419984 0.001012564937)
(0.006811592095 0.0007146195577 0.0003198486556)
(0.007326969407 0.001410374769 -0.0002678795341)
(0.01023629086 0.001781621807 -0.001705166161)
(0.01173229383 0.001168143155 -0.0003673709436)
(0.009858002432 0.000762825316 -0.001355878044)
(0.009540203659 0.001500497861 0.0001756240831)
(0.01602352272 0.00180951768 1.776805868e-05)
(0.01016805718 0.003811969441 0.001103453163)
(0.004076427773 0.001612213874 -0.0001069451906)
(0.01966958649 0.001560297468 0.001216466176)
(0.01485032273 0.00389428146 -0.0002069241877)
(0.01974422952 0.005702804215 -0.0003326944332)
(0.01809452876 0.003901696988 -0.002130974676)
(0.01029418373 0.0006681508961 0.0008523804805)
(0.009321047871 -0.0009244992379 0.0004334448973)
(0.001774209868 -3.046139598e-06 0.0001541793765)
(0.005824312936 9.798469005e-05 -0.0001469075286)
(0.008627573517 0.0006256573362 -0.0005598352742)
(0.007262528638 0.000779575097 -0.0001596788032)
(0.009247674154 -0.0008266765943 -0.000132331126)
(0.009094243717 0.0005289623202 0.0004919337697)
(0.008460368752 0.0002004662636 -0.0005862388541)
(0.005041556667 -0.000229756695 -0.0001736599331)
(0.006140431262 -0.0002465288939 0.0003287375872)
(0.004963380686 0.0007586229964 0.0002175627726)
(0.01072494934 0.000514479196 -0.0002336723743)
(0.002809930204 0.0005283701246 0.0001399083058)
(0.003771082982 -0.0006104549172 -0.0003541713107)
(0.0114608511 0.0001033784375 9.401512454e-05)
(0.008848224843 0.00116342568 0.001405203271)
(0.01276860651 0.001300980291 0.0001023665738)
(0.01089749926 0.0002269177865 -0.0003996122033)
(0.009510150378 0.00140597458 0.0002273030664)
(0.006192840267 0.000875803807 -0.001015235081)
(0.01154066141 0.001514736821 0.001530196384)
(0.007766980837 0.0004741758619 -0.001014445082)
(0.01196073807 0.002192944388 0.001370236854)
(0.006582630533 0.001274267641 7.017935952e-05)
(0.009412136375 0.003139185279 -0.001137732217)
(0.02039505227 0.0059065193 -0.002256330408)
(0.008509129644 0.003481730978 -0.00156828052)
(0.01394924642 0.003740494841 0.0002939106553)
(0.01390779465 0.003185688516 0.0002328647658)
(0.005277999797 -0.0001283585362 -0.0006488901598)
(0.007788300765 0.0005713028317 -0.0001504475087)
(0.01049446028 0.0001042556551 0.0001093143431)
(0.006079702586 -0.0003948961859 -0.0002693230094)
(0.008086474059 0.0007839157433 0.0005795387017)
(0.005486269681 0.000324913488 0.0002240997068)
(0.009072605582 3.630042296e-05 -0.0007548008122)
(0.009914028752 -0.000186479261 -0.0002807406063)
(0.006182377833 0.0009497371838 0.000121602939)
(0.01264612408 -0.0001092742599 -0.0004910947876)
(0.01433487136 -0.0004013303202 0.001026240581)
(0.005070573261 8.421698673e-05 -0.0005021007126)
(0.006650994112 0.0006823117391 -0.0007503538747)
(0.007708710173 0.00166853381 0.0001846051765)
(0.007501234263 0.0009679966234 0.0005925587967)
(0.01077283658 0.00147407058 -7.833243042e-05)
(0.008983863613 -0.0003083776568 -5.242512855e-05)
(0.01098742709 -0.0009247812801 0.000244405763)
(0.008931975992 0.001269070381 -0.0006626738268)
(0.01446641677 -0.0005082817106 0.0001288261991)
(0.01427597803 0.001005374936 0.0004075917447)
(0.007348669323 0.001328395515 0.0001660783104)
(0.01579242777 0.001608678614 0.0005912972944)
(0.01462737295 0.003164275516 -0.0004078132101)
(0.01412255125 0.004084590328 0.0003493308085)
(0.005710665917 0.002496881395 -0.00184913988)
(0.009861437506 0.003836732732 0.001272969439)
(0.01530245689 0.001796949601 9.71076602e-05)
(0.01638696614 0.002883560886 -0.0006015588502)
(0.0165318365 0.004057793988 0.002092307757)
(0.005608062949 -0.0001589596194 1.120828483e-05)
(0.0111632537 0.0001204038518 0.0003642288224)
(0.008483511169 0.0003748029849 -0.0005330679724)
(0.004508774683 -0.0003565598427 2.767696192e-05)
(0.01466479424 1.835085502e-05 0.0005333181482)
(0.006774157434 5.081991455e-05 6.80560532e-05)
(0.009453309376 9.556089348e-05 -0.0003986349793)
(0.006028613689 -0.0002358994676 -0.0009900915579)
(0.005907473936 -0.0002859634405 -0.0003136957453)
(0.007437333756 0.0001340988458 0.0004001312134)
(0.01116404185 0.0007352771214 -0.0009518174077)
(0.002522644164 0.0001194882763 -0.0001330281694)
(0.008654797903 6.13816419e-05 0.0004874491462)
(0.006334922805 0.0002885159221 0.0003272751319)
(0.005505788367 0.0009012949635 -0.0001801169699)
(0.006740898925 -0.0005604567052 -0.0006015913166)
(0.01599004107 0.000366666358 -0.0005492104685)
(0.008885399628 0.0005494141423 -3.419326879e-05)
(0.008559709614 0.001965529438 -0.0007764247707)
(0.006917766774 0.001439148049 0.0002305573813)
(0.008762711111 0.001642243357 0.0001809173328)
(0.0187204714 0.0010355313 0.0004798733671)
(0.01254969471 0.001473096996 0.0003774792815)
(0.01467478113 0.0020498965 0.0002484021261)
(0.007856711283 0.0005376403566 1.930023272e-05)
(0.01703194185 0.002844355366 0.002333247932)
(0.0093351664 0.001758862746 0.001709754099)
(0.01117842206 0.001195194667 -0.0005795049046)
(0.01263862203 0.002725779259 0.001266758278)
(0.01897293806 0.005653972137 0.0004196798244)
(0.007823329292 -5.42501335e-05 0.0004057501584)
(0.005481834134 0.0001937949524 0.0005724149339)
(0.006776621639 0.0005983120048 0.0003896772362)
(0.008442441821 0.000202865823 0.001118320895)
(0.008498006215 0.0006548145293 -0.0009290403389)
(0.008468361955 -2.296819345e-05 -0.0005827989982)
(0.009527274371 0.0002212206674 -0.0002461619741)
(0.01234423937 0.0004173620077 0.0005547843899)
(0.01038659362 0.0002866200816 0.0005189497541)
(0.007688212902 0.0002968029008 -0.000113141069)
(0.01133389907 -0.001240540742 -0.000100354231)
(0.005663429455 0.0004478374761 0.0006318096905)
(0.009418155559 0.000345681386 -2.133131317e-05)
(0.007614223736 -7.099553316e-05 0.0004022823983)
(0.006978905429 -0.0002714321022 2.842200569e-05)
(0.008615613939 -0.0003360302248 0.0006525414993)
(0.005169829279 0.0001444647474 0.0001045367088)
(0.01054409024 9.992902087e-05 0.001205655619)
(0.01127869726 0.0006568389806 0.0004157430138)
(0.01196861997 0.001259334517 0.0002333859646)
(0.009187291815 0.001590577479 -0.0005112344409)
(0.0132050824 0.001140579273 0.000232058497)
(0.006376016584 0.000410415097 -0.0003141625041)
(0.007257775632 0.002081840896 -0.0008166516753)
(0.01250087041 0.0009382328353 6.19713874e-05)
(0.01384781872 0.00138848314 0.001001787101)
(0.01210253777 0.002399123016 0.0004620700484)
(0.01254691046 0.002935508402 0.0001783479526)
(0.009643851729 0.003721919118 0.001041579143)
(0.01576842973 0.005942070914 -0.0002378108351)
(0.009147254701 0.0003764833736 0.0001814900762)
(0.006321112187 0.000100577712 -0.0008243162246)
(0.005298090125 2.03005123e-05 0.0002741264406)
(0.008067942 -0.0001545963186 0.0009152528317)
(0.01079702132 0.001220792471 0.001152676172)
(0.009659037216 0.0001431603456 6.970286162e-05)
(0.006283070337 0.0002168994087 -0.0004781417638)
(0.0104040546 0.001023219383 -0.0001456951257)
(0.01464572545 -0.0002953572315 -0.001570464543)
(0.006132328931 0.000247556586 -0.0002972152766)
(0.01367111997 -0.0004833077715 -0.000765932081)
(0.01024538479 0.0005404281806 -0.0004622117399)
(0.01345091624 0.0004913780319 -0.0002251546298)
(0.01536205181 0.001155618219 0.0008262847477)
(0.01267063143 -2.625845298e-05 -0.0009040113738)
(0.005675759318 0.0001225332247 1.11824754e-05)
(0.01344184883 0.000181044034 0.001060947053)
(0.007945162738 9.965490889e-05 0.0004661755494)
(0.006703708595 0.000617925778 -0.0004026312652)
(0.01212091307 6.774233429e-05 -7.611365414e-05)
(0.01169484566 0.001416956394 -0.0005139749525)
(0.008036547791 -0.0008120240225 0.0005247523134)
(0.01051685389 0.001044865973 0.0001946944974)
(0.007740101848 0.001018787497 -0.0001969125339)
(0.007726080404 0.002464902974 0.0005832510025)
(0.01262324694 0.0007453089022 -0.0008414703772)
(0.007361958864 0.0007061192554 -7.67335664e-05)
(0.01480740027 0.002497962358 -0.001324647356)
(0.01337475328 0.003225276221 0.0002833362064)
(0.00690853176 0.001211848137 -0.000485415621)
(0.009907003954 -0.0002197324252 -0.0004730090268)
(0.01313380102 -0.0005355334416 -0.000133248671)
(0.003592081814 0.0002406556074 9.031312649e-05)
(0.01022544806 -0.0005788777823 0.0001553554019)
(0.00654751297 -8.446425156e-05 -0.0004227224036)
(0.008561605823 0.0009901387905 0.0007999732214)
(0.004974772917 5.116065705e-05 0.0002486225488)
(0.01211670013 0.0001814082047 -0.0002571150656)
(0.00848702711 0.000402234647 -0.0005233095838)
(0.008071564645 0.0005370685136 0.0003496813054)
(0.01002538905 0.001113766638 -0.0002285387361)
(0.003819378431 0.0001963098715 0.0001464138068)
(0.008047632326 -0.0003859299503 0.0001912580235)
(0.009196293069 0.0003578389446 -0.0008243246917)
(0.008273950796 0.0009310288586 -0.0001391916907)
(0.009845140179 0.0008879538508 0.0008277282286)
(0.01333076757 0.000242134561 -0.0002066929215)
(0.01090436934 -0.0003281513488 0.0004002194367)
(0.01134321453 0.001210190036 0.0002465117578)
(0.007936287517 -0.0007076474303 0.0004162040557)
(0.008782402956 0.0002572744377 -0.000447626619)
(0.008358730801 0.0009608387799 0.0007207061156)
(0.01475403313 0.0005618111698 -0.001231542792)
(0.009043359549 0.000523522849 -0.0008112644413)
(0.01281447255 0.0006370856708 -0.0003354501436)
(0.01642939327 0.0004398036143 0.0003359838546)
(0.01349392203 0.001312464473 -0.0003160989996)
(0.008583589418 0.001304194008 -0.0003917122957)
(0.006308009351 0.002563932513 -0.0002352051315)
(0.0101426166 0.002568117172 -0.0002656118147)
(0.00796224027 0.0003957975781 0.0006004379216)
(0.004809321436 0.0001571181651 0.0003543346279)
(0.007692004183 -0.0002381033388 -0.000465175225)
(0.008034863116 -0.0001775362019 -0.0002981179064)
(0.009182575032 0.00113770985 -0.0005274033595)
(0.005483516103 -0.0002460748289 0.0004916873239)
(0.00904317737 -0.0003839576217 -0.0004415906537)
(0.006695071219 -0.0005493644577 9.828850139e-05)
(0.005252250041 7.319823706e-05 -4.874822748e-06)
(0.009032260026 -0.0004520568227 0.0001628509438)
(0.00990957308 -0.0002017431285 -0.000190447242)
(0.0123118231 -0.0003181221304 -0.0003842369365)
(0.01230084117 0.0003882744469 -0.001295038309)
(0.007618434507 0.0003917876495 -0.0006081375005)
(0.008920284582 -0.000422166995 -0.0001996213472)
(0.005821721726 -0.0004224042945 -8.474291954e-05)
(0.004855279186 -9.594760152e-05 0.0004694752237)
(0.006115531131 0.0001544278766 0.000443580759)
(0.009141535093 0.0005172186521 -0.001030622367)
(0.01033352414 -0.0004049418751 -0.0001686307555)
(0.00949907934 -0.0007694937907 -0.0004726775803)
(0.005569249111 1.266752919e-05 0.0006611792466)
(0.005794733057 4.789873883e-06 0.0001921424022)
(0.01012699877 -0.001228873686 0.001272265837)
(0.01260479325 0.001829813252 0.0003436250593)
(0.01285446754 0.001684915574 -0.0006748854238)
(0.009328205086 0.0003537015466 0.0004516680625)
(0.01740425657 0.002147853576 0.001222392144)
(0.006086835201 0.000190378608 0.0001013127671)
(0.005829634381 0.0005002357375 0.001159789288)
(0.01356709606 -0.0006959659054 0.000683654383)
(0.005082645613 -0.0004418487575 -7.023310492e-05)
(0.01010094094 0.0003541920186 -0.0003989236518)
(0.009199155123 -0.0005155700726 0.0001150422481)
(0.003947646647 -0.0006167826941 0.0002801395565)
(0.01030542592 -0.0001089707407 0.0006463117594)
(0.008281187259 0.0002267014602 -0.0006010829585)
(0.003233565497 -0.000574753135 0.0004478746698)
(0.008840228385 -1.162947301e-05 -0.0006509864453)
(0.004740455935 -0.0001426813869 -0.0003359939401)
(0.006118093285 0.0003061110733 -0.0001096966921)
(0.006024700783 -8.425156746e-05 -0.0003556476558)
(0.005775656935 -0.0001531420534 0.0004135058938)
(0.01096878201 0.0001750868569 0.0008818947663)
(0.01099837341 0.0005124967656 0.0004537407278)
(0.0080667853 -2.661654198e-05 -0.0005186449197)
(0.007174958183 0.0005205849479 0.000308490851)
(0.008081314851 -0.0002542412686 0.0004063102934)
(0.005276111304 -3.309409173e-05 0.0006408885167)
(0.01014679026 -0.0004424448609 -0.0002484727599)
(0.007378918222 0.0008358254606 -0.0001311746395)
(0.005982763814 -0.0005341408275 0.0002827260298)
(0.006176019341 -4.406534543e-05 0.0001163872639)
(0.003646706518 0.0005601637754 0.0003457862552)
(0.01093330469 0.001968320946 -0.0009925879435)
(0.01221215528 -0.0001000492283 2.88926771e-05)
(0.008656095114 0.0003981193244 -0.0005077219462)
(0.01118482266 -0.0002466876934 0.001291125249)
(0.007856774776 0.002298735731 -0.0007286770934)
(0.009026287925 0.00166882237 -0.001008817687)
(0.008685673065 -0.0005928601503 0.0002808789439)
(0.01380828821 -0.0004936252138 -0.0003563499297)
(0.010069024 -0.0003734917693 -0.0004742994616)
(0.0102859459 4.724154648e-05 -0.0002914295375)
(0.008432305665 0.0008568047923 -6.957552668e-05)
(0.004064795913 -1.24199079e-05 5.237407758e-05)
(0.005063084795 -0.000236961384 -0.0004889128292)
(0.007121943914 0.0005407643942 0.0002740037087)
(0.01114158445 0.0006849103154 -0.000203752848)
(0.01807222672 0.0004313711159 0.001092453129)
(0.006711053724 0.0001957422701 -0.0005761346599)
(0.006990099503 -0.0008328101189 -0.0002737331562)
(0.008023179691 -0.0003200006329 -0.0006717179589)
(0.009778277949 -0.0007355312643 0.0001543136491)
(0.004778477904 0.0001302930964 -0.001019790141)
(0.007941764447 -0.0001136791371 0.0004021649259)
(0.01263399528 0.001110448357 0.0003933730254)
(0.005279609921 -0.0002884111857 -0.0001081295428)
(0.008938473207 0.000709170794 0.0006260259698)
(0.009244788659 0.000611052311 0.0004529935358)
(0.008315208886 0.0004258836359 0.0003172348166)
(0.01009663314 0.0006400724284 -0.0002199519161)
(0.008173113508 0.0004641058128 0.0008669686994)
(0.005118593984 0.000969633571 9.269091206e-05)
(0.009208888126 0.00136641562 -0.0005187046441)
(0.01395769189 0.0006066024281 -7.32091443e-05)
(0.01192372364 0.001165457218 3.916005295e-05)
(0.01083605367 0.002066580574 0.0004099763785)
(0.006040730891 0.002435425883 -0.001099556204)
(0.01028489452 0.0009287779352 -0.0001819771144)
(0.01137435872 -0.0002196122924 -0.001411494639)
(0.006810168172 -0.0006893305527 -0.000245954051)
(0.00788242659 -0.0005683175779 0.0003935680347)
(0.01274467665 -0.0006562195749 0.0002365656334)
(0.006662066064 -0.0001390382165 -0.000513221421)
(0.008522870851 0.0001829637166 3.878663497e-06)
(0.005923712408 -0.00120120704 0.001078003558)
(0.00726345154 1.029136296e-05 0.0004652077377)
(0.009103099615 -1.174548856e-05 0.0006425182027)
(0.007229627089 0.0005319994999 -0.0001052407424)
(0.0008969988306 4.689312604e-05 -0.0001795294242)
(0.006370088521 -0.0002848714521 0.0001810506599)
(0.003289830929 -1.219365853e-05 0.0002637884155)
(0.007212564254 -7.646179716e-05 0.0005958439499)
(0.006801637657 0.000721590736 -0.0007172194567)
(0.009896445158 -0.0008825102966 -0.0004472772692)
(0.003738378745 -0.0002778795143 0.0001876676087)
(0.006708880935 -0.0003711498272 0.0001517683949)
(0.005716144629 0.0005476820823 1.95139641e-05)
(0.007981624811 4.188212609e-05 -0.0001131323552)
(0.01029600984 0.001165070885 9.249392781e-06)
(0.006553822786 0.0005078178325 0.0007251150085)
(0.01303853983 -0.0002430181177 -0.0005521755816)
(0.007126153854 -0.0002748375437 0.0008588897393)
(0.01006681953 0.001259585843 -0.00020821585)
(0.008325838125 -0.0005093319483 4.689856944e-05)
(0.006481933792 0.0001763828214 0.0006057913464)
(0.00742475504 0.001366000475 0.0002264262127)
(0.008448483931 0.0008215388208 0.0002060675947)
(0.00830242056 0.001022815204 0.0001852537292)
(0.01061396665 -0.0009955860433 0.0004196798664)
(0.008496877797 5.076600226e-05 6.957568081e-05)
(0.01399262983 -0.0006349984168 0.0009238459302)
(0.005451210633 -0.0001105628831 0.0004774447546)
(0.005763359264 -0.0001712573145 -0.000298441578)
(0.007834298994 -0.0005015649095 -3.488509953e-05)
(0.007446571552 -0.0004419885781 -0.0005898729265)
(0.01058796355 -0.0003514055088 -0.0004209745109)
(0.007616771806 -0.0004167338985 0.0003043904243)
(0.006197999279 -0.0002040349468 0.0003690067335)
(0.007114024196 -0.0002293008827 -0.0004137210493)
(0.005687082374 -0.0004097895757 0.0002782725224)
(0.005607021394 -5.261166826e-05 0.0005048447429)
(0.007223162082 0.0006962079075 0.0003562219973)
(0.008647091652 -0.0005278684145 -0.0003263199714)
(0.008984175981 -0.000271006649 -0.0009221597098)
(0.003709622679 -0.0004838069204 -0.0005354385073)
(0.007869659298 -0.0006452182386 0.0002893388521)
(0.01546169726 -0.0002638341954 0.0002402582312)
(0.004599478039 0.00100023058 0.0001370915656)
(0.008598250625 0.0003223969788 -0.0009486239896)
(0.00333082683 0.0003704247531 -0.000444847078)
(0.00390909525 0.0006077378478 -2.257749042e-05)
(0.01067199161 -5.545142972e-05 0.0001646815837)
(0.01406437737 -0.00113638553 -0.0005024016204)
(0.01170750707 -0.0001394930714 -0.0006855969765)
(0.003721776707 -0.0003039101518 0.0004162742284)
(0.00820338697 0.0001181753992 -0.0004246469168)
(0.009322031175 -0.0005718430736 -0.001337385319)
(0.0175032015 -0.0003566915574 -0.001470198854)
(0.01527735323 -0.0003995512774 0.0003095145207)
(0.006615714352 0.0003877557553 -3.414790125e-05)
(0.01289387405 0.0002595371803 -0.0001336047575)
(0.01359655151 0.001023471356 -3.978962167e-05)
(0.01209914257 0.0003591365763 -0.0006780458186)
(0.006236255282 -0.0005383901426 7.185370911e-05)
(0.006436535742 0.0005237362031 -0.0002255317922)
(0.0136939945 -0.0008645169849 0.0001789428991)
(0.007774414418 0.0004752159728 0.0001537598199)
(0.01371422431 -0.0001867485952 0.0003562799326)
(0.007820726975 -0.0003944308632 0.0001072383186)
(0.005875642439 0.0001848187673 -0.0001250493652)
(0.01319384177 0.0004083040901 -0.000309195093)
(0.006347437802 -0.000775186238 -0.001053256498)
(0.002978835319 -0.0003472272753 -4.44402471e-06)
(0.008955388406 -0.001118152126 0.0003647254189)
(0.003976600591 0.0002495253553 0.0005094011244)
(0.009001277401 0.001021428269 -0.001003295651)
(0.004842485773 0.0002787562513 -7.977503873e-05)
(0.003984105709 6.496950297e-05 0.0001076229592)
(0.007576865151 2.140177719e-05 -0.0001729457416)
(0.003765305869 0.0009429371504 9.675929718e-05)
(0.009559522504 0.000134808872 0.0002761292064)
(0.01068631486 -0.0001728574087 -0.001004226901)
(0.005862775885 8.15406295e-05 1.21384009e-05)
(0.01005364288 0.0005335228321 9.945809619e-05)
(0.009844260929 0.001076140746 0.0002344611693)
(0.0132456222 0.0001928612239 0.001212576275)
(0.008290248764 0.000739337831 0.000230092482)
(0.01224492115 0.002083192408 0.001064245169)
(0.005547288581 -8.659616826e-05 0.0001934366057)
(0.01552954693 -2.541404847e-05 -0.0002814416844)
(0.00875790171 -0.0001502276162 -0.0002523975833)
(0.00441035738 -0.0002522518079 0.0003530214371)
(0.008138682108 0.0004553290458 -0.0001319544413)
(0.01464605168 0.001052029267 0.0007334422653)
(0.007223921253 0.0002941245063 2.972898965e-05)
(0.009401243089 0.0005499662766 -0.0003850077904)
(0.0145322647 0.00189597962 0.00055987119)
(0.0118638466 -0.0003182760615 -0.0008991067632)
(0.004084216559 -0.0002845794639 0.0001260028018)
(0.003815703179 7.942847312e-05 0.0001218642631)
(0.006374050414 -0.0001651305749 0.0008667207346)
(0.008994405704 -0.0003238566746 0.0002367875691)
(0.009369011351 -0.0003604324941 0.0002482741642)
(0.007225420936 0.0006389508224 -0.0007267472475)
(0.007646479931 0.00037665547 -0.0006117414031)
(0.009078415932 0.00068771452 0.0005390090777)
(0.006116734903 0.0006088006816 -0.0001931284371)
(0.006865302193 0.000209861832 0.0002952601658)
(0.007975550806 -0.0005209362108 -5.81318677e-05)
(0.008761621062 0.0003849590168 -0.0004477303848)
(0.005752260096 0.0003222355507 0.000601951331)
(0.01097296086 0.0002838244563 0.0007345086139)
(0.003815330995 -0.0001554423588 -0.0001115948958)
(0.00770674312 -7.271403414e-05 0.0002108846406)
(0.01388332785 0.0004523243542 -0.001566059785)
(0.01197108983 0.0003504068026 0.0001323666313)
(0.002580675942 -0.000167130603 0.0001682824667)
(0.01241005002 0.0001927941923 -0.001187338899)
(0.007224207186 -0.0003792056357 0.000231143126)
(0.007275054081 -7.634145751e-05 0.0001495929876)
(0.005892727015 0.0003187087039 -0.0002435841955)
(0.006874727753 0.0003334566498 0.0007305256878)
(0.005897777119 -0.000818741028 0.0001289885819)
(0.005954764669 5.702817331e-05 -0.001041660746)
(0.002147388124 -0.0002182702079 -0.000274813914)
(0.005273668725 0.000512896765 -4.501398903e-05)
(0.01373780265 0.0003801005332 -0.0008785644344)
(0.008411615998 0.0001817874625 0.0002759222084)
(0.009534659552 -0.0009020869948 -0.0004055974542)
(0.01083560496 0.0006227750843 -7.657710967e-05)
(0.006401627205 4.521654415e-05 0.0003552370163)
(0.007188047011 -0.0001550710252 -0.0003043167773)
(0.004330953222 -0.0003452923552 0.0002066881704)
(0.008555624701 -0.0001921784773 0.0005132226078)
(0.01158872357 0.0003164374834 -0.001226527387)
(0.009377494741 -2.272187674e-05 0.0001760518851)
(0.01169970718 -0.0002857246609 0.0003487479761)
(0.008522051238 0.0002365027569 -0.0007238405292)
(0.01417050325 -0.0005715881993 -0.00020299838)
(0.004204646852 -3.559924592e-06 0.0003860531347)
(0.004351786897 0.0002903112886 0.0002678998312)
(0.006216070492 0.0004599246203 0.000163590215)
(0.007615252863 0.0005011501025 0.0004249956954)
(0.007179965512 0.0005783971482 -0.0005044600752)
(0.008603550686 -0.0003263886891 3.040502839e-05)
(0.00936763371 -0.0002653831744 0.0006397682406)
(0.008242214575 -0.0002214189577 -0.0001125171564)
(0.007667863415 0.001033941346 -0.0001199062879)
(0.004587050303 -2.674531997e-06 0.0002577193676)
(0.008385106867 -9.827363832e-05 -0.0004976383309)
(0.01203344005 -4.338716186e-05 -0.0005978372864)
(0.006144266785 0.000331416306 0.0001436054041)
(0.007413210666 -0.00032435239 5.065375004e-05)
(0.004691074523 3.107997598e-05 -0.0002119472724)
(0.009146996647 0.0005060043982 0.0001936905486)
(0.004573034755 -0.0003735442745 -0.000131198937)
(0.009618790941 0.0002759880568 -0.0007570813232)
(0.005585535318 0.0003969321965 3.273893178e-05)
(0.007443203992 -0.0009749058499 -0.0004768264521)
(0.009993740189 -0.0007829327099 -0.0008073216842)
(0.007015832127 -8.063424732e-05 -0.0003875500487)
(0.007037959435 0.0003584143713 -0.0002762832408)
(0.01646669968 0.0005012062224 0.0007035979492)
(0.01113440415 4.440453707e-05 -0.0007690975552)
(0.00913119492 -1.76820482e-06 -0.0001108647622)
(0.005404560018 -8.0511384e-05 -6.057485033e-05)
(0.009744310552 -0.0008852623335 0.0007003422879)
(0.006702760876 -0.0002708237446 0.0001452390026)
(0.007802505722 5.096793349e-05 -0.0001016386518)
(0.01585702361 -0.0003263555863 0.0009762144221)
(0.01196601335 0.000541044791 -0.001617888044)
(0.009881700525 0.0006799463892 0.0005227646676)
(0.008591187986 -0.0007359295145 -0.0002355034846)
(0.009971804624 -0.000165730124 -0.001767696193)
(0.005249540625 0.0002714167435 -0.0001268786407)
(0.007269153945 -0.0002476458621 -0.001342609608)
(0.00999469821 -0.0002329733322 -0.001168280881)
(0.001954749803 8.578034836e-05 -0.0004680551609)
(0.01156763951 0.000584702015 1.677808159e-05)
(0.0082952006 -0.0001830026497 0.00194484941)
(0.01247284662 1.308198406e-05 -0.0006881248354)
(0.008927312071 -2.225377759e-05 -0.0002701514662)