/*--------------------------------*- C++ -*----------------------------------*\
| =========                 |                                                 |
| \\      /  F ield         | OpenFOAM: The Open Source CFD Toolbox           |
|  \\    /   O peration     | Version:  2406                                  |
|   \\  /    A nd           | Website:  www.openfoam.com                      |
|    \\/     M anipulation  |                                                 |
\*---------------------------------------------------------------------------*/
FoamFile
{
    version     2.0;
    format      ascii;
    arch        "LSB;label=32;scalar=64";
    class       volVectorField;
    location    "0.008";
    object      momentumMean;
}
// * * * * * * * * * * * * * * * * * * * * * * * * * * * * * * * * * * * * * //

dimensions      [1 -2 -1 0 0 0 0];

internalField   nonuniform List<vector> 
654
(
(0.01516932079 0.004802704566 -2.725291129e-05)
(0.01569126168 0.005054532638 -1.018719739e-05)
(0.01586462774 0.005168532551 6.847560274e-06)
(0.01575356559 0.005100418081 -1.55515055e-05)
(0.01575917421 0.005031742291 -3.925146334e-06)
(0.01579459903 0.005020563668 -1.390904135e-07)
(0.01353069636 0.003583629322 -4.453575856e-07)
(0.01402152678 0.003861091302 -1.251898411e-05)
(0.01446229072 0.004211663098 -3.965199492e-05)
(0.01491406801 0.004443655466 -7.008404723e-05)
(0.01529879719 0.004724978668 -1.0514632e-05)
(0.01560254441 0.004915537698 -6.797189495e-05)
(0.01570436599 0.004916747442 -4.265600317e-05)
(0.0157996795 0.005044413661 -2.376490226e-05)
(0.01606193828 0.005180726342 -3.084881989e-05)
(0.01604001365 0.005107569287 -1.307859442e-05)
(0.01594692214 0.00502781441 1.038816606e-05)
(0.01059217767 0.00164136768 9.662053101e-06)
(0.01103891711 0.001882881896 -1.775298686e-05)
(0.01141800605 0.002145424106 4.244456028e-06)
(0.01185652573 0.002436322622 -3.310349052e-05)
(0.01233192191 0.002735628941 -1.888549104e-05)
(0.01290476869 0.003155349017 -3.449340104e-05)
(0.01336322325 0.00341387472 -1.960035732e-05)
(0.01383117207 0.003701594976 -6.651494578e-05)
(0.01434878461 0.004049099921 -5.937832828e-05)
(0.01480024018 0.004331396466 -2.765866082e-05)
(0.01520383669 0.004624519025 -1.950269974e-06)
(0.01551025221 0.004841503353 -3.470724671e-05)
(0.01568191259 0.004899047936 -1.90730812e-05)
(0.01581522428 0.00495586855 8.856749217e-06)
(0.01597179077 0.005076391021 -3.609317587e-05)
(0.01601091096 0.00503121933 -2.525830203e-05)
(0.008883664075 0.0004415612357 4.939601451e-06)
(0.009002241422 0.0005155441174 3.182698162e-07)
(0.009086129187 0.0006172138365 6.566425813e-06)
(0.009300081924 0.0007520768081 3.049096459e-05)
(0.009521264459 0.0008993121446 3.002168201e-05)
(0.00977961327 0.001060663316 -1.355015372e-05)
(0.01001122517 0.001219773978 -1.374241536e-07)
(0.01036469885 0.00146656389 -1.363231828e-05)
(0.01084129212 0.001701999282 -1.989679603e-05)
(0.01120903699 0.001996808969 -2.06819967e-05)
(0.01170567589 0.002266620311 -2.904741809e-05)
(0.01214145775 0.002573183003 4.664928368e-06)
(0.01271252991 0.002966075613 -2.712992226e-05)
(0.0131466151 0.003248987361 1.499320387e-05)
(0.01362597411 0.003550479189 -2.147657542e-05)
(0.01410788571 0.003880284111 -4.057209175e-05)
(0.01458573348 0.004193829917 -4.287676392e-05)
(0.01502262536 0.004515288917 -4.50733601e-05)
(0.01542787333 0.004695014069 -8.679260838e-06)
(0.01571127227 0.004851536827 8.798247684e-06)
(0.01585754144 0.004951632771 4.795963988e-06)
(0.01612150178 0.005016519418 3.400678207e-06)
(0.008401865059 7.476117725e-05 1.676952019e-05)
(0.008396153819 9.204154278e-05 1.553509867e-05)
(0.008381205308 0.000122429443 1.990110141e-05)
(0.008435834935 0.0001486563133 1.311795502e-05)
(0.008570540304 0.0001891478536 6.086988816e-06)
(0.00863782526 0.0002283433689 2.738614595e-06)
(0.00871355527 0.0002806601534 6.027582737e-06)
(0.008773358901 0.000328387277 1.062331168e-05)
(0.008930119617 0.0004039157988 -9.982888051e-06)
(0.009058116914 0.0004867149821 -2.000234006e-05)
(0.009187673906 0.0005739001774 -3.050397327e-05)
(0.009357728744 0.0006945643229 -2.139459712e-05)
(0.009561817737 0.0008220222293 -9.959328127e-06)
(0.009835943903 0.0009897155909 -1.760915424e-05)
(0.01005432086 0.001165648496 -9.455088882e-06)
(0.01031366141 0.001357774706 -2.067288801e-05)
(0.01071015406 0.001565957331 -7.864459702e-06)
(0.01107208783 0.001839042053 -8.461323186e-06)
(0.01149982545 0.0021128163 6.794893364e-06)
(0.01196544898 0.002448347873 1.115691961e-05)
(0.01252605087 0.002819033883 -3.323355184e-05)
(0.01297037707 0.00309637408 8.65011116e-06)
(0.0135370693 0.003437945686 -5.766747807e-06)
(0.01404566725 0.003760285402 -2.467723351e-05)
(0.01459276353 0.004054112897 -1.135477586e-05)
(0.01509349647 0.004376665011 -5.386379554e-06)
(0.01539465149 0.004577973958 -4.216910001e-05)
(0.01575441113 0.004735350473 7.641770093e-06)
(0.01597445631 0.004927262431 7.899843394e-06)
(0.00845753892 5.962208767e-05 -8.087841771e-06)
(0.008470521754 8.167209743e-05 -6.526697549e-06)
(0.008527112499 9.596425374e-05 1.112808274e-05)
(0.008600481729 9.648851684e-05 7.676463604e-06)
(0.008601429458 0.000106949417 8.164367328e-06)
(0.008579661647 0.0001365162434 1.450190105e-05)
(0.008620379266 0.000191873551 1.32747382e-05)
(0.008680107452 0.0002353996026 -4.455890052e-06)
(0.008737931422 0.000260611525 -1.271254908e-05)
(0.008790190693 0.0002959783074 -2.028998956e-06)
(0.008847822789 0.0003557464919 -2.244718782e-07)
(0.009018873452 0.0004330102143 4.092679809e-06)
(0.009120987062 0.0005305790783 2.008691338e-06)
(0.009315233049 0.0006321517706 2.289997442e-05)
(0.009442673881 0.0007526687671 3.14659447e-05)
(0.009731768904 0.0008969350585 2.614020745e-05)
(0.009919565682 0.001071778806 8.490008169e-06)
(0.01019477186 0.001269978579 -2.255143479e-06)
(0.01051079614 0.001466424661 -1.522041557e-05)
(0.01081730299 0.00170825577 -2.539112098e-05)
(0.01130678617 0.001981616311 -2.201345538e-05)
(0.01176741393 0.002292516001 -2.558763686e-05)
(0.01232269509 0.002634308959 -2.479105943e-05)
(0.0127501943 0.002892982558 2.443138764e-05)
(0.01333560085 0.003262762302 7.63486665e-07)
(0.01390085352 0.003620997812 -2.444242613e-05)
(0.01431245947 0.003902795822 -2.643161455e-05)
(0.01486398288 0.00420989648 -4.083368691e-05)
(0.01521571872 0.004452732965 -5.436171497e-05)
(0.01556189034 0.004646830988 -3.422729052e-05)
(0.008405263897 4.949348296e-05 6.038966869e-06)
(0.008386491361 3.8848027e-05 6.794491841e-06)
(0.008400156773 6.192185528e-05 7.529187862e-06)
(0.00842504588 7.277760421e-05 5.190031469e-06)
(0.008452635229 9.004466122e-05 -4.412059799e-06)
(0.00848040294 0.00011080475 1.866922491e-06)
(0.0085501749 0.0001220043858 6.678559315e-06)
(0.008617755916 0.0001445635879 8.060443983e-06)
(0.008669972645 0.0001902650829 4.459148702e-06)
(0.008776869969 0.000244349843 -2.840905982e-06)
(0.008839792326 0.0002900563639 -1.153803112e-05)
(0.008839007401 0.0003299466643 -2.027364296e-05)
(0.008932070619 0.0004007848861 -2.248697177e-05)
(0.009063725071 0.0004896691701 -2.344639815e-05)
(0.00918365872 0.0006105713256 -2.354508018e-05)
(0.009309525737 0.0007057972857 -2.736008238e-05)
(0.009467707281 0.0008369863447 3.242606396e-06)
(0.009641631076 0.0009911169589 -9.39499271e-06)
(0.009986426971 0.001157748286 1.02868693e-05)
(0.01026953182 0.001335014069 3.587153828e-06)
(0.01056217941 0.001532150514 8.595842727e-06)
(0.01101775194 0.001851682466 6.641378889e-06)
(0.0115437304 0.00215028953 -2.829050219e-05)
(0.01204167639 0.002442169626 -2.131066351e-05)
(0.01257098976 0.002753697938 -3.589614101e-06)
(0.01302451812 0.00305735676 1.70166237e-06)
(0.01366871531 0.003439624693 -5.479461477e-06)
(0.0142491528 0.003786415867 -2.232941633e-05)
(0.01481319118 0.004088501133 -6.411154414e-05)
(0.01518976902 0.004333233937 -6.688878553e-05)
(0.008433837985 4.301707954e-05 7.416964177e-06)
(0.008474121878 4.540079703e-05 3.451005213e-06)
(0.008459001333 4.061671514e-05 -6.963403825e-06)
(0.008471869835 5.310835626e-05 -1.530372002e-05)
(0.008516926668 6.867780459e-05 -1.723428498e-05)
(0.008471731984 8.800566086e-05 -2.281706631e-05)
(0.00844702822 0.0001071806088 -1.537190089e-05)
(0.008441035574 0.0001185993303 -1.558692385e-05)
(0.008481833895 0.0001430238071 -8.87242732e-06)
(0.008481097415 0.0001681651382 6.964285381e-08)
(0.00848524235 0.0001919079562 -4.457425873e-06)
(0.008636446382 0.0002449414285 -6.995662696e-06)
(0.00874127662 0.0002910383422 7.483789142e-06)
(0.008812885638 0.0003723365865 -1.431099907e-06)
(0.008972031342 0.0004582991042 -7.002180973e-06)
(0.009144720635 0.0005637717637 -9.869300196e-06)
(0.00932489118 0.0006615784885 -1.259601696e-05)
(0.009559028019 0.000794231379 -1.494367237e-05)
(0.009634569893 0.0009250233467 -2.558985975e-05)
(0.009836695198 0.001085848897 -1.280293257e-05)
(0.0102128509 0.001268124132 -1.10513681e-05)
(0.01050314289 0.001481679047 -1.614144116e-05)
(0.01082244053 0.001656851932 -1.044268958e-05)
(0.01132801378 0.001985451936 -3.612036974e-05)
(0.01177762088 0.002302057293 -2.106571838e-05)
(0.01224091197 0.002578879023 -1.837640945e-05)
(0.01275020849 0.002933902081 -2.891920741e-05)
(0.01327197218 0.003268800996 9.51818116e-06)
(0.01379470229 0.003606894196 1.771658462e-05)
(0.01433032707 0.003880161622 -1.640030083e-05)
(0.008395044908 2.149072981e-05 -6.058682919e-06)
(0.008380840215 2.964258238e-05 -1.952909354e-06)
(0.008417455588 4.046408267e-05 -5.294216804e-06)
(0.008417540331 5.213559011e-05 -6.684942051e-06)
(0.008397746899 7.704566043e-05 4.098131109e-06)
(0.008403681021 7.973941282e-05 -2.4201952e-06)
(0.008452943205 8.722460643e-05 -2.208128999e-05)
(0.008504880257 8.902303143e-05 -1.682485684e-05)
(0.008488093958 0.0001105862654 -1.763969385e-05)
(0.008539434318 0.0001263423417 -1.364544113e-05)
(0.008527992324 0.0001700963132 -9.136579633e-06)
(0.008629426476 0.0002055813774 -2.117013114e-05)
(0.008653914372 0.000246335772 -1.109556344e-05)
(0.00866318658 0.0002705250894 -2.192558635e-06)
(0.00874482305 0.0003227414431 -6.207809167e-06)
(0.008900538186 0.0004033641043 -2.576355425e-05)
(0.008972032311 0.0004988649411 -2.540921455e-05)
(0.009132715487 0.000635284385 -2.688359541e-05)
(0.009371252489 0.0007335924528 -3.357573519e-05)
(0.009610879626 0.0008691089639 -4.501295998e-05)
(0.009809411613 0.0009878458464 -3.94058012e-05)
(0.01009791182 0.001181678646 -1.729011679e-05)
(0.01038375866 0.001386687548 -1.853960007e-05)
(0.01064276101 0.001590372211 -1.452847829e-05)
(0.01104998484 0.001843515599 -1.548459068e-05)
(0.01159604575 0.002194877799 -3.71256765e-05)
(0.01209740105 0.00246892996 -2.153842285e-05)
(0.01258531698 0.002767055153 -1.58621326e-05)
(0.0131568294 0.003087792106 1.067539769e-05)
(0.01378306115 0.003475963965 7.27102968e-06)
(0.008278788309 -4.138464192e-06 -2.337668961e-06)
(0.008299106073 3.646785561e-06 -6.259229841e-06)
(0.008294440292 3.066266114e-05 4.417187961e-06)
(0.00828088644 3.595001827e-05 3.381061284e-06)
(0.008349613262 4.102384537e-05 6.6631411e-06)
(0.008383743843 5.437603397e-05 7.9226523e-06)
(0.008429842092 6.011456422e-05 1.642545516e-05)
(0.008442243652 8.793580664e-05 9.686035657e-06)
(0.008472598546 9.548072348e-05 1.125356597e-05)
(0.008435135296 0.0001067481466 9.069977948e-06)
(0.008538531402 0.0001339942836 5.163066175e-06)
(0.008525450541 0.0001587401392 1.450298899e-05)
(0.008529044455 0.0001774088481 -2.720100685e-06)
(0.008624569361 0.000223708225 -1.263821384e-05)
(0.008700575789 0.0002687487919 -1.754010137e-05)
(0.008724413005 0.0003055897107 -1.704444169e-05)
(0.008852078946 0.0003739794366 -1.025032931e-05)
(0.009050888722 0.0004530028346 7.645251159e-06)
(0.009241209472 0.0005637052362 6.71313563e-06)
(0.009317226214 0.0006739967114 -1.358189042e-05)
(0.00951887425 0.0008020152364 -5.467895974e-06)
(0.009759197496 0.0009359353809 -1.954666245e-05)
(0.01012890838 0.001143822248 -1.10240835e-05)
(0.01040704692 0.001294952098 -7.498953584e-06)
(0.01076401375 0.001526089537 -7.602866666e-06)
(0.01118717928 0.001749817436 -1.310222685e-05)
(0.01159577588 0.002041190432 -5.057641196e-06)
(0.01204611943 0.002383550443 -3.924685423e-06)
(0.01248569119 0.002714153086 -2.222784063e-06)
(0.01288586756 0.002977087325 1.815576204e-05)
(0.008281369515 1.386153859e-05 1.25426559e-05)
(0.008293899811 1.371528381e-05 2.47068865e-06)
(0.008353250709 9.216571443e-06 -3.267332161e-06)
(0.008363676842 6.853884029e-06 2.184104914e-06)
(0.008383214574 1.631495062e-05 -3.017928987e-06)
(0.008392146191 2.295329773e-05 1.889071154e-06)
(0.00836792594 4.237022286e-05 3.344733999e-06)
(0.008369812329 5.532041978e-05 1.178189872e-05)
(0.008432077676 7.743217554e-05 -9.705264205e-08)
(0.008489556788 8.901252229e-05 -5.270286747e-06)
(0.008477221328 0.0001062956442 -4.340209864e-06)
(0.008471216141 0.0001359499095 -4.276239454e-06)
(0.008526543548 0.0001647052366 1.449186639e-05)
(0.008589220668 0.0001877188476 7.9771199e-06)
(0.008562305173 0.0002072952939 4.326961544e-07)
(0.008578358981 0.0002326053558 2.401325536e-06)
(0.008590180311 0.0002761921555 7.288563719e-06)
(0.008722990369 0.0003445950738 -1.201335564e-05)
(0.008838034724 0.000407738876 -3.914691762e-06)
(0.009032679812 0.00050428385 1.434037396e-06)
(0.00925662661 0.0005821006173 -2.198997321e-05)
(0.009504380799 0.0007065346247 -2.600399474e-05)
(0.009685712424 0.0008394812509 -1.74446219e-05)
(0.01002098304 0.001021169789 -2.069463031e-05)
(0.01029605332 0.001191583824 -2.89837501e-05)
(0.01059466305 0.001436552716 -2.003092781e-05)
(0.01101150175 0.001718339169 -1.798498121e-05)
(0.01137763404 0.001974657543 2.297329128e-06)
(0.01190819506 0.0022608691 -2.491096918e-05)
(0.01251961868 0.002556185796 -5.124912317e-05)
(0.008484242771 1.689040579e-05 -2.385349924e-05)
(0.008435353877 2.016502621e-05 -1.763234176e-05)
(0.008376200032 1.334523553e-05 -1.271160231e-05)
(0.008376652168 9.736123771e-06 -7.692415073e-06)
(0.008355710343 1.837993e-05 -1.031804511e-05)
(0.008386549571 3.47738823e-05 -7.291561518e-06)
(0.008389696091 3.563514415e-05 -7.121317433e-06)
(0.008380092723 4.592985853e-05 -5.274922835e-06)
(0.008373366635 5.607140454e-05 -8.368696543e-06)
(0.008339951751 7.338411631e-05 3.476927086e-06)
(0.008411040038 8.782921176e-05 1.933523706e-06)
(0.008478805965 0.0001104685304 -1.124538705e-05)
(0.008457815227 0.000123919253 -1.34860061e-05)
(0.008445455163 0.0001304605396 -1.079673105e-05)
(0.00855439518 0.0001690288872 -1.081274969e-05)
(0.008684282658 0.0002060370146 -9.319357912e-06)
(0.008743526463 0.0002242398708 -1.785250233e-05)
(0.008748580004 0.0002550977994 1.220401069e-05)
(0.008894933543 0.0003083924924 -1.241277174e-05)
(0.008912103651 0.0003826862357 5.667535815e-06)
(0.009068892067 0.0004484778729 1.53993837e-05)
(0.009159646989 0.0005366437181 1.055835868e-05)
(0.009315440694 0.0006694990614 1.121014999e-05)
(0.009495968176 0.000795990065 9.290874102e-06)
(0.009740564887 0.0009451706265 6.300253455e-06)
(0.01003846941 0.001137442473 1.043144267e-05)
(0.01037396979 0.001340283422 -1.218624718e-06)
(0.01081509672 0.001576091152 -1.115860908e-05)
(0.01134776358 0.001836597445 -2.872705687e-05)
(0.01179452845 0.002108888889 -2.915943726e-05)
(0.008284504883 -1.636424091e-06 2.88819403e-06)
(0.008347886594 7.31772131e-06 -1.942736572e-07)
(0.00833563511 2.054506941e-05 -9.00734266e-06)
(0.008303713074 2.61741713e-05 -2.213811513e-05)
(0.008262291133 2.85600456e-05 -1.90627168e-05)
(0.008288787118 1.936831727e-05 -1.8866755e-05)
(0.008299489375 2.67612624e-05 -9.204572288e-06)
(0.008266769444 3.377826536e-05 -2.435900115e-05)
(0.008282462915 5.340359366e-05 -1.838643614e-05)
(0.008333255549 5.536328749e-05 -1.457801749e-05)
(0.008355520053 5.851399894e-05 -1.452163515e-05)
(0.008337434552 5.833033715e-05 -1.624471102e-06)
(0.008437549456 7.755556785e-05 -5.475571543e-06)
(0.008472792098 0.0001027204734 1.674016698e-05)
(0.008485822422 0.0001339247481 2.341143209e-05)
(0.008585818965 0.0001483420662 1.373658015e-05)
(0.00864849879 0.0001648292291 1.333022944e-05)
(0.008707937887 0.0001804056336 1.082849989e-06)
(0.008716341016 0.000245036247 -4.886688307e-06)
(0.00881739898 0.0002916655703 2.710595368e-06)
(0.008877271499 0.0003735535206 -3.217970927e-06)
(0.008961339399 0.0004285555392 -9.593306154e-08)
(0.009047551148 0.0005200048556 -5.815977396e-06)
(0.009200085791 0.0006455800855 -2.25565576e-06)
(0.009400450553 0.0007489548523 1.010138328e-05)
(0.009658148355 0.0008625648237 6.398653246e-06)
(0.009926559536 0.001028742439 5.570780366e-06)
(0.01032495994 0.001233676032 -2.95879473e-05)
(0.01065970698 0.001452092543 -1.495968317e-06)
(0.01108906055 0.001730502609 6.666975353e-06)
(0.008250672042 -3.075274651e-06 -1.825171518e-05)
(0.008244100519 3.432710204e-06 -2.30740215e-05)
(0.008261466884 9.895708349e-06 -1.887946031e-05)
(0.008253058364 1.702298693e-05 -1.676982304e-05)
(0.008296005717 2.669508814e-05 -9.323328641e-06)
(0.008241096151 2.778601223e-05 -1.489299025e-05)
(0.008302065856 2.647345167e-05 -2.203204547e-05)
(0.008283873886 2.241461267e-05 -6.276130235e-06)
(0.008315156485 2.350568372e-05 -6.728442893e-08)
(0.008377845951 3.500408553e-05 -5.499189075e-06)
(0.008355386711 5.234163277e-05 -7.56888415e-06)
(0.008397765278 5.967761134e-05 3.430787356e-06)
(0.008388217813 4.694693739e-05 -2.221256037e-06)
(0.008472931421 3.748157482e-05 -1.393511012e-05)
(0.008536447427 6.611327697e-05 -1.084474589e-05)
(0.008523451672 0.0001095471465 -1.843321663e-05)
(0.008539082531 0.0001403896482 -1.447631989e-05)
(0.008573177456 0.0001784525145 5.563485011e-07)
(0.008545544037 0.0001977199751 3.494100919e-07)
(0.00866719666 0.0002272554119 -7.044729289e-06)
(0.008695296833 0.0002551333525 1.586312391e-06)
(0.00881720489 0.0003469775965 -9.200054944e-06)
(0.00898804198 0.0004244690683 3.756571478e-06)
(0.009140111471 0.0004730907394 1.098302361e-05)
(0.009317062782 0.0005816064241 1.602403653e-05)
(0.009551493871 0.0006809206256 2.608767043e-05)
(0.009734264554 0.0008339568904 2.037063482e-05)
(0.009923018817 0.000979219119 2.736713232e-05)
(0.01024045999 0.001157308829 1.488051966e-05)
(0.01059530867 0.001399680333 1.767170168e-05)
(0.008233268421 1.269201349e-05 -1.051104888e-05)
(0.008206327722 1.863035032e-06 -9.737478572e-06)
(0.008218516451 1.404484179e-06 -6.3438623e-06)
(0.00827586801 2.335972459e-06 -6.933891685e-06)
(0.008249582903 -1.909161978e-06 -1.061968233e-06)
(0.008341890933 4.536414675e-06 3.091941926e-07)
(0.008388077902 8.572602932e-06 5.782619521e-06)
(0.008414036824 1.250203967e-05 -4.324919705e-06)
(0.008380098572 2.069797509e-05 -1.663868083e-05)
(0.008378987639 2.653530434e-05 -2.313418044e-05)
(0.008365127057 2.015297537e-05 -1.721824796e-05)
(0.008423649828 2.504679361e-05 -1.713480606e-05)
(0.008388002634 5.197850491e-05 -8.11153938e-06)
(0.008394325748 6.916182263e-05 5.692332466e-07)
(0.008322687978 7.233280731e-05 4.396870659e-06)
(0.00838008344 7.220866172e-05 -1.750870363e-06)
(0.008378657725 7.941866441e-05 4.59878078e-06)
(0.00836869533 0.0001191162279 -1.496238064e-05)
(0.008446537403 0.0001522494413 -3.929504852e-06)
(0.008489713755 0.0002076747276 1.196634888e-05)
(0.008504215969 0.0002186063527 1.32166285e-05)
(0.008589264646 0.0002464981676 1.87734727e-05)
(0.008637536791 0.0002762196702 3.510889684e-06)
(0.008748023131 0.0003539818468 -4.283794358e-06)
(0.008932647445 0.0004016933324 -1.230198413e-05)
(0.009099774258 0.0005101341632 -1.642231742e-05)
(0.009322917108 0.0006360092934 -1.091063017e-05)
(0.009574593174 0.000786449338 2.775964132e-06)
(0.009718179974 0.0009298045218 3.079278057e-06)
(0.01001018818 0.001128465796 7.570235093e-06)
(0.008349540521 1.198929497e-05 1.698536608e-05)
(0.008317789709 1.429760916e-05 1.863163729e-05)
(0.008323623365 4.326063523e-06 2.223065567e-05)
(0.008334765217 -5.145811037e-06 1.035355782e-05)
(0.008338133053 -9.497746352e-06 2.885144289e-06)
(0.008365385232 -1.442406963e-05 -2.670075182e-06)
(0.008331695324 -1.376419907e-05 -9.632985488e-06)
(0.008381895303 4.49323979e-06 -6.475066291e-06)
(0.008432004185 7.928319563e-06 -3.991746861e-06)
(0.008409051995 1.505165299e-05 -7.606690825e-06)
(0.008385003692 3.516477656e-05 -1.6483927e-05)
(0.008364308323 4.516805384e-05 -2.190461656e-05)
(0.008367592061 4.424166529e-05 -1.549993612e-05)
(0.008321574395 5.715960457e-05 -1.729525376e-05)
(0.00832423314 7.547496348e-05 -1.719121718e-05)
(0.008315147597 0.0001003820057 -1.134897799e-05)
(0.008297015137 0.0001074919311 -3.304671156e-06)
(0.008360090642 0.0001073079828 6.701862481e-06)
(0.008375110209 0.0001069227328 4.000510242e-06)
(0.008453947002 0.0001207749229 -1.06971131e-05)
(0.008514622827 0.0001585560231 -1.922760975e-05)
(0.008629350046 0.0001840179366 -1.215100417e-05)
(0.008734840271 0.000230202094 7.064417299e-06)
(0.008821933735 0.0002904270891 1.337318596e-07)
(0.008825126085 0.0003343252327 2.808337038e-06)
(0.008899031691 0.00039909843 -1.307518644e-05)
(0.00900849955 0.0004725904854 -2.783536602e-06)
(0.009219189331 0.0005765607137 -8.476007709e-06)
(0.009522227516 0.0007292763409 -8.764837423e-06)
(0.009754621714 0.000869008773 -8.531609894e-06)
(0.008345686461 1.263339003e-05 -1.087173865e-05)
(0.00840184733 2.416714572e-06 -1.343051472e-05)
(0.008437807337 5.139996463e-06 -1.437737806e-05)
(0.008360199879 1.126975959e-05 -2.179257633e-05)
(0.008331067419 1.163046844e-05 -1.442671815e-05)
(0.00827818143 9.524683386e-06 -4.324665467e-06)
(0.008228097078 1.561022109e-05 2.576272278e-06)
(0.008209948437 -7.540713579e-06 1.191883751e-06)
(0.008154731294 -6.370491181e-06 -1.997000312e-06)
(0.008184515431 1.701331818e-06 2.680644577e-06)
(0.0082117199 1.469403986e-05 6.695930201e-06)
(0.008227516282 3.717745334e-05 7.085633738e-06)
(0.008264833207 5.72916086e-05 7.624435192e-07)
(0.008340111404 5.152026354e-05 -1.313981945e-05)
(0.00838903341 5.682160105e-05 -1.707833885e-05)
(0.008435378913 4.654512141e-05 -1.639000467e-05)
(0.008496164622 6.107626463e-05 -1.74935664e-05)
(0.00853756295 7.643282279e-05 -2.002308859e-05)
(0.008630998222 9.519605617e-05 -1.663580417e-05)
(0.008636807542 9.990212039e-05 -8.930189826e-06)
(0.008720567543 0.0001200951682 -8.519769162e-06)
(0.008708366795 0.0001539030339 -2.14543343e-05)
(0.008640565251 0.0001941123512 -3.153940037e-05)
(0.0086747321 0.0002479897603 -3.044127379e-05)
(0.008736068898 0.0002850643156 -2.181195159e-05)
(0.00875589415 0.0003230900444 -1.057022635e-05)
(0.008876621946 0.000390395536 -1.693647647e-05)
(0.008987525843 0.0004625163524 -1.211549497e-05)
(0.009089005415 0.0005498198881 -5.727467299e-06)
(0.009328802738 0.0006674407926 -9.077003726e-06)
(0.008385804889 -3.297043885e-06 -1.7669103e-05)
(0.008357977135 5.925597908e-06 -8.571530131e-06)
(0.008379197724 1.733049539e-05 -6.554674651e-06)
(0.00837532554 2.224822981e-05 -3.813382618e-06)
(0.008376481242 2.658320968e-05 -1.126322441e-05)
(0.008410346725 3.100205393e-05 -1.465313357e-05)
(0.008395265137 1.914054981e-05 -1.386004437e-05)
(0.008413317481 2.923705721e-05 -1.719407676e-05)
(0.008344124041 2.795402028e-05 -1.856033327e-06)
(0.008325009753 1.362277088e-05 1.100830626e-05)
(0.008294300119 2.010917864e-05 1.026500157e-05)
(0.00833721354 5.107286352e-06 1.356680452e-05)
(0.00835180252 2.036232859e-05 1.766855559e-05)
(0.008371952649 2.999848135e-05 1.036027204e-05)
(0.008390156139 9.616332775e-06 1.201310405e-05)
(0.008383714775 2.569480488e-05 7.893267666e-06)
(0.008433423675 4.395766271e-05 1.221397307e-05)
(0.008456033248 5.115848837e-05 -1.900701799e-06)
(0.008412292741 5.07971801e-05 -1.102310846e-05)
(0.008402273629 7.423152856e-05 -1.289278915e-05)
(0.00844104225 0.0001204324169 -2.127027692e-05)
(0.008433090131 0.000141120468 -1.631867643e-05)
(0.008532553062 0.0001609254956 -2.073451091e-05)
(0.008595833463 0.0001788409368 -1.621115668e-05)
(0.008753474893 0.0002413932316 -1.236860544e-05)
(0.008789788949 0.0002588791088 -1.431425421e-05)
(0.008916878967 0.000313257738 1.118150999e-05)
(0.008981281258 0.0003744090348 1.161435397e-05)
(0.009053338439 0.0004314818198 1.373097189e-05)
(0.009177306041 0.000556976956 6.391922295e-06)
(0.008295586812 4.067808254e-06 6.585590616e-06)
(0.00822875991 1.301646558e-05 1.788580572e-06)
(0.0082483235 1.776605095e-05 -4.716618387e-06)
(0.008282669925 1.230757359e-05 -5.384902495e-06)
(0.00829464621 -4.64008231e-07 -1.479199058e-06)
(0.008290702197 9.75369939e-06 1.310593191e-06)
(0.008264968352 2.885890283e-05 1.668195555e-06)
(0.008320049227 2.535203342e-05 8.829264449e-07)
(0.008357282519 1.688136287e-05 -1.288280348e-05)
(0.00832762938 1.727102805e-05 2.413949424e-06)
(0.008375220311 2.311899327e-05 1.222562957e-06)
(0.008402155131 1.313673661e-05 -4.120674241e-06)
(0.008402480648 -6.150086086e-06 2.997387945e-06)
(0.008347087848 1.027270212e-05 7.339675291e-06)
(0.008369834093 2.36280809e-05 6.987643856e-06)
(0.008365078047 3.677612942e-05 2.215359533e-06)
(0.008309213416 2.954812767e-05 -8.246997249e-06)
(0.008332291863 4.264357242e-05 -4.430163506e-06)
(0.008329156137 6.598495238e-05 1.006045987e-05)
(0.008367220639 5.968310513e-05 1.861945831e-05)
(0.008412133172 6.108943118e-05 2.554624083e-05)
(0.00848633178 8.111127481e-05 4.259293318e-05)
(0.008490656967 0.0001109514388 4.404677811e-05)
(0.008546763941 0.0001424598879 2.716584097e-05)
(0.008573463237 0.0001702941146 1.773654027e-05)
(0.008581869656 0.0002275386273 2.299074198e-05)
(0.008632995592 0.0002453828356 9.853598166e-06)
(0.008743813858 0.0002964945494 9.410430685e-06)
(0.008897826671 0.0003658353135 7.659384564e-06)
(0.00896041203 0.0003938383404 1.135609565e-05)
(0.008348317756 9.827618173e-06 -2.37696133e-06)
(0.008289585729 -2.576448307e-06 -8.534743364e-07)
(0.008326558458 -8.431426431e-06 1.88744139e-06)
(0.008275738702 -4.477144404e-06 -3.4630314e-06)
(0.008298096745 6.957721624e-06 -6.91341968e-06)
(0.008300073343 6.491120664e-06 -4.778948882e-06)
(0.008319804787 4.979299453e-06 -1.817409942e-06)
(0.008291681404 1.97214253e-05 2.952112501e-06)
(0.008345646247 1.472460428e-05 6.502920369e-07)
(0.008309424656 1.266820756e-05 -1.118583147e-05)
(0.008365904266 5.672113781e-06 -1.337901175e-05)
(0.008302036731 4.973700154e-06 6.427318021e-07)
(0.008263082336 2.28152746e-05 -1.493020924e-05)
(0.008318152598 2.145158416e-05 -6.055507619e-06)
(0.008324353424 2.489517819e-05 -1.53516055e-05)
(0.008368920998 2.120241225e-05 -1.176556887e-05)
(0.008457901904 2.867714887e-05 9.686425131e-07)
(0.008399186794 2.984669421e-05 3.554842297e-06)
(0.00845756467 4.579543577e-05 -5.445646833e-06)
(0.008500074523 5.012193502e-05 -2.255533197e-06)
(0.008472966513 6.873776245e-05 3.432529497e-06)
(0.008447099625 7.329843077e-05 -4.537594682e-07)
(0.008392255078 8.601331349e-05 1.669152365e-06)
(0.008475550637 0.0001097399783 4.827004739e-06)
(0.008553287106 0.0001277646329 1.28570693e-05)
(0.008667431603 0.0001630563328 1.588093601e-05)
(0.00864037773 0.0002146672788 5.562058565e-06)
(0.008684640252 0.0002417268288 -9.053840924e-06)
(0.008772858646 0.0002880523524 8.831470789e-07)
(0.008867087664 0.0003278082827 3.19244921e-06)
(0.008330161424 1.937225858e-05 -6.693844313e-06)
(0.008364433431 2.058188414e-05 -2.865141382e-06)
(0.008323141182 1.434866184e-05 1.073566195e-07)
(0.008345932323 1.150804205e-05 1.211475951e-05)
(0.008318714489 5.211388101e-06 1.350323145e-05)
(0.008359667262 4.808644787e-07 2.066094356e-05)
(0.008410892791 -1.06460809e-05 1.099776056e-05)
(0.008458667486 -1.129035749e-05 6.213356095e-06)
(0.008441716313 9.15907326e-06 -6.098485122e-06)
(0.008452802981 1.048335252e-05 4.226033133e-06)
(0.008424874022 1.567350088e-05 -1.345440434e-06)
(0.008411137606 2.57637358e-05 -1.622310731e-06)
(0.008476754348 1.047617422e-05 -4.587971363e-06)
(0.008443162093 9.828894561e-06 -8.351231318e-06)
(0.008445751046 1.155578396e-05 5.480363507e-06)
(0.008458455817 1.645757072e-05 8.491198533e-06)
(0.00843605056 2.189338737e-05 1.568411516e-05)
(0.008407883906 2.627816279e-05 2.651461397e-05)
(0.008412302267 1.51997077e-05 1.663449232e-05)
(0.008387068834 5.584281737e-05 7.694462829e-06)
(0.008429382592 6.534745434e-05 7.707057746e-06)
(0.008552149212 6.401225011e-05 1.014237284e-05)
(0.008635125229 7.686415193e-05 1.401443823e-06)
(0.008610514238 8.663505337e-05 -5.815493762e-07)
(0.008549983722 9.777733539e-05 7.165433661e-06)
(0.008622581039 0.0001256301201 7.128624383e-06)
(0.008717999273 0.000154401275 -7.516946591e-06)
(0.008845043946 0.0001863959236 6.2086466e-06)
(0.008919286938 0.0002160004769 5.252448123e-06)
(0.00897963289 0.0002649448613 -6.738328632e-06)
(0.008404097559 1.10125355e-05 -8.294126381e-06)
(0.008423338824 5.939050306e-06 -8.029615399e-06)
(0.008430372439 2.393529728e-06 -1.00701597e-05)
(0.008455484189 5.906934772e-06 -1.22466334e-05)
(0.008439131522 7.173440125e-06 -8.668620864e-06)
(0.008413499341 1.03483153e-05 -1.009235723e-05)
(0.008378490159 1.085407565e-05 -1.343194276e-06)
(0.008326026757 7.306636867e-06 1.529856892e-06)
(0.008337699411 -6.969934569e-06 5.688694209e-06)
(0.008354927902 -4.528728954e-06 5.211490057e-06)
(0.008328110659 -8.237499064e-06 6.640241568e-06)
(0.008380708686 6.776943547e-06 1.724042923e-05)
(0.008367528385 1.437059858e-05 2.310081852e-05)
(0.008375190898 2.009395374e-05 1.982861839e-05)
(0.00838327417 9.967321682e-06 2.117272697e-05)
(0.008375989649 1.855419936e-05 2.026531587e-05)
(0.008387157556 4.158386614e-05 5.558701826e-06)
(0.008403713037 3.252441025e-05 1.337510811e-06)
(0.008389588092 2.803877499e-05 3.976246567e-06)
(0.008421617643 2.213713092e-05 -7.334443591e-06)
(0.008401652231 2.168700477e-05 -1.2458531e-06)
(0.008364741993 3.587510296e-05 -7.056113375e-07)
(0.00837725517 3.54158347e-05 4.6226382e-06)
(0.008429394425 5.189365869e-05 -4.289332542e-06)
(0.00849747337 6.892464249e-05 -1.071599665e-06)
(0.008565842403 8.888215683e-05 -4.371574985e-06)
(0.008552064968 0.0001130026296 8.178594869e-06)
(0.008557630141 0.0001436812229 -9.066701487e-06)
(0.00855402258 0.0001878948978 -1.042970907e-05)
(0.008633289507 0.0002222370904 1.702460233e-05)
(0.008378990289 5.248894968e-07 2.168805121e-06)