/*--------------------------------*- C++ -*----------------------------------*\
| =========                 |                                                 |
| \\      /  F ield         | OpenFOAM: The Open Source CFD Toolbox           |
|  \\    /   O peration     | Version:  2406                                  |
|   \\  /    A nd           | Website:  www.openfoam.com                      |
|    \\/     M anipulation  |                                                 |
\*---------------------------------------------------------------------------*/
FoamFile
{
    version     2.0;
    format      ascii;
    arch        "LSB;label=32;scalar=64";
    class       volScalarField;
    location    "0.008";
    object      overallT;
}
// * * * * * * * * * * * * * * * * * * * * * * * * * * * * * * * * * * * * * //

dimensions      [1 2 -2 0 0 0 0];

internalField   nonuniform List<scalar> 
654
(
732.3867602
723.6609017
727.0179441
729.1774896
723.6174493
723.2543267
672.0034047
684.464356
693.8136328
694.6416455
704.6529979
707.1585929
707.5326249
712.3463482
713.8074861
713.5095971
716.8638197
569.2387494
590.3794858
605.466453
622.9859403
635.6437022
650.6927636
661.1626457
669.4442377
678.6977164
686.9309997
694.4170928
699.1814021
696.9269753
701.9815143
706.9638157
706.6075293
416.6625309
431.59683
447.6693005
473.1047011
490.0526212
510.6939085
532.2624913
556.8047586
572.7565502
595.8111711
610.7779624
623.2312046
639.6731473
650.195991
655.7473701
663.1232027
673.5670431
682.9559444
688.6592722
690.9857465
690.4056712
695.2386333
325.0303036
332.3610729
337.5198221
350.4681366
361.2914621
369.9021624
377.2921343
388.2269383
403.9523599
420.6786006
432.436857
453.3510378
477.6323616
496.9704788
515.6216314
534.1975437
551.3217335
570.2646534
592.1311361
610.712508
630.4807522
641.1267715
647.3992076
659.0181846
668.8355323
676.416529
680.7827327
683.5971463
682.1988371
318.4094478
320.7271846
326.4644745
329.1166094
334.5193457
342.5027563
352.8258612
363.6924659
369.4265101
384.5741474
396.3576425
410.4685684
426.9211715
441.014485
464.0067554
481.1735215
502.7204081
522.3088935
538.5078141
558.8084633
576.9119245
596.9346462
612.7767632
628.0306241
646.2097037
648.088145
657.1538621
664.3593985
666.5250563
673.8184439
314.0784751
314.9863261
321.1885314
325.497784
329.7340933
332.6418197
336.9166193
345.6706627
353.9308998
366.9545989
374.5042445
385.2361838
400.4037412
415.6062496
441.2716583
452.9809398
470.3494869
488.8844064
504.4278241
521.586822
540.1100077
566.6777093
585.0877675
602.6664454
617.7738513
628.2810339
641.5931997
646.5722811
651.3922585
655.974433
312.2951852
315.3001649
314.1875468
316.4053316
321.7603068
327.7956717
330.6620425
333.4106419
344.1341154
349.3530805
361.7895985
370.0282751
372.8408134
384.9619551
404.106297
419.0603703
440.3977671
465.8215891
479.6089125
496.4016195
513.2059826
536.3970541
549.7246046
572.8446867
588.9841609
601.699859
617.1072489
633.5312328
641.3073477
645.4640144
308.8211199
310.1439134
313.4186594
313.1267413
313.9214162
318.768405
326.1069007
325.8054752
332.9789981
339.2221722
347.4761545
354.4563142
364.0774844
370.5063282
383.9940333
397.6689024
411.9065986
432.7839621
447.3885142
469.8613765
484.5033445
510.6946835
527.9362475
540.6441988
563.2725394
581.7686117
594.6906816
610.5078822
620.2517299
632.6476054
305.4026813
306.3747751
307.7728337
309.5277337
313.8363093
315.0629734
318.4623276
322.7111441
327.1312247
331.0069454
337.9225425
344.7720458
346.8194125
355.5357642
364.2746301
372.2592675
383.730857
401.2030815
419.3502058
431.1792923
451.2723601
469.5649659
494.2764413
509.2790446
528.4753672
549.1725136
566.7877199
584.3914483
599.8951048
610.4083697
305.4037985
307.1562031
306.7114923
309.5795995
309.0100161
311.4446861
313.1861724
317.1789731
320.4213922
322.6431071
327.7702919
333.8508558
338.1287106
346.311804
356.0914267
364.6222975
370.8287836
385.3728731
394.0195849
411.7660237
423.7398474
438.7904811
456.4608569
477.5268417
495.2028356
512.9277613
533.5789603
551.9262768
572.5894257
586.3249477
302.5623753
302.8192882
303.7252723
306.3676504
308.6433696
310.902774
310.9835842
313.9447713
316.3150084
316.5202297
321.6623147
327.9056423
330.7927609
332.2615923
339.9531133
349.2657522
353.1639222
363.1243148
379.5580405
391.8726894
402.456718
411.7929865
435.916258
449.913419
467.7664543
488.5807391
506.8815377
526.7817794
544.8950039
563.3361923
303.7884792
304.0842321
306.348511
307.0503382
304.1109455
306.0209087
306.7166343
311.056839
311.0762762
314.925949
314.7881994
317.8960093
320.4739684
325.1960381
332.7152539
340.9069128
344.9252024
350.0097609
359.7421153
367.0237224
382.8088121
393.658049
407.0174481
422.3115087
443.3882886
459.0254227
476.816126
498.5441532
520.9246136
538.2199896
301.1136273
300.2700486
301.1050085
305.3641932
305.1671466
304.3654129
307.256746
307.8902923
309.9782494
312.0456698
315.8482869
317.8915308
317.9603884
320.4889812
325.1986224
332.0501316
335.3281594
341.550598
346.2223133
358.7745068
360.4422945
372.3835247
387.5474051
401.7897189
414.554904
429.2263749
448.6470759
467.8165458
483.5602313
507.4202632
300.2778945
300.8998487
299.5894968
300.7314589
302.3465805
303.885571
306.8480529
306.9987953
307.5669872
310.0935554
312.8405237
312.3201911
317.7473641
319.0433797
319.6094325
324.1653503
327.8273303
334.7815288
340.1301225
348.4112257
352.719692
362.5008786
373.1308017
390.8917348
395.7460919
408.7668873
425.5064087
447.4872423
462.4835898
482.8978033
300.8260308
299.9910616
300.5853889
301.8679229
303.926477
302.9689443
303.0387115
303.7291127
305.0555739
305.4471455
308.3983025
310.8674306
312.0103259
311.5502934
316.3649793
320.8583876
323.6171852
327.740284
332.3460241
338.6606301
348.6210341
352.8735252
362.1632975
372.3910808
377.4798938
388.4962488
400.6860469
417.4507255
438.0423347
453.9756021
303.6445273
304.1007284
304.3645555
303.3123495
301.4594172
302.989627
303.8736706
303.9206398
304.5166512
305.2499566
305.5862112
306.468431
310.8060977
310.7065176
312.8076069
315.4983272
319.4710072
320.3567758
322.9147692
325.7924363
330.9520543
336.0710005
340.8676678
350.7606712
360.328804
372.3123722
384.6479107
399.9426482
410.7442094
429.5809751
301.8129047
302.8541079
302.0827208
303.0406994
302.7736047
302.8245145
303.2944899
303.2537566
301.8180616
303.0230948
303.2421209
304.1867475
305.5581371
308.5267979
308.031546
309.0043404
311.2357113
315.0963689
317.0823592
319.2843554
323.0403222
329.8072058
335.6079109
341.8844765
354.3453548
356.8230361
366.1022612
377.0013459
387.8070721
403.4450061
300.1451108
299.371798
299.728845
302.308622
303.3319094
301.30695
302.5842603
304.0111951
303.1141789
302.7262173
303.2203399
303.3853897
304.9752523
305.7350673
307.9939778
308.3502655
309.4649562
314.3898417
316.2528963
317.690104
319.483853
323.2606283
326.9706719
337.7317863
341.9669974
352.2241058
355.0821973
365.4247249
375.0036989
383.0523559
301.8306475
301.8878681
301.1833184
301.6563018
301.7834887
303.2485221
302.7913441
301.6436986
302.5179081
301.3466988
303.3558848
303.0934038
303.5669666
303.6460946
305.8714722
307.2954531
309.9393865
306.9801247
311.1177325
313.8873101
316.3148614
318.6090415
319.3057382
324.6438286
329.1682221
339.0720552
346.6126203
351.834165
367.043357
372.8899404
299.5180496
300.4102648
299.0023106
298.64297
297.7881507
297.4748365
298.0404063
299.4019307
301.9977911
302.235065
301.3320256
301.3364189
300.6979783
302.1166859
304.1439754
304.7004079
305.9899489
306.470821
306.8413022
308.9116644
311.5436254
314.0044559
316.6829843
319.1204518
320.795996
326.3767026
331.5135686
341.0552687
347.1352965
357.6939227
300.2452911
300.354763
300.0736889
299.1722358
300.9877658
300.4424757
301.1541499
301.1836765
299.9326164
301.0896397
302.7424528
305.2174902
305.5547959
304.2849651
304.2614115
304.6074567
305.7225121
305.9378959
305.6943409
307.0599949
309.336543
313.5085173
314.1042469
319.1765936
319.5543363
325.901044
331.3632527
334.4711757
340.464082
349.4248623
301.3594133
301.8491876
300.8439216
300.5005922
301.7257192
302.3427948
300.359898
299.9315485
300.6991186
299.7895789
299.8619671
301.1801526
301.4832614
302.1528488
304.3613542
303.1739726
303.2581345
305.4883096
305.5234806
307.5727397
309.860394
309.9685921
312.1777568
312.2616361
315.2757464
316.8729934
321.5140853
326.7611948
333.0041166
338.9394033
298.6232013
300.0680209
302.1833641
301.9238554
300.8933824
299.6505845
301.3431841
302.0330628
301.9381483
301.4452893
301.5816663
301.3873389
301.4833424
300.3676457
300.5123709
303.445082
302.8952813
304.7854064
303.5053819
303.3197541
303.9475981
306.4204359
309.2946849
309.1021838
312.28437
310.8726634
314.1611258
320.1692097
321.0698684
329.7631932
)
;

boundaryField
{
    flow
    {
        type            calculated;
        value           nonuniform List<scalar> 
55
(
732.3867602
723.2543267
716.8638197
706.6075293
695.2386333
682.1988371
673.8184439
655.974433
645.4640144
632.6476054
610.4083697
586.3249477
563.3361923
538.2199896
507.4202632
482.8978033
453.9756021
429.5809751
403.4450061
383.0523559
372.8899404
357.6939227
349.4248623
338.9394033
329.7631932
298.6232013
300.0680209
302.1833641
301.9238554
300.8933824
299.6505845
301.3431841
302.0330628
301.9381483
301.4452893
301.5816663
301.3873389
301.4833424
300.3676457
300.5123709
303.445082
302.8952813
304.7854064
303.5053819
303.3197541
303.9475981
306.4204359
309.2946849
309.1021838
312.28437
310.8726634
314.1611258
320.1692097
321.0698684
329.7631932
)
;
    }
    obstacle
    {
        type            calculated;
        value           nonuniform List<scalar> 0();
    }
    frontAndBack
    {
        type            empty;
    }
    procBoundary3to1
    {
        type            processor;
        value           nonuniform List<scalar> 
36
(
742.8245536
737.6365981
734.7400707
738.6526184
736.4192049
736.4192049
692.7892549
695.3189694
704.6673442
711.2324315
717.2398532
717.2212335
717.2212335
605.7253713
620.6885552
637.5382129
652.4727862
662.2547509
662.2547509
450.3137042
461.9508739
487.6021924
509.2364052
525.6067524
547.6956069
547.6956069
339.2420147
343.148642
351.0949553
367.7970319
381.3661598
385.6911514
396.5592931
396.5592931
323.6575838
323.6575838
)
;
    }
    procBoundary3to2
    {
        type            processor;
        value           nonuniform List<scalar> 
19
(
313.2539672
309.3961637
309.3327402
304.4527293
302.0193426
305.0699361
300.6606749
302.2336257
301.1793353
300.6947869
300.4542524
302.1202893
302.1170336
300.1834791
300.6802879
299.4204189
299.9198196
300.6363135
298.4561596
)
;
    }
}


// ************************************************************************* //
