/*--------------------------------*- C++ -*----------------------------------*\
| =========                 |                                                 |
| \\      /  F ield         | OpenFOAM: The Open Source CFD Toolbox           |
|  \\    /   O peration     | Version:  2406                                  |
|   \\  /    A nd           | Website:  www.openfoam.com                      |
|    \\/     M anipulation  |                                                 |
\*---------------------------------------------------------------------------*/
FoamFile
{
    version     2.0;
    format      ascii;
    arch        "LSB;label=32;scalar=64";
    class       volScalarField;
    location    "0.008";
    object      p;
}
// * * * * * * * * * * * * * * * * * * * * * * * * * * * * * * * * * * * * * //

dimensions      [1 -1 -2 0 0 0 0];

internalField   nonuniform List<scalar> 
654
(
2.513985435
2.577747031
2.613700674
2.585439377
2.543729571
2.547694284
2.065291848
2.17703069
2.283990248
2.339676782
2.442881797
2.508714722
2.49902999
2.531068152
2.559900063
2.535544545
2.521353168
1.299972236
1.428416272
1.517062329
1.644510873
1.748280096
1.883539637
1.988166884
2.091629393
2.192770874
2.28377016
2.367602642
2.439121628
2.445647486
2.484373933
2.517962162
2.502827624
0.7119156561
0.7581615185
0.8040028963
0.8931701521
0.954109029
1.03779718
1.122709062
1.237496562
1.340681644
1.456525585
1.566177501
1.682426768
1.815903244
1.909133381
1.999927521
2.088831276
2.191361185
2.29699379
2.379695546
2.422288307
2.438534478
2.472661319
0.4726167764
0.4868561428
0.4981505135
0.5290979202
0.5625662543
0.5859901916
0.607356525
0.6323605075
0.6845936456
0.7359980741
0.777293719
0.8392313877
0.9190216077
0.9928301471
1.075219679
1.164447776
1.260595868
1.352784101
1.47878492
1.608089139
1.749936679
1.845004485
1.941278366
2.065111493
2.171844851
2.259268472
2.321201813
2.363733978
2.387774786
0.4620024073
0.4673116628
0.4845525014
0.4932251734
0.5049019526
0.5187839441
0.5444996632
0.5713259823
0.5852822341
0.6229228259
0.6590260531
0.7059273644
0.7536446609
0.8073320745
0.8778427842
0.9485340991
1.021673966
1.109567378
1.188754367
1.280296561
1.405821202
1.531708239
1.654903033
1.755364394
1.90138839
1.992744049
2.08164303
2.175962863
2.223704365
2.296507028
0.4490282637
0.4490646499
0.4618300195
0.4735911411
0.4859676705
0.4942593619
0.5067395807
0.5285369451
0.5512516708
0.5855246877
0.6098308509
0.6371040276
0.6765924539
0.7241243669
0.8000227385
0.8372576529
0.897507801
0.9661005618
1.045488469
1.126144815
1.196947649
1.335327267
1.453291613
1.575706886
1.708118842
1.797901907
1.929786261
2.032458036
2.121930193
2.172799705
0.4447553847
0.4557664742
0.452216419
0.4560102828
0.467738383
0.478150678
0.4838984625
0.48939444
0.5174330644
0.5336139291
0.5582679074
0.5876547276
0.6013477534
0.6340616908
0.6979103897
0.7418508154
0.8092826946
0.8892461187
0.9260582045
0.9955914172
1.090559542
1.187229971
1.259085754
1.39869872
1.506576006
1.605442095
1.723037762
1.841392508
1.951398369
2.028633439
0.4387084594
0.440017932
0.4477381929
0.4470109003
0.4489179889
0.4598777296
0.4782652188
0.4805626132
0.4952670426
0.510959164
0.5277971802
0.5480905787
0.569539396
0.5820138356
0.6187268822
0.6639967116
0.7045022777
0.768997145
0.8300140733
0.904852302
0.9620617024
1.075420129
1.153312786
1.218237615
1.329322922
1.456045623
1.567908474
1.68876617
1.782501686
1.911474032
0.4264703311
0.4286055243
0.4329500994
0.4357868659
0.4485778662
0.4543358377
0.4646409428
0.4707993212
0.4815734656
0.4847015073
0.5070341922
0.5213525033
0.5258735262
0.5511365879
0.5763520187
0.5945125927
0.6299377845
0.6881214055
0.748165495
0.7876041665
0.855362675
0.9265507145
1.031411841
1.095602363
1.194168708
1.2995726
1.39585677
1.50743321
1.614517909
1.707273809
0.4255465304
0.4290679283
0.4321405239
0.4376382847
0.4390330333
0.4450665148
0.4457762456
0.4519091104
0.4616187787
0.4703099308
0.4810411001
0.4961228642
0.5072656512
0.5311532512
0.5515506061
0.5707086653
0.5862965043
0.6267439774
0.6558222168
0.7153726237
0.7562499219
0.8140002967
0.8820971856
0.9703048586
1.045317942
1.129255818
1.232822319
1.328262544
1.454956787
1.571760319
0.4296552916
0.4253503482
0.4222516265
0.4284762241
0.4294614716
0.4361848499
0.4379221855
0.4470842517
0.453231896
0.4509444167
0.4667028363
0.4838570427
0.4887279749
0.4902586268
0.5137035105
0.54292867
0.5554746683
0.5800561377
0.6258393233
0.6527783928
0.6900742951
0.7217519291
0.7920456952
0.8414846938
0.9109922435
0.9986108734
1.085201876
1.18435132
1.296265963
1.416422504
0.4186354784
0.4226353639
0.4263457142
0.428265349
0.4219602329
0.4272383502
0.4304599883
0.4348542128
0.4379869617
0.4470874281
0.4479396366
0.4531645181
0.4654313818
0.4772047512
0.4932902957
0.5174547161
0.5312415375
0.5446148155
0.5689877169
0.5932706956
0.6352283558
0.6638440152
0.7063667316
0.754683001
0.8216806996
0.8843145167
0.9544687088
1.060325663
1.155148452
1.252570855
0.4126495984
0.410815087
0.4155102705
0.422703378
0.4237778762
0.4207550596
0.4302303742
0.4292755596
0.4354430214
0.4436131332
0.4493334055
0.456586679
0.4544706548
0.4648690605
0.4782583562
0.4927350225
0.502400699
0.518985396
0.5299271906
0.5649289312
0.5674503863
0.6053509703
0.6506571098
0.6963793059
0.7423487078
0.7953478298
0.8624522629
0.9304331645
1.009591615
1.11311067
0.4094540972
0.4085231331
0.4081892597
0.4123724398
0.4154380601
0.4224311396
0.4322469685
0.4353056307
0.4362958985
0.4395940423
0.445425208
0.4475982352
0.4572019914
0.4594891345
0.456882408
0.4718351206
0.4765817773
0.4896094952
0.5046487693
0.5249118942
0.5356365563
0.5657006608
0.5926174094
0.6412897545
0.6663130868
0.71136382
0.7722199169
0.8482164483
0.893327135
0.9756123383
0.4182455072
0.4156606167
0.4146991879
0.4179303427
0.4221955659
0.4215898167
0.4210010075
0.4256097294
0.4294165793
0.431572994
0.4372843073
0.4395613523
0.4443917784
0.4421044108
0.4525184899
0.4611413043
0.4651077945
0.4763218558
0.4859482377
0.5032096831
0.5257223894
0.5410048649
0.5715512134
0.6010341855
0.6089159508
0.6398506879
0.6802512553
0.7366501207
0.8151825562
0.8784036547
0.423114155
0.4250359097
0.4274442917
0.4203531281
0.4174543181
0.4168159565
0.4153009178
0.4132801497
0.4131679222
0.4161469204
0.4207596536
0.4248025828
0.4362754493
0.4379351791
0.4431220682
0.450583302
0.4635887192
0.4679241176
0.4789988761
0.4866710672
0.5051719025
0.5147276662
0.5186987809
0.5456851138
0.5706143195
0.596539891
0.631138218
0.6769317986
0.7114916404
0.7779497456
0.4187017429
0.4201130357
0.4215153304
0.4229643045
0.4196233701
0.4207024122
0.421687503
0.4244823392
0.4179856356
0.4183159966
0.4176877387
0.4197856125
0.4262131436
0.4345986888
0.4374688656
0.4392918089
0.4473067917
0.458205925
0.4608588656
0.4605150481
0.4710555903
0.4861819629
0.502133578
0.5188472054
0.5558427319
0.5659164501
0.5988603592
0.6263501334
0.6537382906
0.702077191
0.4109784715
0.4042520458
0.4068199012
0.4137294592
0.4191241466
0.4174426178
0.4158621124
0.4208667425
0.4200277554
0.4170364163
0.4229793027
0.4269774887
0.4282996817
0.4279763243
0.4324333643
0.4336089276
0.4355199518
0.4457749095
0.4480001625
0.4529932454
0.4572606809
0.4723961165
0.4814646453
0.5079155352
0.5184256108
0.5431520322
0.5513594881
0.5818943749
0.6142591203
0.6354401141
0.416080612
0.4141231013
0.4149032447
0.4145280051
0.4151751038
0.4165726148
0.416711656
0.4128033674
0.4194628458
0.4171054133
0.4217469497
0.4160666152
0.4136670893
0.4191128317
0.4265557812
0.4317120021
0.4381785294
0.4313274582
0.4438021716
0.4515090257
0.4550495447
0.46017571
0.459220148
0.4770825195
0.4904411341
0.5211810061
0.5324734632
0.543686862
0.587130673
0.6045468869
0.4157267067
0.4186828854
0.4131532918
0.4130423459
0.4102260304
0.4102108727
0.4150922876
0.4194281709
0.4231115486
0.4237928771
0.4206670101
0.4226578889
0.4237948065
0.4248114104
0.4289754882
0.4304296584
0.4321932181
0.4322441124
0.4339486055
0.4362460332
0.444441221
0.4550816184
0.4677209909
0.4715648342
0.470306264
0.4880407676
0.5086815967
0.5382369722
0.5550271025
0.5836605884
0.4203147438
0.4199547455
0.4204855742
0.4212260463
0.4239404772
0.4207610209
0.4180043001
0.4163058567
0.4142978519
0.4164196997
0.4164634003
0.4248482891
0.4284069445
0.4245939872
0.4272584757
0.42955203
0.4341599589
0.4330335809
0.4287392547
0.4368662032
0.4402540863
0.4446501004
0.4457703169
0.4572939268
0.4624540855
0.4795164472
0.4888132472
0.4977310355
0.5150684515
0.5373968691
0.4177948911
0.417257656
0.4164818577
0.4165422808
0.4195008979
0.422559072
0.4205352173
0.4169424465
0.4199433506
0.4178869619
0.4171975365
0.4200275644
0.4222851848
0.426136353
0.4259980267
0.423130303
0.4228484176
0.4314231653
0.4329334517
0.4321703334
0.4388676102
0.4363471795
0.4437779165
0.4444067111
0.452971516
0.4529359911
0.4699554353
0.482670059
0.4984132274
0.518493393
0.4003918743
0.4074257712
0.4116282951
0.4122175903
0.4078819604
0.4060040648
0.4111133279
0.4127524592
0.4129117095
0.4127195094
0.4169359766
0.4115875431
0.4113516148
0.4081182578
0.4090830734
0.4180153598
0.4147153586
0.4168691013
0.4111914008
0.4140282453
0.4187340777
0.4314921544
0.4315000761
0.4323445879
0.4357730527
0.431989936
0.4369514
0.45294605
0.4591933869
0.4835872342
)
;

boundaryField
{
    flow
    {
        type            calculated;
        value           nonuniform List<scalar> 
55
(
2.513985435
2.547694284
2.521353168
2.502827624
2.472661319
2.387774786
2.296507028
2.172799705
2.028633439
1.911474032
1.707273809
1.571760319
1.416422504
1.252570855
1.11311067
0.9756123383
0.8784036547
0.7779497456
0.702077191
0.6354401141
0.6045468869
0.5836605884
0.5373968691
0.518493393
0.4835872342
0.4003918743
0.4074257712
0.4116282951
0.4122175903
0.4078819604
0.4060040648
0.4111133279
0.4127524592
0.4129117095
0.4127195094
0.4169359766
0.4115875431
0.4113516148
0.4081182578
0.4090830734
0.4180153598
0.4147153586
0.4168691013
0.4111914008
0.4140282453
0.4187340777
0.4314921544
0.4315000761
0.4323445879
0.4357730527
0.431989936
0.4369514
0.45294605
0.4591933869
0.4835872342
)
;
    }
    obstacle
    {
        type            calculated;
        value           nonuniform List<scalar> 0();
    }
    frontAndBack
    {
        type            empty;
    }
    procBoundary3to1
    {
        type            processor;
        value           nonuniform List<scalar> 
36
(
2.487020212
2.633787909
2.612467429
2.606360767
2.561560502
2.561560502
2.236122437
2.320821358
2.441065248
2.476789752
2.556629916
2.535868
2.535868
1.502746584
1.61194224
1.721928399
1.844094679
1.945445576
1.945445576
0.8086201883
0.848482684
0.9494948674
1.022713401
1.095987603
1.188932869
1.188932869
0.5021249851
0.5144690164
0.5328646517
0.5779058398
0.6073108439
0.6219679749
0.6572723333
0.6572723333
0.4676929294
0.4676929294
)
;
    }
    procBoundary3to2
    {
        type            processor;
        value           nonuniform List<scalar> 
19
(
0.4497567639
0.4369681879
0.4374738158
0.4286460499
0.4208747747
0.4248540395
0.4217670376
0.4176748719
0.4119492165
0.4120851026
0.415808494
0.4220478064
0.4170301828
0.4110012899
0.4100383985
0.4164266777
0.4161751063
0.4173299263
0.4042226621
)
;
    }
}


// ************************************************************************* //
