/*--------------------------------*- C++ -*----------------------------------*\
| =========                 |                                                 |
| \\      /  F ield         | OpenFOAM: The Open Source CFD Toolbox           |
|  \\    /   O peration     | Version:  2406                                  |
|   \\  /    A nd           | Website:  www.openfoam.com                      |
|    \\/     M anipulation  |                                                 |
\*---------------------------------------------------------------------------*/
FoamFile
{
    version     2.0;
    format      ascii;
    arch        "LSB;label=32;scalar=64";
    class       volScalarField;
    location    "0.008";
    object      rhoMMean;
}
// * * * * * * * * * * * * * * * * * * * * * * * * * * * * * * * * * * * * * //

dimensions      [1 -3 0 0 0 0 0];

internalField   nonuniform List<scalar> 
654
(
1.158047985e-05
1.159900539e-05
1.181223963e-05
1.178422121e-05
1.177910308e-05
1.187478145e-05
9.449923398e-06
9.860721104e-06
1.026956796e-05
1.065217192e-05
1.103483659e-05
1.138132262e-05
1.144688767e-05
1.156193726e-05
1.179068667e-05
1.178977019e-05
1.177814678e-05
6.821202072e-06
7.200155382e-06
7.531107318e-06
7.918075912e-06
8.343295418e-06
8.827243e-06
9.243111816e-06
9.662157062e-06
1.008826739e-05
1.046928977e-05
1.082879521e-05
1.117742299e-05
1.132236394e-05
1.149438332e-05
1.165761161e-05
1.167624063e-05
5.328401126e-06
5.426607466e-06
5.514002387e-06
5.697256713e-06
5.862026089e-06
6.097117159e-06
6.304978393e-06
6.620098974e-06
6.975816623e-06
7.309987548e-06
7.714577693e-06
8.114922172e-06
8.595232611e-06
8.987364701e-06
9.411295105e-06
9.829787859e-06
1.021930792e-05
1.063260781e-05
1.102484861e-05
1.126605951e-05
1.141475637e-05
1.162579588e-05
4.874989402e-06
4.88805429e-06
4.889144579e-06
4.934042434e-06
5.026760512e-06
5.078764427e-06
5.143707027e-06
5.206253308e-06
5.328960817e-06
5.439973251e-06
5.55119265e-06
5.695177601e-06
5.866650015e-06
6.084834696e-06
6.28637943e-06
6.524781398e-06
6.850896371e-06
7.145018542e-06
7.522475456e-06
7.940609611e-06
8.395982922e-06
8.783659553e-06
9.245249516e-06
9.705948957e-06
1.01333693e-05
1.05545886e-05
1.08664995e-05
1.115298916e-05
1.137088324e-05
4.898383286e-06
4.904561464e-06
4.952764013e-06
4.991333843e-06
5.002641827e-06
5.006230697e-06
5.045685071e-06
5.096242426e-06
5.1397642e-06
5.201137759e-06
5.26454337e-06
5.388942465e-06
5.488723212e-06
5.63984886e-06
5.771924223e-06
5.988564436e-06
6.160160046e-06
6.384543959e-06
6.642625826e-06
6.919674163e-06
7.337004194e-06
7.722560333e-06
8.185392358e-06
8.544457126e-06
9.045881084e-06
9.524906008e-06
9.873728066e-06
1.030315337e-05
1.061368793e-05
1.091660689e-05
4.854099044e-06
4.843052643e-06
4.85668267e-06
4.882987424e-06
4.906158924e-06
4.934844493e-06
4.983941482e-06
5.030516969e-06
5.071383322e-06
5.16609574e-06
5.224127252e-06
5.244308134e-06
5.316676765e-06
5.431256665e-06
5.563028705e-06
5.668651946e-06
5.80466567e-06
5.959937463e-06
6.23305353e-06
6.457628997e-06
6.678451951e-06
7.091966062e-06
7.518280872e-06
7.941261224e-06
8.398996117e-06
8.766352359e-06
9.287971224e-06
9.768344534e-06
1.021223004e-05
1.053774549e-05
4.872923703e-06
4.905936173e-06
4.8979332e-06
4.909260087e-06
4.938461006e-06
4.913477746e-06
4.90853748e-06
4.914398939e-06
4.948212426e-06
4.960009063e-06
4.985133704e-06
5.092726446e-06
5.164567902e-06
5.226088972e-06
5.363911928e-06
5.48729664e-06
5.637090468e-06
5.831012009e-06
5.90269582e-06
6.089953606e-06
6.386714848e-06
6.626137599e-06
6.880172028e-06
7.326910866e-06
7.722342636e-06
8.086806273e-06
8.527257398e-06
8.949847083e-06
9.423392465e-06
9.835337758e-06
4.847469882e-06
4.845416951e-06
4.863672058e-06
4.871297037e-06
4.858344688e-06
4.869774865e-06
4.907381785e-06
4.935545003e-06
4.935493891e-06
4.971411623e-06
4.978268109e-06
5.050024336e-06
5.081726577e-06
5.10092325e-06
5.164644822e-06
5.286048234e-06
5.366666118e-06
5.503740687e-06
5.682066851e-06
5.874991576e-06
6.039193968e-06
6.319079616e-06
6.547411817e-06
6.751277501e-06
7.093004443e-06
7.547959175e-06
7.959002579e-06
8.381546942e-06
8.812681509e-06
9.32198586e-06
4.784721361e-06
4.795037321e-06
4.79882274e-06
4.791600476e-06
4.838262849e-06
4.859663047e-06
4.889651816e-06
4.8948152e-06
4.923290829e-06
4.904350132e-06
4.975823858e-06
4.978609679e-06
4.984230752e-06
5.054238783e-06
5.116548846e-06
5.145934333e-06
5.239577718e-06
5.388118217e-06
5.542579892e-06
5.633323732e-06
5.801289158e-06
5.994246809e-06
6.286490722e-06
6.510136269e-06
6.799575169e-06
7.146327288e-06
7.476954372e-06
7.856644737e-06
8.217342045e-06
8.58324834e-06
4.779461935e-06
4.790064246e-06
4.82565729e-06
4.83161398e-06
4.843876967e-06
4.845413271e-06
4.835504142e-06
4.843082582e-06
4.885204598e-06
4.924679305e-06
4.923657114e-06
4.940174931e-06
4.977287604e-06
5.017139102e-06
5.018995645e-06
5.035426922e-06
5.057407012e-06
5.164591963e-06
5.256665878e-06
5.405643053e-06
5.557953304e-06
5.736406429e-06
5.900788609e-06
6.166544342e-06
6.400694681e-06
6.645047316e-06
6.957311943e-06
7.282023107e-06
7.719988919e-06
8.188384908e-06
4.894103718e-06
4.863009232e-06
4.82937155e-06
4.829550716e-06
4.820924274e-06
4.84134695e-06
4.843947851e-06
4.851315247e-06
4.852625978e-06
4.826154745e-06
4.87628496e-06
4.924963909e-06
4.919407618e-06
4.915470842e-06
4.988954811e-06
5.081755094e-06
5.124072491e-06
5.145975443e-06
5.253147471e-06
5.288350727e-06
5.411323109e-06
5.485586985e-06
5.61666509e-06
5.757854246e-06
5.953298459e-06
6.207628979e-06
6.489630609e-06
6.81135592e-06
7.210695567e-06
7.592634565e-06
4.769829737e-06
4.806172289e-06
4.803157681e-06
4.794975365e-06
4.77481197e-06
4.79200482e-06
4.791146665e-06
4.776622485e-06
4.784727406e-06
4.820363566e-06
4.830975096e-06
4.821621011e-06
4.886324811e-06
4.917706224e-06
4.940387039e-06
5.008106431e-06
5.060555981e-06
5.099203198e-06
5.126255739e-06
5.197786161e-06
5.260590226e-06
5.328178193e-06
5.417629806e-06
5.542458207e-06
5.70548094e-06
5.899246087e-06
6.10221995e-06
6.418716262e-06
6.697971801e-06
7.03487483e-06
4.75936357e-06
4.755868754e-06
4.768883299e-06
4.768247572e-06
4.784530878e-06
4.754444793e-06
4.799822415e-06
4.78420984e-06
4.800316481e-06
4.840750479e-06
4.832345119e-06
4.860314274e-06
4.856165997e-06
4.905058343e-06
4.960505598e-06
4.958372102e-06
4.979315332e-06
5.008409444e-06
5.002524654e-06
5.099967759e-06
5.118665493e-06
5.21533997e-06
5.338300409e-06
5.461050541e-06
5.597752779e-06
5.763128807e-06
5.925632162e-06
6.093246459e-06
6.336745653e-06
6.620222664e-06
4.748890606e-06
4.721049558e-06
4.727663414e-06
4.760024687e-06
4.752989452e-06
4.807422384e-06
4.845856017e-06
4.861430155e-06
4.847003932e-06
4.843462111e-06
4.838270086e-06
4.871430957e-06
4.854779172e-06
4.858390613e-06
4.821440381e-06
4.868453911e-06
4.865578885e-06
4.874805108e-06
4.924832954e-06
4.957598672e-06
4.9746258e-06
5.046603849e-06
5.093817505e-06
5.19089821e-06
5.315977284e-06
5.450533865e-06
5.615867345e-06
5.819911209e-06
5.947850984e-06
6.179102588e-06
4.809304711e-06
4.797833598e-06
4.797980919e-06
4.806613396e-06
4.808184151e-06
4.8150781e-06
4.798296979e-06
4.832940102e-06
4.865919263e-06
4.855250306e-06
4.844882522e-06
4.83730092e-06
4.842296728e-06
4.822867753e-06
4.829096181e-06
4.831190847e-06
4.816206621e-06
4.850022628e-06
4.872881767e-06
4.917844911e-06
4.960149474e-06
5.039231754e-06
5.122863345e-06
5.193449563e-06
5.209038746e-06
5.266613604e-06
5.372447179e-06
5.531072605e-06
5.761458983e-06
5.953528868e-06
4.810255551e-06
4.848042793e-06
4.868529902e-06
4.821921726e-06
4.804174732e-06
4.773639332e-06
4.742658919e-06
4.732148386e-06
4.70623846e-06
4.721547123e-06
4.744491167e-06
4.752190468e-06
4.784619717e-06
4.822048471e-06
4.846258168e-06
4.877984775e-06
4.925460185e-06
4.958206511e-06
5.013491952e-06
5.022079179e-06
5.084133913e-06
5.079350443e-06
5.041633556e-06
5.074247218e-06
5.125489252e-06
5.147085954e-06
5.239231499e-06
5.335138829e-06
5.428662195e-06
5.631741617e-06
4.832037377e-06
4.815310508e-06
4.827255032e-06
4.827151679e-06
4.823975282e-06
4.8458096e-06
4.845041069e-06
4.857621325e-06
4.814176416e-06
4.803616283e-06
4.788271452e-06
4.810822704e-06
4.81663229e-06
4.835972776e-06
4.849800659e-06
4.84695174e-06
4.874431833e-06
4.893380158e-06
4.877183647e-06
4.8760864e-06
4.905259018e-06
4.903062035e-06
4.974827146e-06
5.012412989e-06
5.118877123e-06
5.160663183e-06
5.250172248e-06
5.300334867e-06
5.356247942e-06
5.456423748e-06
4.787093353e-06
4.742391556e-06
4.76078598e-06
4.784959187e-06
4.792310788e-06
4.79356754e-06
4.773631196e-06
4.803069598e-06
4.824362277e-06
4.809041806e-06
4.835662042e-06
4.854546882e-06
4.85734462e-06
4.81926994e-06
4.831091119e-06
4.830546755e-06
4.800372597e-06
4.823793021e-06
4.825468258e-06
4.840487183e-06
4.867067324e-06
4.919891515e-06
4.926064039e-06
4.981993054e-06
5.015879938e-06
5.030496087e-06
5.062862819e-06
5.151326292e-06
5.253941443e-06
5.302725379e-06
4.803831862e-06
4.781379126e-06
4.804245442e-06
4.778242682e-06
4.787817391e-06
4.792764243e-06
4.804936864e-06
4.785223595e-06
4.812209618e-06
4.798263102e-06
4.826449415e-06
4.784172299e-06
4.767522124e-06
4.810738765e-06
4.821424194e-06
4.845975673e-06
4.88891784e-06
4.860633408e-06
4.893721049e-06
4.924469677e-06
4.913493026e-06
4.908976829e-06
4.882425938e-06
4.933895714e-06
4.97798324e-06
5.063766424e-06
5.053860394e-06
5.081830523e-06
5.16817783e-06
5.239037587e-06
4.802027041e-06
4.821200707e-06
4.78823308e-06
4.801416037e-06
4.793345836e-06
4.812476321e-06
4.848338671e-06
4.877748099e-06
4.871364778e-06
4.879383321e-06
4.861115192e-06
4.864013854e-06
4.902259931e-06
4.883438882e-06
4.881006645e-06
4.88571505e-06
4.872499729e-06
4.851378858e-06
4.854727608e-06
4.847507139e-06
4.883372141e-06
4.949383805e-06
4.999304718e-06
4.993771896e-06
4.962337222e-06
5.013085215e-06
5.086040702e-06
5.175382735e-06
5.235050635e-06
5.287665167e-06
4.851710563e-06
4.860027617e-06
4.870744683e-06
4.882521569e-06
4.872848349e-06
4.856253277e-06
4.8338513e-06
4.799966932e-06
4.809142431e-06
4.812506367e-06
4.798824757e-06
4.827887875e-06
4.821269946e-06
4.814136345e-06
4.828177921e-06
4.835009694e-06
4.848316079e-06
4.857508879e-06
4.84909871e-06
4.861683438e-06
4.844776687e-06
4.836065946e-06
4.845441631e-06
4.880249349e-06
4.918985224e-06
4.975513609e-06
4.974747794e-06
4.982340792e-06
5.003305492e-06
5.060809331e-06
4.826581094e-06
4.809261174e-06
4.813666267e-06
4.817409993e-06
4.828090343e-06
4.83504968e-06
4.834866376e-06
4.804431285e-06
4.821189376e-06
4.822729191e-06
4.817266095e-06
4.839016271e-06
4.857489522e-06
4.884093367e-06
4.843862719e-06
4.840296462e-06
4.836047335e-06
4.877850922e-06
4.880166616e-06
4.872508489e-06
4.867563475e-06
4.830041288e-06
4.870543543e-06
4.863834695e-06
4.880720474e-06
4.853595275e-06
4.934683625e-06
4.968628041e-06
5.015152257e-06
5.055259199e-06
4.679539731e-06
4.709800158e-06
4.712097368e-06
4.740519337e-06
4.724334481e-06
4.712465097e-06
4.74221999e-06
4.761248713e-06
4.755543042e-06
4.757140723e-06
4.779411964e-06
4.721237602e-06
4.705262199e-06
4.697741769e-06
4.715003708e-06
4.76205545e-06
4.754542858e-06
4.727613244e-06
4.702517627e-06
4.740875538e-06
4.773996493e-06
4.820483253e-06
4.781775864e-06
4.792139938e-06
4.774618062e-06
4.779815458e-06
4.779311894e-06
4.80198688e-06
4.830384374e-06
4.911946639e-06
)
;

boundaryField
{
    flow
    {
        type            calculated;
        value           nonuniform List<scalar> 
55
(
1.158047985e-05
1.187478145e-05
1.177814678e-05
1.167624063e-05
1.162579588e-05
1.137088324e-05
1.091660689e-05
1.053774549e-05
9.835337758e-06
9.32198586e-06
8.58324834e-06
8.188384908e-06
7.592634565e-06
7.03487483e-06
6.620222664e-06
6.179102588e-06
5.953528868e-06
5.631741617e-06
5.456423748e-06
5.302725379e-06
5.239037587e-06
5.287665167e-06
5.060809331e-06
5.055259199e-06
4.911946639e-06
4.679539731e-06
4.709800158e-06
4.712097368e-06
4.740519337e-06
4.724334481e-06
4.712465097e-06
4.74221999e-06
4.761248713e-06
4.755543042e-06
4.757140723e-06
4.779411964e-06
4.721237602e-06
4.705262199e-06
4.697741769e-06
4.715003708e-06
4.76205545e-06
4.754542858e-06
4.727613244e-06
4.702517627e-06
4.740875538e-06
4.773996493e-06
4.820483253e-06
4.781775864e-06
4.792139938e-06
4.774618062e-06
4.779815458e-06
4.779311894e-06
4.80198688e-06
4.830384374e-06
4.911946639e-06
)
;
    }
    obstacle
    {
        type            calculated;
        value           nonuniform List<scalar> 0();
    }
    frontAndBack
    {
        type            empty;
    }
    procBoundary3to1
    {
        type            processor;
        value           nonuniform List<scalar> 
36
(
1.140123088e-05
1.183302884e-05
1.187172663e-05
1.181828923e-05
1.171220932e-05
1.171220932e-05
1.004878385e-05
1.046341399e-05
1.093966888e-05
1.116544956e-05
1.143294872e-05
1.14645095e-05
1.14645095e-05
7.380410279e-06
7.73153678e-06
8.101201056e-06
8.562126374e-06
8.971906022e-06
8.971906022e-06
5.530041987e-06
5.622720352e-06
5.862885114e-06
6.038129877e-06
6.250466502e-06
6.498832847e-06
6.498832847e-06
4.93406721e-06
4.962375873e-06
5.001276599e-06
5.080872399e-06
5.089974429e-06
5.141787082e-06
5.243880429e-06
5.243880429e-06
4.854157295e-06
4.854157295e-06
)
;
    }
    procBoundary3to2
    {
        type            processor;
        value           nonuniform List<scalar> 
19
(
4.879988528e-06
4.836475045e-06
4.877479515e-06
4.832236346e-06
4.791533902e-06
4.80094632e-06
4.859575104e-06
4.772488363e-06
4.749385332e-06
4.771611066e-06
4.791231744e-06
4.820672672e-06
4.826727342e-06
4.781301054e-06
4.77553096e-06
4.82263121e-06
4.819665481e-06
4.822008634e-06
4.713056756e-06
)
;
    }
}


// ************************************************************************* //
