/*--------------------------------*- C++ -*----------------------------------*\
| =========                 |                                                 |
| \\      /  F ield         | OpenFOAM: The Open Source CFD Toolbox           |
|  \\    /   O peration     | Version:  2406                                  |
|   \\  /    A nd           | Website:  www.openfoam.com                      |
|    \\/     M anipulation  |                                                 |
\*---------------------------------------------------------------------------*/
FoamFile
{
    version     2.0;
    format      ascii;
    arch        "LSB;label=32;scalar=64";
    class       volScalarField;
    location    "0.008";
    object      rhoM;
}
// * * * * * * * * * * * * * * * * * * * * * * * * * * * * * * * * * * * * * //

dimensions      [1 -3 0 0 0 0 0];

internalField   nonuniform List<scalar> 
654
(
1.012439109e-05
1.18586172e-05
1.417439358e-05
1.095994424e-05
9.281311008e-06
7.474847246e-06
6.318608022e-06
1.388111108e-05
1.162321492e-05
1.270292437e-05
7.88543569e-06
1.16630353e-05
8.847406124e-06
1.730461127e-05
1.068221176e-05
9.561604851e-06
1.78821413e-05
7.14027685e-06
7.282506713e-06
7.427098647e-06
1.259524456e-05
9.955974963e-06
1.012702705e-05
4.976485443e-06
1.259287666e-05
1.190399326e-05
1.469695836e-05
8.135785845e-06
1.176770122e-05
8.744044876e-06
7.523389476e-06
8.249050678e-06
1.239445182e-05
5.856307156e-06
3.988483451e-06
5.628429508e-06
5.834838805e-06
8.1692894e-06
7.823105532e-06
4.15137026e-06
7.282506772e-06
8.440624222e-06
8.680949666e-06
1.26160531e-05
9.868215028e-06
1.833552689e-06
1.162321492e-05
4.44159691e-06
1.344226099e-05
9.221428499e-06
1.423121959e-05
9.296697033e-06
7.245656939e-06
1.452926984e-05
1.239445182e-05
4.353125388e-06
2.646740795e-06
2.20918719e-06
6.140264422e-06
6.032820689e-06
4.675344055e-06
4.398377487e-06
4.590387745e-06
5.18483638e-06
5.305975048e-06
9.238820198e-06
4.737951717e-06
6.011459917e-06
5.895065813e-06
6.613059517e-06
7.342976986e-06
4.25564881e-06
8.497622522e-06
6.838316985e-06
8.90462556e-06
1.144768392e-05
7.905058144e-06
1.003757897e-05
1.039717824e-05
1.240630964e-05
7.455262006e-06
1.003193181e-05
1.415554471e-05
1.580068236e-05
8.343616849e-06
6.079052959e-06
9.149640496e-06
4.494300104e-06
1.612027414e-06
6.032820644e-06
7.24790954e-06
2.748985888e-06
3.957428009e-06
5.423338331e-06
8.763162141e-06
5.267508544e-06
7.106927464e-06
5.517013966e-06
2.324927359e-06
4.855004554e-06
6.24532999e-06
7.489285972e-06
6.780576193e-06
5.020378243e-06
6.28586556e-06
6.515851887e-06
6.840529987e-06
9.050820273e-06
1.048728566e-05
9.760959826e-06
9.204957952e-06
9.474229343e-06
1.021788197e-05
1.021869206e-05
4.842806435e-06
4.878564898e-06
4.914855358e-06
1.066630717e-06
3.837896379e-06
2.165723461e-06
4.36465563e-06
4.476649688e-06
3.403349984e-06
3.430057339e-06
2.894344224e-06
3.646286227e-06
6.779290171e-06
5.51701401e-06
3.570138425e-06
4.688146778e-06
7.679463448e-06
5.532138526e-06
4.977987481e-06
6.146066731e-06
7.245096093e-06
6.340321031e-06
6.661325487e-06
9.67816888e-06
6.962213846e-06
2.645350009e-06
1.205774105e-05
1.01245093e-05
1.302985315e-05
1.173206588e-05
5.811726706e-06
6.079053003e-06
1.05869631e-06
3.351743664e-06
4.912581322e-06
4.485609207e-06
5.533491635e-06
5.576244018e-06
4.590387745e-06
3.030632554e-06
3.377057731e-06
2.430857504e-06
6.372203156e-06
1.811645663e-06
2.407674755e-06
6.61305957e-06
4.811196469e-06
7.404460019e-06
6.609491737e-06
6.665775694e-06
3.229944358e-06
7.044565514e-06
4.353064537e-06
8.602097242e-06
3.887678467e-06
5.838392668e-06
1.389917597e-05
5.945097093e-06
8.435913165e-06
8.988221135e-06
3.203785551e-06
4.803760387e-06
5.51956448e-06
3.42766942e-06
4.912581322e-06
3.325666318e-06
4.987909682e-06
6.282585649e-06
3.878546389e-06
7.019116059e-06
8.040060313e-06
2.91741938e-06
4.247479473e-06
4.612183045e-06
5.396581388e-06
6.110470068e-06
5.40208074e-06
6.808628117e-06
4.977987481e-06
8.569985237e-06
8.730602499e-06
4.31535316e-06
9.23732323e-06
1.102217912e-05
9.131321174e-06
4.013482954e-06
7.271783746e-06
1.086736675e-05
1.171729878e-05
9.933509888e-06
3.278041767e-06
6.454883476e-06
5.444203437e-06
2.742502529e-06
8.750477766e-06
3.790016114e-06
6.156745733e-06
3.377055316e-06
2.849271928e-06
4.067984115e-06
6.191272507e-06
1.701990673e-06
5.309841331e-06
3.623291326e-06
2.98890659e-06
4.185557313e-06
9.199751783e-06
5.786616386e-06
5.664392566e-06
4.847836869e-06
5.587669626e-06
1.091897039e-05
8.349859829e-06
9.229445928e-06
4.520606965e-06
1.2133562e-05
5.799522514e-06
6.687954479e-06
8.718465166e-06
1.362492274e-05
4.321218243e-06
3.302246296e-06
3.780798076e-06
5.027615459e-06
4.912581286e-06
4.408528048e-06
5.611163691e-06
7.382179909e-06
5.619662163e-06
4.626410228e-06
6.431660868e-06
3.565517897e-06
5.391258692e-06
4.199814206e-06
4.316865088e-06
4.938433324e-06
3.038543369e-06
6.638976266e-06
6.265255452e-06
7.010858276e-06
6.285865507e-06
8.101992767e-06
4.618661655e-06
5.108102349e-06
7.86546418e-06
8.665574515e-06
8.2831318e-06
8.638794406e-06
7.312479704e-06
1.248875279e-05
4.84280647e-06
3.752881303e-06
2.948184649e-06
4.418374381e-06
6.063765344e-06
6.032820644e-06
3.273491723e-06
5.732788463e-06
8.865248889e-06
3.430057339e-06
7.637476298e-06
5.348276929e-06
7.760234593e-06
8.399628413e-06
6.641792482e-06
3.096949483e-06
7.427098647e-06
4.936306639e-06
3.690719511e-06
6.752046396e-06
6.810038132e-06
4.578649362e-06
6.395728369e-06
4.57006657e-06
5.696356832e-06
7.115609731e-06
4.510739813e-06
9.939354407e-06
8.998759089e-06
4.068616592e-06
5.364394658e-06
7.505762552e-06
2.268114547e-06
5.636856611e-06
3.837896379e-06
4.94995895e-06
2.727909769e-06
7.382179964e-06
4.590387745e-06
4.626410228e-06
5.708558978e-06
2.26932088e-06
4.656534277e-06
5.270782905e-06
4.898096923e-06
5.357593974e-06
7.258855446e-06
7.319634066e-06
6.951660594e-06
4.328127942e-06
4.976485443e-06
5.195128429e-06
8.082122957e-06
5.735451035e-06
7.775356934e-06
9.76095974e-06
8.744044799e-06
5.945097093e-06
4.687371145e-06
5.487689483e-06
4.321218243e-06
3.377050808e-06
4.914855322e-06
4.799838191e-06
5.449923793e-06
3.402747443e-06
4.987909682e-06
4.005124704e-06
3.403349984e-06
4.705910928e-06
5.868818008e-06
7.050267548e-06
7.025510117e-06
4.694260066e-06
4.980844337e-06
3.516110112e-06
3.038543394e-06
3.57499108e-06
4.892445281e-06
6.318608075e-06
5.674681277e-06
3.698874106e-06
3.731198143e-06
5.646138168e-06
7.775356866e-06
7.845134145e-06
5.430348704e-06
1.003193181e-05
4.031094021e-06
4.162917558e-06
7.97233577e-06
3.227441738e-06
5.51956444e-06
5.560930854e-06
2.149369886e-06
6.032820689e-06
4.129762098e-06
2.199188743e-06
5.223347451e-06
2.313205114e-06
4.020030125e-06
3.484749623e-06
3.022282876e-06
6.09353689e-06
6.060560594e-06
4.855004475e-06
4.81119643e-06
4.340474833e-06
3.089856626e-06
6.146066731e-06
4.278289609e-06
3.170160542e-06
3.996795292e-06
2.509394741e-06
6.689714293e-06
7.754218195e-06
5.430348656e-06
7.338234495e-06
5.343648316e-06
5.393388566e-06
4.768550219e-06
7.879785162e-06
5.51956448e-06
5.485005098e-06
4.912581358e-06
2.707154347e-06
3.351163795e-06
3.848580272e-06
5.777425506e-06
1.036967268e-05
4.502743607e-06
4.132848145e-06
5.147006525e-06
5.765228807e-06
2.906159199e-06
4.771575704e-06
7.342977046e-06
3.063985161e-06
5.063529681e-06
5.020378159e-06
4.976485443e-06
6.956800112e-06
5.151995644e-06
3.226056293e-06
6.056785814e-06
8.483742751e-06
6.81087061e-06
7.15307945e-06
4.031094021e-06
6.055774405e-06
6.108751571e-06
3.227441761e-06
4.310146204e-06
7.16087693e-06
3.837896379e-06
5.104121164e-06
3.35116382e-06
4.633194056e-06
5.30222906e-06
4.546909564e-06
5.628429552e-07
3.565517925e-06
1.878503633e-06
4.858414108e-06
4.316865088e-06
5.441022822e-06
2.363537415e-06
3.659817033e-06
3.605177311e-06
4.934107555e-06
6.459888715e-06
3.786639538e-06
7.106127104e-06
4.032030747e-06
5.966678569e-06
5.108868255e-06
4.049826737e-06
5.294817137e-06
6.093356672e-06
4.919604506e-06
6.034495312e-06
5.102978431e-06
7.561596097e-06
3.275817883e-06
3.224054829e-06
4.562690333e-06
4.519999825e-06
5.576244018e-06
4.036309689e-06
3.50955803e-06
4.100159627e-06
3.484749623e-06
2.940865472e-06
4.117737218e-06
5.396581388e-06
4.938433364e-06
2.363537434e-06
4.170822892e-06
8.324470638e-06
2.68273037e-06
5.761692881e-06
1.937202469e-06
2.5759978e-06
6.541425453e-06
7.775356934e-06
6.567917081e-06
1.933174188e-06
4.551959691e-06
5.437079549e-06
9.082522019e-06
8.269360634e-06
3.827685787e-06
7.107608905e-06
7.694192288e-06
7.444446601e-06
3.790016058e-06
3.896745774e-06
7.931977206e-06
4.590387745e-06
8.614893679e-06
4.743132052e-06
3.565517953e-06
7.597399786e-06
4.117737186e-06
1.743695519e-06
5.357594017e-06
2.447658995e-06
5.447312528e-06
3.089856626e-06
2.51018908e-06
4.889473797e-06
2.553681492e-06
5.685329634e-06
5.824763901e-06
3.977785678e-06
6.386085318e-06
6.074740106e-06
7.523389476e-06
4.687371187e-06
7.380546415e-06
3.203785597e-06
9.156885809e-06
4.914855358e-06
2.20918719e-06
4.912581322e-06
8.583949732e-06
3.896745774e-06
5.811060664e-06
8.151501029e-06
7.019116005e-06
2.251371803e-06
2.350089164e-06
3.512755059e-06
5.434936989e-06
5.313833931e-06
3.68296781e-06
4.220312111e-06
5.447312573e-06
3.690719511e-06
3.808418974e-06
4.36530125e-06
5.019597627e-06
3.286396557e-06
7.079461272e-06
1.988892839e-06
4.013482954e-06
7.455262073e-06
6.87310952e-06
1.312554247e-06
6.906762274e-06
4.172705781e-06
4.878564862e-06
3.251449893e-06
3.809133266e-06
3.453552065e-06
3.248585216e-06
1.636745861e-06
2.748985908e-06
8.151501029e-06
4.546909564e-06
5.065586597e-06
6.321400772e-06
3.022282852e-06
4.035660133e-06
2.324927341e-06
4.855004475e-06
6.583849491e-06
5.447312573e-06
6.951660594e-06
4.847836909e-06
8.293441335e-06
2.641446893e-06
2.575997822e-06
3.764092112e-06
4.520607004e-06
4.470259723e-06
4.602478935e-06
5.294817137e-06
4.593939864e-06
4.825303539e-06
2.682197329e-06
4.803760387e-06
7.032247942e-06
3.809133238e-06
3.837896407e-06
3.325666342e-06
5.065581779e-06
2.827258109e-06
5.30222906e-06
2.871631248e-06
4.340548037e-06
5.834838805e-06
4.0846447e-06
4.117737186e-06
9.547951605e-06
5.943612369e-06
5.486202429e-06
3.14881114e-06
5.664392566e-06
3.635877651e-06
4.452312817e-06
8.189758099e-06
6.9290623e-06
6.54142551e-06
5.333750032e-06
5.838392668e-06
3.313696143e-06
4.55195965e-06
5.343648268e-06
1.324771875e-06
7.151928024e-06
4.878564898e-06
7.107608905e-06
5.333153585e-06
5.142078558e-06
5.104121202e-06
7.170237497e-06
3.377055291e-06
6.964463267e-06
3.908982788e-06
6.191272507e-06
5.754070503e-06
4.656534277e-06
8.235474371e-06
4.732602133e-06
7.282506772e-06
6.077086689e-06
6.723802164e-06
4.977987481e-06
3.722148328e-06
3.229944358e-06
6.428086431e-06
4.618661655e-06
6.452112587e-06
3.887678467e-06
5.199784136e-06
5.891261727e-06
2.786274804e-06
4.780802469e-06
3.594832651e-06
4.246961997e-06
4.953369409e-06
5.51956448e-06
3.960984779e-06
5.526422872e-06
4.331446923e-06
8.572089794e-06
6.36085785e-06
5.777425506e-06
3.430057339e-06
4.663002546e-06
2.430857485e-06
5.800313542e-06
3.046768445e-06
6.641792429e-06
5.021862213e-06
3.713549353e-06
4.851480726e-06
4.977987481e-06
5.540087123e-06
6.372877111e-06
6.515851887e-06
4.44159691e-06
2.688020475e-06
7.23253558e-06
4.652091485e-06
7.455262073e-06
2.693697314e-06
5.343648268e-06
8.988221053e-06
)
;

boundaryField
{
    flow
    {
        type            zeroGradient;
    }
    obstacle
    {
        type            calculated;
        value           nonuniform List<scalar> 0();
    }
    frontAndBack
    {
        type            empty;
    }
    procBoundary3to1
    {
        type            processor;
        value           nonuniform List<scalar> 
36
(
1.475881352e-05
1.331766581e-05
7.455262006e-06
6.87310952e-06
1.003101941e-05
1.003101941e-05
1.194496579e-05
9.515809784e-06
1.215192834e-05
8.349859758e-06
1.362088684e-05
1.356182113e-05
1.356182113e-05
6.476297653e-06
4.185557347e-06
5.402080784e-06
1.276694653e-05
9.440654277e-06
9.440654277e-06
5.777425506e-06
8.694394343e-06
3.939900686e-06
8.671489906e-06
8.578344141e-06
7.741028511e-06
7.741028511e-06
3.827685787e-06
5.444203477e-06
6.246097726e-06
6.754106022e-06
2.242804603e-06
8.416745599e-06
8.088521609e-06
8.088521609e-06
4.84280647e-06
4.84280647e-06
)
;
    }
    procBoundary3to2
    {
        type            processor;
        value           nonuniform List<scalar> 
19
(
5.472793145e-06
3.771982481e-06
3.106757727e-06
3.106757705e-06
4.363491336e-06
3.845698382e-06
4.216059566e-06
5.915088546e-07
2.662680672e-06
3.771982481e-06
5.843154299e-06
4.437207236e-06
2.144887718e-06
5.990586057e-06
3.25418955e-06
5.399077245e-06
6.582094954e-06
4.80756839e-06
6.287231354e-06
)
;
    }
}


// ************************************************************************* //
