/*--------------------------------*- C++ -*----------------------------------*\
| =========                 |                                                 |
| \\      /  F ield         | OpenFOAM: The Open Source CFD Toolbox           |
|  \\    /   O peration     | Version:  2406                                  |
|   \\  /    A nd           | Website:  www.openfoam.com                      |
|    \\/     M anipulation  |                                                 |
\*---------------------------------------------------------------------------*/
FoamFile
{
    version     2.0;
    format      ascii;
    arch        "LSB;label=32;scalar=64";
    class       volScalarField;
    location    "0.008";
    object      rhoN;
}
// * * * * * * * * * * * * * * * * * * * * * * * * * * * * * * * * * * * * * //

dimensions      [0 -3 0 0 0 0 0];

internalField   nonuniform List<scalar> 
654
(
2.136728851e+20
2.472033048e+20
2.910154718e+20
2.237522429e+20
1.975888113e+20
1.566934476e+20
1.303181954e+20
2.891624313e+20
2.386370432e+20
2.674694032e+20
1.618964349e+20
2.450045928e+20
1.78535717e+20
3.603048667e+20
2.237522429e+20
1.975888113e+20
3.703663341e+20
1.499953123e+20
1.512305412e+20
1.524862848e+20
2.56271762e+20
2.067485196e+20
2.085091144e+20
1.05149975e+20
2.651522679e+20
2.54095933e+20
3.103015003e+20
1.633363952e+20
2.472033026e+20
1.801524349e+20
1.53829667e+20
1.693618398e+20
2.564074621e+20
1.191565711e+20
8.406414597e+19
1.210414948e+20
1.220064989e+20
1.721818192e+20
1.611784398e+20
8.749726551e+19
1.512305424e+20
1.779006671e+20
1.793902334e+20
2.584356495e+20
2.085091126e+20
3.943124063e+19
2.386370432e+20
9.361429112e+19
2.833187611e+20
1.905591294e+20
3.021373726e+20
1.940103128e+20
1.538296656e+20
2.96383217e+20
2.564074621e+20
9.039820138e+19
5.691915687e+19
4.587658998e+19
1.271132728e+20
1.280804207e+20
9.386356265e+19
9.458876315e+19
9.532525688e+19
1.080824742e+20
1.08937347e+20
1.952103998e+20
9.838961099e+19
1.239834162e+20
1.249960946e+20
1.386279961e+20
1.524862836e+20
8.969511523e+19
1.809049532e+20
1.433500149e+20
1.840124547e+20
2.386370391e+20
1.604816405e+20
2.158619132e+20
2.177818603e+20
2.609368172e+20
1.524366744e+20
2.097677277e+20
2.96383217e+20
3.276317541e+20
1.682542654e+20
1.242975251e+20
1.935251305e+20
9.175317928e+19
3.466725622e+19
1.280804198e+20
1.52528287e+20
5.911797608e+19
8.340959913e+19
1.080824734e+20
1.815622422e+20
1.098058482e+20
1.475844142e+20
1.115850728e+20
4.999843783e+19
1.008203624e+20
1.270719051e+20
1.537630572e+20
1.421396084e+20
1.042545581e+20
1.314374699e+20
1.325761351e+20
1.471081718e+20
1.888791757e+20
2.177818641e+20
2.06002754e+20
1.940103145e+20
1.957832125e+20
2.117022979e+20
2.136728851e+20
1.009525592e+20
1.016979758e+20
1.024544824e+20
2.293829499e+19
8.089026452e+19
4.65746981e+19
9.386356194e+19
9.458876315e+19
7.149394266e+19
7.205498226e+19
6.05207474e+19
7.320389936e+19
1.352857151e+20
1.115850737e+20
7.499765615e+19
1.008203608e+20
1.524862848e+20
1.153222929e+20
1.033742598e+20
1.303181954e+20
1.445812144e+20
1.32576134e+20
1.337347016e+20
2.023705437e+20
1.497250289e+20
5.493406725e+19
2.49441833e+20
2.097677277e+20
2.681562464e+20
2.421626031e+20
1.233864621e+20
1.24297526e+20
2.276766258e+19
6.881488497e+19
1.040017687e+20
9.314939689e+19
1.173294524e+20
1.18235953e+20
9.532525688e+19
6.004581855e+19
7.262489744e+19
4.880259996e+19
1.352857151e+20
3.719502456e+19
4.999843743e+19
1.386279972e+20
1.01657524e+20
1.537630572e+20
1.421396072e+20
1.433500149e+20
6.571873439e+19
1.458337486e+20
9.361429112e+19
1.753878045e+20
8.166819831e+19
1.236016513e+20
2.910154692e+20
1.258606366e+20
1.693618383e+20
1.851831671e+20
6.730170614e+19
1.016979758e+20
1.138383137e+20
6.881488497e+19
1.040017687e+20
6.986204714e+19
1.055965072e+20
1.300595493e+20
8.340959977e+19
1.441099656e+20
1.69458094e+20
6.100324899e+19
8.609090894e+19
9.918673216e+19
1.124964851e+20
1.26025452e+20
1.143647127e+20
1.409494679e+20
1.033742598e+20
1.824454751e+20
1.840124578e+20
9.280329377e+19
1.872285806e+20
2.293532828e+20
1.905591277e+20
8.240110088e+19
1.524366757e+20
2.237522429e+20
2.399292709e+20
1.994280242e+20
6.730170614e+19
1.355973001e+20
1.138383121e+20
5.734573705e+19
1.848920346e+20
8.150572288e+19
1.290623986e+20
7.094157237e+19
5.957828555e+19
8.406414597e+19
1.331456453e+20
3.660194997e+19
1.106883124e+20
7.439004912e+19
6.249804679e+19
8.821781643e+19
1.906078576e+20
1.153222929e+20
1.162960423e+20
1.042545563e+20
1.182937209e+20
2.253794277e+20
1.738551121e+20
1.888791741e+20
9.527956387e+19
2.609368172e+20
1.247209143e+20
1.398451505e+20
1.834753248e+20
2.848971801e+20
8.973560883e+19
6.779865104e+19
7.968681962e+19
1.032223267e+20
1.040017679e+20
9.314939619e+19
1.173294515e+20
1.537067378e+20
1.191565702e+20
9.607330968e+19
1.331456443e+20
7.320389879e+19
1.106883115e+20
8.678839064e+19
8.749726551e+19
1.008203608e+20
6.353595201e+19
1.409494691e+20
1.292178248e+20
1.433500149e+20
1.314374688e+20
1.723489756e+20
9.361429112e+19
1.079309566e+20
1.633363966e+20
1.785357201e+20
1.662945553e+20
1.817986973e+20
1.552483532e+20
2.564074621e+20
1.009525599e+20
7.909842564e+19
5.691915687e+19
9.175317996e+19
1.271132728e+20
1.280804198e+20
7.039767146e+19
1.182359539e+20
1.906505138e+20
7.205498226e+19
1.573539445e+20
1.098058499e+20
1.598831179e+20
1.735767813e+20
1.37495704e+20
6.301272653e+19
1.524862848e+20
1.02508704e+20
7.753069486e+19
1.433500161e+20
1.445812157e+20
9.280329377e+19
1.337347016e+20
9.443958786e+19
1.225022975e+20
1.510686849e+20
9.700515727e+19
2.097677296e+20
1.834753265e+20
8.546915325e+19
1.121695102e+20
1.581968501e+20
4.553532517e+19
1.146914749e+20
8.089026452e+19
1.047930715e+20
5.866472621e+19
1.53706739e+20
9.532525688e+19
9.607330968e+19
1.210414948e+20
4.880259958e+19
9.838961021e+19
1.115850728e+20
9.999687487e+19
1.134229059e+20
1.524862848e+20
1.537630572e+20
1.421396084e+20
9.122273754e+19
1.05149975e+20
1.060609081e+20
1.604816419e+20
1.214223262e+20
1.633363966e+20
2.060027522e+20
1.801524333e+20
1.258606366e+20
9.879440567e+19
1.13958872e+20
8.973560883e+19
6.779865104e+19
1.024544816e+20
1.032223267e+20
1.155575207e+20
6.986204714e+19
1.055965072e+20
8.276516776e+19
7.149394266e+19
9.607331042e+19
1.210414967e+20
1.464077987e+20
1.475844153e+20
9.918673216e+19
9.999687487e+19
7.561527122e+19
6.353595253e+19
7.68815286e+19
1.033742598e+20
1.303181965e+20
1.182937219e+20
7.95456797e+19
8.024082027e+19
1.214223262e+20
1.633363952e+20
1.648022018e+20
1.108630369e+20
2.097677277e+20
8.468091915e+19
8.546915325e+19
1.682542654e+20
6.779865006e+19
1.138383129e+20
1.146914749e+20
4.62230083e+19
1.280804207e+20
8.213061732e+19
4.729438158e+19
1.07240914e+20
4.803665484e+19
8.472904636e+19
7.320389936e+19
6.149350687e+19
1.239834152e+20
1.249960936e+20
1.008203608e+20
1.016575232e+20
8.96951167e+19
6.460891238e+19
1.303181954e+20
9.200622814e+19
6.628806754e+19
8.024082096e+19
5.396547831e+19
1.361136627e+20
1.648022003e+20
1.108630359e+20
1.53829667e+20
1.129078932e+20
1.139588731e+20
1.009525592e+20
1.581968513e+20
1.138383137e+20
1.146914749e+20
1.040017694e+20
5.821837305e+19
7.039767093e+19
8.276516713e+19
1.191565711e+20
2.161649468e+20
9.683319584e+19
8.540454926e+19
1.106883124e+20
1.239834152e+20
6.249804729e+19
1.008203624e+20
1.524862848e+20
6.406793997e+19
1.033742598e+20
1.042545563e+20
1.05149975e+20
1.458337486e+20
1.069877613e+20
6.745684789e+19
1.225022975e+20
1.785357201e+20
1.385787949e+20
1.538296656e+20
8.468091915e+19
1.282037299e+20
1.233864621e+20
6.779865055e+19
9.107065033e+19
1.490989174e+20
8.089026452e+19
1.047930707e+20
7.039767146e+19
9.458876244e+19
1.072409132e+20
9.607330968e+19
1.210414957e+19
7.320389936e+19
3.689610383e+19
9.918673216e+19
8.749726551e+19
1.134229059e+20
5.082876161e+19
7.68815286e+19
7.753069486e+19
1.042545572e+20
1.314374688e+20
7.954568038e+19
1.471081718e+20
8.094821816e+19
1.225022975e+20
1.098681345e+20
8.314727766e+19
1.118761214e+20
1.270213787e+20
9.971401303e+19
1.233864613e+20
1.016979758e+20
1.593736381e+20
6.881488446e+19
6.933451245e+19
9.314939689e+19
9.386356194e+19
1.18235953e+20
8.340959977e+19
7.205498281e+19
8.472904702e+19
7.320389936e+19
6.149350687e+19
8.678839133e+19
1.124964851e+20
1.008203616e+20
5.082876202e+19
8.969511596e+19
1.679831708e+20
5.212727816e+19
1.182937219e+20
3.977284019e+19
5.349388018e+19
1.349136958e+20
1.633363966e+20
1.373351681e+20
4.157363846e+19
9.789160625e+19
1.129078922e+20
1.851831654e+20
1.682542654e+20
7.909842506e+19
1.479898068e+20
1.605680649e+20
1.50224777e+20
8.150572167e+19
8.21306167e+19
1.655303355e+20
9.532525688e+19
1.801374556e+20
9.683319659e+19
7.320389993e+19
1.598831179e+20
8.678839064e+19
3.749882838e+19
1.134229068e+20
5.08287612e+19
1.15322292e+20
6.460891238e+19
5.212727816e+19
1.051499741e+20
5.303045358e+19
1.203612314e+20
1.214223262e+20
8.16681976e+19
1.373351681e+20
1.247209165e+20
1.53829667e+20
9.879440656e+19
1.566934505e+20
6.730170711e+19
1.920961779e+20
1.024544824e+20
4.587658998e+19
1.040017687e+20
1.746551179e+20
8.21306167e+19
1.182359539e+20
1.668191995e+20
1.441099645e+20
4.841659792e+19
4.880259919e+19
7.379220766e+19
1.115850737e+20
1.124964842e+20
7.561527122e+19
8.895033354e+19
1.153222929e+20
7.753069486e+19
7.819091789e+19
9.200622892e+19
1.060609081e+20
6.68673508e+19
1.484050653e+20
4.08340988e+19
8.240110088e+19
1.524366757e+20
1.398451518e+20
2.822697305e+19
1.424485887e+20
8.973560819e+19
1.016979751e+20
6.830298775e+19
8.028403246e+19
6.933451245e+19
6.986204766e+19
3.519883573e+19
5.911797652e+19
1.668191995e+20
9.607330968e+19
1.089373462e+20
1.342071499e+20
6.149350638e+19
8.678838995e+19
4.999843743e+19
1.008203608e+20
1.397790944e+20
1.153222929e+20
1.421396084e+20
1.042545572e+20
1.70868708e+20
5.303045358e+19
5.349388064e+19
8.094821746e+19
9.52795647e+19
9.61346177e+19
9.700515641e+19
1.118761214e+20
9.879440567e+19
9.971401303e+19
5.608475512e+19
1.016979758e+20
1.479898068e+20
8.028403187e+19
8.089026512e+19
6.986204766e+19
1.055965072e+20
5.911797652e+19
1.072409132e+20
6.004581901e+19
8.472904702e+19
1.220064989e+20
8.609090961e+19
8.678839064e+19
1.999937497e+20
1.26025452e+20
1.143647146e+20
6.40679405e+19
1.162960423e+20
7.819091724e+19
9.200622814e+19
1.723489741e+20
1.471081705e+20
1.349136969e+20
1.088909311e+20
1.236016513e+20
6.928939743e+19
9.789160537e+19
1.129078922e+20
2.848971775e+19
1.458203644e+20
1.016979758e+20
1.479898068e+20
1.146914749e+20
1.040017687e+20
1.047930715e+20
1.525282882e+20
7.094157183e+19
1.429878853e+20
8.406414597e+19
1.331456453e+20
1.220064989e+20
9.838961021e+19
1.735767813e+20
9.999687567e+19
1.512305424e+20
1.27071903e+20
1.409494679e+20
1.033742598e+20
7.819091789e+19
6.571873439e+19
1.32576134e+20
9.361429112e+19
1.349136958e+20
8.166819831e+19
1.098681345e+20
1.247209154e+20
5.593806071e+19
9.879440656e+19
7.122429567e+19
8.973560819e+19
1.016979758e+20
1.138383137e+20
8.028403246e+19
1.155575207e+20
9.314939619e+19
1.759941786e+20
1.300595493e+20
1.191565711e+20
7.205498226e+19
9.683319584e+19
4.880259958e+19
1.229870137e+20
6.19917076e+19
1.374957029e+20
1.008203616e+20
7.624314304e+19
1.025087048e+20
1.033742598e+20
1.172863759e+20
1.314374688e+20
1.325761351e+20
9.361429112e+19
5.396547831e+19
1.497250289e+20
9.61346177e+19
1.524366757e+20
5.593806071e+19
1.129078922e+20
1.851831654e+20
)
;

boundaryField
{
    flow
    {
        type            zeroGradient;
    }
    obstacle
    {
        type            calculated;
        value           nonuniform List<scalar> 0();
    }
    frontAndBack
    {
        type            empty;
    }
    procBoundary3to1
    {
        type            processor;
        value           nonuniform List<scalar> 
36
(
2.991420391e+20
2.746703339e+20
1.524366744e+20
1.398451518e+20
2.117022979e+20
2.117022979e+20
2.476045712e+20
1.971562015e+20
2.518946524e+20
1.738551106e+20
2.833187636e+20
2.858386966e+20
2.858386966e+20
1.37495704e+20
8.821781714e+19
1.143647136e+20
2.690853479e+20
1.938267371e+20
1.938267371e+20
1.191565711e+20
1.801374556e+20
8.472904702e+19
1.830097484e+20
1.844805192e+20
1.611784398e+20
1.611784398e+20
7.909842506e+19
1.138383129e+20
1.261606224e+20
1.386690259e+20
4.657469844e+19
1.759941786e+20
1.655303355e+20
1.655303355e+20
1.009525599e+20
1.009525599e+20
)
;
    }
    procBoundary3to2
    {
        type            processor;
        value           nonuniform List<scalar> 
19
(
1.113533235e+20
7.794732648e+19
6.681199412e+19
6.681199365e+19
8.908265883e+19
7.794732648e+19
8.908265946e+19
1.113533235e+19
5.567666177e+19
7.794732648e+19
1.224886559e+20
8.908265883e+19
4.454132941e+19
1.22488655e+20
6.68119946e+19
1.113533235e+20
1.336239882e+20
1.002179912e+20
1.336239882e+20
)
;
    }
}


// ************************************************************************* //
