/*--------------------------------*- C++ -*----------------------------------*\
| =========                 |                                                 |
| \\      /  F ield         | OpenFOAM: The Open Source CFD Toolbox           |
|  \\    /   O peration     | Version:  2406                                  |
|   \\  /    A nd           | Website:  www.openfoam.com                      |
|    \\/     M anipulation  |                                                 |
\*---------------------------------------------------------------------------*/
FoamFile
{
    version     2.0;
    format      ascii;
    arch        "LSB;label=32;scalar=64";
    class       volScalarField;
    location    "0.008";
    object      rhoNMean;
}
// * * * * * * * * * * * * * * * * * * * * * * * * * * * * * * * * * * * * * //

dimensions      [0 -3 0 0 0 0 0];

internalField   nonuniform List<scalar> 
654
(
2.414432377e+20
2.417957325e+20
2.460986195e+20
2.455331252e+20
2.453276795e+20
2.474118314e+20
1.96998758e+20
2.055682012e+20
2.141071438e+20
2.22029695e+20
2.30034597e+20
2.371678487e+20
2.385752186e+20
2.409885243e+20
2.457289085e+20
2.457193288e+20
2.453498903e+20
1.422330549e+20
1.501435717e+20
1.570386358e+20
1.651287098e+20
1.738981181e+20
1.840549048e+20
1.927826214e+20
2.015753829e+20
2.104248662e+20
2.183409524e+20
2.256866612e+20
2.32954779e+20
2.359927608e+20
2.395966986e+20
2.430906941e+20
2.434944974e+20
1.110807345e+20
1.131113107e+20
1.148925869e+20
1.187672264e+20
1.222121955e+20
1.271232952e+20
1.31477141e+20
1.380419789e+20
1.454465025e+20
1.524528678e+20
1.609084963e+20
1.691921131e+20
1.792445621e+20
1.873996813e+20
1.962556746e+20
2.049473952e+20
2.131437891e+20
2.217207641e+20
2.299403299e+20
2.349398529e+20
2.379569112e+20
2.423549087e+20
1.01675377e+20
1.019194423e+20
1.019091101e+20
1.028259709e+20
1.047319422e+20
1.058253004e+20
1.071986276e+20
1.084950369e+20
1.11123795e+20
1.134552209e+20
1.157719677e+20
1.187531858e+20
1.222817438e+20
1.268585364e+20
1.311074273e+20
1.361384833e+20
1.429612001e+20
1.490269161e+20
1.568965913e+20
1.655684921e+20
1.75080041e+20
1.832065095e+20
1.928962294e+20
2.024724761e+20
2.113725554e+20
2.200180881e+20
2.265771149e+20
2.325796728e+20
2.370914311e+20
1.020882755e+20
1.021782155e+20
1.031745082e+20
1.040022287e+20
1.042531063e+20
1.043273237e+20
1.051535877e+20
1.062675179e+20
1.071902716e+20
1.084787758e+20
1.097846358e+20
1.123222322e+20
1.144271158e+20
1.176540609e+20
1.203868636e+20
1.248817721e+20
1.284061601e+20
1.331491973e+20
1.385796573e+20
1.443176299e+20
1.530227884e+20
1.610998905e+20
1.706956298e+20
1.781096899e+20
1.886127056e+20
1.985317208e+20
2.058553371e+20
2.147846725e+20
2.212394864e+20
2.276292857e+20
1.011039881e+20
1.00887217e+20
1.01196569e+20
1.017456747e+20
1.022308497e+20
1.028252897e+20
1.038541648e+20
1.04822085e+20
1.056471948e+20
1.075961023e+20
1.088405121e+20
1.093025722e+20
1.107928513e+20
1.132061568e+20
1.159932499e+20
1.182055718e+20
1.210677566e+20
1.242053128e+20
1.29915601e+20
1.34605664e+20
1.392612829e+20
1.477991885e+20
1.567370703e+20
1.655559689e+20
1.750659901e+20
1.827828087e+20
1.936569386e+20
2.035725875e+20
2.128737192e+20
2.196272361e+20
1.015722965e+20
1.022375401e+20
1.020788152e+20
1.023535395e+20
1.029501952e+20
1.023682763e+20
1.022526178e+20
1.023686881e+20
1.030763918e+20
1.033658743e+20
1.039110981e+20
1.061487051e+20
1.076074877e+20
1.088729365e+20
1.116902594e+20
1.142830305e+20
1.174875066e+20
1.216169681e+20
1.231381261e+20
1.269853075e+20
1.33087009e+20
1.381145031e+20
1.433836603e+20
1.527830148e+20
1.6102927e+20
1.686063859e+20
1.778104517e+20
1.866688047e+20
1.96540885e+20
2.051437757e+20
1.010927711e+20
1.010538886e+20
1.014299375e+20
1.015220263e+20
1.012601665e+20
1.015386637e+20
1.023112825e+20
1.029362215e+20
1.029602142e+20
1.037021317e+20
1.038203169e+20
1.052916078e+20
1.059594608e+20
1.063188781e+20
1.077403837e+20
1.10259668e+20
1.118709266e+20
1.147777145e+20
1.184959758e+20
1.225544899e+20
1.260386758e+20
1.318767949e+20
1.366735205e+20
1.408465255e+20
1.478943002e+20
1.574547703e+20
1.660589714e+20
1.7486937e+20
1.83856389e+20
1.94381783e+20
9.968784798e+19
9.989283602e+19
1.000098031e+20
9.990200852e+19
1.00896161e+20
1.013290791e+20
1.019387623e+20
1.020258047e+20
1.026146601e+20
1.021949809e+20
1.036932234e+20
1.038061803e+20
1.039332506e+20
1.054014008e+20
1.0671229e+20
1.072917686e+20
1.092310096e+20
1.12362354e+20
1.156241096e+20
1.175535282e+20
1.210506218e+20
1.250756392e+20
1.311770254e+20
1.358446003e+20
1.418712706e+20
1.490052227e+20
1.558526403e+20
1.638076171e+20
1.713306697e+20
1.790115819e+20
9.965139361e+19
9.99013123e+19
1.006359153e+20
1.00736389e+20
1.009626051e+20
1.010321638e+20
1.007830656e+20
1.009587236e+20
1.018371627e+20
1.026723451e+20
1.02676474e+20
1.029917853e+20
1.037918147e+20
1.046265045e+20
1.046811035e+20
1.050390628e+20
1.055173323e+20
1.077943099e+20
1.096768592e+20
1.127578186e+20
1.159705646e+20
1.196797915e+20
1.23086076e+20
1.286941744e+20
1.33575144e+20
1.38681054e+20
1.451890047e+20
1.518438658e+20
1.609960706e+20
1.707495637e+20
1.02026583e+20
1.013702823e+20
1.006529911e+20
1.006532384e+20
1.004657085e+20
1.009099053e+20
1.010059924e+20
1.01168594e+20
1.012175493e+20
1.006638125e+20
1.017020908e+20
1.026989713e+20
1.025680948e+20
1.024753922e+20
1.040123752e+20
1.059779541e+20
1.068261729e+20
1.072817655e+20
1.094733411e+20
1.102850317e+20
1.128817841e+20
1.144198324e+20
1.171315384e+20
1.200765631e+20
1.241969126e+20
1.294521295e+20
1.353291233e+20
1.421316213e+20
1.504885798e+20
1.584954223e+20
9.943546659e+19
1.001753304e+20
1.00137872e+20
9.999662972e+19
9.961347182e+19
9.988235173e+19
9.989136256e+19
9.956945196e+19
9.973107109e+19
1.004926819e+20
1.007216539e+20
1.005547063e+20
1.018885907e+20
1.025962753e+20
1.030092807e+20
1.044026343e+20
1.054823875e+20
1.062791031e+20
1.06863142e+20
1.08385644e+20
1.097108552e+20
1.111186876e+20
1.130292264e+20
1.156379015e+20
1.189871621e+20
1.230832111e+20
1.273261967e+20
1.339157173e+20
1.397094031e+20
1.467505375e+20
9.92279537e+19
9.913857748e+19
9.94064608e+19
9.939163146e+19
9.975502978e+19
9.914588857e+19
1.00108422e+20
9.978227743e+19
1.001630137e+20
1.009580378e+20
1.00770072e+20
1.013446983e+20
1.012921037e+20
1.022894171e+20
1.034655165e+20
1.034227872e+20
1.0390352e+20
1.045012177e+20
1.043595457e+20
1.063070688e+20
1.066647918e+20
1.086892281e+20
1.112037468e+20
1.13830058e+20
1.167038544e+20
1.201408051e+20
1.235187454e+20
1.270318398e+20
1.321339892e+20
1.379899479e+20
9.897837583e+19
9.845211471e+19
9.859820877e+19
9.924826785e+19
9.912813023e+19
1.002520384e+20
1.010382587e+20
1.0140211e+20
1.010834982e+20
1.010120783e+20
1.008669037e+20
1.015399087e+20
1.011475948e+20
1.012200602e+20
1.00440611e+20
1.014504881e+20
1.013811418e+20
1.015637027e+20
1.026344878e+20
1.03335813e+20
1.037238785e+20
1.052157352e+20
1.062187867e+20
1.082277667e+20
1.108679811e+20
1.137272517e+20
1.171649066e+20
1.213890879e+20
1.240399058e+20
1.28830506e+20
1.002963676e+20
1.000708082e+20
1.00046802e+20
1.00248951e+20
1.003270403e+20
1.004063171e+20
1.000409569e+20
1.006749581e+20
1.013516005e+20
1.011501836e+20
1.010030753e+20
1.008749733e+20
1.009877117e+20
1.005536493e+20
1.007093534e+20
1.007226927e+20
1.00374097e+20
1.010831923e+20
1.015296754e+20
1.024985186e+20
1.03385427e+20
1.050798447e+20
1.068172495e+20
1.08264868e+20
1.08591481e+20
1.097651341e+20
1.120652069e+20
1.153337918e+20
1.201198838e+20
1.240798432e+20
1.003216064e+20
1.011019127e+20
1.015295453e+20
1.005442815e+20
1.001305917e+20
9.951557524e+19
9.891459487e+19
9.873884439e+19
9.82416132e+19
9.852317908e+19
9.894234466e+19
9.910282892e+19
9.976091541e+19
1.005629481e+20
1.010468421e+20
1.017056896e+20
1.02743988e+20
1.033960458e+20
1.046050596e+20
1.0477583e+20
1.060601795e+20
1.059647895e+20
1.051489091e+20
1.05802694e+20
1.06917283e+20
1.073755012e+20
1.092763097e+20
1.113237331e+20
1.132924847e+20
1.175414541e+20
1.007085905e+20
1.003674273e+20
1.006131469e+20
1.006073611e+20
1.005292652e+20
1.009797681e+20
1.009209285e+20
1.012011081e+20
1.002642967e+20
1.000423391e+20
9.975332268e+19
1.002039376e+20
1.003666272e+20
1.007675215e+20
1.010780919e+20
1.010692619e+20
1.016384633e+20
1.020826522e+20
1.016847359e+20
1.016677401e+20
1.022484929e+20
1.021896841e+20
1.037112602e+20
1.045007759e+20
1.067029039e+20
1.075677704e+20
1.094252809e+20
1.104881583e+20
1.116553203e+20
1.137808103e+20
9.977758359e+19
9.882783223e+19
9.919585992e+19
9.967836088e+19
9.985036474e+19
9.989399466e+19
9.952470802e+19
1.001251617e+20
1.005741038e+20
1.002885261e+20
1.008426961e+20
1.012653949e+20
1.012798058e+20
1.005102551e+20
1.007656017e+20
1.007384451e+20
1.001231292e+20
1.005706488e+20
1.005831548e+20
1.009151526e+20
1.01473011e+20
1.026039845e+20
1.027182809e+20
1.038869186e+20
1.045625157e+20
1.048794345e+20
1.0554854e+20
1.074185572e+20
1.096159225e+20
1.106148924e+20
1.000860512e+20
9.961881792e+19
1.001065671e+20
9.957800584e+19
9.985614261e+19
9.99318366e+19
1.001553538e+20
9.975863024e+19
1.002970648e+20
1.000003062e+20
1.006066644e+20
9.971896097e+19
9.937965567e+19
1.002839854e+20
1.004687351e+20
1.009652909e+20
1.018767231e+20
1.012625834e+20
1.019916291e+20
1.026549013e+20
1.024555078e+20
1.024051211e+20
1.018021982e+20
1.028953029e+20
1.038172934e+20
1.055592436e+20
1.053302784e+20
1.058697722e+20
1.076118064e+20
1.090728844e+20
1.000608116e+20
1.004804243e+20
9.976505148e+19
1.000339044e+20
9.986480943e+19
1.002840585e+20
1.010206585e+20
1.016356252e+20
1.014916094e+20
1.016755846e+20
1.012935757e+20
1.013721506e+20
1.021284154e+20
1.016973955e+20
1.016593229e+20
1.017876062e+20
1.015240977e+20
1.010767863e+20
1.011420227e+20
1.009803125e+20
1.016833109e+20
1.030348569e+20
1.041158086e+20
1.039611211e+20
1.033170765e+20
1.044502621e+20
1.060647451e+20
1.079115114e+20
1.092136871e+20
1.103478003e+20
1.011432474e+20
1.013194334e+20
1.015950024e+20
1.018001524e+20
1.015432832e+20
1.012155525e+20
1.007684002e+20
1.000571753e+20
1.002315279e+20
1.003275567e+20
9.998027548e+19
1.006004587e+20
1.004742409e+20
1.003583754e+20
1.006593542e+20
1.007352945e+20
1.010062805e+20
1.012177358e+20
1.009804996e+20
1.012898174e+20
1.009669776e+20
1.007611762e+20
1.009730422e+20
1.016911991e+20
1.025480343e+20
1.037361193e+20
1.036881188e+20
1.038944585e+20
1.043198356e+20
1.055401594e+20
1.006020302e+20
1.001951057e+20
1.002289426e+20
1.003435714e+20
1.005494877e+20
1.00694498e+20
1.006804031e+20
1.000749107e+20
1.00463884e+20
1.004956842e+20
1.00428129e+20
1.00868873e+20
1.012951784e+20
1.01812081e+20
1.009437211e+20
1.009274833e+20
1.008252014e+20
1.016469902e+20
1.017493457e+20
1.015471967e+20
1.014467243e+20
1.006816305e+20
1.015447589e+20
1.013910152e+20
1.017551723e+20
1.011782517e+20
1.028462526e+20
1.035343581e+20
1.044927268e+20
1.053300497e+20
9.74977383e+19
9.815549633e+19
9.82196971e+19
9.88210421e+19
9.849256387e+19
9.824641471e+19
9.884126396e+19
9.924430384e+19
9.912635149e+19
9.912663955e+19
9.959596796e+19
9.835553912e+19
9.800527657e+19
9.78632092e+19
9.822505524e+19
9.919778394e+19
9.90430196e+19
9.853008569e+19
9.801172009e+19
9.881702961e+19
9.949487793e+19
1.004595664e+20
9.965909963e+19
9.986311761e+19
9.949568457e+19
9.960576407e+19
9.962083205e+19
1.000522138e+20
1.006503291e+20
1.023920456e+20
)
;

boundaryField
{
    flow
    {
        type            calculated;
        value           nonuniform List<scalar> 
55
(
2.414432377e+20
2.474118314e+20
2.453498903e+20
2.434944974e+20
2.423549087e+20
2.370914311e+20
2.276292857e+20
2.196272361e+20
2.051437757e+20
1.94381783e+20
1.790115819e+20
1.707495637e+20
1.584954223e+20
1.467505375e+20
1.379899479e+20
1.28830506e+20
1.240798432e+20
1.175414541e+20
1.137808103e+20
1.106148924e+20
1.090728844e+20
1.103478003e+20
1.055401594e+20
1.053300497e+20
1.023920456e+20
9.74977383e+19
9.815549633e+19
9.82196971e+19
9.88210421e+19
9.849256387e+19
9.824641471e+19
9.884126396e+19
9.924430384e+19
9.912635149e+19
9.912663955e+19
9.959596796e+19
9.835553912e+19
9.800527657e+19
9.78632092e+19
9.822505524e+19
9.919778394e+19
9.90430196e+19
9.853008569e+19
9.801172009e+19
9.881702961e+19
9.949487793e+19
1.004595664e+20
9.965909963e+19
9.986311761e+19
9.949568457e+19
9.960576407e+19
9.962083205e+19
1.000522138e+20
1.006503291e+20
1.023920456e+20
)
;
    }
    obstacle
    {
        type            calculated;
        value           nonuniform List<scalar> 0();
    }
    frontAndBack
    {
        type            empty;
    }
    procBoundary3to1
    {
        type            processor;
        value           nonuniform List<scalar> 
36
(
2.375721973e+20
2.466642599e+20
2.473527554e+20
2.462533278e+20
2.440327671e+20
2.440327671e+20
2.094799832e+20
2.181204776e+20
2.280342629e+20
2.327518727e+20
2.382677073e+20
2.38967956e+20
2.38967956e+20
1.538764422e+20
1.612369646e+20
1.688785605e+20
1.784420264e+20
1.870201882e+20
1.870201882e+20
1.15269088e+20
1.172394607e+20
1.22273093e+20
1.259015564e+20
1.303416361e+20
1.355231716e+20
1.355231716e+20
1.028505521e+20
1.034306452e+20
1.04217276e+20
1.058709124e+20
1.061029849e+20
1.072303198e+20
1.093061835e+20
1.093061835e+20
1.01235788e+20
1.01235788e+20
)
;
    }
    procBoundary3to2
    {
        type            processor;
        value           nonuniform List<scalar> 
19
(
1.016795036e+20
1.007413518e+20
1.016628006e+20
1.007413511e+20
9.986444438e+19
1.000648804e+20
1.013704988e+20
9.946635625e+19
9.904878129e+19
9.939676042e+19
9.993404021e+19
1.00571538e+20
1.005186452e+20
9.971968435e+19
9.947749229e+19
1.00488023e+20
1.004963745e+20
1.005130775e+20
9.821084753e+19
)
;
    }
}


// ************************************************************************* //
