/*--------------------------------*- C++ -*----------------------------------*\
| =========                 |                                                 |
| \\      /  F ield         | OpenFOAM: The Open Source CFD Toolbox           |
|  \\    /   O peration     | Version:  2406                                  |
|   \\  /    A nd           | Website:  www.openfoam.com                      |
|    \\/     M anipulation  |                                                 |
\*---------------------------------------------------------------------------*/
FoamFile
{
    version     2.0;
    format      ascii;
    arch        "LSB;label=32;scalar=64";
    class       volScalarField;
    location    "0.008";
    object      translationalT;
}
// * * * * * * * * * * * * * * * * * * * * * * * * * * * * * * * * * * * * * //

dimensions      [1 2 -2 0 0 0 0];

internalField   nonuniform List<scalar> 
654
(
754.1610761
772.1613624
769.2421537
762.6770359
751.0014759
745.8358444
759.3366212
767.0523743
772.6440956
763.2401457
769.175952
766.1465794
758.6868215
760.7183278
754.5415543
747.3917974
744.3277601
661.9877332
689.0717554
699.702319
721.3243023
728.1695833
741.2142693
746.9668993
751.5599789
754.766467
757.5888891
759.8350571
758.3649203
750.6052195
751.0217888
750.2349095
744.4888387
464.2011413
485.4808519
506.8529845
544.6957539
565.4573613
591.2943746
618.4909923
649.3057181
667.6345197
691.988572
704.9826149
720.232074
733.77535
737.8767497
738.0884964
738.2056438
744.6594165
750.3603153
749.5880431
746.7677308
742.2444865
738.9741002
336.6741288
345.9871889
354.0494924
372.6916291
389.0549298
401.0672863
410.3655349
422.1543515
446.2129827
469.8601306
486.2931434
511.8619559
544.3528511
566.8545829
593.9998177
619.5202559
638.6664416
657.4764155
682.6654246
703.4752591
723.9392063
729.4120413
728.9210283
738.7439078
744.2118869
743.7480808
742.0159854
736.1108949
729.4472756
327.781753
331.2567289
340.1612472
343.4938698
350.7796974
360.167783
375.0506507
389.4034912
395.4816823
415.9162344
434.7878718
455.2088472
477.0392112
497.0060643
528.1460625
550.1362948
576.2923716
603.5753983
621.3110036
642.550985
665.4116192
688.6478655
702.2092606
713.8322094
730.1570712
727.0060362
732.4205621
733.7778464
727.9990454
730.7284999
321.6783217
322.3956177
330.5466603
337.1351359
344.3037959
348.1539807
353.4087622
365.2068873
377.9273754
394.1532164
405.8216547
422.1787512
442.3151482
463.2970315
499.5581133
513.0238795
536.9404718
563.3762885
582.8735432
605.9646777
622.5312641
654.3830932
671.5795224
689.3614481
706.6961118
712.4379567
721.7595697
723.1338537
721.9804658
716.5556093
317.1482694
322.8853845
320.8685182
322.6919808
329.0729907
338.3107424
342.7647951
346.2647609
363.5895328
373.9093952
389.1321659
400.9811311
404.7618792
421.8207899
452.5856364
470.1660138
498.9131712
529.5954057
544.7059838
567.8636527
593.5128414
622.6040895
636.021871
663.0793527
677.6456034
689.6631629
701.8655286
714.4815655
719.1333557
716.2450575
314.320213
315.3797091
319.7233736
318.9144803
321.103304
328.0404038
338.5802899
338.1412555
348.4066169
356.8740023
368.2146962
377.0291964
389.3143691
396.4964711
415.9459215
436.1799024
456.1225767
485.2701276
507.3390103
534.7673351
552.8604179
590.6445217
611.1940648
626.4728721
651.021692
669.7852253
683.8719118
699.474969
702.2109963
712.2447288
309.8582084
310.7705267
313.5535153
315.9485161
322.0175943
324.7575843
330.1372448
334.2275167
339.9143829
343.5272607
354.1630712
363.7681364
366.4740267
378.729612
391.1918351
401.3387157
417.7034994
443.5684428
468.6684045
485.2759176
511.7992834
536.5532961
569.4960773
584.1534997
609.6599007
631.7066631
648.6988021
666.5310554
682.5337907
690.7779249
309.300114
311.0794074
311.0200565
314.6627478
314.9582966
319.0668384
320.3655142
324.207941
328.3171578
331.7776068
339.3342063
348.9016785
353.9881737
367.7007628
381.6220647
393.5319806
402.4481216
421.1247204
433.0993405
459.5174981
472.3174313
492.6291902
519.0675898
546.0918822
566.8121571
589.7821251
615.0113957
633.5823595
654.5626509
666.7194432
305.0164245
303.9152825
303.851265
308.3297129
309.6155463
313.0784546
314.0264361
320.081122
324.3254657
324.4636447
332.3739374
341.2458481
345.120942
346.5150149
357.7205768
371.0595787
376.6196636
391.6160814
414.0672456
428.7119616
442.7804
456.8809485
489.7706921
507.5798519
531.2761037
558.7319346
580.8121198
603.5402539
623.8884946
647.2804611
304.9376983
305.5775559
308.3755567
310.2015595
306.8102393
309.8117414
312.1197534
316.3253286
318.0878654
322.2362716
322.1165565
326.4148431
330.8617098
336.8911231
346.8507356
358.985821
364.7778644
371.1572717
385.648241
396.4583209
419.3693424
432.7084174
452.6430789
472.694739
500.1720072
520.3844844
542.9506172
573.4877207
598.8644952
618.2142403
301.2061217
300.1373919
302.7495833
308.0365863
307.6946041
307.3767685
311.2768731
311.6012231
314.8765762
318.2584158
322.9635729
326.3161777
324.9725347
329.1670395
334.7983737
345.0750798
350.2163176
359.7080761
367.7904317
384.9001459
385.3214701
403.4011586
423.788495
443.1036246
460.7222219
479.4937661
505.7298603
530.5044082
553.4107499
584.2615384
299.6272449
300.5439623
299.8533816
300.9422053
303.5468775
305.1961957
309.857852
310.9307651
312.620368
315.2063037
319.8471644
319.2772687
327.3926733
328.7948889
329.466675
336.8623903
340.4839597
349.1625922
356.1330688
367.9187793
374.031229
389.4237142
404.1005783
429.1726199
435.2999396
453.0473887
477.3751972
506.1082824
521.6335317
548.4979064
302.0386238
300.8485157
300.2246703
301.9537789
304.7979701
304.1203471
304.8047291
306.2009209
306.8771836
309.0323808
313.5780807
315.6112467
318.723354
318.4515843
325.4489871
331.6065487
335.6204143
341.3013163
346.66773
355.5885789
368.3100335
372.9049524
387.552161
402.0944016
406.142088
422.2120575
439.657977
462.6164768
491.537184
512.7542878
305.4776771
304.496745
304.9323376
302.8121602
301.9663697
303.3679391
304.1017484
303.1607053
304.6123546
305.9318345
308.0124661
310.4684687
316.7500934
315.4192825
317.6267249
320.8826586
326.8081236
327.7841147
331.663902
336.4269831
344.9873989
351.8295679
357.2949341
373.5612184
386.5548754
402.3932521
418.3260038
440.4266163
454.8677041
479.3766619
301.1304365
303.1724743
303.4415474
304.5021492
302.3316137
301.7567795
302.6396986
303.8020925
301.9475068
302.8565969
303.2778963
303.4304525
307.5770384
312.3807316
313.4776034
314.8113734
318.7599904
325.1061303
328.2680264
328.0779621
333.6811316
344.594379
350.6789966
359.6138169
377.3045957
381.0540255
396.3914689
410.5989576
424.0732751
446.9225258
298.3338229
296.2711477
297.0469149
300.6297533
304.0250925
302.673088
302.6459356
304.4512636
302.488049
301.1890189
303.8023096
305.3938737
306.2959783
308.4080972
310.8302623
311.7592693
315.0576607
321.0412011
322.6036829
325.1260352
326.3846415
333.471325
339.4947494
354.1172105
359.1094448
375.1003544
378.3546056
392.3568569
405.8769361
416.0805636
301.1066364
301.0956466
300.193072
301.5135641
301.1431024
301.9279025
301.3546392
299.7154678
302.9156267
302.1070772
303.6278487
302.2049182
301.4878992
302.702338
307.5114567
309.698017
311.5247305
308.5137369
315.1674059
318.5687337
321.6916416
325.4755864
326.7233558
335.8260311
342.1634283
357.6092247
366.1517712
371.957451
395.1766276
401.4482729
300.9264116
301.8006361
299.950223
299.0637407
297.5275183
296.2727225
297.6122969
298.9014598
301.9542472
301.8932327
300.7966224
301.9859392
300.5560258
302.553893
305.6340012
306.2835629
308.3366944
309.7376962
310.7585348
312.9040492
316.5782368
319.9053656
325.376803
328.5389461
329.7046384
338.4254149
347.3692539
361.2618939
368.0895805
383.1008285
300.9914325
300.2106838
299.7748255
299.6975498
302.3918527
301.095769
300.4504013
301.3565848
299.3813439
300.6266197
301.7025038
305.8794605
308.8290684
306.433767
307.4347463
308.8520714
311.3277201
309.8713049
307.5191293
312.3913952
315.8205914
319.6256094
319.7585071
325.7080318
326.6312126
334.8034415
341.4525612
346.9914235
357.6139555
368.8024427
300.7965028
301.6297742
300.9673207
300.667121
302.1825872
303.9471613
302.5337483
301.7639126
302.7590595
301.1811676
300.8865442
301.6039509
301.9489157
303.1556545
305.6642731
303.6554554
303.7610002
307.4152022
308.1810438
308.2502342
313.3371609
313.9050739
316.537069
317.4662338
322.4265544
324.2396065
330.9669346
337.6620609
345.4776047
356.539245
297.4453039
300.6424318
303.5449644
302.1297516
299.9490273
299.3160971
301.2587493
301.2315681
301.7063704
301.5650572
303.2103468
303.0957186
304.0045969
302.0528748
301.6515986
305.2155616
303.2792166
306.4412663
303.8662144
303.4691706
304.8273887
311.0985645
313.6030806
313.5749123
317.2287421
314.1272127
317.6869486
327.8960438
330.4432069
342.077895
)
;

boundaryField
{
    flow
    {
        type            calculated;
        value           nonuniform List<scalar> 
55
(
754.1610761
745.8358444
744.3277601
744.4888387
738.9741002
729.4472756
730.7284999
716.5556093
716.2450575
712.2447288
690.7779249
666.7194432
647.2804611
618.2142403
584.2615384
548.4979064
512.7542878
479.3766619
446.9225258
416.0805636
401.4482729
383.1008285
368.8024427
356.539245
342.077895
297.4453039
300.6424318
303.5449644
302.1297516
299.9490273
299.3160971
301.2587493
301.2315681
301.7063704
301.5650572
303.2103468
303.0957186
304.0045969
302.0528748
301.6515986
305.2155616
303.2792166
306.4412663
303.8662144
303.4691706
304.8273887
311.0985645
313.6030806
313.5749123
317.2287421
314.1272127
317.6869486
327.8960438
330.4432069
342.077895
)
;
    }
    obstacle
    {
        type            calculated;
        value           nonuniform List<scalar> 0();
    }
    frontAndBack
    {
        type            empty;
    }
    procBoundary3to1
    {
        type            processor;
        value           nonuniform List<scalar> 
36
(
758.2284978
773.3765061
764.9807994
766.6000165
760.2787926
760.2787926
773.1601321
770.6579722
775.3462392
770.7479192
777.1754677
768.605304
768.605304
707.3429277
724.1045308
738.511008
748.5183833
753.4370955
753.4370955
508.0987491
524.1861891
562.4424951
588.3547317
609.030267
635.4189753
635.4189753
353.6076135
360.2685851
370.3340093
395.3637344
414.5718761
420.1136814
435.5289454
435.5289454
334.6132542
334.6132542
)
;
    }
    procBoundary3to2
    {
        type            processor;
        value           nonuniform List<scalar> 
19
(
320.376527
314.1654695
311.678179
308.1821336
305.2519237
307.5207847
301.3543429
304.143502
301.2388269
300.283236
301.3674294
303.9505674
300.4950102
298.5236153
298.5493313
300.1515877
299.945332
300.7276503
298.1107257
)
;
    }
}


// ************************************************************************* //
