/*--------------------------------*- C++ -*----------------------------------*\
| =========                 |                                                 |
| \\      /  F ield         | OpenFOAM: The Open Source CFD Toolbox           |
|  \\    /   O peration     | Version:  2406                                  |
|   \\  /    A nd           | Website:  www.openfoam.com                      |
|    \\/     M anipulation  |                                                 |
\*---------------------------------------------------------------------------*/
FoamFile
{
    version     2.0;
    format      ascii;
    arch        "LSB;label=32;scalar=64";
    class       volVectorField;
    location    "0.008";
    object      UMean;
}
// * * * * * * * * * * * * * * * * * * * * * * * * * * * * * * * * * * * * * //

dimensions      [0 1 -1 0 0 0 0];

internalField   nonuniform List<vector> 
654
(
(1309.904338 414.7241416 -2.353349053)
(1352.810965 435.7729364 -0.8782819773)
(1343.066872 437.5573736 0.5797004197)
(1336.835529 432.817578 -1.319688864)
(1337.892546 427.1753339 -0.3332296447)
(1330.095977 422.7920901 -0.0117130925)
(1431.831327 379.223108 -0.04712816885)
(1421.957545 391.5627733 -1.269580995)
(1408.266712 410.1110303 -3.861116169)
(1400.096442 417.1595706 -6.579319947)
(1386.409039 428.1874617 -0.9528579707)
(1370.890268 431.8951199 -5.97223163)
(1371.933265 429.5270105 -3.726428037)
(1366.525276 436.294848 -2.055442935)
(1362.256392 439.3914017 -2.616371782)
(1360.502655 433.2204277 -1.109317163)
(1353.941535 426.8765284 0.8819864661)
(1552.831533 240.6273356 1.416473665)
(1533.149846 261.505731 -2.465639409)
(1516.112514 284.8749879 0.5635899011)
(1497.399856 307.6912434 -4.180749324)
(1478.063678 327.8835045 -2.263552959)
(1461.925167 357.4557783 -3.907607509)
(1445.749388 369.3425751 -2.120536645)
(1431.478704 383.1023397 -6.884067953)
(1422.323979 401.3672285 -5.885879706)
(1413.681396 413.7240023 -2.641885116)
(1404.019229 427.0575754 -0.1801003655)
(1387.641161 433.1502312 -3.105120629)
(1385.038732 432.6877287 -1.684549384)
(1375.908898 431.1556707 0.7705284373)
(1370.074017 435.4572094 -3.096103823)
(1371.238523 430.8937688 -2.163222121)
(1667.228849 82.86936835 0.9270325813)
(1658.907794 95.00302365 0.05864986886)
(1647.828301 111.9357217 1.190863796)
(1632.378949 132.0068317 5.351867772)
(1624.227582 153.4131938 5.121383214)
(1603.973323 173.9614457 -2.222386968)
(1587.828625 193.4620394 -0.02179613395)
(1565.641071 221.5320188 -2.059231793)
(1554.12516 243.9856685 -2.852253306)
(1533.386606 273.1617469 -2.829279333)
(1517.345001 293.8100309 -3.765263538)
(1496.189056 317.092752 0.574858054)
(1479.021044 345.0838095 -3.156391861)
(1462.788653 361.506122 1.668253639)
(1447.831989 377.2572371 -2.282)
(1435.217719 394.7474926 -4.127463617)
(1427.27214 410.3829683 -4.195662198)
(1412.882486 424.6642965 -4.239163232)
(1399.372806 425.8574641 -0.7872453535)
(1394.566774 430.6329843 0.7809516431)
(1389.214183 433.7922432 0.4201547395)
(1386.700915 431.4990105 0.2925114325)
(1723.463246 15.33565944 3.439909057)
(1717.688332 18.82989372 3.178176377)
(1714.247794 25.04107642 4.070466947)
(1709.720791 30.12870589 2.658662789)
(1704.982818 37.62818084 1.210916812)
(1700.77297 44.96041747 0.5392285141)
(1694.022468 54.56379066 1.171836325)
(1685.157902 63.07554733 2.040490742)
(1675.771304 75.79635367 -1.873327351)
(1665.103208 89.47010576 -3.676918827)
(1655.081076 103.3832212 -5.495030563)
(1643.096915 121.9565695 -3.756616319)
(1629.859922 140.1178232 -1.697617568)
(1616.468547 162.6528312 -2.893941268)
(1599.381801 185.4244575 -1.504059528)
(1580.690721 208.0950492 -3.168364846)
(1563.321568 228.5769988 -1.14794609)
(1549.623387 257.3880029 -1.184226904)
(1528.728876 280.8671577 0.9032789012)
(1506.867806 308.3324823 1.405045728)
(1491.909998 335.7598401 -3.958268156)
(1476.648428 352.5152656 0.9847958141)
(1464.218924 371.8607789 -0.6237525333)
(1447.119422 387.4206859 -2.542485399)
(1440.070238 400.0755107 -1.120533115)
(1430.041192 414.6694083 -0.5103353392)
(1416.707515 421.2924281 -3.880651725)
(1412.57298 424.5812853 0.6851768601)
(1404.856243 433.3227531 0.6947431634)
(1726.598027 12.17178897 -1.651124728)
(1727.07016 16.6522732 -1.330740291)
(1721.687623 19.37589869 2.246842917)
(1723.082847 19.33120883 1.537958359)
(1719.377432 21.37858769 1.632011167)
(1713.7967 27.26926738 2.89677043)
(1708.465579 38.02725463 2.630908987)
(1703.236763 46.19081725 -0.8743481333)
(1700.064649 50.70495743 -2.473372043)
(1690.051504 56.90645414 -0.3901067517)
(1680.643917 67.57404525 -0.0426384327)
(1673.588744 80.35161204 0.7594588056)
(1661.76845 96.66712235 0.3659669582)
(1651.681327 112.086651 4.060387963)
(1635.966363 130.4017063 5.45155194)
(1625.058728 149.774636 4.365020654)
(1610.277267 173.9855456 1.378212271)
(1596.789359 198.9145328 -0.3532191952)
(1582.325486 220.7597867 -2.291325142)
(1563.267682 246.8693943 -3.669409915)
(1541.063065 270.0852089 -3.000332943)
(1523.771058 296.8595779 -3.313361859)
(1505.449532 321.8305053 -3.028695309)
(1492.218184 338.580031 2.859325909)
(1474.218014 360.6903818 0.08440158099)
(1459.421596 380.161002 -2.566159299)
(1449.549692 395.2707423 -2.676963997)
(1442.663459 408.6027189 -3.963222272)
(1433.593943 419.527406 -5.12184976)
(1425.524478 425.6662383 -3.135341492)
(1731.580633 10.19622437 1.244096343)
(1731.653975 8.021392678 1.402935781)
(1729.607912 12.74982524 1.550273793)
(1725.387585 14.9043194 1.062880368)
(1722.862092 18.35339267 -0.8992900286)
(1718.4742 22.45354441 0.3783143508)
(1715.544801 24.47949806 1.340015596)
(1713.095487 28.73732239 1.602309272)
(1709.587325 37.51739335 0.8792766034)
(1698.936762 47.2987446 -0.5499135373)
(1692.108921 55.52245378 -2.208604531)
(1685.447761 62.91519412 -3.865837483)
(1680.010092 75.38259402 -4.229516438)
(1668.808092 90.15761919 -4.316937975)
(1650.837917 109.7551995 -4.23242112)
(1642.28212 124.5088413 -4.826558879)
(1631.051265 144.1919987 0.5586206994)
(1617.740309 166.2965367 -1.576357599)
(1602.172502 185.7433569 1.650373971)
(1590.294492 206.734402 0.5554908512)
(1581.531093 229.4170154 1.287101081)
(1553.553957 261.0957878 0.9364651256)
(1535.421541 286.0081402 -3.762895091)
(1516.343066 307.5291893 -2.683536394)
(1496.725273 327.8603657 -0.4273860889)
(1485.739746 348.7604234 0.1941129333)
(1471.657801 370.33111 -0.5899524605)
(1458.707026 387.62104 -2.285895655)
(1450.534421 400.3534113 -6.277918134)
(1441.462886 411.2107226 -6.347542329)
(1730.755189 8.827776128 1.522076812)
(1727.320042 9.254257582 0.7034345924)
(1727.055268 8.292623334 -1.42170249)
(1725.691792 10.81799606 -3.11731702)
(1724.611505 13.90672205 -3.48980886)
(1724.182427 17.91107346 -4.643771172)
(1720.884939 21.83554861 -3.131666193)
(1717.613014 24.13302863 -3.171684685)
(1714.120811 28.90413644 -1.793057079)
(1709.895548 33.90419979 0.01404087229)
(1702.109282 38.49604998 -0.8941436957)
(1695.839443 48.09632543 -1.373657661)
(1692.547525 56.35289297 1.449063946)
(1686.325221 71.245742 -0.2738376469)
(1672.665671 85.44120604 -1.3054243)
(1666.525656 102.7412587 -1.798572383)
(1654.202861 117.3616943 -2.234489056)
(1639.34288 136.2081535 -2.562792247)
(1632.232151 156.7120134 -4.335283492)
(1615.233191 178.3016699 -2.102303793)
(1599.077327 198.5565604 -1.730368173)
(1585.107876 223.6112705 -2.436025652)
(1572.989816 240.8154804 -1.517794836)
(1546.083197 270.9807684 -4.929822459)
(1525.135757 298.1034904 -2.727892218)
(1513.689281 318.8995675 -2.272393926)
(1495.229697 344.0616302 -3.391384365)
(1482.927256 365.2354019 1.063502099)
(1463.87857 382.7596281 1.880064392)
(1457.024398 394.51229 -1.667487302)
(1731.84055 4.433391095 -1.249864995)
(1729.642732 6.117653586 -0.4030425809)
(1730.679102 8.319656875 -1.088522569)
(1727.987488 10.70260953 -1.372312548)
(1728.520193 15.85841791 0.8435241572)
(1725.681629 16.37435303 -0.496982975)
(1722.495533 17.77416355 -4.499607113)
(1723.189689 18.03712282 -3.408915699)
(1719.806395 22.406322 -3.574048361)
(1717.708162 25.41377607 -2.744782)
(1713.044002 34.16776869 -1.835292803)
(1708.789087 40.70898747 -4.192084974)
(1702.947658 48.4748182 -2.183423936)
(1698.356583 53.03453437 -0.4298356449)
(1693.208992 62.49053987 -1.201981817)
(1683.779223 76.3073068 -4.873878012)
(1671.807434 92.9562097 -4.734636735)
(1659.365149 115.4277465 -4.884604298)
(1649.268256 129.1066212 -5.909070779)
(1635.89675 147.9336528 -7.661791407)
(1624.29153 163.5724654 -6.525010027)
(1598.003576 187.0017025 -2.736176444)
(1585.933335 211.7917105 -2.831592176)
(1576.406985 235.5661148 -2.151959875)
(1557.870847 259.9061672 -2.18307923)
(1536.315378 290.7908943 -4.918637692)
(1519.96446 310.2059505 -2.70617111)
(1501.550617 330.1365693 -1.892506563)
(1492.942799 350.38054 1.211367695)
(1478.554179 372.878056 0.7799872033)
(1730.255052 -0.8649331653 -0.4885695079)
(1730.76986 0.7605333008 -1.305355813)
(1728.432314 6.389621538 0.9204732493)
(1728.208869 7.502716149 0.705622537)
(1725.746104 8.479044369 1.377176335)
(1725.169783 11.18926013 1.630288401)
(1724.016844 12.29424231 3.359227973)
(1724.731845 17.96509225 1.978835821)
(1720.921806 19.39367931 2.285781272)
(1719.92926 21.76601256 1.849374067)
(1716.00355 26.9290649 1.037630415)
(1712.415933 31.88443149 2.913060056)
(1711.205777 35.59402783 -0.545741323)
(1706.403225 44.26150694 -2.500517759)
(1700.477421 52.52540335 -3.428111779)
(1695.39921 59.38468914 -3.312215155)
(1689.464194 71.37587354 -1.956327373)
(1679.786589 84.07440527 1.418909321)
(1667.311911 101.7044855 1.2111933)
(1653.948301 119.6445906 -2.410990575)
(1640.820512 138.2477609 -0.94253119)
(1628.094039 156.1389463 -3.260903842)
(1611.218217 181.9492462 -1.753614853)
(1598.591257 198.9132093 -1.151888881)
(1583.0421 224.4389537 -1.118138483)
(1565.444574 244.8554853 -1.833421045)
(1550.868884 272.9975778 -0.6764306621)
(1533.239676 303.3801989 -0.4995370867)
(1519.431846 330.2957418 -0.2704991529)
(1501.28099 346.8485598 2.115255358)
(1732.699125 2.900229938 2.624281994)
(1731.479868 2.863277632 0.5157944702)
(1731.007862 1.909910068 -0.6770750521)
(1731.031675 1.41854959 0.4520445804)
(1730.682805 3.368159582 -0.6230399757)
(1731.977382 4.737118682 0.3898679119)
(1730.51779 8.76231756 0.6917032641)
(1728.199383 11.4225638 2.432727198)
(1726.043916 15.85034444 -0.01986664839)
(1723.880128 18.07478554 -1.07017867)
(1721.732674 21.58875846 -0.8815012427)
(1714.760359 27.5192501 -0.8656048649)
(1713.090387 33.09136416 2.911599156)
(1711.975788 37.41551585 1.589973835)
(1705.979797 41.30214661 0.08621170151)
(1703.601127 46.19377054 0.4768861853)
(1698.534504 54.61141546 1.441166135)
(1688.998943 66.72261357 -2.326099665)
(1681.300453 77.56606286 -0.744710022)
(1670.972301 93.28841085 0.2652852549)
(1665.47398 104.7329089 -3.956487578)
(1656.852756 123.1667654 -4.533150686)
(1641.426776 142.2659422 -2.956320426)
(1625.056512 165.5983857 -3.355952567)
(1608.583729 186.1647655 -4.528219443)
(1594.369844 216.183971 -3.014414625)
(1582.723593 246.9832003 -2.58504741)
(1562.427621 271.1688103 0.3154795164)
(1542.514528 292.8591121 -3.226814111)
(1528.948482 312.172159 -6.258758442)
(1733.564154 3.451174467 -4.873925976)
(1734.595489 4.146614832 -3.625808819)
(1734.428578 2.763348273 -2.632144199)
(1734.457853 2.015948138 -1.59278068)
(1733.217505 3.812532402 -2.140262846)
(1732.276091 7.182687515 -1.506101833)
(1731.995543 7.356632491 -1.470147419)
(1727.385729 9.467506479 -1.087318091)
(1725.533077 11.55485809 -1.724570693)
(1728.073838 15.20550422 0.7204342319)
(1724.886898 18.01150107 0.3965157333)
(1721.597584 22.43032283 -2.283344053)
(1719.275141 25.18987297 -2.741388221)
(1718.137577 26.54080226 -2.196479523)
(1714.6668 33.88062102 -2.167337669)
(1708.914046 40.5444597 -1.833885683)
(1706.362757 43.76204107 -3.484045622)
(1700.081957 49.5722924 2.371564113)
(1693.257917 58.70623166 -2.362920859)
(1685.233093 72.36400449 1.071701955)
(1675.910287 82.87767406 2.845770506)
(1669.766064 97.82794796 1.924745467)
(1658.535901 119.1986794 1.995872962)
(1649.219965 138.2442193 1.613600085)
(1636.162701 158.7641932 1.058279456)
(1617.118137 183.2329987 1.680423025)
(1598.545497 206.52692 -0.18778029)
(1587.803786 231.3916892 -1.638236089)
(1573.740491 254.7046159 -3.983950868)
(1553.41711 277.7545621 -3.840490018)
(1736.855473 -0.3430780932 0.6055130244)
(1736.90956 1.522567413 -0.04042170059)
(1735.448982 4.277408899 -1.875296057)
(1731.753021 5.45866648 -4.616940326)
(1730.39089 5.981396918 -3.992349211)
(1729.711766 4.041798371 -3.937131891)
(1732.255336 5.585565268 -1.921162705)
(1730.672556 7.071579441 -5.099628708)
(1731.020853 11.16126147 -3.842734305)
(1728.760795 11.48529291 -3.024256842)
(1729.572164 12.11225431 -3.00594287)
(1729.176668 12.09766114 -0.3369138922)
(1726.768028 15.87196326 -1.120590987)
(1722.915464 20.88788325 3.404059987)
(1717.643244 27.10814903 4.738785019)
(1714.384285 29.62039011 2.742869053)
(1709.001703 32.57136759 2.634143261)
(1707.705606 35.37918115 0.212356705)
(1700.332847 47.80023852 -0.9532665859)
(1696.375862 56.11342238 0.5214903583)
(1687.504846 71.00981156 -0.6117129046)
(1681.876821 80.43190818 -0.01800485233)
(1670.020188 95.9838295 -1.07352802)
(1659.928762 116.4790173 -0.4069774955)
(1647.617555 131.2693637 1.770470077)
(1637.1835 146.2161115 1.084656099)
(1626.712839 168.584949 0.912910451)
(1608.57086 192.1998078 -4.609636271)
(1591.482809 216.7958579 -0.2233464639)
(1576.298203 245.9891116 0.9477034794)
(1733.566247 -0.6461524961 -3.834906686)
(1733.458375 0.7217840486 -4.851694337)
(1732.369271 2.075057771 -3.958884948)
(1730.836799 3.570071955 -3.516978257)
(1733.922495 5.579457803 -1.948640082)
(1733.34564 5.844218083 -3.132435205)
(1729.661045 5.515506487 -4.590179294)
(1731.503041 4.685123232 -1.311842591)
(1732.210057 4.896694585 -0.01401666519)
(1730.69155 7.231127834 -1.136019941)
(1729.054218 10.83151792 -1.566296273)
(1727.823512 12.2785499 0.7058776785)
(1727.333419 9.667490243 -0.4574094127)
(1727.386471 7.64141264 -2.840967251)
(1720.882531 13.32793113 -2.18621785)
(1719.002022 22.0933694 -3.717594455)
(1714.910979 28.19456871 -2.907291249)
(1711.756507 35.63057622 0.1110828712)
(1708.246261 39.52403812 0.06984675061)
(1699.461069 44.56016638 -1.381328201)
(1698.742933 49.84372448 0.3099074149)
(1690.628979 66.53019716 -1.764037435)
(1683.689806 79.5138969 0.703701776)
(1673.691061 86.62998737 2.011155825)
(1664.429129 103.899984 2.862583819)
(1657.345201 118.1512072 4.526650593)
(1642.738578 140.737202 3.437715043)
(1628.527401 160.7056477 4.491387719)
(1616.044032 182.6345717 2.348290507)
(1600.445968 211.4249632 2.669351558)
(1733.724591 2.672627051 -2.213369342)
(1738.242232 0.3946230619 -2.062566481)
(1738.388657 0.2970778704 -1.341859973)
(1738.618716 0.4907479714 -1.456692379)
(1735.661942 -0.4016760394 -0.223431641)
(1735.210736 0.9436272315 0.06431600303)
(1730.979599 1.769058532 1.193312286)
(1730.773981 2.571679377 -0.8896393791)
(1728.923411 4.270261668 -3.432776426)
(1729.958333 5.478582001 -4.776372749)
(1728.949998 4.16532666 -3.558761222)
(1729.194133 5.141568018 -3.517407147)
(1727.782529 10.7066672 -1.670835911)
(1727.79968 14.23554179 0.1171649816)
(1726.182908 15.00232329 0.9119413103)
(1721.302819 14.83194933 -0.3596358093)
(1722.0269 16.32255201 0.9451662154)
(1716.724083 24.43507489 -3.06932899)
(1715.091148 30.91464071 -0.7978960686)
(1712.464908 41.89018543 2.413738923)
(1709.518728 43.94428074 2.656808579)
(1701.989081 48.84436642 3.72002108)
(1695.690272 54.22645587 0.6892452823)
(1685.261929 68.19279294 -0.8252510808)
(1680.339657 75.56340273 -2.314152877)
(1669.519809 93.59343062 -3.01297411)
(1660.102801 113.2521932 -1.942821918)
(1645.144201 135.1308138 0.4769770591)
(1633.897688 156.3261293 0.5177127108)
(1620.006794 182.626163 1.225135039)
(1736.122168 2.492937273 3.531771658)
(1733.655313 2.980013556 3.883343786)
(1734.817938 0.9016425026 4.633335573)
(1734.020303 -1.070568946 2.154023419)
(1734.154265 -1.975329158 0.6000486251)
(1737.331162 -2.995604502 -0.5545237537)
(1736.385922 -2.868559227 -2.00758426)
(1734.326337 0.9297114584 -1.33977789)
(1732.869727 1.62935699 -0.8203479436)
(1731.950253 3.100077655 -1.566693856)
(1730.692881 7.258127808 -3.402337813)
(1729.127144 9.337449661 -4.528272465)
(1728.021336 9.136504385 -3.200947193)
(1725.441132 11.85178767 -3.586093306)
(1723.766276 15.62921107 -3.55992437)
(1721.138299 20.77790111 -2.349105708)
(1722.728236 22.3187956 -0.686156433)
(1723.721987 22.12525405 1.381820869)
(1718.718124 21.94240245 0.8209742064)
(1719.034893 24.55850583 -2.175162757)
(1716.606097 31.96597682 -3.876417404)
(1712.433654 36.51706163 -2.411281076)
(1705.069935 44.93621604 1.378997803)
(1698.665526 55.92180796 0.0257501027)
(1694.194748 64.18175195 0.5391276923)
(1689.706586 75.7789464 -2.482655351)
(1676.7963 87.96558992 -0.5181133494)
(1666.79955 104.2403083 -1.532434722)
(1652.745866 126.5784141 -1.521287828)
(1638.460471 145.9653245 -1.433034102)
(1734.977773 2.626344878 -2.260116648)
(1733.03902 0.49849283 -2.770296241)
(1733.132487 1.055759452 -2.953125142)
(1733.790043 2.337192562 -4.519479487)
(1734.13081 2.420908707 -3.002954505)
(1734.144717 1.995266656 -0.9059472587)
(1734.912255 3.291449239 0.5432126412)
(1734.930473 -1.593507423 0.2518694795)
(1732.749278 -1.353626943 -0.424330456)
(1733.439319 0.3603335461 0.5677470769)
(1730.790429 3.097073922 1.411306285)
(1731.310295 7.823224593 1.491024778)
(1727.375151 11.97411957 0.1593530028)
(1729.578509 10.68431059 -2.724945534)
(1731.033123 11.72483988 -3.524025807)
(1729.275367 9.54187509 -3.359995044)
(1724.948391 12.40011336 -3.551661315)
(1721.905477 15.41541737 -4.03837326)
(1721.554219 18.98797427 -3.318207017)
(1719.767298 19.8925817 -1.778185789)
(1715.251347 23.6215588 -1.675756246)
(1714.464653 30.29974712 -4.223834237)
(1713.84238 38.50187624 -6.255789918)
(1709.560399 48.87222668 -5.999170415)
(1704.436097 55.61699607 -4.2555843)
(1701.136182 62.77144918 -2.053633151)
(1694.260303 74.51389313 -3.232626096)
(1684.59081 86.69246803 -2.270886542)
(1674.262477 101.2809175 -1.055042125)
(1656.468527 118.5141006 -1.611757844)
(1735.459442 -0.6823299631 -3.656656939)
(1735.708865 1.230574414 -1.780057613)
(1735.810034 3.590134615 -1.357847184)
(1735.045032 4.608976741 -0.7899860769)
(1736.427065 5.510643843 -2.334842894)
(1735.59166 6.397703684 -3.023877284)
(1732.754174 3.95054439 -2.860666025)
(1731.982985 6.018801232 -3.5396083)
(1733.240189 5.806604881 -0.3855349632)
(1733.071349 2.83594069 2.291670611)
(1732.21176 4.199673899 2.143780209)
(1733.012013 1.061624314 2.820059136)
(1733.950615 4.227503235 3.668238412)
(1731.18275 6.203194836 2.142334649)
(1730.000206 1.982830523 2.477030479)
(1729.688106 5.301229774 1.628501394)
(1730.134704 9.018007476 2.505722408)
(1728.055654 10.45463192 -0.3884230814)
(1724.825914 10.41526909 -2.260138076)
(1723.1593 15.22358762 -2.64408546)
(1720.814786 24.5516937 -4.336218912)
(1719.963988 28.78210942 -3.32826228)
(1715.145635 32.3479572 -4.167885698)
(1714.909263 35.67960924 -3.234202113)
(1710.038097 47.15745774 -2.416273167)
(1703.228565 50.16392265 -2.773723783)
(1698.397413 59.66618297 2.129741551)
(1694.474308 70.63875098 2.191249093)
(1690.238864 80.5567301 2.563542994)
(1681.926929 102.0772912 1.171449028)
(1732.906839 0.849744919 1.375697136)
(1735.149832 2.744704951 0.3771473845)
(1732.554989 3.731747452 -0.9907226258)
(1730.980266 2.572137631 -1.125381071)
(1730.823934 -0.09682348487 -0.3086609203)
(1729.547384 2.034747463 0.2734066393)
(1731.379743 6.045482285 0.3494605023)
(1732.235825 5.278298159 0.183825453)
(1732.308239 3.499190546 -2.670364027)
(1731.660841 3.591365753 0.501960582)
(1731.969736 4.780936523 0.2528222498)
(1730.780511 2.706068544 -0.8488277776)
(1729.850629 -1.266141599 0.6170836496)
(1732.023305 2.13158886 1.522984888)
(1732.493527 4.890837354 1.446390409)
(1731.704188 7.613243653 0.458614655)
(1730.951764 6.155382123 -1.717991069)
(1727.331962 8.840257496 -0.9183983406)
(1726.082463 13.67431073 2.08486707)
(1728.590599 12.32997896 3.846608328)
(1728.378223 12.55158951 5.248795452)
(1724.902217 16.48639499 8.657291131)
(1723.618877 22.52334478 8.94157643)
(1715.531083 28.59495916 5.452805871)
(1709.264046 33.95099499 3.536077515)
(1705.968856 45.23184659 4.570273306)
(1705.160874 48.46721002 1.946250277)
(1697.390801 57.55693439 1.826797635)
(1693.552691 69.63064158 1.457835921)
(1689.774859 74.27092904 2.14155832)
(1737.845536 2.045787291 -0.4948052719)
(1733.722742 -0.5388504527 -0.1784996157)
(1733.16675 -1.754994938 0.3928694762)
(1731.962827 -0.9369855617 -0.7247500034)
(1733.169013 1.453213658 -1.443960601)
(1731.792536 1.354358432 -0.9971174546)
(1731.511781 1.036288216 -0.3782380483)
(1732.767809 4.121317406 0.6169225831)
(1734.264903 3.059842661 0.1351337719)
(1731.75678 2.640165262 -2.33122512)
(1733.345478 1.175214592 -2.772019471)
(1735.313072 1.0396156 0.1343454545)
(1733.202725 4.785562397 -3.131649703)
(1729.080086 4.459103936 -1.258747963)
(1726.534129 5.163449053 -3.184039586)
(1726.9837 4.375261801 -2.427905062)
(1730.015145 5.865745715 0.1981302499)
(1728.002523 6.140494809 0.7313537143)
(1728.248216 9.357998814 -1.112782437)
(1726.089321 10.17813862 -0.4580256038)
(1724.428318 13.98959194 0.6985925245)
(1720.745467 14.93150881 -0.09243463231)
(1718.869919 17.6169213 0.3418694694)
(1717.821196 22.24205468 0.9783353801)
(1718.223364 25.66594277 2.582786778)
(1711.657071 32.2006031 3.136190472)
(1709.658965 42.47590199 1.100556432)
(1708.959048 47.56688121 -1.781610166)
(1697.476158 55.73576642 0.1708817126)
(1692.503159 62.57032466 0.6093579512)
(1734.717725 4.034183566 -1.393962228)
(1734.927446 4.269036986 -0.5942796319)
(1738.248962 2.996650664 0.02242092598)
(1738.223111 2.396801686 2.523163877)
(1735.471375 1.08721304 2.817078489)
(1737.082264 0.09992038331 4.293204202)
(1734.798941 -2.195820387 2.268356505)
(1734.133726 -2.31466596 1.273816517)
(1732.926335 1.880186288 -1.251904836)
(1732.350673 2.148499479 0.866099844)
(1733.115487 3.224260331 -0.2767760856)
(1729.258563 5.296805597 -0.3335333285)
(1729.152364 2.137009128 -0.9358890446)
(1728.937803 2.012699411 -1.710112796)
(1730.329758 2.367500148 1.122793699)
(1731.262616 3.368508099 1.73796434)
(1731.359883 4.493255738 3.218905291)
(1733.091591 5.416637941 5.465376905)
(1732.806235 3.130908452 3.426452246)
(1730.181843 11.5199041 1.587303042)
(1726.139714 13.38162492 1.578224539)
(1727.92201 12.93337769 2.049219304)
(1727.265233 15.37496838 0.2803277459)
(1724.25061 17.34862047 -0.1164549339)
(1722.975151 19.70388771 1.443963467)
(1720.014855 25.06043977 1.422003432)
(1714.103324 30.35785282 -1.477956436)
(1709.060837 36.0158723 1.199649749)
(1703.763261 41.260437 1.00332327)
(1698.222676 50.10621 -1.274348587)
(1732.192688 2.269825325 -1.709526212)
(1733.18744 1.222019868 -1.65217485)
(1730.817973 0.4914094011 -2.067478456)
(1731.786346 1.209812325 -2.50825997)
(1731.868287 1.472124641 -1.77896381)
(1732.508348 2.13092578 -2.078218876)
(1733.294973 2.245430191 -0.2778724857)
(1734.600858 1.522226501 0.3187223815)
(1733.718543 -1.449309241 1.182891605)
(1736.086618 -0.9410333427 1.082905592)
(1735.447965 -1.716565926 1.383722454)
(1735.895469 1.403707734 3.571008622)
(1735.544468 2.980666658 4.791438517)
(1739.707872 4.173947786 4.118831908)
(1736.322544 2.064406458 4.385241662)
(1732.362535 3.837468906 4.191370266)
(1729.911462 8.576970944 1.14652216)
(1730.045842 6.695697541 0.2753491233)
(1730.133494 5.782265255 0.8199970356)
(1732.243111 4.553387979 -1.508622206)
(1734.167078 4.476368298 -0.2571538752)
(1729.658381 7.418241059 -0.145906062)
(1728.894043 7.309103565 0.954017931)
(1727.246668 10.63340313 -0.8789166773)
(1727.485037 14.01196372 -0.2178497426)
(1721.599633 17.86391593 -0.8786178329)
(1719.095183 22.71524794 1.64402201)
(1717.592292 28.83809617 -1.819767428)
(1709.674253 37.55415257 -2.084563713)
(1705.910842 43.91334979 3.364007853)
(1736.009429 0.108749752 0.4493460442)
(1735.279932 -0.1113898848 2.408819703)
(1737.398442 1.69237582 1.327199176)
(1736.320634 1.193962185 1.477510014)
(1735.812866 0.929661214 0.4360641575)
(1734.991112 -0.09938377867 0.1599610496)
(1736.408018 -0.5728590313 -1.569635927)
(1738.578356 0.3997334817 -1.151524683)
(1738.162118 1.493635111 0.2264649687)
(1737.606629 4.092559385 0.223697403)
(1736.544292 3.435495582 -1.059021165)
(1737.195401 1.49507255 -0.9335514133)
(1736.4755 -0.4332381049 -2.071345365)
(1735.895786 1.343875311 -2.734151115)
(1735.577668 4.395366296 -2.519655037)
(1738.385431 2.929480118 -2.378100738)
(1735.877708 0.9429411129 -0.3103644856)
(1732.421948 4.511609733 -0.4236509287)
(1730.88178 3.768286609 0.3986602784)
(1731.359984 7.563974593 -0.03936346514)
(1728.359841 8.705945231 -0.151950489)
(1728.876387 11.86096543 0.6023053874)
(1727.937105 12.32508296 1.953983768)
(1728.272179 9.231442762 1.732530097)
(1728.166103 10.4062968 0.871300161)
(1726.341565 11.24927372 3.220359344)
(1720.204803 17.14889494 2.988092871)
(1714.778025 20.8983776 4.213947939)
(1715.16002 27.07717008 1.712206136)
(1711.748214 35.90850876 0.5806726333)
(1736.28158 3.31438417 2.945234696)
(1737.575182 3.959123599 1.155571848)
(1736.215071 4.567682217 2.901598815)
(1735.715654 4.622352699 1.223616988)
(1737.344426 3.054939553 0.4540309954)
(1737.426105 6.568741256 -0.07482082238)
(1737.593437 7.522094023 0.7130200349)
(1734.889832 8.775710643 2.446125114)
(1737.589838 9.011884592 2.534253907)
(1737.555002 8.143849401 1.894628845)
(1736.106343 6.551030278 3.265272578)
(1736.9428 6.055049352 1.811097977)
(1733.581863 6.790140048 0.488585105)
(1736.795715 9.486714209 1.793235511)
(1736.617321 9.569014749 -0.9028767883)
(1733.851246 11.49171752 -2.041220327)
(1733.789022 10.73872337 -3.911464443)
(1736.95618 12.05843123 -3.433767593)
(1737.483891 11.76376573 -0.933731573)
(1736.922485 11.71080662 0.4856936509)
(1735.956918 14.55460111 -0.4052876935)
(1732.899269 14.18143021 -0.3363769979)
(1732.10805 18.19968344 -0.6994936617)
(1731.904697 14.87833904 1.773777147)
(1730.881247 17.38261844 0.4336051952)
(1732.366476 18.07472651 -0.4452837525)
(1732.347171 17.6920518 -0.9443160059)
(1730.379715 23.78019511 -0.2826104061)
(1729.176051 28.82042675 1.186818279)
(1722.554232 34.47635718 1.311461211)
)
;

boundaryField
{
    flow
    {
        type            calculated;
        value           nonuniform List<vector> 
55
(
(1309.904338 414.7241416 -2.353349053)
(1330.095977 422.7920901 -0.0117130925)
(1353.941535 426.8765284 0.8819864661)
(1371.238523 430.8937688 -2.163222121)
(1386.700915 431.4990105 0.2925114325)
(1404.856243 433.3227531 0.6947431634)
(1425.524478 425.6662383 -3.135341492)
(1441.462886 411.2107226 -6.347542329)
(1457.024398 394.51229 -1.667487302)
(1478.554179 372.878056 0.7799872033)
(1501.28099 346.8485598 2.115255358)
(1528.948482 312.172159 -6.258758442)
(1553.41711 277.7545621 -3.840490018)
(1576.298203 245.9891116 0.9477034794)
(1600.445968 211.4249632 2.669351558)
(1620.006794 182.626163 1.225135039)
(1638.460471 145.9653245 -1.433034102)
(1656.468527 118.5141006 -1.611757844)
(1681.926929 102.0772912 1.171449028)
(1689.774859 74.27092904 2.14155832)
(1692.503159 62.57032466 0.6093579512)
(1698.222676 50.10621 -1.274348587)
(1705.910842 43.91334979 3.364007853)
(1711.748214 35.90850876 0.5806726333)
(1722.554232 34.47635718 1.311461211)
(1736.28158 3.31438417 2.945234696)
(1737.575182 3.959123599 1.155571848)
(1736.215071 4.567682217 2.901598815)
(1735.715654 4.622352699 1.223616988)
(1737.344426 3.054939553 0.4540309954)
(1737.426105 6.568741256 -0.07482082238)
(1737.593437 7.522094023 0.7130200349)
(1734.889832 8.775710643 2.446125114)
(1737.589838 9.011884592 2.534253907)
(1737.555002 8.143849401 1.894628845)
(1736.106343 6.551030278 3.265272578)
(1736.9428 6.055049352 1.811097977)
(1733.581863 6.790140048 0.488585105)
(1736.795715 9.486714209 1.793235511)
(1736.617321 9.569014749 -0.9028767883)
(1733.851246 11.49171752 -2.041220327)
(1733.789022 10.73872337 -3.911464443)
(1736.95618 12.05843123 -3.433767593)
(1737.483891 11.76376573 -0.933731573)
(1736.922485 11.71080662 0.4856936509)
(1735.956918 14.55460111 -0.4052876935)
(1732.899269 14.18143021 -0.3363769979)
(1732.10805 18.19968344 -0.6994936617)
(1731.904697 14.87833904 1.773777147)
(1730.881247 17.38261844 0.4336051952)
(1732.366476 18.07472651 -0.4452837525)
(1732.347171 17.6920518 -0.9443160059)
(1730.379715 23.78019511 -0.2826104061)
(1729.176051 28.82042675 1.186818279)
(1722.554232 34.47635718 1.311461211)
)
;
    }
    obstacle
    {
        type            calculated;
        value           nonuniform List<vector> 0();
    }
    frontAndBack
    {
        type            empty;
    }
    procBoundary3to1
    {
        type            processor;
        value           nonuniform List<vector> 
36
(
(1291.580524 397.5021256 -1.298218622)
(1324.208617 430.3537583 2.935035908)
(1316.892824 429.9313304 2.442318547)
(1314.756273 424.6710201 -0.1136988817)
(1310.345518 421.0113395 1.153484902)
(1310.345518 421.0113395 1.153484902)
(1406.989189 402.1686881 -2.408714684)
(1395.423483 414.5630061 -4.660676236)
(1378.186671 419.6026257 -2.953861519)
(1371.910194 426.4796187 0.3660131311)
(1359.300423 434.2019036 0.1654301877)
(1359.646143 436.216104 -2.471812626)
(1359.646143 436.216104 -2.471812626)
(1518.176683 273.3659739 -7.25919375)
(1500.559006 296.7611612 -3.165384162)
(1485.286145 320.5398702 -4.111170103)
(1466.680485 344.1856232 -2.120937824)
(1450.410645 366.3131591 2.901777407)
(1450.410645 366.3131591 2.901777407)
(1643.172757 105.9813589 -0.03965556134)
(1635.863463 117.9851156 0.08009449526)
(1620.631669 141.536206 2.385169807)
(1605.174309 166.7634353 0.962306603)
(1590.735475 184.7123315 3.641497306)
(1571.9167 209.7852711 2.792784255)
(1571.9167 209.7852711 2.792784255)
(1719.04911 20.73655477 -2.86227637)
(1715.060265 28.40286143 -1.983702038)
(1706.720809 32.51066491 -3.911255501)
(1698.795312 43.11977835 -1.052903391)
(1690.452637 53.62305542 0.4176655205)
(1685.086039 59.63054554 -0.5589613782)
(1677.239752 68.12541509 1.095850537)