/*--------------------------------*- C++ -*----------------------------------*\
| =========                 |                                                 |
| \\      /  F ield         | OpenFOAM: The Open Source CFD Toolbox           |
|  \\    /   O peration     | Version:  2406                                  |
|   \\  /    A nd           | Website:  www.openfoam.com                      |
|    \\/     M anipulation  |                                                 |
\*---------------------------------------------------------------------------*/
FoamFile
{
    version     2.0;
    format      ascii;
    arch        "LSB;label=32;scalar=64";
    class       volScalarField;
    location    "0.006";
    object      dsmcRhoNMean;
}
// * * * * * * * * * * * * * * * * * * * * * * * * * * * * * * * * * * * * * //

dimensions      [0 -3 0 0 0 0 0];

internalField   nonuniform List<scalar> 
654
(
16.89266667
17.58733333
17.754
17.479
17.26566667
17.21733333
15.12066667
15.619
16.08633333
16.56266667
17.01633333
17.33166667
17.311
17.37433333
17.631
17.463
17.21833333
11.27766667
11.79233333
12.25766667
12.73233333
13.38266667
14.078
14.588
15.05533333
15.579
16.088
16.48466667
16.896
16.92
17.04566667
17.169
16.98033333
9.301
9.421666667
9.451666667
9.704
9.897333333
10.19633333
10.435
10.85633333
11.37433333
11.851
12.41066667
12.88466667
13.54933333
14.035
14.55733333
15.08566667
15.578
16.03233333
16.48
16.61333333
16.65233333
16.945
8.976666667
8.942333333
8.859333333
8.921666667
8.995666667
9.019666667
9.091333333
9.101333333
9.227666667
9.362
9.497333333
9.614333333
9.825666667
10.113
10.39466667
10.67466667
11.08366667
11.433
11.93266667
12.53666667
13.13333333
13.61333333
14.12766667
14.724
15.29633333
15.744
16.094
16.35666667
16.52866667
9.042
8.990333333
9.02
9.025333333
8.97
8.928333333
8.929333333
8.952333333
8.966
9.038666667
9.056666667
9.184666667
9.316
9.479
9.666666667
9.892333333
10.03266667
10.33333333
10.733
11.03633333
11.57066667
12.054
12.71433333
13.143
13.721
14.33133333
14.72133333
15.232
15.52833333
15.88966667
9.023333333
8.920666667
8.894
8.867
8.876
8.848666667
8.862666667
8.871666667
8.875333333
8.992
9.017666667
9.035333333
9.063
9.189333333
9.294666667
9.420666667
9.537
9.651666667
9.954666667
10.291
10.51433333
11.05
11.57333333
12.185
12.79733333
13.14466667
13.83933333
14.43466667
14.97
15.241
9.122333333
9.138666667
9.058
8.990333333
9.019
8.887333333
8.801666667
8.785666667
8.719
8.661333333
8.643333333
8.769666667
8.809
8.830333333
8.942666667
9.022666667
9.190333333
9.374666667
9.419333333
9.671
10.08733333
10.37233333
10.608
11.235
11.741
12.12533333
12.656
13.17766667
13.721
14.206
9.072333333
9.017
9.023333333
8.929333333
8.810666667
8.766333333
8.739
8.712333333
8.686
8.672666667
8.590333333
8.590333333
8.566666667
8.516333333
8.556333333
8.678666667
8.763333333
8.912333333
9.160333333
9.338666667
9.484333333
9.830666667
10.10833333
10.261
10.74333333
11.35233333
11.837
12.36133333
12.95466667
13.531
8.901
8.854666667
8.787
8.725
8.768
8.719666667
8.722
8.648
8.603
8.515666667
8.547333333
8.480666667
8.438
8.466
8.504
8.485
8.562666667
8.754
8.883333333
8.946
9.151
9.347333333
9.727
10.03766667
10.325
10.76033333
11.17933333
11.61133333
11.982
12.36733333
8.974666667
8.933333333
8.912666667
8.805
8.780666667
8.714333333
8.599333333
8.584333333
8.596
8.595
8.471333333
8.389
8.413
8.404
8.332666667
8.339666667
8.293666667
8.394333333
8.448666667
8.623666667
8.754
8.925333333
9.105333333
9.430333333
9.690666667
10.001
10.40266667
10.74333333
11.288
11.86766667
9.078333333
8.918333333
8.8
8.778
8.705666667
8.684333333
8.6
8.555
8.461666667
8.369
8.421333333
8.439666667
8.357666667
8.28
8.286
8.367666667
8.363333333
8.307
8.418333333
8.409
8.581333333
8.634666667
8.738
8.874333333
9.071333333
9.334666667
9.675333333
10.10133333
10.55433333
11.06866667
8.815333333
8.846333333
8.775333333
8.704333333
8.573333333
8.534333333
8.457666667
8.389
8.306
8.324
8.302
8.223
8.302333333
8.28
8.255666667
8.298666667
8.299333333
8.319666667
8.262666667
8.332666667
8.332666667
8.373
8.45
8.542
8.719666667
8.933
9.127333333
9.53
9.831333333
10.18133333
8.811666667
8.725333333
8.684
8.614
8.6
8.498
8.505666667
8.408
8.395
8.413
8.326
8.268
8.174333333
8.235
8.255333333
8.241666667
8.210666667
8.249333333
8.156666667
8.206333333
8.146666667
8.190666667
8.313333333
8.408
8.526333333
8.710666667
8.861333333
9.038333333
9.287
9.625666667
8.848666667
8.736333333
8.672666667
8.659
8.546333333
8.564333333
8.565
8.583666667
8.446333333
8.399666667
8.326666667
8.334666667
8.225666667
8.216333333
8.099666667
8.111666667
8.050666667
7.942
7.933333333
7.916333333
7.864666667
7.964333333
7.934333333
7.995666667
8.127666667
8.263333333
8.411
8.641333333
8.759333333
8.994333333
8.892333333
8.827333333
8.76
8.692
8.644333333
8.619333333
8.515
8.491
8.474333333
8.400666667
8.290666667
8.263666667
8.239333333
8.118
8.047333333
7.974666667
7.889333333
7.892
7.875
7.885666667
7.898
7.962333333
7.984333333
8.049666667
7.979
7.973333333
8.071
8.169333333
8.459333333
8.6
9.010666667
9.005666667
8.958333333
8.796333333
8.684333333
8.552666667
8.423666667
8.366
8.289
8.283333333
8.233
8.123666667
8.088666667
8.060333333
8.038666667
8.037
8.036666667
8.016333333
8.045333333
8.011333333
8.024
7.948
7.842333333
7.801333333
7.813666667
7.754
7.835666667
7.978333333
7.991
8.230666667
9.004333333
8.911
8.902333333
8.868
8.770666667
8.773333333
8.697666667
8.651
8.479333333
8.359666667
8.292
8.272666667
8.216
8.164666667
8.077333333
7.99
7.959333333
7.926666667
7.842666667
7.776333333
7.738
7.671
7.733666667
7.773
7.885666667
7.881333333
7.903
7.861666667
7.874666667
7.961333333
8.893333333
8.737666667
8.688333333
8.662
8.619
8.553333333
8.464666667
8.462
8.431
8.319666667
8.312
8.272666667
8.222666667
8.092
8.087666667
8.032
7.912
7.892666667
7.780666667
7.789
7.776666667
7.791
7.675666667
7.706666667
7.646666667
7.610333333
7.609
7.696333333
7.821
7.791333333
8.849333333
8.730666667
8.724
8.643
8.613333333
8.575
8.512
8.38
8.355
8.286666667
8.278333333
8.135333333
8.037666667
8.062333333
8.016
7.997666667
7.996333333
7.897
7.896
7.858666667
7.728333333
7.684666667
7.609
7.592333333
7.610333333
7.643666667
7.557666667
7.543333333
7.570333333
7.633666667
8.893333333
8.886666667
8.747666667
8.672333333
8.589333333
8.534666667
8.566666667
8.595666667
8.494333333
8.494
8.391333333
8.352
8.333333333
8.228666667
8.115
8.051
7.969
7.857666667
7.788
7.722
7.726333333
7.77
7.797
7.69
7.623
7.655333333
7.676666667
7.742
7.749
7.732333333
9.062
8.961
8.938
8.900666667
8.806
8.680333333
8.551333333
8.443
8.402
8.317666667
8.236
8.192666667
8.135
8.086
8.053
8.022666667
7.994333333
7.965
7.894666667
7.833
7.719
7.649666667
7.602666667
7.579333333
7.542666667
7.555666667
7.504666667
7.429666667
7.375333333
7.381666667
8.961333333
8.852666667
8.794
8.753
8.685
8.670666667
8.590666667
8.469333333
8.429666667
8.368
8.280333333
8.263666667
8.223666667
8.183333333
8.058
7.981666667
7.933666667
7.929333333
7.875333333
7.816666667
7.755333333
7.609333333
7.592333333
7.552333333
7.538
7.396333333
7.446333333
7.412333333
7.439666667
7.432333333
8.690666667
8.694
8.642666667
8.586666667
8.506666667
8.42
8.399666667
8.395333333
8.301333333
8.242333333
8.200333333
8.051666667
7.958666667
7.883
7.854666667
7.818666667
7.704666667
7.61
7.51
7.487333333
7.496333333
7.548666667
7.425333333
7.366333333
7.233
7.216
7.19
7.172
7.121666667
7.178
)
;

boundaryField
{
    flow
    {
        type            calculated;
        value           nonuniform List<scalar> 
55
(
16.89266667
17.21733333
17.21833333
16.98033333
16.945
16.52866667
15.88966667
15.241
14.206
13.531
12.36733333
11.86766667
11.06866667
10.18133333
9.625666667
8.994333333
8.6
8.230666667
7.961333333
7.791333333
7.633666667
7.732333333
7.381666667
7.432333333
7.178
8.690666667
8.694
8.642666667
8.586666667
8.506666667
8.42
8.399666667
8.395333333
8.301333333
8.242333333
8.200333333
8.051666667
7.958666667
7.883
7.854666667
7.818666667
7.704666667
7.61
7.51
7.487333333
7.496333333
7.548666667
7.425333333
7.366333333
7.233
7.216
7.19
7.172
7.121666667
7.178
)
;
    }
    obstacle
    {
        type            calculated;
        value           nonuniform List<scalar> 0();
    }
    frontAndBack
    {
        type            empty;
    }
    procBoundary3to1
    {
        type            processor;
        value           nonuniform List<scalar> 
36
(
16.56133333
17.856
17.684
17.46866667
17.17366667
17.17366667
15.94066667
16.44933333
17.159
17.335
17.567
17.47133333
17.47133333
12.224
12.71433333
13.19466667
13.88266667
14.39166667
14.39166667
9.527333333
9.629666667
10.01633333
10.24866667
10.48033333
10.82466667
10.82466667
8.997
8.989
9.003333333
9.057
9.038333333
9.094666667
9.219333333
9.219333333
8.944333333
8.944333333
)
;
    }
    procBoundary3to2
    {
        type            processor;
        value           nonuniform List<scalar> 
19
(
9.099666667
9.049666667
9.197666667
9.144
8.975666667
9.080666667
9.082
8.885666667
8.886
8.93
8.950333333
9.042333333
9.028333333
8.947333333
8.853333333
9.036333333
9.041333333
9.079
8.750333333
)
;
    }
}


// ************************************************************************* //
