/*--------------------------------*- C++ -*----------------------------------*\
| =========                 |                                                 |
| \\      /  F ield         | OpenFOAM: The Open Source CFD Toolbox           |
|  \\    /   O peration     | Version:  2406                                  |
|   \\  /    A nd           | Website:  www.openfoam.com                      |
|    \\/     M anipulation  |                                                 |
\*---------------------------------------------------------------------------*/
FoamFile
{
    version     2.0;
    format      ascii;
    arch        "LSB;label=32;scalar=64";
    class       volScalarField;
    location    "0.006";
    object      dsmcSigmaTcRMax;
}
// * * * * * * * * * * * * * * * * * * * * * * * * * * * * * * * * * * * * * //

dimensions      [0 3 -1 0 0 0 0];

internalField   nonuniform List<scalar> 
654
(
7.980335999e-16
8.510499318e-16
8.513747686e-16
8.185395861e-16
7.921136855e-16
7.795148605e-16
7.636653555e-16
7.907778722e-16
8.40417898e-16
8.568965137e-16
8.055575481e-16
8.169040204e-16
7.929385819e-16
7.868792537e-16
8.172885682e-16
7.971564263e-16
7.977650323e-16
8.124940744e-16
8.211519486e-16
8.184417067e-16
7.697460566e-16
7.761381177e-16
8.10342325e-16
8.011424753e-16
8.685466556e-16
7.920225089e-16
7.700131581e-16
8.0993544e-16
7.85809386e-16
7.725258974e-16
8.451752102e-16
8.251545783e-16
7.620180559e-16
7.40146455e-16
7.811862649e-16
7.485017204e-16
7.731761726e-16
7.682004693e-16
7.803754902e-16
8.040960098e-16
7.811755172e-16
7.725537371e-16
8.07509858e-16
7.724942862e-16
7.862093325e-16
8.14296574e-16
7.874335778e-16
7.662920944e-16
7.741113251e-16
7.772604697e-16
7.85774042e-16
8.25612385e-16
7.885946527e-16
7.818011794e-16
8.018539708e-16
6.928480711e-16
7.056009061e-16
7.473423118e-16
8.151752588e-16
8.236928249e-16
7.008734348e-16
8.225295936e-16
7.905387882e-16
7.77212447e-16
7.96002977e-16
8.304123611e-16
7.480346688e-16
7.624576238e-16
7.207052153e-16
7.556466745e-16
7.968829233e-16
7.935106557e-16
7.901581055e-16
7.879088938e-16
7.777776797e-16
8.030711168e-16
7.851626217e-16
7.574487091e-16
7.803588023e-16
8.098893667e-16
8.024926195e-16
7.811341004e-16
7.730140581e-16
8.117885275e-16
6.847267215e-16
8.02889152e-16
7.778479309e-16
7.131240711e-16
7.631919199e-16
7.482670033e-16
7.705432606e-16
7.704676489e-16
7.150136929e-16
7.583146372e-16
7.430277498e-16
7.362568252e-16
7.426681653e-16
7.752888673e-16
7.556623164e-16
7.524163319e-16
7.998801478e-16
7.615869871e-16
7.776340459e-16
7.541797933e-16
7.929113111e-16
7.842746393e-16
7.786232114e-16
7.897886731e-16
8.523151854e-16
7.610109576e-16
8.476150242e-16
7.753534304e-16
7.882226968e-16
8.09618241e-16
8.198887675e-16
7.180085842e-16
8.668047777e-16
6.879672637e-16
7.810660781e-16
7.292745429e-16
7.628297732e-16
6.982155583e-16
7.108383235e-16
7.497519677e-16
7.04519408e-16
7.922861133e-16
7.766919712e-16
7.319502683e-16
7.266079775e-16
7.507247578e-16
7.960811139e-16
7.287801912e-16
8.499441142e-16
7.126359837e-16
7.632827371e-16
7.948581676e-16
8.179019992e-16
7.593048261e-16
7.924521288e-16
7.670556306e-16
7.97024637e-16
7.691975017e-16
7.716085914e-16
8.019041272e-16
7.337702345e-16
8.379967347e-16
6.98996923e-16
7.586661846e-16
6.478923552e-16
7.386289374e-16
7.053025808e-16
7.325232218e-16
7.900941958e-16
7.349284883e-16
7.412101975e-16
7.784583872e-16
8.530392231e-16
7.192823672e-16
7.565653375e-16
7.292690328e-16
7.969678024e-16
7.487165666e-16
7.340214333e-16
7.618025216e-16
7.646069738e-16
7.342400038e-16
8.267208508e-16
8.063935645e-16
7.7284634e-16
7.997891142e-16
7.503721456e-16
7.89605287e-16
7.889093267e-16
8.011036862e-16
8.322312955e-16
7.75759303e-16
6.885685864e-16
6.627986376e-16
6.321234115e-16
7.550131296e-16
7.300891297e-16
7.534139057e-16
7.12940056e-16
6.778416275e-16
7.295759679e-16
7.504792184e-16
7.554456396e-16
7.019958169e-16
7.476242428e-16
7.470087562e-16
7.865095624e-16
8.310798364e-16
7.53720453e-16
8.020256074e-16
7.307861252e-16
7.672959553e-16
7.595260866e-16
8.065400032e-16
7.575303193e-16
7.883296513e-16
7.67861637e-16
7.37206177e-16
7.660419462e-16
7.698480508e-16
6.227991871e-16
6.374506369e-16
6.766980366e-16
7.761464287e-16
6.836891921e-16
7.70853229e-16
7.430541408e-16
6.826617151e-16
6.803491915e-16
6.952624312e-16
6.613210031e-16
7.115317436e-16
7.341943228e-16
8.015913739e-16
7.728898836e-16
7.535155818e-16
7.746791011e-16
7.986191416e-16
7.4126475e-16
7.167716286e-16
7.587978589e-16
7.33974905e-16
7.933080846e-16
7.34338577e-16
7.441657201e-16
7.860336847e-16
7.651140004e-16
7.445798955e-16
8.010809895e-16
7.641548191e-16
6.650632817e-16
6.746627918e-16
6.672772338e-16
7.524495959e-16
8.481367734e-16
7.390506954e-16
7.171244691e-16
7.205600263e-16
7.041987318e-16
7.29426917e-16
6.791536766e-16
7.375527462e-16
7.927192131e-16
7.69066977e-16
6.960174918e-16
7.75002524e-16
7.75002524e-16
7.044646689e-16
7.453923625e-16
7.561948064e-16
7.057006507e-16
7.012277525e-16
8.000760064e-16
7.272370841e-16
7.567841002e-16
7.435157019e-16
7.658481396e-16
7.623869362e-16
8.048121041e-16
7.224220769e-16
7.099477119e-16
6.326763507e-16
6.854493504e-16
6.926316907e-16
6.93067852e-16
6.127728312e-16
6.914679041e-16
8.167280312e-16
7.638122663e-16
6.762248489e-16
7.301306637e-16
6.962133266e-16
7.30940785e-16
7.124081785e-16
7.518583291e-16
7.315204159e-16
7.42448352e-16
7.327895287e-16
7.204261723e-16
7.083304775e-16
7.608048883e-16
6.759851886e-16
7.432292606e-16
7.560594252e-16
7.271909446e-16
7.470319765e-16
7.872382599e-16
7.663764282e-16
7.844657049e-16
7.335907641e-16
6.37448811e-16
7.220392638e-16
6.674057853e-16
7.484446952e-16
7.054848047e-16
6.456811402e-16
6.554550406e-16
7.726980826e-16
6.917014184e-16
7.21060676e-16
7.04676338e-16
7.209674548e-16
7.779737925e-16
7.07667166e-16
7.719890447e-16
7.3939022e-16
6.999789529e-16
7.22772863e-16
7.41563275e-16
8.236326513e-16
7.526979471e-16
7.24942972e-16
7.231163924e-16
7.235172586e-16
7.418388216e-16
7.28420348e-16
8.058054556e-16
7.307948002e-16
7.649429734e-16
8.102582565e-16
5.887725494e-16
5.85650476e-16
6.138078356e-16
6.871505636e-16
6.312927568e-16
7.720898593e-16
6.504137881e-16
7.491588049e-16
7.237820614e-16
7.248306355e-16
7.378670401e-16
6.980360978e-16
6.848276524e-16
7.593762697e-16
6.768620109e-16
6.752087478e-16
7.404307331e-16
7.111306778e-16
7.592504132e-16
7.172056132e-16
7.405446655e-16
6.870398528e-16
7.755008625e-16
7.322868707e-16
8.026067681e-16
7.39573484e-16
7.188569489e-16
7.74460213e-16
7.532297207e-16
7.410195004e-16
6.358749212e-16
5.997650229e-16
6.499295387e-16
6.774791772e-16
6.372364555e-16
7.1531369e-16
7.733181195e-16
6.310012968e-16
6.891191643e-16
7.222934949e-16
6.383411906e-16
6.602577861e-16
6.694801556e-16
7.316326165e-16
6.662740283e-16
6.889751822e-16
7.280282386e-16
7.177127139e-16
7.16604511e-16
6.888270043e-16
7.381009543e-16
6.855123112e-16
7.185268924e-16
7.286566196e-16
7.496876876e-16
7.244711043e-16
6.803515472e-16
7.743663123e-16
7.67058214e-16
7.190056788e-16
6.072398871e-16
6.606559732e-16
6.097252474e-16
6.108628662e-16
7.581511416e-16
6.314067262e-16
6.899441402e-16
5.918096503e-16
6.568042171e-16
6.559948627e-16
6.707890718e-16
5.900631131e-16
6.14131908e-16
6.113165407e-16
6.375809958e-16
6.987949917e-16
6.37801573e-16
6.951438677e-16
7.187791721e-16
7.250222875e-16
7.014909734e-16
7.547680637e-16
7.286855701e-16
7.66577936e-16
7.198721638e-16
7.585052823e-16
7.347271085e-16
7.30716702e-16
7.173973927e-16
7.585689384e-16
6.30590047e-16
6.475427186e-16
6.251952348e-16
5.929109814e-16
6.069466606e-16
6.03603649e-16
6.398585364e-16
6.249612116e-16
6.283598251e-16
6.107092821e-16
6.662653558e-16
6.030745899e-16
6.910686726e-16
6.513956888e-16
6.954913285e-16
6.61007889e-16
6.766572042e-16
7.606241297e-16
6.975172072e-16
6.968292302e-16
6.975367817e-16
6.87972788e-16
7.42181208e-16
8.067281162e-16
7.226907944e-16
8.162597109e-16
7.321023861e-16
6.961304815e-16
7.286728756e-16
7.093385885e-16
5.987134286e-16
7.047923461e-16
5.720455015e-16
5.993825378e-16
6.376901806e-16
5.913739174e-16
7.173888634e-16
7.034699384e-16
5.848824128e-16
6.197441859e-16
7.876973092e-16
5.894517184e-16
6.77544909e-16
6.901972293e-16
6.795390982e-16
6.871670796e-16
6.220212366e-16
6.910003856e-16
6.963533594e-16
6.689754142e-16
7.661445487e-16
6.762951461e-16
6.695672057e-16
7.200870893e-16
6.83927936e-16
6.818731106e-16
8.118661912e-16
6.937125764e-16
8.069007597e-16
7.118802431e-16
5.947374292e-16
5.892689761e-16
6.303176913e-16
6.457391279e-16
6.729712846e-16
6.192912594e-16
6.047990397e-16
6.085144185e-16
6.063646477e-16
5.979849794e-16
7.12601792e-16
5.825144672e-16
8.048274018e-16
6.204876654e-16
5.886918372e-16
6.92783865e-16
6.151716637e-16
7.309405655e-16
6.504781117e-16
6.634351927e-16
6.563957517e-16
7.439801358e-16
7.128520186e-16
6.838247864e-16
7.566156779e-16
7.566156779e-16
6.800765585e-16
6.787265053e-16
6.656890932e-16
7.38441106e-16
6.083468139e-16
6.283543255e-16
6.677695979e-16
6.305156261e-16
5.789675792e-16
6.335252489e-16
6.771487158e-16
5.88391533e-16
6.09891535e-16
6.340092006e-16
6.162593654e-16
6.512514317e-16
7.374880644e-16
6.450808105e-16
7.766104371e-16
6.583452333e-16
7.277776014e-16
6.469832473e-16
6.95344839e-16
6.439353043e-16
6.590502564e-16
7.152679061e-16
6.830133668e-16
7.208177946e-16
7.906143848e-16
6.798917221e-16
7.050043379e-16
6.703405989e-16
7.201442949e-16
7.294353685e-16
6.78260548e-16
6.114019378e-16
6.103020201e-16
6.455145347e-16
6.868512737e-16
5.771698457e-16
6.480866174e-16
6.469647125e-16
6.249953141e-16
6.228833838e-16
7.698799848e-16
6.719033704e-16
6.064416993e-16
6.029672539e-16
6.272631566e-16
7.456244091e-16
6.375361821e-16
6.663257122e-16
6.495793655e-16
6.236350824e-16
6.842053109e-16
6.519250135e-16
7.508268734e-16
6.951139892e-16
6.848167348e-16
6.518426379e-16
6.979956692e-16
6.942742877e-16
7.42075013e-16
7.182364161e-16
5.892368893e-16
6.072089781e-16
6.107051437e-16
6.253831573e-16
6.157471992e-16
6.283519662e-16
6.198731634e-16
5.754976477e-16
6.140228978e-16
6.622199637e-16
6.285176066e-16
7.060335158e-16
6.468963248e-16
6.126464786e-16
7.021762078e-16
6.827753794e-16
7.778972823e-16
6.073317798e-16
6.7627072e-16
7.453306644e-16
6.850648666e-16
6.22118367e-16
6.377588971e-16
6.12500169e-16
6.655517891e-16
7.303935944e-16
6.777503784e-16
6.801192498e-16
6.963022885e-16
7.075054988e-16
5.846818725e-16
6.124368291e-16
5.766078597e-16
6.214661249e-16
5.830285505e-16
6.136663007e-16
5.853985798e-16
6.96285709e-16
6.146260499e-16
5.971978032e-16
6.017383551e-16
6.945101377e-16
7.140667935e-16
6.7624509e-16
6.63947808e-16
6.449134702e-16
6.343061503e-16
6.81501371e-16
5.994680899e-16
6.783900925e-16
6.331146687e-16
6.407131818e-16
6.444267775e-16
6.755257448e-16
6.866488824e-16
7.025260435e-16
6.894142417e-16
7.04374288e-16
6.927876053e-16
6.773586846e-16
5.781621167e-16
5.664481677e-16
6.131650695e-16
5.678321649e-16
6.17667817e-16
6.336952962e-16
5.792964362e-16
5.627825986e-16
6.08744495e-16
5.785807332e-16
6.120666701e-16
7.025713414e-16
7.015880133e-16
5.6741347e-16
5.614192965e-16
6.791072652e-16
6.087861187e-16
7.082725433e-16
7.097820828e-16
5.980605662e-16
5.895375094e-16
6.481307862e-16
5.932516968e-16
6.644839764e-16
6.295815987e-16
7.570368798e-16
6.156456649e-16
6.971477648e-16
7.357452095e-16
6.050467068e-16
)
;

boundaryField
{
    flow
    {
        type            zeroGradient;
    }
    obstacle
    {
        type            zeroGradient;
    }
    frontAndBack
    {
        type            empty;
    }
    procBoundary3to1
    {
        type            processor;
        value           nonuniform List<scalar> 
36
(
8.304283798e-16
7.991803543e-16
8.443678858e-16
8.550175374e-16
8.243590926e-16
8.243590926e-16
8.255629763e-16
8.176765487e-16
8.479082261e-16
8.310782531e-16
8.263047111e-16
8.353340971e-16
8.353340971e-16
8.249980155e-16
8.281277951e-16
7.769487775e-16
8.214704785e-16
8.270868592e-16
8.270868592e-16
8.182816647e-16
7.698622212e-16
7.495601197e-16
8.104432876e-16
7.585163218e-16
8.10557908e-16
8.10557908e-16
7.693829784e-16
6.862707241e-16
7.722660295e-16
7.618253115e-16
7.884482978e-16
7.619876632e-16
7.239351027e-16
7.239351027e-16
7.716533731e-16
7.716533731e-16
)
;
    }
    procBoundary3to2
    {
        type            processor;
        value           nonuniform List<scalar> 
19
(
6.94852537e-16
6.930314524e-16
6.355903735e-16
6.318932112e-16
8.138014578e-16
6.103948201e-16
5.97886046e-16
6.027433136e-16
6.014207267e-16
6.432487934e-16
6.261642539e-16
6.586513849e-16
6.16807994e-16
5.75415477e-16
5.805987508e-16
5.930087405e-16
6.048617585e-16
6.049944151e-16
6.047924544e-16
)
;
    }
}


// ************************************************************************* //
