/*--------------------------------*- C++ -*----------------------------------*\
| =========                 |                                                 |
| \\      /  F ield         | OpenFOAM: The Open Source CFD Toolbox           |
|  \\    /   O peration     | Version:  2406                                  |
|   \\  /    A nd           | Website:  www.openfoam.com                      |
|    \\/     M anipulation  |                                                 |
\*---------------------------------------------------------------------------*/
FoamFile
{
    version     2.0;
    format      ascii;
    arch        "LSB;label=32;scalar=64";
    class       volScalarField;
    location    "0.006";
    object      iDof;
}
// * * * * * * * * * * * * * * * * * * * * * * * * * * * * * * * * * * * * * //

dimensions      [0 -3 0 0 0 0 0];

internalField   nonuniform List<scalar> 
654
(
1.709383081e+20
4.12005508e+20
4.98883666e+20
5.314115768e+20
4.516315688e+20
3.988560485e+20
3.648909471e+20
3.417374188e+20
4.507588593e+20
3.744571645e+20
4.856893048e+20
5.989001157e+20
5.493406677e+20
4.711679026e+20
5.593806071e+20
3.387236766e+20
3.133868981e+20
3.249898433e+20
2.772559923e+20
3.812157121e+20
4.100348192e+20
5.168712991e+20
4.43081868e+20
3.680249126e+20
4.772740823e+20
2.674694032e+20
3.237928699e+20
4.900091856e+20
4.944066053e+20
6.374624621e+20
5.034425464e+20
4.798585462e+20
6.267737962e+20
1.191565711e+20
1.441099645e+20
4.357493813e+20
1.952103983e+20
7.379220824e+19
2.975601965e+20
1.999937497e+20
2.016407233e+20
2.795581911e+20
3.587804668e+20
3.876534743e+20
4.170182253e+20
4.994623813e+20
3.977284053e+20
1.604816419e+20
3.777583482e+20
3.811182588e+20
4.669395758e+20
4.434521436e+20
5.31411572e+20
3.951776227e+20
4.558354881e+20
2.711946041e+20
2.504442902e+20
1.835063599e+20
2.080035373e+20
1.630114445e+20
1.40795344e+20
2.601190987e+20
3.336383991e+20
2.161649484e+20
2.90499592e+20
2.440129998e+20
1.96779222e+20
1.735767827e+20
2.99990627e+20
2.772559923e+20
3.049725672e+20
3.331532851e+20
2.584356474e+20
2.345727517e+20
4.994623771e+20
1.85606586e+20
3.477102212e+20
3.50775609e+20
3.538955229e+20
4.394725342e+20
4.434521436e+20
3.356283643e+20
4.798585418e+20
2.848971775e+20
1.346034123e+20
1.355973001e+20
2.73211949e+20
1.146914741e+20
2.542265456e+20
1.630114433e+20
9.386356124e+19
1.182359522e+20
1.668191983e+20
1.441099645e+20
2.662912886e+20
2.196116964e+20
2.70571426e+20
1.735767799e+20
1.749945324e+20
3.780763592e+20
2.287294291e+20
2.306445858e+20
3.618099123e+20
2.606363951e+20
3.417374217e+20
2.916674972e+20
3.477102242e+20
4.587065696e+20
2.722273301e+20
5.768077112e+20
3.880206291e+20
5.314115768e+20
4.798585418e+20
5.413046422e+20
1.794712164e+20
9.039820073e+19
2.049089647e+20
2.523212449e+20
1.61780529e+20
4.424596319e+20
1.877271239e+20
1.418831447e+20
1.906505138e+20
1.441099645e+20
2.178746906e+20
1.708090985e+20
1.721818192e+20
3.719502456e+20
1.74994531e+20
1.764356314e+20
3.049725697e+20
1.28135881e+20
2.584356495e+20
2.345727517e+20
2.891624289e+20
2.651522679e+20
2.942163435e+20
2.698273915e+20
3.811182555e+20
4.120055044e+20
3.325891106e+20
3.91566425e+20
2.540427597e+20
4.273457701e+20
1.570373155e+20
2.711946022e+20
2.504442884e+20
1.146914749e+20
1.848920332e+20
1.862987938e+20
1.642612334e+20
1.891775249e+20
3.098070848e+20
1.681282919e+20
1.69458094e+20
1.220064999e+20
1.229870137e+20
4.463402947e+20
2.749914059e+20
1.26025452e+20
2.541438101e+20
1.28135881e+20
1.550613897e+20
1.824454736e+20
2.365874438e+20
3.977284053e+20
2.674694032e+20
2.698273915e+20
3.811182588e+20
3.296044035e+20
2.494418308e+20
3.356283643e+20
5.080855149e+20
2.848971801e+20
2.243390205e+20
4.519910036e+19
2.73211953e+20
2.064446549e+20
1.848920332e+20
2.561608395e+20
1.642612334e+20
3.31060671e+20
1.668191995e+20
1.921466208e+20
9.683319659e+19
1.952103968e+20
3.443636357e+20
2.231701474e+20
3.249898459e+20
1.26025452e+20
1.27071903e+20
1.793902319e+20
2.325920846e+20
2.085091144e+20
3.154499277e+20
3.181827215e+20
2.674694009e+20
2.158619132e+20
4.355637205e+20
3.845384708e+20
3.048733514e+20
3.356283643e+20
3.387236766e+20
2.564074597e+20
2.019051184e+20
2.485950502e+20
2.276766242e+20
2.52321243e+20
2.311150432e+20
2.095861446e+20
1.642612346e+20
2.364719079e+20
1.668191995e+20
2.642016016e+20
2.420829915e+20
1.464077999e+20
2.459740275e+20
2.479668304e+20
2.249929685e+20
2.772559945e+20
2.795581911e+20
7.68815286e+19
3.359663444e+20
3.38827308e+20
2.628749353e+20
2.386370411e+20
2.942163435e+20
2.698273915e+20
3.266727904e+20
2.197362671e+20
3.603048635e+20
1.957832107e+20
4.798585418e+20
3.418766161e+20
1.570373155e+20
2.259955035e+20
2.049089647e+20
1.376297689e+20
1.617805278e+20
1.862987924e+20
3.05056574e+20
1.182359522e+20
3.098070825e+20
9.607330968e+19
1.936663917e+20
1.952103968e+20
1.967792204e+20
1.983734643e+20
7.499765615e+19
1.512305412e+20
2.033150464e+20
1.025087048e+20
1.033742598e+20
2.867000299e+20
4.468873938e+20
2.386370432e+20
2.407224629e+20
2.698273915e+20
2.994500605e+20
4.669395758e+20
2.217260738e+20
3.91566425e+20
1.693618398e+20
3.133868981e+20
1.794712177e+20
2.033959516e+20
2.276766275e+20
1.146914749e+20
1.848920332e+20
1.397240943e+20
3.050565763e+20
1.418831447e+20
2.14481828e+20
2.401832742e+20
2.178746923e+20
2.196116998e+20
2.213766247e+20
3.471535626e+20
1.499953135e+20
2.772559967e+20
3.558013313e+20
2.562717599e+20
1.809049547e+20
2.345727537e+20
1.577249625e+20
2.651522679e+20
2.139755226e+20
2.428446545e+20
3.266727933e+20
2.746703363e+20
3.325891106e+20
4.195354591e+20
2.82269733e+20
5.413046372e+20
1.570373143e+20
2.259955002e+20
1.821413007e+20
1.605680649e+20
3.004495539e+20
2.09586143e+20
4.693178097e+19
2.364719061e+20
1.191565711e+20
2.88219929e+20
2.178746906e+20
2.928155975e+20
2.21376623e+20
3.22356877e+20
3.249898433e+20
1.764356314e+20
1.016575232e+20
2.306445858e+20
2.325920865e+20
3.388273108e+20
2.891624313e+20
2.121218161e+20
4.546979854e+20
2.428446524e+20
8.166819831e+19
2.19736269e+20
3.048733487e+20
2.237522429e+20
2.540427574e+20
3.703663341e+20
1.794712177e+20
1.581968524e+20
2.276766258e+20
2.293829482e+20
1.848920332e+20
2.095861414e+20
2.111930144e+20
2.837662895e+20
2.14481828e+20
4.803665521e+19
2.662912927e+20
2.684142977e+20
1.967792204e+20
1.983734643e+20
1.999937497e+20
1.26025452e+20
3.303869532e+20
2.050174096e+20
3.359663444e+20
2.085091144e+20
2.628749375e+20
1.325761328e+20
1.604816405e+20
1.618964349e+20
2.722273253e+20
2.472033026e+20
1.385787961e+20
3.076593339e+20
2.540427574e+20
4.55835484e+20
2.243390205e+20
1.807964001e+20
1.593736381e+20
2.293829499e+20
1.848920332e+20
3.493102383e+20
9.386356265e+19
1.655303355e+20
4.289636559e+20
2.642016016e+20
1.210414948e+20
2.684142977e+20
1.721818192e+20
2.479668304e+20
2.249929685e+20
1.764356314e+20
2.287294272e+20
2.050174096e+20
1.292178248e+20
7.819091724e+19
1.577249625e+20
1.856065891e+20
2.407224629e+20
3.237928699e+20
2.177818603e+20
2.472033005e+20
2.771575897e+20
3.91566425e+20
3.104967063e+20
2.848971827e+20
1.346034123e+20
1.581968513e+20
2.276766275e+20
1.835063599e+20
1.386690259e+20
1.862987938e+20
1.407953419e+20
1.891775249e+20
3.098070848e+20
1.681282919e+20
2.904995875e+20
1.220064989e+20
1.229870137e+20
1.735767813e+20
1.999937513e+20
1.260254531e+20
2.287294272e+20
2.050174079e+20
2.584356495e+20
2.085091126e+20
2.628749375e+20
1.060609081e+20
1.337347016e+20
2.968101307e+20
2.722273277e+20
2.197362709e+20
8.314727692e+19
1.398451505e+20
2.258157844e+20
3.133868952e+20
8.973560883e+19
2.033959516e+20
2.276766258e+20
2.981978349e+20
2.080035373e+20
2.794481886e+20
1.642612334e+20
2.364719061e+20
1.906505123e+20
1.441099645e+20
1.452497949e+20
1.708090985e+20
1.967792204e+20
2.231701474e+20
1.74994531e+20
2.268458118e+20
1.016575232e+20
2.306445858e+20
1.809049547e+20
1.824454751e+20
3.154499251e+20
3.712131751e+20
1.604816419e+20
2.428446545e+20
8.166819831e+19
2.472033026e+20
1.662945553e+20
2.237522429e+20
2.540427574e+20
8.546915403e+19
2.019051184e+20
2.259955018e+20
2.73211951e+20
2.752595379e+20
2.773380498e+20
3.027355399e+20
1.877271239e+20
1.418831437e+20
1.668191995e+20
9.607331042e+19
1.210414957e+20
2.440129979e+20
1.721818192e+20
1.487800994e+20
1.999937513e+20
3.024610849e+20
1.779006671e+20
2.050174079e+20
1.292178237e+20
1.563818345e+20
7.886248126e+19
3.181827215e+20
2.674694009e+20
2.158619132e+20
2.450045949e+20
1.373351681e+20
1.108630359e+20
1.398451518e+20
4.234045957e+20
1.994280242e+20
1.794712164e+20
2.033959502e+20
2.959796136e+20
2.523212449e+20
1.848920332e+20
1.862987924e+20
4.693178097e+19
2.128247171e+20
2.14481828e+20
1.921466194e+20
2.420829915e+20
1.708090998e+20
2.459740275e+20
1.983734643e+20
1.499953135e+20
2.016407233e+20
2.033150448e+20
2.818989359e+20
1.550613897e+20
2.345727517e+20
2.628749353e+20
2.916674947e+20
8.024082096e+19
1.888791741e+20
1.633363952e+20
2.472033026e+20
1.662945553e+20
2.517212732e+20
1.975888131e+20
8.546915481e+19
2.692068284e+20
2.711946041e+20
1.82141302e+20
2.752595399e+20
1.155575207e+20
3.027355376e+20
2.815906858e+20
2.128247171e+20
1.191565711e+20
1.441099645e+20
2.662912886e+20
2.196116964e+20
2.705714281e+20
1.239834152e+20
1.499953123e+20
1.26025452e+20
1.524862861e+20
1.793902334e+20
1.550613897e+20
3.127636716e+20
1.051499759e+20
1.590913621e+20
8.024082096e+19
1.888791741e+20
1.905591277e+20
2.472033026e+20
2.49441833e+20
1.957832125e+20
2.540427574e+20
1.994280242e+20
1.794712164e+20
2.259955002e+20
1.821413007e+20
1.376297699e+20
1.386690249e+20
1.630114445e+20
2.346589049e+20
2.601190967e+20
2.383131422e+20
1.441099645e+20
2.178746923e+20
1.708090998e+20
2.21376623e+20
2.231701456e+20
3.249898433e+20
1.512305412e+20
2.795581889e+20
2.050174096e+20
2.067485213e+20
2.345727537e+20
1.314374677e+20
1.32576134e+20
3.209632838e+20
2.968101307e+20
2.177818622e+20
5.493406725e+19
2.217260718e+20
2.517212732e+20
2.822697305e+20
2.279177441e+20
2.243390205e+20
2.711946022e+20
2.959796136e+20
3.440744223e+20
2.311150432e+20
9.314939689e+19
1.642612334e+20
4.729438122e+19
9.532525615e+19
2.161649484e+20
1.210414957e+20
2.196116981e+20
2.213766247e+20
1.239834152e+20
1.74994531e+20
7.561527122e+19
1.524862861e+20
2.818989382e+20
1.292178248e+20
2.606363908e+20
1.840124563e+20
1.856065875e+20
1.337347005e+20
1.349136969e+20
3.53895526e+20
1.648022018e+20
1.662945538e+20
2.51721271e+20
1.975888113e+20
3.41876613e+20
1.794712177e+20
3.389932527e+20
2.049089632e+20
2.064446549e+20
1.386690249e+20
1.164367461e+20
1.407953429e+20
1.891775249e+20
2.14481828e+20
2.401832742e+20
2.420829915e+20
1.708090985e+20
3.689610383e+20
3.967469286e+20
2.499921892e+20
2.268458137e+20
1.016575224e+20
1.281358799e+20
1.033742598e+20
2.345727537e+20
1.840124563e+20
2.916674947e+20
2.139755226e+20
2.698273915e+20
2.177818622e+20
3.570714372e+20
1.940103128e+20
1.678141821e+20
2.82269733e+20
2.279177462e+20
3.589424328e+20
9.039820073e+19
1.82141302e+20
2.064446549e+20
1.386690249e+20
1.862987924e+20
2.346589049e+20
2.837662895e+20
1.906505138e+20
1.200916371e+20
1.694580927e+20
1.952103983e+20
9.838961099e+19
1.487800982e+20
9.999687487e+19
1.764356329e+20
1.01657524e+20
1.28135881e+20
1.809049547e+20
2.606363908e+20
2.365874438e+20
2.386370432e+20
2.139755226e+20
2.428446524e+20
2.994500579e+20
1.098681345e+20
2.49441833e+20
3.076593339e+20
1.975888113e+20
1.424485887e+20
)
;

boundaryField
{
    flow
    {
        type            zeroGradient;
    }
    obstacle
    {
        type            calculated;
        value           nonuniform List<scalar> 0();
    }
    frontAndBack
    {
        type            empty;
    }
    procBoundary3to1
    {
        type            processor;
        value           nonuniform List<scalar> 
36
(
3.133868981e+20
3.57071434e+20
6.928939743e+20
5.314115768e+20
6.492203801e+20
6.492203801e+20
4.170182253e+20
3.94312403e+20
3.712131719e+20
6.419265622e+20
5.396547877e+20
2.994500631e+20
2.994500631e+20
4.499859405e+20
3.528712686e+20
2.795581889e+20
2.562717599e+20
4.393406042e+20
4.393406042e+20
2.383131422e+20
1.681282919e+20
2.178746923e+20
1.220064989e+20
1.229870128e+20
5.455270269e+20
5.455270269e+20
1.807964001e+20
1.366059755e+20
2.981978349e+20
1.848920346e+20
2.794481907e+20
1.173294524e+20
2.364719079e+20
2.364719079e+20
8.973560883e+19
8.973560883e+19
)
;
    }
    procBoundary3to2
    {
        type            processor;
        value           nonuniform List<scalar> 
19
(
1.336239882e+20
4.454132941e+19
3.340599706e+20
1.336239873e+20
2.672479765e+20
1.781653177e+20
1.781653189e+20
1.113533235e+20
4.454132941e+19
1.336239882e+20
2.449773118e+20
3.563306353e+20
2.449773118e+20
1.558946518e+20
2.449773135e+20
1.781653177e+20
2.227066471e+20
1.113533235e+20
1.55894653e+20
)
;
    }
}


// ************************************************************************* //
