/*--------------------------------*- C++ -*----------------------------------*\
| =========                 |                                                 |
| \\      /  F ield         | OpenFOAM: The Open Source CFD Toolbox           |
|  \\    /   O peration     | Version:  2406                                  |
|   \\  /    A nd           | Website:  www.openfoam.com                      |
|    \\/     M anipulation  |                                                 |
\*---------------------------------------------------------------------------*/
FoamFile
{
    version     2.0;
    format      ascii;
    arch        "LSB;label=32;scalar=64";
    class       volScalarField;
    location    "0.006";
    object      iDofMean;
}
// * * * * * * * * * * * * * * * * * * * * * * * * * * * * * * * * * * * * * //

dimensions      [0 -3 0 0 0 0 0];

internalField   nonuniform List<scalar> 
654
(
4.812673098e+20
4.830718803e+20
4.920655892e+20
4.888706816e+20
4.873575077e+20
4.905169671e+20
3.940995986e+20
4.10584365e+20
4.265327802e+20
4.430006569e+20
4.591472837e+20
4.71815326e+20
4.754818149e+20
4.81542835e+20
4.931219742e+20
4.929276304e+20
4.905454613e+20
2.819328556e+20
2.972268254e+20
3.115210085e+20
3.262937498e+20
3.458558152e+20
3.66923914e+20
3.834819589e+20
3.991955778e+20
4.166905832e+20
4.340983075e+20
4.487576716e+20
4.640830002e+20
4.68950646e+20
4.767507685e+20
4.846289047e+20
4.837649084e+20
2.216550536e+20
2.262926748e+20
2.288087723e+20
2.367902131e+20
2.434486941e+20
2.528352458e+20
2.608668473e+20
2.736348632e+20
2.890716411e+20
3.037076651e+20
3.207358701e+20
3.358213016e+20
3.561780154e+20
3.721412112e+20
3.893641259e+20
4.070526086e+20
4.240757311e+20
4.403606427e+20
4.567557079e+20
4.646588202e+20
4.700449642e+20
4.827582717e+20
2.028686303e+20
2.035960295e+20
2.032180014e+20
2.061931362e+20
2.094852311e+20
2.116545118e+20
2.149844939e+20
2.168967345e+20
2.21633121e+20
2.266380984e+20
2.317472797e+20
2.364876291e+20
2.436439439e+20
2.528171009e+20
2.61998511e+20
2.712900414e+20
2.840430739e+20
2.954694757e+20
3.110087172e+20
3.295575439e+20
3.482333089e+20
3.641150111e+20
3.812031445e+20
4.008275138e+20
4.201448983e+20
4.363569093e+20
4.501335746e+20
4.616991892e+20
4.708970481e+20
2.028473423e+20
2.031774878e+20
2.05364315e+20
2.070257569e+20
2.073101922e+20
2.079172147e+20
2.095347565e+20
2.116975311e+20
2.136715617e+20
2.170936554e+20
2.192464943e+20
2.24117803e+20
2.291494004e+20
2.350477567e+20
2.416591162e+20
2.49337158e+20
2.549740132e+20
2.648141541e+20
2.773789849e+20
2.876470136e+20
3.041638303e+20
3.196145465e+20
3.400695149e+20
3.546341438e+20
3.735231196e+20
3.93639218e+20
4.080129301e+20
4.260242704e+20
4.383178465e+20
4.526921226e+20
2.024285761e+20
2.01603054e+20
2.024955925e+20
2.033938617e+20
2.051377108e+20
2.060619893e+20
2.079703654e+20
2.097899943e+20
2.115108575e+20
2.159728002e+20
2.183023706e+20
2.204738773e+20
2.229262611e+20
2.27864986e+20
2.323594049e+20
2.374487531e+20
2.423769497e+20
2.473449623e+20
2.572640746e+20
2.682209098e+20
2.763954695e+20
2.929932561e+20
3.09551256e+20
3.287846766e+20
3.483783825e+20
3.610450014e+20
3.835676304e+20
4.037236302e+20
4.225577904e+20
4.342117922e+20
2.046495339e+20
2.065297559e+20
2.062294877e+20
2.062229181e+20
2.084426559e+20
2.06962435e+20
2.065389461e+20
2.077563343e+20
2.077852287e+20
2.080307399e+20
2.09240399e+20
2.13991267e+20
2.166785208e+20
2.189629768e+20
2.235596799e+20
2.274171291e+20
2.33566633e+20
2.402462345e+20
2.434291528e+20
2.520614535e+20
2.65170712e+20
2.75024773e+20
2.837315429e+20
3.031510744e+20
3.196221055e+20
3.330469384e+20
3.507706456e+20
3.68566559e+20
3.873022972e+20
4.04724934e+20
2.035278373e+20
2.03780144e+20
2.054402102e+20
2.048236821e+20
2.036277592e+20
2.041446642e+20
2.05068417e+20
2.060222085e+20
2.069987953e+20
2.083029492e+20
2.079573591e+20
2.096152973e+20
2.107177485e+20
2.111768183e+20
2.139016501e+20
2.18746578e+20
2.227146886e+20
2.283979348e+20
2.367356695e+20
2.433996395e+20
2.493193554e+20
2.606623562e+20
2.703669861e+20
2.768698865e+20
2.924628899e+20
3.118149214e+20
3.280714419e+20
3.457345072e+20
3.656710269e+20
3.854943709e+20
1.996841621e+20
2.001114822e+20
2.000594497e+20
2.001366223e+20
2.026416699e+20
2.030579243e+20
2.046694984e+20
2.045009059e+20
2.050207962e+20
2.045320702e+20
2.069164023e+20
2.069392913e+20
2.075528844e+20
2.099287186e+20
2.12593356e+20
2.138651921e+20
2.176148731e+20
2.243403004e+20
2.29577002e+20
2.331653152e+20
2.405568533e+20
2.478466632e+20
2.601674885e+20
2.708437414e+20
2.810747134e+20
2.955544349e+20
3.098437054e+20
3.247577316e+20
3.382155911e+20
3.523418392e+20
2.013367944e+20
2.018893164e+20
2.029205889e+20
2.019716859e+20
2.029344126e+20
2.029337221e+20
2.017910127e+20
2.029953651e+20
2.048539755e+20
2.064375242e+20
2.050765699e+20
2.047025023e+20
2.069379477e+20
2.083913243e+20
2.083101565e+20
2.102020506e+20
2.107784029e+20
2.151230594e+20
2.183436658e+20
2.247641355e+20
2.301207203e+20
2.366572395e+20
2.435398073e+20
2.544562245e+20
2.63806429e+20
2.746978057e+20
2.883178046e+20
3.004806161e+20
3.186260747e+20
3.381064768e+20
2.036624422e+20
2.015503217e+20
2.003554322e+20
2.013523534e+20
2.012010513e+20
2.022351016e+20
2.018066582e+20
2.023017172e+20
2.016526372e+20
2.010093822e+20
2.038661566e+20
2.05938838e+20
2.05576893e+20
2.053165356e+20
2.071435279e+20
2.109077965e+20
2.125489381e+20
2.128849509e+20
2.175597443e+20
2.191691428e+20
2.255817464e+20
2.289501449e+20
2.337147645e+20
2.394538236e+20
2.469464832e+20
2.563956032e+20
2.68159209e+20
2.825245012e+20
2.979168852e+20
3.153431892e+20
1.977623245e+20
1.999231526e+20
1.997938284e+20
1.996625657e+20
1.981426289e+20
1.987420007e+20
1.984666798e+20
1.98376282e+20
1.979428959e+20
1.999285574e+20
2.00977298e+20
2.006518882e+20
2.042158351e+20
2.053165339e+20
2.063852167e+20
2.091686419e+20
2.109224178e+20
2.132095636e+20
2.135367645e+20
2.171796184e+20
2.19044923e+20
2.220119958e+20
2.260116457e+20
2.304865579e+20
2.373731555e+20
2.453630114e+20
2.529709707e+20
2.665448593e+20
2.77508781e+20
2.900633156e+20
1.976800683e+20
1.971886099e+20
1.977143819e+20
1.975904716e+20
1.987589357e+20
1.978958922e+20
1.995930425e+20
1.988255801e+20
2.000638829e+20
2.020661901e+20
2.015583003e+20
2.017499466e+20
2.010673676e+20
2.042006848e+20
2.063768836e+20
2.077319534e+20
2.08669011e+20
2.114071189e+20
2.107973448e+20
2.138869119e+20
2.141554491e+20
2.171773824e+20
2.223562286e+20
2.268708708e+20
2.321100918e+20
2.392561742e+20
2.45598581e+20
2.527934194e+20
2.621438987e+20
2.742325265e+20
1.985101212e+20
1.974372021e+20
1.974563484e+20
1.986226963e+20
1.975186183e+20
1.994406212e+20
2.009853535e+20
2.029796033e+20
2.012872237e+20
2.017459442e+20
2.01574436e+20
2.033767e+20
2.023300359e+20
2.037378134e+20
2.024853385e+20
2.0445529e+20
2.046027084e+20
2.035310334e+20
2.050256153e+20
2.063284548e+20
2.067423759e+20
2.111761064e+20
2.122191401e+20
2.15744988e+20
2.212572958e+20
2.269692525e+20
2.331172487e+20
2.416897143e+20
2.472494682e+20
2.562460227e+20
1.99489735e+20
1.994937626e+20
1.994447257e+20
1.9937966e+20
1.997835472e+20
2.007214254e+20
1.99812056e+20
2.007882955e+20
2.019545005e+20
2.017699625e+20
2.007029372e+20
2.016442077e+20
2.026662004e+20
2.012994729e+20
2.011770477e+20
2.010021959e+20
2.005025216e+20
2.022496729e+20
2.03518074e+20
2.055291699e+20
2.076186257e+20
2.111230759e+20
2.135564872e+20
2.172020559e+20
2.172101848e+20
2.190038167e+20
2.236938907e+20
2.284883299e+20
2.38781374e+20
2.450115726e+20
2.021444148e+20
2.035240158e+20
2.039603106e+20
2.017728888e+20
2.007080059e+20
1.99168934e+20
1.976688395e+20
1.978323966e+20
1.975377621e+20
1.989518121e+20
1.993069269e+20
1.982280257e+20
1.989601901e+20
1.998695309e+20
2.009603862e+20
2.0257331e+20
2.042469071e+20
2.054359868e+20
2.079200946e+20
2.088045023e+20
2.109308499e+20
2.107430225e+20
2.097584216e+20
2.105013442e+20
2.127093596e+20
2.129793787e+20
2.171714507e+20
2.231462472e+20
2.255617416e+20
2.344893724e+20
2.02002332e+20
2.013845917e+20
2.026853215e+20
2.034167985e+20
2.027032991e+20
2.043076772e+20
2.040984935e+20
2.04571846e+20
2.02073657e+20
2.007852127e+20
2.007352165e+20
2.018638194e+20
2.02092261e+20
2.024566531e+20
2.019270243e+20
2.013886724e+20
2.022815299e+20
2.031380817e+20
2.026824637e+20
2.026795454e+20
2.034126267e+20
2.033983047e+20
2.06851919e+20
2.097368314e+20
2.146693964e+20
2.164768477e+20
2.190376432e+20
2.198831937e+20
2.222780038e+20
2.268161396e+20
1.995121689e+20
1.974673349e+20
1.978130417e+20
1.986915112e+20
1.991980543e+20
1.991844589e+20
1.98630941e+20
2.001025285e+20
2.009218102e+20
1.99824478e+20
2.012193825e+20
2.01863821e+20
2.022562437e+20
2.006547592e+20
2.021853495e+20
2.024472862e+20
2.010785793e+20
2.022667577e+20
2.010801644e+20
2.030096848e+20
2.044290747e+20
2.065801319e+20
2.053005983e+20
2.079469764e+20
2.081631614e+20
2.090332816e+20
2.108892119e+20
2.152589806e+20
2.207631582e+20
2.219728916e+20
1.9852508e+20
1.973091409e+20
1.986250898e+20
1.982556836e+20
1.990670891e+20
1.996890181e+20
1.997416598e+20
1.981634588e+20
1.991106303e+20
1.990318732e+20
2.004043682e+20
1.98512706e+20
1.977057226e+20
1.999191242e+20
2.003937372e+20
2.015819114e+20
2.03221862e+20
2.023778104e+20
2.040607889e+20
2.048254533e+20
2.031585159e+20
2.037606812e+20
2.035174689e+20
2.048619499e+20
2.071740688e+20
2.099488494e+20
2.094664696e+20
2.10979719e+20
2.13687595e+20
2.174810087e+20
1.995121689e+20
2.008346678e+20
1.991639231e+20
1.989285402e+20
1.98512413e+20
1.987497632e+20
2.010244618e+20
2.032633681e+20
2.024311267e+20
2.040116731e+20
2.031399076e+20
2.037996574e+20
2.049783546e+20
2.040436376e+20
2.028686599e+20
2.029261812e+20
2.025272006e+20
2.013698082e+20
2.012696855e+20
2.012634226e+20
2.031059375e+20
2.060233122e+20
2.085458937e+20
2.074972641e+20
2.075188919e+20
2.102692981e+20
2.127646431e+20
2.16536233e+20
2.187308142e+20
2.202919962e+20
2.032960204e+20
2.025145692e+20
2.034973682e+20
2.041661161e+20
2.03519907e+20
2.021419537e+20
2.006646515e+20
1.996532303e+20
2.002307005e+20
1.997764429e+20
1.993795518e+20
1.999117154e+20
2.000998713e+20
2.005059791e+20
2.013187083e+20
2.022120386e+20
2.031710333e+20
2.041204584e+20
2.040263308e+20
2.041564849e+20
2.029131643e+20
2.028326466e+20
2.033480699e+20
2.045111761e+20
2.05331999e+20
2.075317504e+20
2.079975325e+20
2.078005707e+20
2.081833352e+20
2.103015999e+20
2.010376757e+20
2.000662846e+20
2.002188248e+20
2.00778896e+20
2.007234135e+20
2.019168426e+20
2.015876432e+20
2.002759397e+20
2.008900351e+20
2.009853639e+20
2.004527864e+20
2.016442077e+20
2.022808395e+20
2.029195229e+20
2.01443706e+20
2.011786299e+20
2.016292242e+20
2.032064208e+20
2.035266885e+20
2.037307805e+20
2.038682766e+20
2.017631991e+20
2.030716866e+20
2.037826403e+20
2.052049596e+20
2.031553364e+20
2.063807799e+20
2.07315776e+20
2.099992724e+20
2.117450827e+20
1.949655647e+20
1.964804893e+20
1.967733199e+20
1.96963493e+20
1.96601862e+20
1.96079479e+20
1.971056581e+20
1.985260491e+20
1.978316831e+20
1.979670607e+20
1.985161209e+20
1.964711321e+20
1.957625293e+20
1.954722524e+20
1.9636053e+20
1.970702002e+20
1.958093342e+20
1.950228109e+20
1.940851728e+20
1.951471537e+20
1.970598157e+20
2.001546103e+20
1.986049475e+20
1.987638509e+20
1.969020244e+20
1.982021147e+20
1.992763088e+20
2.005938857e+20
2.010230931e+20
2.04499194e+20
)
;

boundaryField
{
    flow
    {
        type            calculated;
        value           nonuniform List<scalar> 
55
(
4.812673098e+20
4.905169671e+20
4.905454613e+20
4.837649084e+20
4.827582717e+20
4.708970481e+20
4.526921226e+20
4.342117922e+20
4.04724934e+20
3.854943709e+20
3.523418392e+20
3.381064768e+20
3.153431892e+20
2.900633156e+20
2.742325265e+20
2.562460227e+20
2.450115726e+20
2.344893724e+20
2.268161396e+20
2.219728916e+20
2.174810087e+20
2.202919962e+20
2.103015999e+20
2.117450827e+20
2.04499194e+20
1.949655647e+20
1.964804893e+20
1.967733199e+20
1.96963493e+20
1.96601862e+20
1.96079479e+20
1.971056581e+20
1.985260491e+20
1.978316831e+20
1.979670607e+20
1.985161209e+20
1.964711321e+20
1.957625293e+20
1.954722524e+20
1.9636053e+20
1.970702002e+20
1.958093342e+20
1.950228109e+20
1.940851728e+20
1.951471537e+20
1.970598157e+20
2.001546103e+20
1.986049475e+20
1.987638509e+20
1.969020244e+20
1.982021147e+20
1.992763088e+20
2.005938857e+20
2.010230931e+20
2.04499194e+20
)
;
    }
    obstacle
    {
        type            calculated;
        value           nonuniform List<scalar> 0();
    }
    frontAndBack
    {
        type            empty;
    }
    procBoundary3to1
    {
        type            processor;
        value           nonuniform List<scalar> 
36
(
4.718277165e+20
4.904513481e+20
4.901254817e+20
4.885816683e+20
4.847606262e+20
4.847606262e+20
4.154717827e+20
4.324117436e+20
4.549747727e+20
4.636582065e+20
4.740057828e+20
4.756174426e+20
4.756174426e+20
3.05590452e+20
3.204659237e+20
3.353342833e+20
3.557735419e+20
3.719319723e+20
3.719319723e+20
2.270488743e+20
2.312884869e+20
2.424783937e+20
2.500807878e+20
2.577889779e+20
2.684158283e+20
2.684158283e+20
2.033281515e+20
2.04658519e+20
2.065211159e+20
2.093208946e+20
2.104788247e+20
2.13414452e+20
2.180113343e+20
2.180113343e+20
2.006562993e+20
2.006562993e+20
)
;
    }
    procBoundary3to2
    {
        type            processor;
        value           nonuniform List<scalar> 
19
(
2.026556253e+20
2.01542092e+20
2.048381504e+20
2.036429566e+20
1.998940629e+20
2.022324827e+20
2.022621783e+20
1.97889703e+20
1.978971266e+20
1.988770358e+20
1.993298727e+20
2.013787738e+20
2.010669845e+20
1.992630593e+20
1.971696196e+20
2.012451499e+20
2.013565032e+20
2.021953649e+20
1.948757397e+20
)
;
    }
}


// ************************************************************************* //
