/*--------------------------------*- C++ -*----------------------------------*\
| =========                 |                                                 |
| \\      /  F ield         | OpenFOAM: The Open Source CFD Toolbox           |
|  \\    /   O peration     | Version:  2406                                  |
|   \\  /    A nd           | Website:  www.openfoam.com                      |
|    \\/     M anipulation  |                                                 |
\*---------------------------------------------------------------------------*/
FoamFile
{
    version     2.0;
    format      ascii;
    arch        "LSB;label=32;scalar=64";
    class       volScalarField;
    location    "0.006";
    object      internalE;
}
// * * * * * * * * * * * * * * * * * * * * * * * * * * * * * * * * * * * * * //

dimensions      [1 -1 -2 0 0 0 0];

internalField   nonuniform List<scalar> 
654
(
0.5248827464
2.666561894
2.145923491
2.343033613
1.839602689
1.287942243
1.097915511
0.9661491939
1.548348
2.087869077
1.910440084
2.835041862
2.869538875
2.105616691
1.601003803
2.410865471
0.6467374714
0.8601907562
0.8002546823
1.281889922
1.806823833
1.387997139
1.419784081
0.9880800724
1.103473268
1.415296957
1.406935156
2.064866959
2.09116818
1.682091148
2.615307751
1.908990174
2.388468793
0.3775986393
0.3895193243
0.7862630217
0.6177569826
0.08422101484
0.8984979989
0.3817688705
0.4367846696
1.8517455
1.15296364
0.8934108733
1.793230285
2.249769967
0.8006739825
0.7376099526
1.664073766
1.763247795
1.45175733
1.301309515
1.964309979
1.571651878
1.469392738
0.6356985072
0.3483285926
0.2796810413
0.4919017809
0.4713284128
0.2430545254
0.4795947402
1.062981249
0.4027875679
0.3908575081
0.5325440541
0.4602002681
0.2846042644
1.117266114
0.4646276148
0.5470293047
0.8895901996
0.4821158948
1.594893489
2.09747971
0.4359522989
0.9091550987
1.226222724
1.686938451
1.703688555
1.463169384
1.015829965
1.262752421
1.180224262
0.157921896
0.2861075174
0.5399906092
0.1890868039
0.4519589174
0.1549960465
0.02626558001
0.3054500917
0.2490346383
0.423251258
0.610273546
0.3619117631
0.7285623351
0.43627523
0.6546607133
0.5915681623
0.2371903011
0.3830892378
1.078315033
0.8118685677
1.14464004
0.9578239943
1.305017817
1.670430505
0.7820155731
2.086456895
1.969342882
2.060173739
0.7702778286
1.258306437
0.2306301026
0.1926828737
0.4826655233
0.7787393303
0.525112249
1.175876533
0.2194022019
0.5146509132
0.6881477042
0.259230163
0.5453032965
0.4037835284
0.3104413576
1.114304405
0.2787086363
0.3846249379
0.6310309789
0.3022723652
0.7622543479
0.7546097625
0.7378627912
1.141143453
0.671016614
1.021411935
1.123143771
1.630522873
1.085983506
1.287181616
1.017076496
2.104848692
0.3391280119
1.080034086
0.6475520222
0.2157619025
0.7197419852
0.4268443819
0.1747527074
0.6734034373
0.7540782056
0.6085183138
0.289509704
0.3016105645
0.3283737113
0.7267638646
0.3688850385
0.1845056959
0.4466161225
0.06759210096
0.2766955397
0.5547271126
0.7483614023
1.407770704
1.334007711
0.6499765694
0.8834537385
0.7515386241
1.227419669
0.8579915374
1.905831465
0.379220002
0.6353439496
0.02509536163
0.5399701142
0.3686709288
0.598947152
0.6037454593
0.2784357356
1.051344861
0.3952211968
0.8379218739
0.3905497556
0.4756122122
0.4774457424
0.6781011617
1.210903025
0.3787820973
0.137207095
0.26073099
0.8216942815
0.3529733074
1.505398941
0.7358519588
0.6673352936
0.4861531235
1.759439707
1.213039758
1.79019614
1.133530328
0.9927919068
0.7339859142
0.4921533694
0.5974162312
0.5508181516
0.7576505492
0.3760660085
0.4397118839
0.1768523439
0.5040086197
0.2412120323
0.5033631043
0.5451165945
0.5046925921
0.5859954827
0.5451086297
0.8666902633
0.7200344745
1.135995468
0.2410261303
0.7026790251
0.9810557265
0.3841801983
1.0261323
0.5734654088
0.9288057644
1.021959485
0.3710365575
1.003836097
0.3989073566
1.932111521
1.267874181
0.482772704
0.5013029689
0.3578248909
0.1706638551
0.359872243
0.4645505951
0.6518221687
0.4569428649
0.6507571388
0.1986049759
0.5964366217
0.2891998118
0.3908516034
0.5074182424
0.07717780223
0.2626679498
0.4562720717
0.09288201596
0.2604815086
0.4806260332
1.159235796
0.3201067551
0.6163766738
0.9056228264
0.7079853757
1.40904974
0.6498694165
1.680792405
0.2479359694
1.062396448
0.5398608371
0.2389068303
0.2922311435
0.2260604353
0.2472372056
0.3642852396
0.4884959932
0.2914248378
0.4213219172
0.4544487257
0.8928847119
0.7336196005
0.3368555901
0.5804076681
0.2828774459
0.728689476
0.8971812429
0.6822746525
0.1916041224
0.4429755951
0.254983688
0.407075443
0.5319736577
0.3575546253
0.7091739892
0.5714912749
1.058022379
0.9486372608
0.5961843202
1.606578819
0.6565961742
0.7592398584
0.2127973617
0.1916180339
0.4064584076
0.2978451934
0.1177997995
0.2810371162
0.1285129468
0.3471350919
0.2866344365
0.4797174059
0.5903521429
0.7701734717
1.037087789
0.4940171431
0.1125692704
0.1893515927
0.4491651317
0.8649586411
0.4054599477
0.586358582
1.285144391
0.258759847
0.2199785678
0.5323659857
0.6414437856
0.4305588762
0.5936869181
0.6983801191
0.3424644136
0.3141971625
0.6777050502
0.2792660064
0.1807032473
0.5040658912
0.456898943
0.676830904
0.5967927143
0.1060642802
0.6173868457
0.8021565565
0.2576360086
0.5173373065
0.3156891684
0.2843881542
0.4571824358
0.3387986771
0.8259532086
0.5344426026
0.6887437539
0.4503837901
0.2474901308
0.1405681854
0.6439987947
0.2244838727
0.3430197609
1.177966563
0.4279105908
0.8053841651
0.5678401037
0.3256364147
0.2493234257
0.3926872749
0.2847802149
0.7766680744
0.1633352592
0.2306589315
1.173883901
0.379300821
0.2148140239
0.7140318923
0.6293749633
0.3068549652
0.4332704014
0.4073120827
0.3750787474
0.4242674142
0.3376452547
0.2395253943
0.3871357361
0.4694928549
0.7664832781
0.9940452972
0.2958285119
0.481223512
0.2732208409
0.8469160129
0.8897372151
0.4670506454
0.3771019415
0.2089215596
0.7549584035
0.3111166146
0.1894327716
0.7027281652
0.1760520033
0.1641097232
0.5517231063
0.1949276875
0.5601854104
0.239710186
0.1941496912
0.4481483595
0.3800519782
0.3936977682
0.3992782503
0.4997596222
0.6471857341
0.5026791123
0.5537769654
0.1447523902
0.3491814739
0.781564618
0.4028006409
0.4014541465
0.146302023
0.2222062149
0.2923414059
0.8569377613
0.1391374076
0.2991865289
0.4861824576
0.5286663506
0.6828275131
0.5599893101
0.4089671686
0.4307579451
0.3536814119
0.2695964359
0.3461780648
0.3721146001
0.2937898371
0.8450337872
0.3442265807
0.541313659
0.1576499778
0.5353718133
0.2860711186
0.4439850259
0.4323792304
0.4014022878
0.812424843
0.4762411182
0.07127304945
0.4715939493
0.5111968476
0.4507530356
0.4173517298
0.1883775916
0.3248980326
0.7240483065
0.5316797225
0.7213951781
0.572906487
0.8359382298
0.1928513601
0.2498953785
0.3934169326
0.04218469952
0.1390443055
0.3234398144
0.1625696075
0.2445047001
0.5704498593
0.6152395285
0.3756459203
0.439254099
0.3966044705
0.4043730625
0.2951010785
0.616711436
0.9315444825
0.4816523499
0.4535135614
0.2326700245
0.2124810657
0.1759924302
0.8728069686
1.28427007
0.1085639201
0.45006585
0.640910675
0.334393425
0.4671115443
0.4052418708
0.07539180347
0.4582967106
0.3081330057
0.4501604973
0.4091954571
0.2478010126
0.4342116625
0.3848905672
0.3965658133
0.3194332485
0.7404771524
0.8622746462
0.7920902315
0.4164529185
0.2894186294
0.4005536488
0.3601746051
0.3302267135
0.2757898137
0.2868736344
0.755418534
0.6437685727
0.5343557995
0.09956807307
0.5847835257
0.4445251408
0.2978948853
0.3328288491
0.1250445282
0.6196060473
0.738929325
0.2741336651
0.2385817816
0.2687564077
0.6141984753
0.661454989
0.4724065686
0.4888843914
0.1796246969
0.1746735929
0.3007371129
0.5134702586
0.2893125282
0.3243739069
0.1277032536
0.5304257478
0.2385091293
0.195171306
0.6526947258
0.6661111125
0.4283238264
0.3118682023
0.545562737
0.3552553901
0.2875901851
0.2943400065
0.3540571083
0.2676166144
0.1777134012
0.1839608068
0.4504499174
0.6384881768
0.3334404989
0.3911292471
0.306771273
0.5411745195
0.1986524002
0.5306987601
0.9642929487
0.3118908598
0.5617128219
0.6549100635
0.4225119119
0.3486210994
0.136855625
0.07811420245
0.604686313
0.7555599185
0.6333550452
0.1610001287
0.3134706376
0.4605934696
0.5849786133
0.4552625482
0.8220444451
0.3489006383
0.5472013797
0.6665825856
0.7795718145
0.1014126952
0.2569102775
0.06503780647
0.08576374529
0.4912254193
0.2733683954
0.5390337973
0.4149181617
0.3425473523
0.3343049718
0.2985878025
0.2838234449
0.4105193604
0.04981060166
0.3498670323
0.431450683
0.3551874734
0.2644636178
0.2697167348
1.065963857
0.2934046175
0.5087746311
0.3161082476
0.5072011276
0.7221496504
0.4776007031
0.9420780686
0.3625870309
0.5047230256
0.4960769455
0.3142734245
0.3194290284
0.5949363259
0.5010748504
0.3800177652
0.4535068611
0.2768264852
0.9668288159
0.855655077
0.4701253981
0.448690023
0.2143677168
0.1596735292
0.2373684093
0.529232696
0.5032544171
0.5839149915
0.3016650695
0.649886563
0.6179624538
0.7595943073
0.5311240952
0.1561972939
0.4480719513
0.5134240936
0.4635023072
0.1381509958
0.2970513507
0.6419804229
0.204404875
0.2331000095
1.038288024
0.9884748252
0.7117905325
0.07385683595
0.2151485024
0.4911944986
0.1770476277
0.4813634748
0.258806347
0.2422168066
0.1901014312
0.1514216395
0.4147430484
0.3418203045
0.3642886003
0.6593976535
0.3259905785
0.7496180733
0.4427840606
0.1450093872
0.5798399456
0.6667445915
0.3514713817
0.354828558
)
;

boundaryField
{
    flow
    {
        type            zeroGradient;
    }
    obstacle
    {
        type            calculated;
        value           nonuniform List<scalar> 0();
    }
    frontAndBack
    {
        type            empty;
    }
    procBoundary3to1
    {
        type            processor;
        value           nonuniform List<scalar> 
36
(
1.50507915
1.404951965
3.287203726
3.689182157
3.450053741
3.450053741
2.125166632
2.630786377
2.351528478
1.968757402
2.131153253
1.551724437
1.551724437
1.141550501
1.261726322
1.525536345
1.108814191
2.193295306
2.193295306
0.4089674745
0.3335812308
0.7224775453
0.5947003256
0.3480038416
1.160853475
1.160853475
0.2353065521
0.3424688469
0.549149608
0.6587095804
0.7170778252
0.1689246493
0.5737924095
0.5737924095
0.2605306186
0.2605306186
)
;
    }
    procBoundary3to2
    {
        type            processor;
        value           nonuniform List<scalar> 
19
(
0.3874940108
0.1078148591
1.241716229
0.1958986192
0.6080990647
0.4950890915
0.276204793
0.3455134559
0.1032131848
0.5860383483
0.3218143069
0.5959771983
0.5437025247
0.2451027359
0.6510431112
0.2885599715
0.4686342644
0.2459552385
0.2192363643
)
;
    }
}


// ************************************************************************* //
