/*--------------------------------*- C++ -*----------------------------------*\
| =========                 |                                                 |
| \\      /  F ield         | OpenFOAM: The Open Source CFD Toolbox           |
|  \\    /   O peration     | Version:  2406                                  |
|   \\  /    A nd           | Website:  www.openfoam.com                      |
|    \\/     M anipulation  |                                                 |
\*---------------------------------------------------------------------------*/
FoamFile
{
    version     2.0;
    format      ascii;
    arch        "LSB;label=32;scalar=64";
    class       volScalarField;
    location    "0.006";
    object      internalEMean;
}
// * * * * * * * * * * * * * * * * * * * * * * * * * * * * * * * * * * * * * //

dimensions      [1 -1 -2 0 0 0 0];

internalField   nonuniform List<scalar> 
654
(
2.332590342
2.144626036
2.244635905
2.284229557
2.296284914
2.336383931
1.464118267
1.581016499
1.685085024
1.800560012
1.91472375
2.01226495
2.065767275
2.114793769
2.200427878
2.23834271
2.27827687
0.8331849727
0.9005990157
0.9864433248
1.06149096
1.177962416
1.301334025
1.402148535
1.497007138
1.619215102
1.722423106
1.822122025
1.926856724
1.976424082
2.050802443
2.117816582
2.148668524
0.5261212238
0.5444895379
0.5623240192
0.5932531397
0.6320598629
0.6785691277
0.725474063
0.7886344673
0.8558900134
0.9439452952
1.04321108
1.102348179
1.229248281
1.327917826
1.427639089
1.541655594
1.65431857
1.751835961
1.851917625
1.922480167
1.977167916
2.087468886
0.4290892696
0.4349235131
0.4360734529
0.4476455704
0.4582577013
0.4677236684
0.4832211976
0.5029861119
0.5163827034
0.5394103381
0.5585708502
0.5925155431
0.6329412892
0.6796673927
0.7180762298
0.7635436549
0.8270748427
0.8952593301
0.983537789
1.077375147
1.179008791
1.274666697
1.385099315
1.484764534
1.6082428
1.724836147
1.820403375
1.904922797
1.967425442
0.4244487228
0.4248892071
0.4311518968
0.4337751962
0.4375636193
0.4497405
0.4572737869
0.4708758137
0.4825165041
0.5024468878
0.507385067
0.5258564066
0.5517331433
0.5757428012
0.6121842768
0.6514468875
0.6909553317
0.7295314523
0.7966038359
0.8590375191
0.9376170026
1.014606338
1.12520898
1.225351174
1.336761849
1.43743757
1.524939357
1.635488932
1.726312774
1.835277382
0.4197692664
0.4190617208
0.4277393529
0.432810169
0.4346968984
0.4379238047
0.4459567095
0.456266123
0.4631584865
0.4848508813
0.4911386155
0.5006605989
0.5175461976
0.5389386633
0.5616085606
0.5899873254
0.6199684006
0.6465391961
0.6841196898
0.7300307163
0.79110821
0.8782268119
0.9685453346
1.068285749
1.167342581
1.247249984
1.368443106
1.468102459
1.576843268
1.675698067
0.4309736278
0.4333327137
0.4326864125
0.4359819651
0.4462326996
0.4449988713
0.4457048879
0.4508246079
0.4471426056
0.4449706785
0.4579344809
0.4725920369
0.4831009286
0.4956172245
0.5120273915
0.5375340668
0.5691844298
0.6106190099
0.6350548796
0.6726090548
0.7157130213
0.7694392467
0.8174603471
0.9112780714
1.004161583
1.083137207
1.184641161
1.301449895
1.39182349
1.490587271
0.4258061382
0.4295585635
0.4349311037
0.4336442194
0.4277216049
0.4297580531
0.43482979
0.4355826789
0.4432442574
0.4485526238
0.452502284
0.4629621776
0.4732134892
0.4803235328
0.4942504688
0.5135274639
0.5259105514
0.5559035624
0.5871089841
0.6234344581
0.6504860933
0.6966570557
0.749257678
0.7821655189
0.8652264412
0.9611739893
1.034036104
1.130594473
1.248391428
1.354884452
0.4123360412
0.4136499564
0.4106292642
0.4132074937
0.4202614899
0.4188491989
0.4236997671
0.4289582375
0.4338084103
0.4419164509
0.449369668
0.4514394073
0.4531452362
0.4642754364
0.47274959
0.4813388172
0.4983474973
0.5201970364
0.5455142879
0.5609554206
0.5985272179
0.6300081175
0.6861667783
0.7421620034
0.7872007653
0.8644908405
0.9471588997
1.0228222
1.10311462
1.190304056
0.4156098989
0.4169675324
0.4181088882
0.4174966747
0.419412773
0.4189507854
0.4220890973
0.4282706112
0.4356699496
0.4357761192
0.4370464027
0.4395957563
0.4495115185
0.4537606657
0.4557448386
0.4618398995
0.4654388504
0.4889645393
0.5022957968
0.5255380167
0.556700495
0.5830444356
0.6063920425
0.6543979928
0.7035802203
0.7571183858
0.8199575162
0.888907235
0.9814538084
1.070256322
0.4157551348
0.4153866639
0.4174964504
0.4204819273
0.4239915444
0.4274052588
0.4236998896
0.4247604243
0.4229961868
0.4259910499
0.4318816178
0.4368220557
0.4378851555
0.4385121061
0.4474634067
0.4617370697
0.4688744226
0.4715893808
0.4919552424
0.5079818155
0.5314542111
0.538635026
0.56634213
0.5942813464
0.6309597864
0.6733150006
0.7322869318
0.8018288956
0.8727256099
0.9529232268
0.4122056698
0.4165052991
0.4174307725
0.4146273743
0.4096323874
0.4127554468
0.411773207
0.4182367879
0.4106609733
0.4187611815
0.4224052878
0.4237943152
0.4300739567
0.4373945462
0.4442100145
0.4540660495
0.4608732811
0.4696507611
0.4776236344
0.4852939451
0.4989035537
0.5171001763
0.5281963654
0.5493564529
0.5823349649
0.6165581544
0.6576293651
0.713067694
0.7751857584
0.8331652944
0.4087040022
0.4078400837
0.4079985425
0.4107931792
0.415350632
0.4089851536
0.4129877211
0.412313319
0.417000101
0.4211909891
0.4256332926
0.4258238645
0.4289093749
0.4374271949
0.4443175489
0.449968029
0.4515272817
0.4601353238
0.4583128653
0.4733720639
0.4789496742
0.4912794849
0.5160737299
0.5355722107
0.5555088815
0.5900051248
0.61630434
0.6530041636
0.6874979731
0.7465463096
0.4140065636
0.4107541562
0.4069145067
0.4102038949
0.4080203497
0.4161660855
0.4212111581
0.4246148303
0.418070461
0.4215033074
0.4188206151
0.4223688177
0.4226782808
0.4255314189
0.4239794846
0.4292560514
0.4355625873
0.4399339646
0.4488595822
0.4570910035
0.4591257674
0.4703803234
0.4792690243
0.4961069494
0.5150147626
0.5335769156
0.5557579891
0.5968761143
0.633438744
0.6749941079
0.4106168533
0.4083110845
0.41188952
0.4125568593
0.4135990339
0.4144119417
0.4117162201
0.4144368154
0.4213480611
0.4204223188
0.4195640035
0.4247546784
0.4237698256
0.4193590484
0.4207880095
0.4223957421
0.4225099684
0.4307677942
0.4375183849
0.4446568309
0.4587148073
0.4722519144
0.4754656675
0.4857192063
0.4933455278
0.5065732334
0.5246665397
0.5468496951
0.5831149536
0.6130680643
0.4175854363
0.4242589386
0.4263701543
0.4220825477
0.416442558
0.4152049865
0.4131245122
0.4168529664
0.4153848299
0.4175388804
0.4117159101
0.4081808683
0.4121115531
0.4172730214
0.4241160442
0.4309229467
0.4377621007
0.4403309409
0.4449659521
0.4438151932
0.4488693961
0.4526872038
0.4590487609
0.4611138904
0.4704816863
0.4772240227
0.4956469861
0.5168956975
0.5294247121
0.5687895599
0.4235174304
0.4224999745
0.4230127063
0.4243017466
0.4281949326
0.4312152491
0.430011071
0.4258915108
0.4199529335
0.4186005779
0.4211413702
0.4285670312
0.425366416
0.4250900456
0.4203520805
0.4186317885
0.4161631117
0.4205772315
0.4215017862
0.4322349947
0.4325518165
0.4302990022
0.4471442523
0.4575061795
0.4766586061
0.4785716263
0.4836399673
0.4951178487
0.5134487137
0.529557982
0.4168057467
0.4128610223
0.4143513231
0.4184019093
0.4154679203
0.4105825143
0.4147145595
0.4201297899
0.4229594884
0.4213623145
0.4209432113
0.4183314207
0.4232511487
0.4198150048
0.4257003756
0.4244699959
0.4191722444
0.4243659049
0.4244919946
0.4270913647
0.4341673421
0.4381949621
0.4359224371
0.4503419441
0.4546765169
0.4611722569
0.4687815411
0.4831047132
0.5005770435
0.5084423898
0.4173609594
0.4143566523
0.4162962881
0.4141132272
0.4170682173
0.4206267772
0.4217344536
0.4178226035
0.4160855439
0.4127770123
0.4197532828
0.4177235739
0.4182524797
0.4191816556
0.4171163703
0.4194808872
0.4271384797
0.4206611778
0.426130932
0.4308580545
0.427116717
0.4278015231
0.4286185623
0.4313105055
0.4417769851
0.448992807
0.4559122959
0.4679531257
0.4781930503
0.4965367568
0.4068815857
0.4116077982
0.4067415821
0.4074668447
0.4065928199
0.4082725868
0.4123799155
0.4188245702
0.4212861534
0.4256605917
0.4216689506
0.4187386033
0.4225137801
0.4199560415
0.4180293122
0.420079411
0.4217833441
0.4191690759
0.4155298098
0.4181589008
0.4274177471
0.4358687305
0.4369123567
0.4397984809
0.4410638264
0.448841495
0.4517184553
0.4654735305
0.4781898216
0.4855515025
0.4205579439
0.4206524044
0.4221433961
0.4203583276
0.4202238839
0.4180650017
0.4184502152
0.4154710455
0.4134857917
0.4125543886
0.4146539923
0.4169506172
0.4120879699
0.413741873
0.414108662
0.4144087921
0.4152622255
0.4236894385
0.4280976923
0.4226420214
0.420479569
0.4277518786
0.4306473055
0.4374734677
0.4380093308
0.4463374079
0.4526548298
0.4492725786
0.4491869908
0.4624271762
0.4170416377
0.4150416693
0.4130909389
0.4127186809
0.4144536413
0.4145580823
0.4096634989
0.406066286
0.408229023
0.4098225761
0.4109564728
0.4156846226
0.418170063
0.4217913143
0.4195672191
0.4185670614
0.4198848305
0.4228603162
0.4252462775
0.4337441322
0.429657902
0.4240291012
0.4285125159
0.4286496015
0.4333690603
0.4307428236
0.4393233641
0.4439881361
0.4546695816
0.4556405104
0.4017573504
0.403448498
0.4044837052
0.4066877053
0.4085207508
0.4042779185
0.4085960006
0.4128301559
0.4101756283
0.4095276897
0.4056521077
0.4033113599
0.3998787625
0.3983399016
0.4029044334
0.4070728797
0.407511983
0.4049093992
0.4046035321
0.4072579139
0.4106524509
0.4141310304
0.416574114
0.4133027443
0.4114806529
0.4159748034
0.4241416953
0.4274937761
0.4268818312
0.442677115
)
;

boundaryField
{
    flow
    {
        type            calculated;
        value           nonuniform List<scalar> 
55
(
2.332590342
2.336383931
2.27827687
2.148668524
2.087468886
1.967425442
1.835277382
1.675698067
1.490587271
1.354884452
1.190304056
1.070256322
0.9529232268
0.8331652944
0.7465463096
0.6749941079
0.6130680643
0.5687895599
0.529557982
0.5084423898
0.4965367568
0.4855515025
0.4624271762
0.4556405104
0.442677115
0.4017573504
0.403448498
0.4044837052
0.4066877053
0.4085207508
0.4042779185
0.4085960006
0.4128301559
0.4101756283
0.4095276897
0.4056521077
0.4033113599
0.3998787625
0.3983399016
0.4029044334
0.4070728797
0.407511983
0.4049093992
0.4046035321
0.4072579139
0.4106524509
0.4141310304
0.416574114
0.4133027443
0.4114806529
0.4159748034
0.4241416953
0.4274937761
0.4268818312
0.442677115
)
;
    }
    obstacle
    {
        type            calculated;
        value           nonuniform List<scalar> 0();
    }
    frontAndBack
    {
        type            empty;
    }
    procBoundary3to1
    {
        type            processor;
        value           nonuniform List<scalar> 
36
(
2.324363425
2.31660702
2.329488098
2.362180648
2.346936472
2.346936472
1.635786055
1.726153499
1.865913677
1.971685207
2.036923432
2.074645484
2.074645484
0.9409202557
1.016951835
1.116141596
1.246403845
1.345293487
1.345293487
0.5654255932
0.5876333703
0.6281168275
0.6739499327
0.7096712437
0.7685889142
0.7685889142
0.4444840207
0.4475524452
0.4567513685
0.4716771045
0.4806186963
0.4954957309
0.5105988078
0.5105988078
0.4226154691
0.4226154691
)
;
    }
    procBoundary3to2
    {
        type            processor;
        value           nonuniform List<scalar> 
19
(
0.4215956345
0.417442727
0.4331143908
0.4213302416
0.4101895472
0.4211680227
0.4140812133
0.410053633
0.4092511225
0.4159345296
0.4086271786
0.4152259718
0.4239144154
0.4167094843
0.4150618244
0.4127205521
0.4175438659
0.416675404
0.3993831639
)
;
    }
}


// ************************************************************************* //
