/*--------------------------------*- C++ -*----------------------------------*\
| =========                 |                                                 |
| \\      /  F ield         | OpenFOAM: The Open Source CFD Toolbox           |
|  \\    /   O peration     | Version:  2406                                  |
|   \\  /    A nd           | Website:  www.openfoam.com                      |
|    \\/     M anipulation  |                                                 |
\*---------------------------------------------------------------------------*/
FoamFile
{
    version     2.0;
    format      ascii;
    arch        "LSB;label=32;scalar=64";
    class       volScalarField;
    location    "0.006";
    object      internalT;
}
// * * * * * * * * * * * * * * * * * * * * * * * * * * * * * * * * * * * * * //

dimensions      [1 2 -2 0 0 0 0];

internalField   nonuniform List<scalar> 
654
(
702.0992489
643.1114096
660.7988961
676.8495624
682.5343457
689.9801152
538.1663822
557.8024187
572.2895342
588.7753633
604.0884098
617.8165204
629.3523815
636.1792434
646.3967753
657.793863
672.7808755
428.0969529
438.9245408
458.7025946
471.2527997
493.3813741
513.7586724
529.6579361
543.2310031
562.9077892
574.7753686
588.1823257
601.4508752
610.5192992
623.130233
633.031658
643.4005949
343.8385627
348.5502848
356.0084957
362.9298551
376.0946553
388.7790731
402.8555945
417.4944663
428.9027882
450.2331534
471.1628678
475.5070354
499.9411655
516.903928
531.1398586
548.6346331
565.0958575
576.2770689
587.3325636
599.3411283
609.3271767
626.3782737
306.3932234
309.4496398
310.8449894
314.4897429
316.8857868
320.1166143
325.6006319
335.9304555
337.5074961
344.772602
349.1483718
362.9424098
376.3173179
389.4362606
397.0252483
407.7053581
421.8004177
438.9172331
458.1048474
473.5677222
490.4481854
507.1126615
526.345408
536.5947987
554.4966412
572.6013748
585.8313696
597.6744159
605.2275844
303.1114259
302.9329483
304.1247176
303.5195937
305.750341
313.3415216
316.1306709
322.2084969
327.1235774
335.265934
335.2365958
339.8890797
348.7841547
354.8287524
366.9656271
378.4760538
392.5549437
399.0701321
416.0209843
432.6120991
446.544047
459.8513148
479.3049188
500.5257477
518.4214383
528.977293
541.4084695
556.1086706
570.5276919
587.2799492
300.389824
301.1114593
305.9919715
308.2520777
306.9639927
307.855604
310.6258867
315.0502667
317.2074354
325.2037378
325.905754
328.9521075
336.3057467
342.6163966
350.122372
359.9309452
370.5310756
378.6501977
385.2115894
394.2710603
414.6210717
434.2056458
453.2457928
470.6762285
485.3930207
500.4245058
516.810341
526.7670419
540.5661091
559.0370009
305.0607503
303.9381692
303.9267268
306.2513382
310.113871
311.4682498
312.6020622
314.3400646
311.7294125
309.8491283
317.0328061
319.9165795
322.9746294
327.8854167
331.7768763
342.3964231
353.0113018
368.179946
377.9071146
386.5473246
390.9846994
405.2741635
417.354859
435.4499112
455.1066616
471.112283
489.2265014
511.5144691
520.5716194
533.5115743
303.0641028
305.3563214
306.6771472
306.6901238
304.2780357
304.952634
307.1615917
306.2689443
310.185647
311.9351971
315.2048421
319.9402922
325.3137328
329.4837657
334.7182201
340.0703793
342.0656161
352.5767603
359.2538455
371.0370432
377.9448391
387.1570052
401.4430474
409.2317703
428.5538632
446.5308967
456.5766252
473.707792
494.5459221
509.1322611
299.1259391
299.4383165
297.3289694
299.0804473
300.4258085
298.8024439
299.8827595
303.8548512
306.5112718
312.986174
314.5974764
316.011515
316.2678484
320.3688265
322.1275515
326.0297107
331.7340918
335.8976573
344.2105269
348.5064342
360.4230594
368.2217752
382.0525134
396.9413203
405.7047846
423.7105856
442.8193245
456.2333674
472.4691052
489.3731019
299.0261242
299.1818893
298.4761846
299.4393894
299.3865959
299.057836
303.004245
305.6177329
308.0772347
305.7885246
308.7151221
311.0833292
314.6640192
315.4231832
316.9258853
318.2738077
319.8769306
329.2583498
333.2463068
338.7064928
350.4388779
356.8849705
360.6865385
372.5420311
386.3444207
399.2592631
411.97066
428.5350792
446.2055314
458.5436779
295.7148082
298.548884
301.8547845
302.5081103
305.2624239
306.1467986
304.1370005
304.1521391
303.8637861
306.9944642
306.8781608
307.2647208
308.5548115
309.3884227
312.9194473
317.1381632
319.5538109
320.8968498
327.5619529
335.7493304
341.2780028
340.8003771
351.0258658
359.5147564
370.122284
380.4119184
395.5805831
411.1231995
424.3546839
437.7446587
301.9373238
301.7893001
302.6556538
300.8207034
299.4765106
300.8496801
300.5501015
305.4069265
300.531439
303.4156534
304.4589474
305.9555068
305.0704398
308.5999405
311.7856753
314.4624927
316.5229381
319.0911415
324.010847
323.6921786
329.9360755
337.3996621
338.540779
345.2669644
355.3756462
364.0083543
376.579703
387.5313563
404.6461885
416.0875896
299.4969518
299.6087414
298.9281048
301.1643938
302.7154671
299.3761245
299.7354701
300.40109
301.9352825
301.9477631
305.9012853
305.7475368
309.0084426
310.3094373
311.8737447
313.7796331
313.4530042
315.2915747
314.9512314
320.6009556
323.971757
327.6879211
336.2086258
341.9681785
346.69165
357.2226833
363.5095049
374.1937975
379.9076741
394.3521261
302.1140829
301.369555
298.5234625
299.1694927
299.2403702
302.2730761
303.5860809
303.0324642
300.8705445
302.6513201
300.9809408
300.8410185
302.618847
302.5564314
303.3176332
304.1336491
308.3795633
313.114553
317.1383595
320.9149476
321.6981496
322.6641882
327.1456944
333.1048788
337.1851785
340.546486
345.3486034
357.7440586
371.1211075
381.5832011
298.1690871
296.4887689
299.1607302
299.7432138
299.8929071
299.0783167
298.4851208
298.9966575
302.2274192
301.8392049
302.8244178
305.1397726
302.8970913
301.7795307
302.992113
304.4143549
305.2555152
308.5331242
311.4151391
313.3992109
320.0536953
324.0294032
322.5171347
323.9423611
329.0162961
335.0710861
339.7626563
346.6972121
353.7529989
362.4670173
299.2471313
301.9685659
302.8220746
303.0267596
300.5638934
301.9863829
302.7534842
305.2332792
304.6119249
304.0152866
299.2413846
298.2867677
300.0509463
302.426687
305.7177423
308.1511515
310.4767399
310.4910451
310.0107225
307.8993025
308.266472
311.1654807
317.0193794
317.321669
320.4073878
324.5870133
330.6101143
335.5519201
340.004894
351.3782298
303.7115472
303.9112989
302.3274026
302.1582129
306.004001
305.7425072
305.2011997
301.5779035
301.0490885
302.005253
303.9140187
307.5435839
304.9017477
304.1552244
301.5540422
301.1227463
298.0257234
299.9168109
301.2517948
308.9273809
308.0396567
306.4569032
313.1370794
315.9865958
321.6501083
320.2446549
319.8525546
326.1842184
334.6162138
338.2096247
302.6291143
302.8691351
303.4311809
305.042775
302.1334449
298.6010966
302.4466517
304.1426313
304.9425926
305.4593351
303.0400971
300.1984146
303.1395536
303.0783334
305.0006386
303.7256262
301.976473
303.9221616
305.8064711
304.7547141
307.6528116
307.2735855
307.5851799
313.7156516
316.4062457
319.5907001
322.0049419
325.1070547
328.4662323
331.8090371
304.5389463
304.2100157
303.6091321
302.5797464
303.4967384
305.1329681
305.8558744
305.4321543
302.7154441
300.4272146
303.4123932
304.8225375
306.4542741
303.7346412
301.5223355
301.4442592
304.4701139
301.1035938
302.503147
304.717004
304.549532
304.136358
305.081365
304.9826494
308.8972841
309.793487
315.2921736
321.2980142
324.1681536
330.7321872
295.4235034
296.8870882
295.8382329
296.716419
296.7006072
297.5705852
297.1631789
298.4828841
301.4715204
302.2420076
300.6926213
297.6363355
298.5927603
298.1447557
298.4957649
299.874621
301.6841297
301.5374635
299.0681853
300.9697794
304.8430721
306.4684325
303.4862945
307.0349035
307.886183
309.217122
307.5493218
311.394409
316.691755
319.2882837
299.670065
300.8939819
300.5021622
298.2513285
299.1026323
299.5944417
302.0781541
301.4468986
299.1412626
299.146092
301.2670495
302.1292508
298.3249149
298.9155766
297.9727698
296.8713939
296.0786121
300.6820494
303.9506426
299.8857943
300.17953
305.4924396
306.7807312
309.8710979
309.0104207
311.548121
315.2502024
313.1912172
312.5558317
318.5276745
300.5026882
300.5136425
298.8733279
297.7710437
299.1054483
297.4125143
294.3809896
293.7071734
294.3688705
295.3777956
296.981999
298.6239297
299.4639781
301.1065468
301.7131541
301.3905294
301.6637352
301.4434851
302.6673348
308.4063859
305.2949007
304.4388736
305.6754315
304.7064433
305.9260418
307.1398829
308.3624231
310.2311567
313.6349904
311.7133441
298.5054863
297.4507515
297.7701886
299.1036441
301.0044341
298.6718384
300.2903793
301.23145
300.3449987
299.6654921
296.0086178
297.3638052
295.9001397
295.1991434
297.2311002
299.224817
301.4764492
300.7591474
301.9838444
302.3108327
301.8719397
299.7219665
303.8425656
301.2154786
302.7231525
304.0220897
308.3199992
308.7155486
307.6154317
313.5753161
)
;

boundaryField
{
    flow
    {
        type            calculated;
        value           nonuniform List<scalar> 
55
(
702.0992489
689.9801152
672.7808755
643.4005949
626.3782737
605.2275844
587.2799492
559.0370009
533.5115743
509.1322611
489.3731019
458.5436779
437.7446587
416.0875896
394.3521261
381.5832011
362.4670173
351.3782298
338.2096247
331.8090371
330.7321872
319.2882837
318.5276745
311.7133441
313.5753161
298.5054863
297.4507515
297.7701886
299.1036441
301.0044341
298.6718384
300.2903793
301.23145
300.3449987
299.6654921
296.0086178
297.3638052
295.9001397
295.1991434
297.2311002
299.224817
301.4764492
300.7591474
301.9838444
302.3108327
301.8719397
299.7219665
303.8425656
301.2154786
302.7231525
304.0220897
308.3199992
308.7155486
307.6154317
313.5753161
)
;
    }
    obstacle
    {
        type            calculated;
        value           nonuniform List<scalar> 0();
    }
    frontAndBack
    {
        type            empty;
    }
    procBoundary3to1
    {
        type            processor;
        value           nonuniform List<scalar> 
36
(
713.6199495
684.2311374
688.4931316
700.3616182
701.3267348
701.3267348
570.336763
578.2668962
594.0877943
616.0075364
622.4972863
631.8769601
631.8769601
446.0252399
459.6898624
482.1561779
507.4947236
523.9621615
523.9621615
360.7468169
368.0432303
375.2440205
390.385523
398.7854107
414.7939297
414.7939297
316.6686266
316.7820068
320.377341
326.4213917
330.779548
336.3275858
339.2712993
339.2712993
305.0977394
305.0977394
)
;
    }
    procBoundary3to2
    {
        type            processor;
        value           nonuniform List<scalar> 
19
(
301.358774
300.0388796
306.2937723
299.7088981
297.2563169
301.6830255
296.5631906
300.1676365
299.5689445
302.961007
296.9622589
298.6876159
305.410398
302.937467
304.9433665
297.0825013
300.3881843
298.5197491
296.8782455
)
;
    }
}


// ************************************************************************* //
