/*--------------------------------*- C++ -*----------------------------------*\
| =========                 |                                                 |
| \\      /  F ield         | OpenFOAM: The Open Source CFD Toolbox           |
|  \\    /   O peration     | Version:  2406                                  |
|   \\  /    A nd           | Website:  www.openfoam.com                      |
|    \\/     M anipulation  |                                                 |
\*---------------------------------------------------------------------------*/
FoamFile
{
    version     2.0;
    format      ascii;
    arch        "LSB;label=32;scalar=64";
    class       volScalarField;
    location    "0.006";
    object      linearKEMean;
}
// * * * * * * * * * * * * * * * * * * * * * * * * * * * * * * * * * * * * * //

dimensions      [1 -1 -2 0 0 0 0];

internalField   nonuniform List<scalar> 
654
(
14.66695365
15.56888317
15.68676788
15.42973588
15.35436243
15.28279765
13.46774885
13.99251101
14.41853608
14.88029995
15.24748904
15.47014143
15.54597886
15.71527033
15.9932639
15.8280937
15.62050667
10.29407436
10.78206751
11.2116605
11.62879576
12.14965638
12.77293402
13.21064569
13.66364384
14.18619763
14.68576778
15.11144706
15.43182419
15.55536817
15.68869353
15.85409234
15.80064605
8.472932973
8.632326747
8.709411591
8.956305715
9.211056717
9.471547749
9.715020782
10.10752898
10.63842611
11.07786881
11.57643443
11.95975673
12.60725131
12.99751006
13.44169031
13.95283137
14.52627712
14.96138427
15.29862586
15.54143653
15.62152985
15.9774825
7.92787296
7.940938122
7.923628228
8.043245806
8.161629802
8.228652448
8.335537596
8.362346662
8.529399721
8.69082618
8.844884123
8.984114146
9.21521967
9.51949877
9.763285621
10.0181163
10.39376932
10.76564114
11.22257018
11.76528952
12.39032185
12.83587115
13.35243237
13.8613406
14.50046711
14.98179961
15.28209385
15.61187383
15.78422622
7.962142619
7.996594565
8.046703429
8.112793458
8.110689392
8.111114108
8.166264207
8.243509003
8.306291693
8.388594554
8.441903488
8.615781615
8.768547461
8.957369376
9.143441201
9.413574191
9.577444696
9.904124519
10.27448971
10.57429161
11.0348351
11.53107514
12.15976584
12.57242994
13.16028411
13.72365647
14.1573306
14.73271079
15.03357437
15.47578667
7.956024505
7.933474739
7.972802088
7.986308139
8.055281097
8.0686785
8.111914023
8.182766594
8.266490581
8.379802965
8.445960611
8.515788081
8.602416185
8.72826374
8.839269983
8.961468318
9.12574333
9.305659814
9.59410098
9.965648893
10.23919872
10.73721809
11.22235526
11.79007537
12.40462093
12.78150722
13.50497082
14.07574791
14.66758744
14.97752828
8.035705131
8.08465158
8.075126204
8.067466359
8.149810316
8.111083071
8.083307588
8.098608207
8.100643527
8.102261066
8.107635645
8.256414424
8.351418559
8.447126905
8.579691072
8.730421091
8.939410334
9.136594097
9.237346892
9.477455512
9.892901506
10.24857309
10.52402522
11.06999065
11.51443281
11.97148645
12.47433258
13.05634388
13.57135691
14.16803066
7.988008304
7.970914642
8.051709284
7.996862176
7.964952806
7.974124904
8.013309963
8.059073013
8.074397017
8.133287266
8.109181122
8.177907949
8.17231752
8.163877577
8.265807293
8.427041292
8.520450755
8.727756893
9.019656667
9.243295202
9.424516193
9.702544758
10.00933741
10.23731344
10.7057318
11.33379465
11.8349359
12.31544843
12.97732588
13.60155585
7.80132998
7.833397315
7.824993299
7.842068916
7.918965665
7.928738375
7.994764987
8.013517276
8.011781974
7.991567304
8.06375908
8.049285622
8.083849859
8.146358417
8.227887971
8.257798664
8.390007226
8.59331465
8.755658014
8.834385837
9.082596424
9.326233071
9.74181296
10.09955233
10.44157234
10.8531789
11.30698908
11.79674379
12.23868113
12.6000999
7.91856435
7.931791829
7.968422489
7.940777119
7.960420383
7.981526446
7.926865209
7.940237332
8.005711405
8.058457787
8.004779845
7.957446945
8.037487478
8.130057206
8.097956774
8.18277309
8.17893791
8.312104886
8.400344651
8.620332621
8.839130811
9.066568146
9.253960287
9.594472219
9.844753401
10.22486308
10.71827272
11.02504087
11.57783599
12.19639463
7.982661741
7.89929878
7.85265198
7.886549492
7.883171936
7.931779487
7.914273111
7.898433068
7.873253229
7.878648537
7.982456893
8.048054184
8.014753678
7.997307082
8.078357194
8.193383638
8.245749912
8.255332196
8.4250927
8.450181765
8.643812595
8.760308073
8.937506572
9.150786548
9.387363515
9.653637984
9.979933424
10.51354575
11.00037743
11.5261544
7.765401144
7.857954072
7.859650154
7.824299537
7.743941128
7.774181639
7.782587352
7.776168454
7.766231305
7.82754745
7.862605901
7.860881378
8.007828639
8.029165952
8.061915146
8.186663019
8.235705072
8.313198358
8.302868269
8.42381282
8.468667208
8.542959615
8.635008485
8.761667485
8.997195597
9.282497079
9.565358639
9.983504837
10.30253848
10.70718069
7.73723356
7.722858168
7.733848525
7.718865221
7.785510906
7.742481838
7.790267757
7.775153555
7.836134765
7.920662993
7.903487645
7.90455869
7.879223685
8.014177114
8.048264626
8.09666204
8.098961907
8.200097341
8.167134959
8.27357331
8.276477598
8.377746212
8.55533478
8.696745485
8.859771771
9.102713151
9.2941935
9.504903505
9.815467953
10.24132943
7.751867127
7.746025817
7.750868294
7.800347233
7.746586451
7.826421494
7.860889244
7.931532061
7.862100593
7.880043587
7.878889808
7.96266748
7.918478674
7.974747636
7.907783028
7.956088215
7.991111665
7.920795063
7.992608177
8.039118164
8.032858319
8.184184635
8.193133359
8.284696984
8.466862175
8.63229323
8.864552334
9.154644173
9.329172003
9.641972405
7.826526896
7.795481629
7.819105477
7.807179472
7.822827243
7.880640225
7.837965578
7.873943005
7.916010834
7.911471724
7.851931455
7.873131181
7.91669615
7.836386282
7.852558845
7.823005116
7.836600268
7.913072555
7.922873672
8.019126635
8.103410815
8.217339785
8.300551461
8.411381318
8.398910289
8.486089906
8.57944353
8.76483913
9.088257967
9.260539611
7.932963535
7.955981124
7.981094926
7.900016888
7.87114087
7.823367888
7.766037191
7.772073259
7.741775907
7.79037479
7.796439013
7.769449315
7.787268667
7.834984672
7.88742992
7.948713344
7.988328799
7.999784547
8.109776708
8.143789527
8.20619488
8.201598856
8.176157931
8.203169409
8.271728584
8.280960118
8.42230966
8.600718187
8.662882217
8.921994379
7.925684178
7.915334256
7.967118112
7.994157744
7.966890635
8.020267435
7.98128714
7.998031521
7.900750139
7.860532216
7.851746485
7.895836893
7.919716805
7.919272063
7.894580069
7.876703013
7.917987109
7.947563968
7.908530439
7.880042421
7.905543251
7.929953028
8.025955765
8.153645235
8.347551243
8.375737547
8.477447652
8.500278931
8.591308015
8.742581061
7.790260806
7.729381921
7.716552833
7.735746621
7.761716302
7.754956752
7.749095719
7.824512101
7.851255801
7.797127976
7.853596287
7.868677592
7.886321723
7.842390853
7.914565147
7.909296253
7.864036395
7.896504165
7.859198774
7.972720655
8.017479274
8.058395886
8.018192065
8.081482467
8.052565937
8.086161062
8.159590969
8.306766902
8.517757162
8.553127304
7.818445056
7.723383241
7.764134461
7.736518156
7.781810379
7.785697082
7.784733346
7.727690877
7.791064142
7.769367078
7.841513495
7.792334489
7.736391789
7.792718276
7.808317056
7.867332086
7.957305401
7.897992374
7.965972725
7.985486876
7.92257775
7.920537651
7.903508316
7.961128997
8.059549826
8.165550814
8.148225458
8.227483017
8.278536713
8.394390168
7.814498799
7.876480169
7.843893662
7.829323967
7.793936616
7.816563246
7.88208174
7.955288576
7.925026925
7.974672478
7.945546577
7.930899069
7.965050212
7.942733618
7.903908011
7.910973143
7.910741558
7.891179875
7.886795696
7.863626845
7.914573392
8.065867349
8.163864245
8.115105412
8.099220454
8.18006992
8.247782774
8.375173907
8.433472579
8.486936984
7.939228051
7.918892048
7.932612447
7.975326662
7.962802046
7.902209229
7.853900213
7.834048398
7.838946566
7.845916375
7.827768738
7.857939819
7.876052173
7.922592572
7.934342997
7.947293327
7.973705289
7.995667569
7.986701609
8.005536926
7.980353579
7.952393617
7.966893489
8.009261824
8.037802594
8.087350089
8.100928598
8.084104973
8.068704492
8.140352881
7.904517051
7.865698092
7.889485163
7.89386484
7.898315296
7.939774499
7.936050028
7.899086167
7.932430779
7.925653741
7.888103544
7.941741901
7.960941351
7.987509101
7.92818302
7.919645037
7.921038016
7.971073312
7.978034644
7.993606574
7.982322392
7.892419463
7.952769184
7.979532936
8.044026401
7.947254669
8.052001597
8.054723861
8.168155385
8.242914978
7.657627199
7.729238444
7.742176164
7.741406766
7.74287132
7.718963364
7.763529542
7.786000035
7.782135055
7.79138384
7.807555411
7.723409701
7.677420199
7.680287274
7.720574653
7.748574494
7.696828788
7.690216868
7.641817159
7.680218866
7.743524365
7.86403027
7.797677542
7.81477959
7.746798011
7.787630826
7.82947592
7.88550918
7.905243401
8.000436996
)
;

boundaryField
{
    flow
    {
        type            calculated;
        value           nonuniform List<scalar> 
55
(
14.66695365
15.28279765
15.62050667
15.80064605
15.9774825
15.78422622
15.47578667
14.97752828
14.16803066
13.60155585
12.6000999
12.19639463
11.5261544
10.70718069
10.24132943
9.641972405
9.260539611
8.921994379
8.742581061
8.553127304
8.394390168
8.486936984
8.140352881
8.242914978
8.000436996
7.657627199
7.729238444
7.742176164
7.741406766
7.74287132
7.718963364
7.763529542
7.786000035
7.782135055
7.79138384
7.807555411
7.723409701
7.677420199
7.680287274
7.720574653
7.748574494
7.696828788
7.690216868
7.641817159
7.680218866
7.743524365
7.86403027
7.797677542
7.81477959
7.746798011
7.787630826
7.82947592
7.88550918
7.905243401
8.000436996
)
;
    }
    obstacle
    {
        type            calculated;
        value           nonuniform List<scalar> 0();
    }
    frontAndBack
    {
        type            empty;
    }
    procBoundary3to1
    {
        type            processor;
        value           nonuniform List<scalar> 
36
(
14.11379966
15.40137373
15.20863576
15.11260029
14.86178704
14.86178704
14.04883811
14.46183657
15.03495404
15.20295648
15.43405198
15.43580859
15.43580859
11.00494187
11.42459407
11.88301974
12.43004688
12.88926447
12.88926447
8.600053009
8.73631556
9.125591932
9.340182768
9.562011104
9.866777195
9.866777195
7.960705509
7.982045939
8.01391245
8.113584072
8.145394679
8.218254812
8.356534031
8.356534031
7.843934842
7.843934842
)
;
    }
    procBoundary3to2
    {
        type            processor;
        value           nonuniform List<scalar> 
19
(
7.961190865
7.945050789
8.01894065
7.989079845
7.807046301
7.94952569
7.909297634
7.781207388
7.74753118
7.768841406
7.814168683
7.908493773
7.905799247
7.798096715
7.75769924
7.8674009
7.854768924
7.945577606
7.685461777
)
;
    }
}


// ************************************************************************* //
