/*--------------------------------*- C++ -*----------------------------------*\
| =========                 |                                                 |
| \\      /  F ield         | OpenFOAM: The Open Source CFD Toolbox           |
|  \\    /   O peration     | Version:  2406                                  |
|   \\  /    A nd           | Website:  www.openfoam.com                      |
|    \\/     M anipulation  |                                                 |
\*---------------------------------------------------------------------------*/
FoamFile
{
    version     2.0;
    format      ascii;
    arch        "LSB;label=32;scalar=64";
    class       volScalarField;
    location    "0.006";
    object      linearKE;
}
// * * * * * * * * * * * * * * * * * * * * * * * * * * * * * * * * * * * * * //

dimensions      [1 -1 -2 0 0 0 0];

internalField   nonuniform List<scalar> 
654
(
4.834647781
15.66795479
14.55852024
17.18997201
15.2399054
12.48734245
10.55520457
10.35744181
15.99796356
12.61274987
15.68481156
20.22208273
20.38913106
12.90780056
17.92180325
12.24705055
11.95947706
11.27086133
11.27969353
12.56621074
14.0507195
20.68928175
14.38960908
13.97950684
17.16229801
10.58117628
11.24806697
16.53176297
16.87498032
19.43997072
16.45547089
13.49210697
20.82659148
5.529177973
5.279435675
14.3841405
8.901995776
2.738449832
12.52352346
7.859339364
7.613216621
9.229694739
13.03253017
13.80613254
14.13785717
17.44752759
14.50220908
6.038390617
12.09565647
12.91704546
18.69439672
14.68850588
16.05566777
12.31645414
14.56322387
9.462873143
9.123751003
6.870533545
8.082348696
6.163276799
3.76722209
9.999317879
12.73484431
7.952854419
13.68623834
9.48336103
6.825763498
7.615275597
9.463761399
9.467846855
11.37900277
10.3219036
9.691826283
9.489897491
16.30557976
6.20292476
9.404922549
14.17917719
11.48628085
14.5256916
13.50578105
11.19222589
18.59472588
6.695655868
5.187819577
6.785596435
13.4065404
3.894031646
11.9063528
4.901885206
3.360570714
4.329206064
4.967816066
4.393912227
10.92449669
7.673291531
11.32652781
7.726650388
6.052362761
15.1339887
9.092835451
7.922742141
14.70626842
10.839503
12.44783092
11.9799227
12.14713394
14.83084606
9.972389754
17.47826153
13.80410408
21.57539713
16.50983106
20.77459025
7.599127469
3.189345423
8.780627525
10.96341818
5.573255557
16.39234778
6.58917444
6.457326795
8.099923906
5.139175705
7.510026825
5.955509018
8.799274568
15.64644536
6.528393106
6.990019857
9.666518145
5.041755104
7.76991516
9.582661163
8.750039952
10.03921464
8.863622143
9.52721884
13.79266607
12.68395505
9.746819761
14.93134111
9.397439992
12.95907271
6.475569198
8.911183743
11.19199901
3.959302186
5.731790372
6.917780482
5.995163443
6.798798943
12.71875495
6.721352843
7.105756553
3.463003843
3.045229375
15.65628176
10.2643694
4.448146988
10.1612603
6.468094777
6.301356783
5.645018785
10.7235375
14.94163978
11.05837703
8.287132578
13.62843682
11.01312236
10.84694324
11.90726436
15.41910149
8.535500168
9.056331078
1.350248444
9.523394695
8.43904377
6.792675684
12.01274035
6.276211323
11.84695905
6.465094917
7.512718978
4.863108251
5.528338063
12.25431213
8.02163189
14.4596088
3.339064584
4.318584083
7.970004712
8.545602205
7.516163494
10.4243078
10.12450499
9.18544278
7.212061309
13.07834431
18.74968997
10.15139424
8.413176977
11.7495524
7.976850339
7.147380133
8.131144325
9.460760105
10.49809853
7.778485888
8.161447357
6.425646109
9.230812184
7.275610173
11.01883272
10.11103972
6.075771217
9.077810835
10.33164098
9.208126961
10.7928598
10.34707826
2.297480696
11.49082131
13.9234127
11.34694199
7.636368097
9.803648796
11.12812455
9.044469113
7.725646933
13.91077
8.42136247
17.59629228
13.41100104
8.699591037
8.176779054
7.785572727
5.486501828
6.637684462
6.726966918
13.47617652
4.110646821
11.60782207
5.069647245
7.734418614
8.519219067
7.092153471
7.385509197
2.629977578
5.613304007
6.519213468
4.661144021
3.362904113
9.013888321
18.26557498
7.673492813
8.03700609
10.37159116
12.90623325
16.71506393
8.070719221
14.05502035
6.426704519
11.04078726
8.093731028
7.10505431
10.03760491
4.790112383
6.484936769
4.203878167
11.72701271
4.787781556
7.128810538
8.835047547
8.311271674
9.782485791
9.036281387
14.44752056
5.111033091
13.81924965
12.5416903
8.974343147
8.547988421
8.611939213
4.926322472
11.27592862
7.089925144
9.493797185
14.55020795
9.640599026
12.18726942
16.29376711
13.20556942
19.015648
5.321927467
9.020174922
8.438742312
5.945893627
13.32914187
8.294827121
1.828694391
9.722564536
5.484691358
10.81983122
8.475246987
11.33336308
8.952216162
13.25671992
11.14037856
5.49036199
3.704663605
10.85300081
8.642443279
12.43485869
10.69245685
8.03430422
21.09611683
9.219471845
4.023183718
7.281578772
12.19086604
8.980754916
9.459351067
13.31021115
7.608021671
7.622210533
7.323084695
10.21326987
7.479306157
8.863414731
7.91023473
15.00179472
9.590723293
2.230773309
10.29873481
11.56735803
7.406393932
6.083971172
8.42710575
4.847152656
11.09988776
7.808118333
13.09392084
8.005952062
11.49709472
4.849419955
6.930032861
5.206840266
10.37980739
9.778732374
5.75206719
10.69736162
11.07035829
19.54686715
8.943603081
6.997592251
7.207648603
9.886901259
9.61466704
13.36840579
3.302589941
5.93956721
18.69641439
9.895987944
3.693876809
11.232989
5.76907722
9.696718716
7.856459939
6.79970555
8.122784443
8.230801868
3.965732853
3.535632846
5.001023127
8.158437858
7.359886717
14.35704006
7.237047423
7.677489631
10.95341898
16.76955715
10.09807289
11.83693996
4.994397315
7.653935005
7.308643473
7.433794935
5.387622362
7.360393835
5.918280799
6.876153105
10.7605628
8.322265513
10.13052514
5.440403092
4.603513426
4.363338407
8.26950075
5.137182728
9.548390946
6.665706745
11.83393341
6.844209967
13.89931497
4.717005247
6.114035794
12.17009827
12.17864504
9.159946923
3.018807874
4.686322608
6.289790851
12.75720365
2.664157796
7.958519816
8.242643825
11.98619443
6.707652451
10.23041446
6.949287173
9.569729241
8.922018611
4.778279871
5.31040362
6.861902024
8.353280954
7.69385992
6.372599053
7.909432618
4.186462626
8.061588857
6.621026277
7.914947335
13.61545397
13.22454752
6.407430135
6.888937538
3.247815971
11.19585996
6.071093165
9.023561723
7.822328656
3.062253723
8.730696913
9.73148772
9.441756342
12.12229867
9.321126269
9.339916917
7.495203946
4.611204186
8.101784391
5.097533228
5.48861242
8.212072291
7.554553877
6.495838073
7.752512016
11.64177591
6.391670802
7.725422522
4.302971787
5.682556041
4.110003342
14.65287439
11.18481593
7.872999389
10.77503764
4.668531398
4.196988998
5.801605079
17.51532956
9.656354205
7.351564571
7.674121412
11.80826627
10.37497881
7.178318384
7.140247361
1.984373016
7.868350582
7.844518428
5.569433542
8.121629919
6.252072782
10.73912191
6.358844987
5.275040116
7.429745132
8.891371673
11.9238199
6.740585044
9.400140719
13.46280536
11.75781104
3.888617698
6.3861406
6.763569757
8.291077271
5.380870196
10.83010736
7.608560897
4.298550019
10.89399837
9.311420247
6.554327204
11.35393125
3.613874415
12.32973823
10.77644931
7.563273348
4.783282168
4.476282912
10.62798121
8.397938695
10.86286483
5.602999138
4.564571579
6.358355239
5.874133087
7.647040372
6.703534766
13.35147539
3.698621908
6.89032065
3.182125441
8.744562615
8.604015886
9.40365743
10.84290934
6.652129686
10.52756152
7.233026496
6.660772037
10.63042445
6.713684576
5.981628413
4.59028601
6.260037629
9.552584233
11.08560756
8.283892915
6.74140665
8.716084834
6.592145251
8.239384189
8.594273294
10.64710457
6.468802991
11.41032285
7.450469128
10.18359491
8.152645298
4.876857765
5.387197803
14.40681509
11.25151156
7.884841339
2.712430251
8.701300004
11.4521521
9.317323594
8.024545089
7.853278412
9.776088136
10.55322041
15.51529636
8.050315437
3.110884585
5.863231384
2.011892513
3.506076177
7.228156485
4.185090566
8.415811555
10.07846402
6.042114369
5.966735281
3.362449635
7.107692862
10.58122457
5.193391003
11.52336186
7.974947115
8.22425396
5.299195775
5.215987879
14.27696502
6.744389323
6.978840811
9.919495825
7.926819044
14.82337555
7.188652958
11.36511159
7.893873714
7.425792825
6.25121985
5.501840775
5.745110509
6.190270388
6.490250086
9.195951909
9.30443644
6.086785888
14.17671857
17.80363972
9.46888184
8.186551934
3.748288726
4.668739789
2.828369056
10.36380534
7.258302115
13.58895962
8.075668943
11.35424909
9.57829028
14.24680276
8.54524497
5.68847727
9.507610749
7.432647626
11.82989864
3.25463957
6.459786462
8.425115802
5.177655763
6.830072043
10.41429935
10.37523657
7.514096
4.873612066
6.943314193
7.889325198
4.055551534
5.656817421
2.755543037
6.429267037
4.274372088
5.07129929
7.121701339
9.303426592
8.885840328
8.664602441
7.583836687
9.941886715
14.2742208
4.016421699
10.17306331
11.33608972
6.689267607
4.003340939
)
;

boundaryField
{
    flow
    {
        type            zeroGradient;
    }
    obstacle
    {
        type            calculated;
        value           nonuniform List<scalar> 0();
    }
    frontAndBack
    {
        type            empty;
    }
    procBoundary3to1
    {
        type            processor;
        value           nonuniform List<scalar> 
36
(
7.419303838
9.788033219
24.73862261
12.5780177
21.11603743
21.11603743
13.27934451
11.40433242
9.956387579
23.47555131
21.08796164
7.746453888
7.746453888
16.92423109
10.92351996
9.179205563
6.125313034
17.68312047
17.68312047
9.086118328
6.119428735
6.934674226
4.026882139
2.040658533
21.50997763
21.50997763
6.816259576
4.677369238
12.23029953
9.768838321
13.49053378
5.852112034
10.50503321
10.50503321
2.828504177
2.828504177
)
;
    }
    procBoundary3to2
    {
        type            processor;
        value           nonuniform List<scalar> 
19
(
5.949335389
1.674420461
11.16551603
4.982380675
10.83542382
8.446812199
7.340755584
3.990521898
1.794770017
4.434124836
10.28108187
13.74104912
9.464803812
5.203168568
9.868925251
7.120664506
7.855975834
5.164321101
5.513494028
)
;
    }
}


// ************************************************************************* //
