/*--------------------------------*- C++ -*----------------------------------*\
| =========                 |                                                 |
| \\      /  F ield         | OpenFOAM: The Open Source CFD Toolbox           |
|  \\    /   O peration     | Version:  2406                                  |
|   \\  /    A nd           | Website:  www.openfoam.com                      |
|    \\/     M anipulation  |                                                 |
\*---------------------------------------------------------------------------*/
FoamFile
{
    version     2.0;
    format      ascii;
    arch        "LSB;label=32;scalar=64";
    class       volVectorField;
    location    "0.006";
    object      momentum;
}
// * * * * * * * * * * * * * * * * * * * * * * * * * * * * * * * * * * * * * //

dimensions      [1 -2 -1 0 0 0 0];

internalField   nonuniform List<vector> 
654
(
(0.005361790241 0.000965492241 -0.000172962606)
(0.01505414379 0.001012756895 -0.002133884115)
(0.01624859024 0.005112102647 0.0003165322218)
(0.01834153172 0.003109561889 -0.0008765110238)
(0.01450981923 0.005820711346 -0.00298840415)
(0.01345453537 0.003407490199 -0.000964148966)
(0.01157837219 0.002230891312 7.961631282e-05)
(0.01066817913 0.003879093687 0.0004279401505)
(0.01366333026 0.007424673475 -0.002292041494)
(0.0119283251 0.004265844762 -0.002754295224)
(0.01409173175 0.007801583694 0.001148166253)
(0.01961209299 0.007997639941 0.001841729843)
(0.01918477896 0.007079742998 -0.002357081429)
(0.01425135561 0.004616221656 -0.0006752877985)
(0.01813637798 0.006284091321 -0.0009508387771)
(0.0118434597 0.003855695511 0.0002456228831)
(0.01184477731 0.00217828774 0.0005575006376)
(0.01198158529 0.001628421887 0.000892120245)
(0.01061553214 0.002699917591 -4.097836233e-05)
(0.01223020644 0.00370939931 0.001050997321)
(0.01446261487 0.003026236751 0.0004954195435)
(0.01959236582 0.003073390355 0.001112321775)
(0.01444789674 0.003998216598 0.001152722917)
(0.01400123933 0.003972081463 -0.0007508548364)
(0.01678811734 0.005812859614 -0.001101453983)
(0.00973169995 0.003336947339 -0.001811481648)
(0.01130226394 0.003286160126 -0.0003225265007)
(0.01612024416 0.005118055475 -0.001413221126)
(0.01759849225 0.004389237288 0.00138146372)
(0.02023721685 0.00852125454 -0.002050062996)
(0.01640576376 0.006408900502 -0.001057004464)
(0.01546049949 0.003119252254 2.551680403e-05)
(0.02099054508 0.006407425576 0.000333015932)
(0.005407444682 0.0001070554664 7.435203811e-05)
(0.00579156714 9.59074609e-05 0.0001451839695)
(0.01604303672 0.00100637053 8.329129932e-05)
(0.008102155699 0.00181706744 0.000867188405)
(0.003083594705 9.513638981e-05 0.0002377522879)
(0.01094662786 0.004775393019 -0.0003142077134)
(0.008053980719 -0.0002280565567 -0.0001287371393)
(0.008118017323 0.0005028379664 -0.0002144914624)
(0.00876307005 0.002129547082 -0.00115238949)
(0.0141225387 0.001346299604 0.0003310972349)
(0.01384477757 0.003428211197 0.001508491557)
(0.01536969667 0.00141463877 0.001264751276)
(0.01710477122 0.004281514405 -0.001751622176)
(0.01451905764 0.003198016405 0.0007583258773)
(0.006232266705 0.0005357146506 -0.0002889569358)
(0.0127488033 0.002795600492 0.002012177048)
(0.01330093879 0.003292064088 -0.001057805214)
(0.01843585523 0.005348202917 -0.0005728119553)
(0.01509228263 0.003731431183 -0.0001495243609)
(0.01663499835 0.004861259788 0.000482833271)
(0.01291482038 0.00359720377 -0.00196737839)
(0.01582847904 0.003713091181 0.0004082022649)
(0.01038695858 4.530148482e-05 -9.253308357e-05)
(0.01005186815 -0.0002557663701 0.0003078121537)
(0.007425318191 -0.0005991884098 0.0003998803596)
(0.008440882413 0.001245530975 8.447286302e-05)
(0.00663379985 -0.0001461446473 0.0001260707546)
(0.004630303407 7.91118686e-07 0.0006564012459)
(0.009898384064 0.001482941506 0.001319664614)
(0.01371108381 -0.0004285957299 0.0008024842737)
(0.008438385193 0.0007256050664 -8.799767797e-05)
(0.01317749614 0.0007250126298 0.0003314037381)
(0.009802630248 0.0006264705307 -0.0009359723363)
(0.007610903203 -6.336864609e-05 0.0005205193248)
(0.007736942696 0.0002492502416 -0.0006001788298)
(0.01028643805 0.0002121112218 0.001893569052)
(0.01044048423 0.0005088010618 0.0004758535187)
(0.01227015404 0.0002979201171 0.0008753210344)
(0.01059677506 0.002125854119 -0.0004287453453)
(0.01001621164 0.001004605301 0.0009872334401)
(0.008753702477 0.002430914678 0.0009680412133)
(0.01695348097 0.0005795974756 -0.001228061836)
(0.006262350839 0.001752311343 0.001379376868)
(0.009116543594 0.003535222405 0.0003627298226)
(0.01371704276 0.002679385903 -0.001171614147)
(0.01222116113 0.003559219845 0.0008692236516)
(0.01447381156 0.005488145978 0.0003926352407)
(0.01499995673 0.003130641563 -0.0007666422369)
(0.01115194449 0.002555498491 -0.000511962057)
(0.01647922028 0.006241407208 0.0009561773671)
(0.007911045173 0.003485153871 -0.0004257298474)
(0.005649168585 0.0001086986706 5.941287005e-05)
(0.006680445771 -2.472906904e-05 -0.0001972558921)
(0.01303736455 4.823173809e-05 6.305015638e-05)
(0.004216885497 -0.0005723149495 -0.0003994253971)
(0.01167923024 0.0004062439426 0.0004815151486)
(0.005830501961 -7.349325839e-05 -0.0003452763233)
(0.003820370029 0.0001222022917 -0.0002117958934)
(0.004853926409 -0.0002206921706 7.28081643e-05)
(0.005941654621 0.0009228826182 0.0002908335086)
(0.005217664422 -0.0003916586643 0.0002039923508)
(0.01140497852 -0.0009318943932 0.000100900306)
(0.008257432814 0.0004666858448 -0.0001307655552)
(0.01172546435 6.433560644e-05 -0.0001433877722)
(0.007039130558 0.0008724201267 8.383123194e-05)
(0.00677088399 -0.0002492035149 3.529161831e-05)
(0.01497359869 0.002437658254 -0.0009337274618)
(0.009118569813 0.0008601255885 0.0003271747781)
(0.008191493162 0.001993425913 -0.0005345528979)
(0.01467885231 0.003291021253 0.0011164294)
(0.01076755434 0.001569231052 -0.0004739652297)
(0.01272699358 0.00238277013 0.001147748571)
(0.01166800665 0.002157030395 -0.0008337032978)
(0.01204265707 0.00291989342 -5.671324115e-05)
(0.01562168594 0.001753339039 -0.0002417577541)
(0.009522673357 0.002691338128 0.001030258155)
(0.01867035809 0.006836251388 0.000316669631)
(0.01299079326 0.005874515479 -0.001346678127)
(0.02090836092 0.00479553752 0.0009120043999)
(0.01694008472 0.006520691961 -0.0007288742514)
(0.01960718578 0.00612923171 -0.0008770649543)
(0.007794493726 -0.000184459597 -0.0003551939447)
(0.003506338623 -0.0002479268031 -0.0006869665006)
(0.008849873197 0.0005933438929 0.0004582075289)
(0.01105391282 0.0001328548214 8.011690652e-06)
(0.006443683943 -0.0005612153664 1.208779607e-05)
(0.01780636366 -6.429404535e-05 0.0001090560415)
(0.007244463078 0.0002965859966 0.0006727968484)
(0.00626837336 1.78153525e-05 -0.0002420345487)
(0.008360632575 -0.0004522952312 0.0003984834418)
(0.005531674257 -0.0003288974625 -0.000407822137)
(0.008236884072 0.0008446710041 -0.001079909049)
(0.006966351369 -2.324137521e-05 0.0002440265221)
(0.008436720435 -0.0001005016367 0.0004972642092)
(0.01570479852 -0.0002668444739 0.00056540965)
(0.006890383053 0.0004637352118 -0.0005315760868)
(0.006688299538 0.0006104644667 -0.0003119411171)
(0.01090714617 -9.728880599e-05 -0.0004239028338)
(0.0048015698 0.0006553954634 -0.0003173259393)
(0.008830592443 0.002036744986 -0.0002054922752)
(0.009483594057 0.002041189048 -0.001758120509)
(0.00952571067 0.0008879472712 0.0007494628666)
(0.01008895765 0.003231162733 -0.0005091436722)
(0.00982861726 0.001925414055 0.0006457415568)
(0.009606316705 0.002808296554 0.0001229047719)
(0.01444493597 0.002611579415 0.001398613425)
(0.01335872579 0.005249373638 -0.001427045048)
(0.01062241499 0.002783638585 -0.0009478199974)
(0.01528550728 0.003421187673 -0.0009114625264)
(0.009688613572 0.001910850032 0.001354958733)
(0.01294893256 0.006200149664 -0.00119968556)
(0.006733306782 -0.0001586400772 8.465306312e-05)
(0.01030467572 -0.0004231072418 -0.0005077423828)
(0.01103320077 0.0004434664429 3.144587792e-05)
(0.004325874353 -0.0003549174942 -0.0006829862025)
(0.006696888436 0.00050973339 -0.0003344893496)
(0.007480019849 -7.118781533e-05 0.0003624311369)
(0.006200153663 0.001210367231 0.0002465275946)
(0.007587924587 -0.0002890430926 -5.830715807e-05)
(0.01324817963 0.0005374136449 -0.0002655410875)
(0.006766295647 0.0004952000067 0.0007001346769)
(0.007140950874 0.0003136727257 -0.001208478422)
(0.004312737428 0.0003742285279 -0.0003995552608)
(0.003969298524 -0.0002201022309 -0.0002340072455)
(0.01756001124 5.303101781e-05 -0.001083194396)
(0.01126411826 0.0007217409067 0.0001292411121)
(0.004959725853 0.0005928469481 -0.0003418261465)
(0.01028772436 0.001549381009 0.0001282633059)
(0.005802948799 0.001249252697 0.0008923432988)
(0.006489034721 0.0007437835882 4.642200126e-05)
(0.005955344006 0.001581591423 0.0003218235342)
(0.01016751384 -0.0002960152602 -0.001159724669)
(0.01526895775 0.001593221033 0.001153412093)
(0.01096248721 0.002512422414 -0.001433838648)
(0.009544737606 -0.0006041692037 -0.0002389748695)
(0.01456700614 0.000790060382 0.001274575548)
(0.01162770845 0.002885613909 -0.0005550374485)
(0.009935208652 0.002575704637 -0.0008414691581)
(0.01225845023 0.00273733607 0.0007462284006)
(0.01698631819 0.003761663139 0.0009798504985)
(0.008445124554 0.00297744887 -0.0003629329151)
(0.009557163961 0.0005651630282 -0.0002415944451)
(0.001664351129 -5.547460444e-05 0.0002131658038)
(0.01082722043 -0.0001506417103 -0.0004345664281)
(0.008691667455 0.0004848437951 -7.191812936e-05)
(0.007515891357 -0.0001860179323 -0.0001089533517)
(0.01178478923 0.0004810242077 -0.001041560785)
(0.006854862954 -0.0002769085369 0.0003868028125)
(0.01326711792 -0.0005223341752 -0.0002467985667)
(0.00681956694 -3.356985677e-05 -0.0001348766341)
(0.008110847052 -0.0008595475665 -0.0001479682512)
(0.00418111299 0.001336257129 -0.0001797544567)
(0.006928833663 6.58661138e-05 2.859366549e-05)
(0.01321763198 1.01861971e-05 0.0001747022451)
(0.008224121779 0.0005054935868 -0.0007818128369)
(0.01409415037 0.0005706267541 -0.001525848683)
(0.00405107453 0.0005096024684 0.0005472909227)
(0.004706203494 0.0009643394241 -0.0001395352378)
(0.007860629406 0.0008230785595 -0.0003275522917)
(0.008990294081 0.0005889970715 0.001817436107)
(0.008174990267 0.0007614188078 -0.0006182114392)
(0.01124998441 0.002150035157 0.0005127355623)
(0.01085722669 0.0007898144565 0.001101011741)
(0.009428202157 0.00211822059 -0.001147923714)
(0.007880041214 0.001456836746 -0.0001030279087)
(0.0145109981 0.003901912549 0.0009227173122)
(0.01653778705 0.004885431725 0.001328651194)
(0.009669524705 0.00408156496 0.0001247995654)
(0.009405108264 0.002029917829 0.0006280220979)
(0.01252947185 0.001817131169 -2.941260568e-05)
(0.007899879427 0.002880377157 0.000945647279)
(0.007800721112 -0.0004018998182 -0.0009264964149)
(0.009202674423 -8.115309639e-05 0.0009943460216)
(0.009657113157 0.0003826998997 -0.0002704979871)
(0.01092427886 -2.577641153e-05 3.227585869e-05)
(0.008865855888 -0.0002021146815 0.0005176982513)
(0.008745801775 -0.0006041108494 -0.0008764385598)
(0.006784818742 0.0002315390503 0.0009175227721)
(0.009629595817 -8.346044739e-05 -8.183632718e-05)
(0.007123950879 0.0005539623777 -0.0001392746823)
(0.01133552727 0.0007055974185 -0.0004441001641)
(0.01032103831 -0.000418842328 0.001524619131)
(0.006243261897 -0.0007057375801 1.099430174e-05)
(0.009763223421 -0.0006913560957 0.0001315664902)
(0.01048218215 0.0004938767686 -0.0003635972182)
(0.009455007346 0.0002630535604 -0.0008086901599)
(0.01083041447 0.001764188165 0.0004536221741)
(0.01124668267 0.0007555278679 3.64186288e-05)
(0.00277401966 0.0002808632864 -0.0001513388747)
(0.01247470193 0.002163345782 -0.0005238938407)
(0.01440498044 0.001143017072 0.0003957404673)
(0.01104668085 0.0008850877307 0.001754309144)
(0.008365949939 0.0009638032395 0.0007498335722)
(0.01126756269 -0.0004872107855 3.438548377e-05)
(0.01109388555 0.002084875877 0.0004185244227)
(0.01054036535 0.001188716904 -0.0001723454953)
(0.007854405067 0.0003499293026 0.00125140237)
(0.01362691567 0.003267636594 0.0002619864408)
(0.0070424181 0.002395279341 0.0002819372547)
(0.01730175476 0.004178726035 -0.001606999651)
(0.01324459805 0.001391237625 0.000833865729)
(0.007981806335 0.0003119535244 0.000327134765)
(0.009362547806 0.000221324492 -3.962160638e-05)
(0.008410824263 -0.000328402276 0.0007182856067)
(0.005792687936 0.0001903849416 -0.0007847279933)
(0.006862503988 0.0002299646129 0.0001341906967)
(0.007437771818 -0.0009053430488 0.0002443514471)
(0.01364717032 -0.0005348697666 -0.0008348483269)
(0.004541999457 0.0002082926477 -0.0004444344246)
(0.0126178178 -0.0001283569927 -0.00131228758)
(0.004665373256 0.0002890950696 -0.001043692809)
(0.008032245853 -0.0009406356215 -0.0003381982652)
(0.008437700403 2.135726013e-05 -0.0002448219103)
(0.007915254755 0.000275207231 0.000114863198)
(0.008072231913 0.0005807947951 0.0001059483273)
(0.002955563603 -0.0003868343981 -8.02190136e-05)
(0.006217863943 0.0003711857973 0.0001117319187)
(0.007549563312 -0.0002213289587 0.0001960107267)
(0.004829018376 -0.0004050546037 -7.316319836e-05)
(0.003745225889 -0.0001714952441 -0.0001468389459)
(0.01060806391 -7.360359909e-05 0.0003042861412)
(0.01836877325 0.0006063097445 -0.0003291230976)
(0.008849372681 0.0001277320959 -0.0002121388991)
(0.00824734759 0.001416584145 -0.0009162554078)
(0.01074034878 0.001283355513 0.0003114785064)
(0.01255702066 0.001350292768 -0.001331554202)
(0.01725308875 0.002614711873 0.001326116996)
(0.007852979783 0.001537932426 0.002095512862)
(0.01462901211 0.002594923167 0.001168378246)
(0.00616049282 0.001254099495 0.001876172828)
(0.01145256558 0.003083913668 -0.0008077144024)
(0.007937492773 9.860732123e-05 3.125099035e-05)
(0.008126157447 3.133128413e-05 -0.0004458692297)
(0.01002057337 -0.0004428404776 0.0004529628629)
(0.005185008947 -0.0003768981662 -0.0001456098014)
(0.007310396635 0.0004096133297 -0.0001227132639)
(0.005119314599 -9.346781107e-05 0.0005390240023)
(0.01276616193 9.613091967e-05 -0.0007784213396)
(0.005479919581 -0.0003421110273 -0.0001273562706)
(0.008281465065 0.0004785822407 -0.0008526345965)
(0.009617959169 -0.000519343074 0.0003299349295)
(0.009020576695 -0.0004066763769 -0.00011710127)
(0.00967771126 -0.0006045193821 0.0004806317899)
(0.009209881665 -0.0002146208419 0.000253144473)
(0.01530643152 -0.0002695138236 -0.0003049186844)
(0.005721937422 0.0001788424268 0.0002700387131)
(0.01307859466 0.001046328784 -0.0001083529432)
(0.01399968534 0.001132950184 -0.001056730281)
(0.009617945376 0.0006173817619 -0.0006138864732)
(0.008228955021 -1.114070751e-05 0.0004338256352)
(0.009470528508 -0.0001747239635 -0.0003730790067)
(0.005789311775 0.0003127203698 0.0004174524597)
(0.01123168796 0.0004159932898 0.0003314512005)
(0.007981966683 -3.983565827e-05 0.0002887390737)
(0.01008256752 0.0009402233056 -0.0003683707055)
(0.01408081715 0.00098745007 -0.001421048411)
(0.009794459519 0.003126739528 0.00110112628)
(0.01294014679 0.001654782021 -0.001717140261)
(0.01672778364 0.00190725885 -0.0009841460666)
(0.0121277393 0.002691861803 -0.000192168319)
(0.0195849041 0.003506735268 -0.001398077999)
(0.005866421978 -0.0003662341243 3.308269937e-05)
(0.00935970532 0.00106330036 0.0006183102228)
(0.008189140144 0.0008445707884 0.0007819818952)
(0.006305888151 0.0001176056656 -0.0007251595628)
(0.01351522535 -0.0002241090606 -0.0001417712613)
(0.008632237398 -6.545322737e-06 -5.365276769e-05)
(0.001904327011 0.000243105542 -0.0001394460503)
(0.0102267872 -0.0002937699777 0.0008495327579)
(0.005399339418 -0.0003242361495 0.0007852315955)
(0.01189376332 0.0001392542975 2.237510511e-06)
(0.009011580589 -0.0005591806083 -0.001003900441)
(0.01183639761 -0.001128778289 -6.271314577e-05)
(0.009051956584 0.0002031852701 1.264382643e-05)
(0.01316949662 0.0003483522487 -0.001396578338)
(0.01268722917 -0.0001905581063 -0.0003850939247)
(0.006564313739 4.84781165e-05 -3.798621352e-05)
(0.004098864296 0.0002620612376 -4.968465825e-05)
(0.01077110089 7.767373066e-05 -0.0001205359176)
(0.009392911277 0.0002093120994 0.0003339623421)
(0.01331009528 0.001201907735 -0.0007008169797)
(0.01124459716 0.0002128950845 0.0007475825432)
(0.008662989339 0.0009031311272 0.0001907081287)
(0.02049203269 0.001002550219 0.0001781721268)
(0.009673149961 0.00155886045 -0.000103690063)
(0.0035386544 0.001162059716 0.0002964275089)
(0.008003719669 0.0008558905805 0.0005370613925)
(0.01157343876 0.001904100802 -0.001020273263)
(0.009163415012 0.000848408314 -0.0005442609839)
(0.0098641115 0.0007756719924 1.449878344e-05)
(0.01394740077 0.002122024861 0.0004748305694)
(0.007542711762 -0.0009242920869 -0.0003413106645)
(0.007534874484 2.378712323e-05 0.0005327315895)
(0.008515285345 -0.0001077541138 -0.0002230912026)
(0.0104829654 5.549546003e-05 -0.0004543969992)
(0.007772799652 0.0001709948681 0.0009423633981)
(0.008923423909 -0.0003688148367 0.0006034184706)
(0.008609384326 -0.001070850401 -0.0005662393108)
(0.01398996676 0.0008428206256 0.0002676513723)
(0.009367165327 8.098455039e-05 -0.0002103932545)
(0.002132562355 -0.000122733257 7.074823364e-05)
(0.01117481609 0.0004297633532 -1.5315106e-05)
(0.01171245434 -0.001134085827 -0.0006624638613)
(0.007572268308 -0.001003955063 0.0008609327982)
(0.007026997513 0.0007511691665 0.0004162411093)
(0.008578640771 0.0001963505599 -0.0008001770771)
(0.005134472612 0.0009137072991 -0.0003491309741)
(0.01256826159 0.0007751899375 -0.0005216466357)
(0.00831999937 -0.0002722808822 0.0003740119181)
(0.01392002972 -0.0005843052989 -0.0006184959738)
(0.008520098991 0.0002309532229 0.0007115745505)
(0.01199705956 0.0001363251021 7.033847284e-05)
(0.005229591772 0.0005173810635 5.887490791e-05)
(0.007062157251 0.0001142842747 -0.0002594719187)
(0.005882590357 -0.0008121826084 0.0005229604085)
(0.0111572611 0.001198826926 -0.001140976289)
(0.00992228297 0.0009974789382 0.0002269551635)
(0.005999563413 -0.0004970881623 0.001238562512)
(0.01134878483 0.0001709777066 -0.001892623879)
(0.01062623913 0.002415769795 -2.217977344e-05)
(0.01841479377 0.003087364152 -0.0004744163919)
(0.009284994669 -5.566547345e-05 0.0005805369427)
(0.007498925192 0.0003491638094 0.0005840800191)
(0.006968301513 0.00035134345 -0.0001678639738)
(0.009956721026 0.0005033158267 0.0002086977143)
(0.009038013571 0.0006759958463 0.00115393927)
(0.0146997214 -0.0006264138865 0.001317070575)
(0.003613459085 0.0001721920957 0.0003365997886)
(0.006768170962 0.0004276952586 -0.0002105242229)
(0.01894544039 0.0004854810357 -0.0001710981799)
(0.01088481666 0.0001093182847 -0.0004000739277)
(0.004496194695 0.0001563752497 0.0001991134045)
(0.01147288332 -0.0008655397481 -0.001209843622)
(0.006468096928 -0.0006214680661 -9.441132922e-05)
(0.01037896477 0.0005505914573 -2.441289761e-05)
(0.008753091263 -0.0007484089856 -0.0009054769592)
(0.007177948759 0.0002090781766 -0.0002649186482)
(0.009100160263 -0.0001982087133 -3.128666111e-05)
(0.008831377373 -0.0001656629742 -0.0001247291355)
(0.004686879594 -8.59844792e-05 0.0001593718372)
(0.003590157429 -0.0001433217698 -0.0007782838787)
(0.005858826719 0.000364289662 -0.0005935720837)
(0.007605085658 0.001435483292 0.001835475676)
(0.008495966663 0.0005173899795 0.0007559021639)
(0.01437162743 -9.56006743e-05 -0.0008487761669)
(0.008333815555 2.300175915e-05 -0.0003272126999)
(0.008891442633 0.0002646378639 0.0006213490554)
(0.01080555774 0.001707250582 0.001118749908)
(0.01611954396 0.00274974981 -0.0007697563309)
(0.009940038462 0.003194845244 0.0001108258209)
(0.01169085675 0.001092253937 0.0008224778774)
(0.005431558215 0.0006703351722 -0.0006605106579)
(0.007366985976 -0.0002866713024 -0.0003546619871)
(0.008600823616 -0.0001350074794 -0.0006207466312)
(0.007631300914 0.0003564957861 -0.0008356225366)
(0.005701480304 -0.0005952716242 -0.0002863265714)
(0.007791227663 -0.0004424586311 0.0004522551791)
(0.006007167582 0.0002451502269 0.0002622767384)
(0.007502375412 0.0002346001627 5.98527203e-05)
(0.01190823833 -5.519013454e-05 1.418018097e-05)
(0.007977409248 0.0004770239537 0.0004458773888)
(0.01135485189 -0.0008168265226 0.0006370154237)
(0.005546198771 0.0003954794857 0.0002140645492)
(0.00492065419 -0.0001558240298 0.0008354990399)
(0.005588557793 0.0001632885967 0.0002675733938)
(0.00836290259 -1.89067171e-05 0.0006731282866)
(0.005290631856 -0.0006868358647 0.0002913737597)
(0.009856358795 0.0004209009636 -0.0002211709829)
(0.007706255092 -0.0002578681304 -3.978121788e-05)
(0.01167331993 3.844733673e-05 -0.0003179068171)
(0.007462690541 0.0009803168169 0.0001569679112)
(0.01257710034 0.0001972910702 -0.000328231468)
(0.004866879568 -0.0002402891127 -0.0004321359043)
(0.006070170891 -0.000217330529 0.000254120341)
(0.01281354328 0.0004353906397 5.267763577e-05)
(0.01095767557 0.001878429823 -0.0003861714507)
(0.009549962034 -0.0001856636664 5.735825038e-05)
(0.003230843729 0.0002786889289 -0.0006760530804)
(0.005398431644 -0.000144592575 -0.0003628635636)
(0.007309730266 0.001150442618 -0.0008592465658)
(0.01289895911 0.001650794767 -0.0007267643873)
(0.003393870918 0.000160962574 -1.163634681e-05)
(0.008393843698 -5.014744384e-05 -0.000453269724)
(0.009164177165 0.0001892031934 -0.0003290438674)
(0.01253319063 -0.0002823941621 -0.0004381081767)
(0.007816909949 3.152148306e-05 -0.0005273417047)
(0.01109968692 0.0002724842633 0.0004589138568)
(0.00717981968 -0.0003146129068 0.0001199596898)
(0.01004867164 -0.0002683748521 0.0003933324077)
(0.008778008731 0.0002198938764 5.499773432e-05)
(0.005450814462 6.056064959e-05 -0.0005883179397)
(0.005831079597 0.0003195434386 0.0003975492737)
(0.007340817842 3.314691956e-05 -9.670012209e-05)
(0.008771319821 -0.0004709950356 -0.0001567965812)
(0.008562285967 0.0005609131147 -0.0005873705569)
(0.007022834753 0.0005821751903 0.0002903726306)
(0.008880999998 -0.000537944435 -0.0004160594251)
(0.004501688574 -0.0002188161149 0.000554428914)
(0.008782093234 -8.871237971e-05 -0.0001170563251)
(0.00739627467 -0.0006756783742 0.0009742109608)
(0.007939648954 -0.0008395585128 -0.0003699305958)
(0.01400687287 -0.0008206146677 0.001256750125)
(0.0148410305 -0.0003067068082 0.0004671033955)
(0.00664204411 -0.0004075309747 -0.0006337522841)
(0.00833543994 -0.000254326241 -0.0008514634218)
(0.003466100094 -0.0003324547371 0.0005238388275)
(0.01097341413 0.0005861815413 0.0008094465312)
(0.006626276221 0.000440930984 -0.0005011999283)
(0.009274789113 0.0003890833379 0.0005776612315)
(0.009240238565 -0.0003287356413 0.0001320612327)
(0.003477434439 -0.0001565120543 -7.786643796e-06)
(0.008958237089 0.0001981240216 -0.0001296303858)
(0.009801851569 0.0002471888233 0.0003652210004)
(0.01044538867 0.0002946120334 0.001352099759)
(0.012207781 -0.0005324029228 0.0004343861755)
(0.01053009208 -0.001351427891 0.0002188404578)
(0.01068167841 -0.0006890719449 0.0003541821695)
(0.007927872505 8.642350702e-05 0.00019605824)
(0.005297696 0.0005358547696 0.0002839861967)
(0.007877761808 0.0004964766816 -0.0003134901819)
(0.004571709409 0.0001273403922 -0.0005578292388)
(0.005384185063 -0.0001060891176 -0.000327243089)
(0.009400544139 0.0005664883222 0.0003408799925)
(0.007529183301 0.0005575249053 0.0002430276563)
(0.006665770857 0.0003464743587 0.0004584306116)
(0.008338162652 -0.0003985634856 0.0003303602278)
(0.01227495554 0.0012682476 0.0002132054028)
(0.006905652764 0.0004443506394 0.0004788963894)
(0.008300727528 0.0005351826278 -0.0004481069718)
(0.004897129236 0.0008720919774 -0.0002357044838)
(0.006326093764 0.0003210550548 -4.436829985e-05)
(0.003894692666 4.051717821e-06 0.0003241915561)
(0.01424417811 0.0003795723003 0.0005936270799)
(0.01122611777 0.0009704046691 0.0009987132356)
(0.008638213746 0.000824648426 7.802510636e-05)
(0.009976203167 0.001252760032 0.0002002317382)
(0.005427669497 4.632690201e-05 0.0001087986258)
(0.004523985536 -0.0002821936249 0.0002982951312)
(0.006042812672 9.126178774e-05 0.000127892333)
(0.01728323643 0.001927569907 0.001916797713)
(0.009125302528 -0.0001088660103 5.814855805e-05)
(0.007748359313 -9.143799218e-05 0.0002351265149)
(0.008395363825 -0.0005228193751 0.0004297514189)
(0.01258251722 2.055839753e-05 -0.0005803568487)
(0.01086238349 0.0007108959411 -0.0007395541088)
(0.007712181502 0.0002196415903 0.0002530865701)
(0.007620920993 0.0004022287348 -0.0007745964748)
(0.001957876155 0.0001908145046 -0.000568729251)
(0.008532536161 0.0003100416957 0.0003748477559)
(0.00862076191 6.301457124e-05 -0.0004485802929)
(0.006746320928 -0.0004935689731 0.0004547853027)
(0.009349612983 -0.0004317188319 -0.0003119628987)
(0.006791252507 6.611882458e-05 0.0002457104752)
(0.01090735176 0.0002018090444 0.0001068492803)
(0.007608438921 -0.0003861716151 0.000246056657)
(0.006040264639 0.0003545847784 0.0001137005574)
(0.008087139556 0.0001788538182 0.0006450199956)
(0.008830179664 -0.0004007639416 -0.0004115463572)
(0.01244115403 0.0009210351999 0.0002757163142)
(0.006742460992 -0.000792226835 -0.0002195933208)
(0.01002585098 -0.0004272178482 -0.0003718826036)
(0.0123854201 0.0006191453212 -0.0006841092579)
(0.01203362081 -0.001115640147 0.0004665982452)
(0.003711393687 -0.0005710009339 -0.0008117236024)
(0.007049845105 0.0002986523789 0.0009919658838)
(0.007174969313 -0.000308955769 -0.0001245027099)
(0.009417315579 0.0004259619995 0.0003059770381)
(0.006292172631 0.0004356644007 0.0004060971809)
(0.01057886362 0.001139109006 0.0008869863966)
(0.008162164616 7.596268559e-05 -0.0008199722113)
(0.003965625534 0.0006589790195 -0.0003734686463)
(0.01162702029 -0.0005148504824 0.0004661349407)
(0.01063695924 -0.0006565652216 -0.0001050474143)
(0.007344038354 -0.0007127294998 5.315463144e-05)
(0.01184513448 -0.0006859717071 -0.0003201726729)
(0.004216354227 0.0003071950223 -4.235670669e-05)
(0.01278562143 0.0001810148365 0.0001840854597)
(0.01165088839 -0.0004799136312 9.712760862e-05)
(0.008585280014 -0.0002367937664 -6.915402997e-05)
(0.005251791986 0.0001872818578 -0.0002997939864)
(0.005411571862 -0.0008782647427 -0.0002919599508)
(0.01119385616 0.0009158413462 -0.00105845686)
(0.009143342452 0.0001893143973 -0.0005421244194)
(0.01117164758 -0.0005141674622 0.0003753680227)
(0.00582135651 -0.0001924954657 0.00021123057)
(0.005578389855 -0.0001436119775 -0.0001053115391)
(0.006007131821 -8.163855081e-05 0.0005209981862)
(0.006338341247 -9.727264012e-05 0.0001014717593)
(0.00793727946 -0.0001016957599 0.000426092699)
(0.006841143808 0.0002715402937 -0.0005565752223)
(0.01355560157 -7.587497869e-05 0.0006804006695)
(0.004108866139 -0.0001199648703 0.0006522739025)
(0.007219404677 0.0003151195162 0.0003169734501)
(0.003387316624 -0.0001966358768 0.0002709224406)
(0.008673490945 0.0006620597286 -0.0002375449592)
(0.008501424216 0.0005495611533 0.0003520230159)
(0.009926188196 -0.0003485978757 -0.0001198828701)
(0.0109681907 5.190431641e-05 -0.0001088515127)
(0.006851734786 -1.912983736e-05 0.001332307612)
(0.01096312939 7.521831502e-05 0.0007149413406)
(0.007847752394 -0.0003317273971 0.001130642527)
(0.007538380927 0.0001964782014 5.278704943e-05)
(0.01057441271 -0.0005884004985 -0.001129416338)
(0.007348385039 -0.0001237980869 0.0002569020685)
(0.006240499144 0.0003187083481 -0.0001247520227)
(0.005348298679 0.0004883026915 0.001031528706)
(0.006534485679 -3.948651811e-05 0.0005150301196)
(0.01010471086 -0.0007042757848 0.000232592446)
(0.01134837252 -0.000364794206 -2.735438205e-06)
(0.009390528143 -0.0002771477174 0.0007383964254)
(0.006576717703 0.0003461046472 -0.0005112900572)
(0.009181288924 -0.0005181349804 -0.0006609351699)
(0.007106554693 0.0002714769332 0.0008313838928)
(0.008592964539 -0.000207963387 0.00131406432)
(0.009368199847 -0.0004114309038 -0.0004797995958)
(0.01229961275 -0.0002893260673 -0.0006721308474)
(0.006634512018 0.0001402244994 0.0001971846844)
(0.01233313258 -1.957724328e-05 -0.0002139243684)
(0.007934662626 -0.001319704794 -0.0003834435488)
(0.009754651558 -0.0006416058822 -9.730719688e-05)
(0.009419035747 0.0008901872324 -0.0001280675083)
(0.005359857773 -0.0003406970123 -7.923020023e-06)
(0.005569199808 0.0002506758941 0.001175480473)
(0.01423698218 2.299625841e-05 -0.0007022984237)
(0.01216860865 -0.0003571956185 2.824174544e-06)
(0.008566378177 0.0004671576237 0.0007411929558)
(0.00253099131 0.0001783914029 -1.043987492e-05)
(0.009352669643 0.0004083402452 -0.00075616326)
(0.01140158162 -6.425422823e-05 0.0005278815778)
(0.01096948661 -0.0006339845778 5.98985194e-05)
(0.009143060703 -0.0009404910002 0.0001636429143)
(0.008850369103 -0.0002055191417 -7.339997908e-05)
(0.01076202701 -0.000337183194 5.077660674e-05)
(0.01172092015 0.0001252255839 -0.0001418864847)
(0.01545176684 0.0002260772888 -0.0009608818939)
(0.009043214223 5.210214737e-05 -0.0002458364135)
(0.003621911957 -2.386830871e-05 0.0001957635751)
(0.006674215666 -0.000180161236 0.0004182051565)
(0.002068495094 0.0001157029485 -4.931663042e-05)
(0.003935341342 -0.0001424143925 3.68679649e-05)
(0.0082507209 0.0008971934423 0.0004160819538)
(0.004660408992 0.0004244878426 -0.0004604161653)
(0.00892580689 0.000680554681 -0.0008234263818)
(0.01000731474 -0.0001486132191 -0.00031789846)
(0.005907639748 0.0001366205741 0.0003036004492)
(0.006682836119 8.299745223e-05 0.0004584964275)
(0.003358121951 0.0001190552345 0.0007196065067)
(0.007029469289 0.0005157949078 -0.0003363062815)
(0.01135845142 -0.001041965598 5.768027553e-05)
(0.005414658543 0.0006348584859 -0.0003194175394)
(0.01137324542 0.0007542971004 -0.001319861685)
(0.008032010079 -4.685394781e-05 -0.0003091703884)
(0.008274457555 0.000435229596 -6.734570902e-05)
(0.005659403687 -0.0006593583338 0.0002046520824)
(0.005548399508 8.69732715e-05 0.0003634378115)
(0.01497912533 0.00065032922 0.001017169762)
(0.00695138263 -8.550288872e-05 0.0004696788484)
(0.007317040896 2.21597474e-05 -0.0002732438227)
(0.01022484411 0.001317428388 0.001042595687)
(0.008332454662 -2.349689428e-05 0.000119582362)
(0.01517867191 -0.0004742382198 0.001130335173)
(0.00775068237 -0.0005036884409 -3.11728877e-05)
(0.01308595975 -0.0001283748083 0.0006723375562)
(0.008592262199 -0.0001096642663 0.0003231862464)