/*--------------------------------*- C++ -*----------------------------------*\
| =========                 |                                                 |
| \\      /  F ield         | OpenFOAM: The Open Source CFD Toolbox           |
|  \\    /   O peration     | Version:  2406                                  |
|   \\  /    A nd           | Website:  www.openfoam.com                      |
|    \\/     M anipulation  |                                                 |
\*---------------------------------------------------------------------------*/
FoamFile
{
    version     2.0;
    format      ascii;
    arch        "LSB;label=32;scalar=64";
    class       volVectorField;
    location    "0.006";
    object      momentumMean;
}
// * * * * * * * * * * * * * * * * * * * * * * * * * * * * * * * * * * * * * //

dimensions      [1 -2 -1 0 0 0 0];

internalField   nonuniform List<vector> 
654
(
(0.01513191884 0.004773523873 -7.537448881e-06)
(0.01570726869 0.005028560385 2.050794314e-05)
(0.01586537524 0.005157561943 4.552327488e-05)
(0.0156932798 0.005043314641 2.562930131e-05)
(0.01567265266 0.004975807929 4.240720111e-05)
(0.01570667347 0.004919665083 3.358483578e-05)
(0.01354314931 0.003548640956 1.898721239e-05)
(0.01403087798 0.003800037218 -2.072066566e-05)
(0.01443919364 0.004130454909 -8.001943706e-05)
(0.01494360603 0.004398123432 -8.262006871e-05)
(0.01530125919 0.004672080128 -1.895514129e-05)
(0.01556394557 0.004865524763 -8.046240944e-05)
(0.01568764298 0.004889050205 -8.193716429e-05)
(0.01582336826 0.00500880998 -3.434721651e-05)
(0.01613593081 0.005179356126 -2.364056949e-05)
(0.01606648627 0.005078103754 2.068536339e-05)
(0.01593905577 0.00499052906 3.413579108e-05)
(0.01052009092 0.001590405711 8.366887669e-06)
(0.01096379017 0.001827964583 -2.100571608e-05)
(0.01138106534 0.002114074395 -1.393760766e-05)
(0.01176249402 0.002378687859 -4.169054816e-05)
(0.01229850217 0.002678732585 -2.810466286e-05)
(0.01286406056 0.003114402965 -4.173739793e-05)
(0.0133079986 0.003358732374 2.44995148e-06)
(0.01375149603 0.003639500132 -2.999635974e-05)
(0.01423088583 0.003985315551 -4.098311071e-05)
(0.01471777883 0.004277826458 -3.076326269e-05)
(0.01513455663 0.004558513586 1.766666374e-06)
(0.01548481875 0.004772113419 -3.312127395e-05)
(0.01565157301 0.004820260507 -4.435020638e-05)
(0.01581830397 0.004930531445 -2.347967856e-06)
(0.01598818805 0.005068062323 -4.129972397e-05)
(0.01597312175 0.00499679177 -2.709016445e-05)
(0.008870661656 0.0004290235153 2.258739264e-06)
(0.009008814033 0.0005028686665 -2.635087014e-06)
(0.009069917113 0.000596655228 -7.487879968e-06)
(0.009277199143 0.0007482180412 2.645503043e-05)
(0.009503170042 0.0008695638965 1.782252835e-05)
(0.009758784215 0.001013302188 -2.409522338e-05)
(0.009966885082 0.001182774355 -3.418390582e-06)
(0.01032995024 0.001422945412 -2.086389873e-05)
(0.01083206345 0.001634378035 -7.81380984e-06)
(0.01121835211 0.001946675214 -1.519678784e-05)
(0.0117048054 0.002230736486 -3.904110077e-05)
(0.01207380319 0.00253225547 -7.036575369e-06)
(0.01266622431 0.002943587246 -3.956383688e-05)
(0.01308695895 0.003192790873 1.263025253e-05)
(0.01354718404 0.003477693107 -2.003703888e-05)
(0.0140483423 0.00380354308 -2.570115741e-05)
(0.01455649224 0.004132700455 -4.559310101e-05)
(0.01495920837 0.004447930147 -3.717610556e-05)
(0.01537477111 0.004637756209 -1.091449749e-05)
(0.01560599944 0.004782661824 -1.328175725e-05)
(0.01571647625 0.004887588903 4.558636998e-06)
(0.01610855647 0.005002545363 1.951563517e-05)
(0.008381911452 7.487747784e-05 3.311501265e-05)
(0.008396818515 9.393812392e-05 2.910939614e-05)
(0.008370109359 0.000125905241 2.746441102e-05)
(0.008470683701 0.0001394069631 2.20008636e-05)
(0.008576377389 0.0001850455263 1.205598308e-05)
(0.008646056926 0.0002206229408 1.09491131e-05)
(0.00874645049 0.0002776811352 1.799722688e-05)
(0.008787279785 0.0003086328689 1.160454684e-05)
(0.00892824816 0.0003930632389 -1.014879345e-05)
(0.009069905293 0.0004769111545 -1.758460218e-05)
(0.00922073718 0.0005655223465 -3.196846943e-05)
(0.009346263875 0.0006804763293 -8.638742268e-06)
(0.009541310235 0.00081494413 4.284653598e-06)
(0.009832327141 0.0009498527937 -8.575121445e-06)
(0.01006156256 0.001118949494 -1.020256225e-05)
(0.01029710934 0.001310799361 -2.314802101e-05)
(0.01066179989 0.001531548266 1.368064574e-06)
(0.01098266362 0.00180544046 4.203562143e-06)
(0.01142958836 0.002055172121 2.34159116e-05)
(0.01193451842 0.002402370576 3.297259882e-05)
(0.01248744849 0.002781338367 -2.189382354e-05)
(0.0129335326 0.003030526567 1.766587077e-05)
(0.0134238877 0.003355154489 -5.270617631e-08)
(0.01392336691 0.003684745586 -4.95317987e-06)
(0.01452974345 0.003998011411 5.953813989e-06)
(0.01500654956 0.004311044654 7.384148001e-06)
(0.01533795675 0.004522364533 -2.908750718e-05)
(0.01568361815 0.004686882246 1.839256707e-06)
(0.01589103554 0.004861804664 -9.365826192e-06)
(0.008417861465 4.969734058e-05 -8.315150235e-06)
(0.008441018415 7.711535914e-05 -1.152689454e-05)
(0.008498075134 8.051083634e-05 5.579831788e-06)
(0.008564724909 8.396275545e-05 1.320410921e-07)
(0.008557481782 0.0001031433958 2.445519438e-06)
(0.008552284363 0.0001328645104 1.405663074e-05)
(0.008594984713 0.0001758550557 1.421066137e-05)
(0.00865653728 0.0002259983487 -4.161175975e-06)
(0.008717616972 0.000255174949 5.395719837e-07)
(0.008801587182 0.000279522652 4.57731692e-06)
(0.008844892423 0.0003423674972 2.650340343e-06)
(0.009008875998 0.0004197823026 7.790000767e-06)
(0.009148210859 0.0005119402241 3.792733262e-06)
(0.009328977316 0.0005978777042 2.57021314e-05)
(0.009493184306 0.0007357593468 4.711554622e-05)
(0.009739419589 0.0008768337912 3.691600573e-05)
(0.009885021148 0.00102712412 2.298325674e-05)
(0.01017578207 0.001214640425 1.400852746e-05)
(0.01052135563 0.001456153093 -1.556638368e-05)
(0.01080403709 0.001674583561 -4.818563223e-05)
(0.01126287823 0.001939321732 -2.580176906e-05)
(0.01170367782 0.002244902683 -2.351214294e-05)
(0.01231130874 0.002605865548 -1.239516282e-05)
(0.01270628037 0.002850433871 5.01368391e-05)
(0.01324367965 0.003185517449 1.44320968e-05)
(0.01381277504 0.003548676985 -2.193552924e-05)
(0.01421433802 0.003833247642 -1.752087311e-06)
(0.01476136879 0.004146926819 -4.211634905e-05)
(0.01509658301 0.00437555168 -7.735762194e-05)
(0.0155182566 0.00460067583 -3.976977246e-05)
(0.008417579014 4.702875495e-05 8.787366194e-06)
(0.008388903138 3.062117171e-05 5.688542466e-06)
(0.008417751734 5.841586973e-05 9.579927608e-06)
(0.008432522498 7.195004866e-05 8.262422196e-06)
(0.008496755333 8.746163096e-05 -3.861232662e-06)
(0.008512432869 0.0001018871221 6.117040823e-06)
(0.008565413585 0.0001147319897 1.119836455e-05)
(0.00862839165 0.0001224064656 1.424658803e-05)
(0.00869180241 0.0001714763898 8.554859101e-06)
(0.008818465758 0.0002311908624 1.470683617e-08)
(0.00888819801 0.0002659780186 -6.243874632e-07)
(0.00892923079 0.0003279952719 -1.331938486e-05)
(0.008997690534 0.0003861018676 -1.719821266e-05)
(0.009123131632 0.0004786935734 -2.174624504e-05)
(0.009214263073 0.0005832735162 -2.259978021e-05)
(0.009342502632 0.0006892497908 -2.830386622e-05)
(0.009483012331 0.0008185790534 -1.148107023e-05)
(0.009624839583 0.0009759962314 -1.493094752e-05)
(0.00991629342 0.001117417677 9.202089876e-06)
(0.01024896361 0.0013166545 1.75431317e-05)
(0.01048908345 0.001502112986 -1.600832024e-06)
(0.01095436328 0.001801274178 -5.762301757e-06)
(0.01143057518 0.00209479784 -3.59620294e-05)
(0.01197251013 0.002404118756 -2.871377524e-05)
(0.01256049633 0.002704196528 -4.114524842e-07)
(0.01291722636 0.002969672435 -3.915533617e-06)
(0.01357872655 0.003381155354 -6.388810493e-06)
(0.01415566916 0.003710411825 4.413187718e-06)
(0.01474569352 0.004013370503 -6.868744554e-05)
(0.01506440108 0.004274093495 -8.101852766e-05)
(0.008503628197 4.842621985e-05 1.157183443e-05)
(0.00856453902 4.69540736e-05 1.105432012e-05)
(0.008555495578 3.787180434e-05 1.157677766e-06)
(0.008543874355 4.883309156e-05 -1.320531494e-05)
(0.008625964709 6.148894978e-05 -1.124364752e-05)
(0.008569444957 7.943890063e-05 -2.315236703e-05)
(0.008538293593 0.0001072552085 -1.671215261e-05)
(0.008562397369 0.0001262451028 -1.045980762e-05)
(0.008546566221 0.0001369957969 -8.596841172e-06)
(0.008534876662 0.000157852071 -5.709179124e-06)
(0.008545058659 0.0001762165257 -1.526387247e-05)
(0.008701873982 0.0002158654448 -8.695283094e-06)
(0.008794752967 0.0002845194562 -4.61266922e-08)
(0.008870787637 0.0003662875955 -3.790066203e-06)
(0.008985469572 0.0004641981866 -1.939660303e-05)
(0.009115125416 0.0005608267817 -8.929082725e-06)
(0.009296680484 0.0006624799442 -6.856916416e-06)
(0.009480259574 0.0007743344289 -4.941715642e-06)
(0.009551975185 0.0009089098195 -1.877329843e-05)
(0.009786441906 0.001056340888 -7.837759178e-06)
(0.01018930724 0.001243299373 -8.384496435e-06)
(0.01048759263 0.001450347363 -7.695912165e-06)
(0.01075663538 0.001591225497 -2.37238983e-07)
(0.01127024228 0.001941997497 -4.275399043e-05)
(0.01170692123 0.002267153941 -2.209520137e-05)
(0.01212579074 0.002535642047 6.469266422e-06)
(0.01261159532 0.00285708707 -1.40851551e-05)
(0.01312888898 0.003214038094 2.848101891e-05)
(0.01364161109 0.003527647844 4.549828697e-05)
(0.01423261363 0.003788925503 -5.437306444e-06)
(0.008458988873 1.666464901e-05 -5.595337464e-06)
(0.008450600198 2.602008119e-05 -5.741371367e-06)
(0.008519561738 4.391809232e-05 -1.176143957e-05)
(0.008483442223 5.554575174e-05 -7.916489577e-06)
(0.008439704192 7.527413069e-05 5.433072146e-06)
(0.008442339054 7.589451131e-05 -2.145024261e-06)
(0.008476786712 7.537326506e-05 -1.723044474e-05)
(0.008516330829 7.887319414e-05 -1.394363346e-05)
(0.008525573099 0.0001056882617 -7.049105402e-06)
(0.008572245187 0.0001184389344 -7.317770977e-06)
(0.008538234818 0.0001607679059 -2.85760605e-06)
(0.008603240726 0.0001967830689 -2.090489143e-05)
(0.008602363575 0.0002378081574 -7.756759065e-06)
(0.008593371121 0.0002751653593 2.539760868e-06)
(0.008674518463 0.0003215318497 2.222643118e-06)
(0.008825107624 0.000398522998 -1.76033487e-05)
(0.008926588119 0.000490240928 -1.344531337e-05)
(0.009097521798 0.0006220951602 -1.413646368e-05)
(0.009379586576 0.0007035490899 -1.847444793e-05)
(0.00956674423 0.0008447732426 -2.216793944e-05)
(0.009745637666 0.0009465673074 -2.668473968e-05)
(0.01000705783 0.00116421043 -5.496640906e-06)
(0.01028742518 0.001368551564 1.294824002e-06)
(0.01049022437 0.001524673085 7.950994512e-06)
(0.01092696424 0.001795938131 4.144388345e-06)
(0.01150511813 0.002155023106 -3.352902856e-05)
(0.01199564548 0.002405491057 -3.147993944e-05)
(0.01246646023 0.002685446766 -2.225033608e-05)
(0.01310675417 0.003009204939 2.613320892e-05)
(0.01368936178 0.003407236419 2.302470854e-05)
(0.008284150088 -1.145388537e-05 1.796034077e-06)
(0.008309197652 -5.062634078e-06 -4.784829293e-06)
(0.008303701004 1.886069278e-05 6.308936346e-06)
(0.008306245265 3.07434789e-05 9.561869584e-06)
(0.008389822313 3.728998575e-05 1.602557921e-05)
(0.008399008365 4.987287497e-05 1.708527326e-05)
(0.008461009289 5.905917444e-05 2.011206572e-05)
(0.008467506828 8.106865165e-05 4.346624994e-06)
(0.008465483744 9.119270954e-05 1.133521325e-05)
(0.008443750032 0.0001053279892 1.509689359e-05)
(0.008516081522 0.0001397444114 1.431124518e-05)
(0.008499258598 0.0001573725584 1.976513989e-05)
(0.008525942239 0.000178200336 3.966126886e-06)
(0.008587870745 0.0002205129566 -9.021373208e-06)
(0.008665842631 0.0002691407804 -1.194254045e-05)
(0.008689999704 0.0003174943239 -1.308405089e-05)
(0.00880903181 0.0003760291033 -8.048826515e-06)
(0.009008219012 0.0004418741034 6.327414801e-06)
(0.009160211758 0.0005452009786 3.192416452e-06)
(0.009238735557 0.0006502916028 -3.175645034e-06)
(0.009464850855 0.0007872806332 -2.417376126e-06)
(0.009686793024 0.0009071163859 -1.293218635e-05)
(0.01005919493 0.001115070812 -2.59861795e-05)
(0.01040667792 0.001270343791 -2.116734405e-05)
(0.01072142645 0.001471570308 -3.821640837e-05)
(0.01111873802 0.001709731581 -1.682328838e-05)
(0.01154294768 0.001996314884 9.848128872e-07)
(0.01198234534 0.002324322453 -1.651135931e-05)
(0.01235481616 0.002659574732 -6.390620789e-06)
(0.01273274653 0.002878416272 1.283622476e-05)
(0.008381520248 1.467420867e-05 7.061761224e-06)
(0.008394897076 2.296972001e-05 3.584755131e-06)
(0.008437809864 1.150142469e-05 -3.869507088e-08)
(0.008399444686 7.13276375e-06 1.337081381e-06)
(0.008429127351 1.908579449e-05 -8.567552646e-06)
(0.008434925737 2.712379983e-05 -3.405928462e-06)
(0.00838238529 4.478754868e-05 6.139021125e-06)
(0.008404522912 6.256395528e-05 1.442739065e-05)
(0.008473240773 8.285721063e-05 -1.355522031e-06)
(0.008527149125 9.581346698e-05 -7.710741162e-06)
(0.008460925401 0.0001126849102 -5.228526281e-06)
(0.008416571515 0.000152503578 -4.370532175e-06)
(0.008500801523 0.0001713635947 2.000975176e-05)
(0.008562122179 0.0001950696548 1.083226585e-05)
(0.008524575745 0.0002014109293 2.300707707e-06)
(0.008587475415 0.000222513189 1.087059415e-06)
(0.008577410094 0.0002756038914 1.349248345e-05)
(0.008710777378 0.0003434946131 -8.10343745e-06)
(0.008802578953 0.0004070165534 -1.265806769e-07)
(0.009010511079 0.0005008972901 -9.818109909e-06)
(0.009211859949 0.0005689608653 -2.762032322e-05)
(0.009431461777 0.0006783916791 -3.512048799e-05)
(0.009605137228 0.0008043268663 -2.882929648e-05)
(0.009935804762 0.0009709907918 -3.457601588e-05)
(0.01018520678 0.001136974386 -4.665850637e-05)
(0.01052288339 0.001394827866 -4.183979496e-05)
(0.01094776506 0.001691366383 -4.786780539e-05)
(0.01126825684 0.001923342998 2.235411098e-06)
(0.0117916474 0.002210449219 -2.497613987e-05)
(0.01240225449 0.002499722684 -4.275564546e-05)
(0.008467543179 1.237541508e-05 -2.687568124e-05)
(0.008382358025 1.487398638e-05 -1.805159025e-05)
(0.0083309782 1.504696614e-05 -9.93958287e-06)
(0.008364191746 4.564614178e-06 -2.826331767e-06)
(0.008359763904 8.438269822e-06 -1.014126447e-06)
(0.008401062456 3.117111601e-05 1.171507975e-06)
(0.008379257053 3.53858065e-05 -5.042264576e-06)
(0.008369062614 5.145683608e-05 1.660061737e-06)
(0.008340674681 6.933511426e-05 6.387330128e-07)
(0.008329998261 0.0001020989696 7.011299765e-06)
(0.008436169283 0.0001125129462 6.452702876e-06)
(0.008500768696 0.0001215223036 -6.142015029e-06)
(0.008468203989 0.0001320893921 -1.226812794e-05)
(0.008451893675 0.0001357322763 -1.67295904e-05)
(0.008524661598 0.0001745294661 -1.852435475e-05)
(0.008638469949 0.0002169392538 -1.368908959e-05)
(0.008692403511 0.0002271810905 -3.716419238e-05)
(0.008685762057 0.0002541412323 -6.02085266e-06)
(0.008843569656 0.0002922346461 -3.343861174e-05)
(0.008859164063 0.0003751750976 -1.08604907e-05)
(0.009062870595 0.0004355883638 -5.441885483e-06)
(0.009169939275 0.0005137004089 -5.347993458e-06)
(0.009308990282 0.0006381920997 -6.776510638e-06)
(0.009494847693 0.0007842286892 -7.566432027e-06)
(0.009712408603 0.0009230294698 -1.28768718e-05)
(0.009974611267 0.001089934062 -1.227176622e-05)
(0.01029834972 0.001305277374 -1.054172972e-05)
(0.01077890991 0.001544884959 -1.801331288e-05)
(0.01125429944 0.001769761431 -3.658443012e-05)
(0.01175414271 0.002064053744 -3.236797005e-05)
(0.008230734895 -9.548343618e-06 -6.012659432e-06)
(0.008323315544 -4.521505708e-06 -9.581006517e-06)
(0.00831844875 7.716874862e-06 -2.046835017e-05)
(0.008291073522 2.395973091e-05 -3.307980222e-05)
(0.008217184199 2.988080112e-05 -2.744229729e-05)
(0.008247040106 2.013299103e-05 -2.69236288e-05)
(0.008244343542 3.334581521e-05 -1.598219757e-05)
(0.008236980432 4.043230101e-05 -3.333071918e-05)
(0.008223513825 5.963427781e-05 -2.703651918e-05)
(0.008288455003 5.655126549e-05 -2.023856412e-05)
(0.008325161851 6.583155268e-05 -1.828733283e-05)
(0.008310147819 6.519625068e-05 -1.299495773e-05)
(0.008458565978 9.382445836e-05 -1.124575198e-05)
(0.00848111267 0.0001214570531 1.673394808e-05)
(0.008508534728 0.0001453874798 2.170279569e-05)
(0.008618079085 0.000157133228 1.337764877e-05)
(0.008672747539 0.0001707774697 1.214506339e-05)
(0.00874930405 0.0001866794155 -5.744930792e-07)
(0.008733701751 0.0002415643707 2.291958152e-06)
(0.00885498195 0.0002822380739 1.601006556e-05)
(0.008881288835 0.0003594750015 5.081008331e-06)
(0.008957423351 0.0004202400988 -6.981930709e-07)
(0.009050755391 0.0005050505588 4.792236231e-07)
(0.009171221474 0.0006113488482 1.79842932e-06)
(0.009381219142 0.000721490822 9.861405179e-06)
(0.009650234981 0.0008308969762 -8.90858315e-06)
(0.00989713623 0.001001871825 -6.517496351e-06)
(0.01029563602 0.001204911086 -3.91081538e-05)
(0.0106005324 0.001422066691 -5.866431984e-08)
(0.01097591206 0.001682307353 1.442734765e-05)
(0.008215079885 -4.120047768e-06 -1.38458576e-05)
(0.008199072524 2.345582028e-06 -2.161220863e-05)
(0.008212875308 4.770451006e-06 -1.10328557e-05)
(0.008196363202 8.752431687e-06 -1.36797699e-05)
(0.008258161532 2.253399104e-05 -3.610872588e-06)
(0.008216907022 3.086555456e-05 -2.642269187e-06)
(0.00827264403 2.454088354e-05 -1.281746189e-05)
(0.008247355531 2.54034279e-05 3.487781578e-06)
(0.008298209792 2.102440036e-05 3.082386603e-06)
(0.008381431855 2.770670042e-05 -6.669662198e-06)
(0.00836151105 4.761547615e-05 -4.148639534e-06)
(0.008358723621 6.751661513e-05 9.138543583e-06)
(0.008335079578 4.638187043e-05 7.610645495e-07)
(0.00846732322 3.93079041e-05 -1.721591027e-05)
(0.008522276266 7.075417238e-05 -6.906174729e-06)
(0.008554295979 0.0001207003857 -1.198961266e-05)
(0.008564497683 0.0001434697811 -1.134739249e-05)
(0.008658476947 0.0001829201073 8.194707907e-06)
(0.008621217085 0.0001916703141 1.013463115e-05)
(0.008725430445 0.0002195216262 -3.789061391e-06)
(0.008725974503 0.0002593929241 6.97262003e-06)
(0.008814462595 0.0003428606323 -1.158838529e-05)
(0.008987875286 0.0004194617916 5.487012944e-06)
(0.009119407755 0.0004641071557 2.379239915e-05)
(0.009282297385 0.0005653279178 2.751531732e-05)
(0.009516942083 0.0006719805463 4.491014194e-05)
(0.009695073725 0.000799637061 3.154753596e-05)
(0.009882255233 0.0009525932703 3.282541212e-05)
(0.01016814136 0.001135284436 2.930646311e-05)
(0.01054801113 0.001365706283 2.141076084e-05)
(0.00824081588 1.651814812e-05 -7.508968932e-06)
(0.008216184725 7.016063246e-06 7.797110185e-07)
(0.008219612527 6.150422994e-06 6.723573793e-06)
(0.008273836236 5.780529971e-06 9.379723572e-06)
(0.008217068895 1.035147752e-06 2.094034196e-07)
(0.008298294836 6.678918108e-06 -9.159803586e-06)
(0.008341035321 1.071698249e-05 -5.33012573e-07)
(0.008416839528 1.444583293e-05 3.190249171e-08)
(0.008344205903 2.051672093e-05 -1.521576741e-05)
(0.00836146547 3.228738885e-05 -1.780070717e-05)
(0.008353065657 1.534578526e-05 -1.487847607e-05)
(0.00843719005 2.122807173e-05 -2.112820653e-05)
(0.008380301846 5.520940034e-05 -1.375305791e-05)
(0.00843760621 5.750147114e-05 -7.742547121e-06)
(0.008375129588 5.422334411e-05 -5.908287453e-06)
(0.008430964866 5.403508097e-05 -6.281438835e-06)
(0.008447429821 7.442782705e-05 6.927217176e-06)
(0.008376736638 0.0001213644426 -8.985346844e-06)
(0.008435964682 0.0001670902992 -4.382017427e-06)
(0.008475626076 0.0002176135998 1.621864242e-05)
(0.008467870194 0.0002226681127 1.750021588e-05)
(0.008614188459 0.0002492449476 2.618456468e-05)
(0.008625287508 0.0002719193205 5.159744463e-06)
(0.00870717084 0.000349788047 2.214888556e-06)
(0.00889467023 0.0004022076004 -5.528352134e-07)
(0.009063386762 0.000487923668 -9.734699382e-06)
(0.009271304344 0.0006070446935 2.810689784e-06)
(0.009539298964 0.0007613034542 6.99224491e-06)
(0.009695316917 0.0009047628227 1.527725835e-05)
(0.009982111319 0.001094605488 1.64919186e-05)
(0.008300083572 1.332578287e-05 2.39164533e-05)
(0.008282432703 1.595611985e-05 1.861090058e-05)
(0.008295392647 1.523489562e-05 1.960819534e-05)
(0.008287886347 -3.179942603e-06 1.950928294e-06)
(0.008299136428 -6.615872054e-06 -1.80667635e-07)
(0.00835288812 -1.36922103e-05 4.401061154e-06)
(0.008310655313 -1.634276884e-05 -6.120788459e-06)
(0.008356248898 -1.300020234e-06 -4.783023032e-06)
(0.008401831543 1.352780687e-06 1.456397331e-06)
(0.00838793408 1.138126014e-05 -6.183750042e-06)
(0.008326192449 2.551690941e-05 -1.287957944e-05)
(0.008353196003 2.363271843e-05 -1.78592539e-05)
(0.008392997232 2.503949454e-05 -8.277208104e-06)
(0.008324292912 4.167925638e-05 -1.256126186e-05)
(0.008319165526 6.902268897e-05 -1.766173597e-05)
(0.008294503565 9.670872603e-05 -2.036560578e-05)
(0.008287084979 0.0001054676545 -8.082813613e-06)
(0.008356058517 0.0001179280417 -2.951062687e-07)
(0.008379137177 0.0001068715687 -5.798130226e-06)
(0.008465546247 0.0001206230604 -2.205930649e-05)
(0.008534008802 0.0001668650003 -2.544549881e-05)
(0.008655515616 0.0002011542371 -1.68714363e-05)
(0.008727865947 0.0002445299967 6.065857333e-06)
(0.008842166555 0.0002774475224 8.95958539e-07)
(0.008833262891 0.0003154586759 1.200628205e-05)
(0.008889523029 0.0004023336981 -6.791863934e-06)
(0.008998209781 0.0004666555629 -1.557702422e-05)
(0.009166227549 0.0005522629701 -1.231735538e-05)
(0.009474654639 0.0007199473273 -1.565285724e-05)
(0.009643057358 0.0008376749716 -1.759451802e-05)
(0.008408584234 2.679704815e-05 -2.575265564e-05)
(0.008450617227 1.64849969e-05 -2.369332654e-05)
(0.008471728044 1.277414201e-05 -1.811964266e-05)
(0.008387086611 1.64594315e-05 -2.552383135e-05)
(0.008350728854 7.426410137e-06 -1.422025093e-05)
(0.008293471052 4.875028105e-06 -1.165399359e-05)
(0.008229009843 1.119981504e-05 -6.10447473e-06)
(0.008234076522 -1.113405911e-05 -9.292102279e-06)
(0.008207042236 -8.059788583e-06 -8.072984725e-06)
(0.008262192626 -3.438252412e-06 -2.695038397e-06)
(0.008271295261 9.416813139e-06 5.560211896e-06)
(0.008233188574 3.017507191e-05 8.747825524e-06)
(0.008251956476 5.055064815e-05 2.325261661e-06)
(0.008298404219 4.222762691e-05 -8.825390333e-06)
(0.008346991761 4.777146178e-05 -1.827389857e-05)
(0.008407955396 3.707972098e-05 -1.696552553e-05)
(0.008453696035 5.619902834e-05 -1.894412465e-05)
(0.008482573001 7.17980434e-05 -1.926976974e-05)
(0.008583387907 0.0001048622807 -1.511277152e-05)
(0.008613501772 0.0001086960818 -1.365696642e-05)
(0.008681339497 0.0001184815735 -1.61690033e-05)
(0.008667140032 0.0001452866264 -2.972765259e-05)
(0.008623527431 0.0001901057211 -3.686290764e-05)
(0.008632483723 0.0002565838288 -3.675828689e-05)
(0.008700196345 0.0002850246457 -3.171861055e-05)
(0.008691019047 0.0003113689807 -2.013941707e-05)
(0.008825585712 0.0003809444558 -1.251109294e-05)
(0.009001141509 0.0004579357638 -1.238169293e-05)
(0.009055384707 0.0005348648789 8.892988386e-08)
(0.009320851 0.0006622995588 5.514982027e-06)
(0.008410647553 -5.565650524e-06 -2.102000078e-05)
(0.008391151252 3.142235092e-06 -1.152923634e-05)
(0.008443566857 1.127235847e-05 -1.620726946e-05)
(0.008472223701 2.281736174e-05 -1.504616775e-05)
(0.008446309868 2.935413015e-05 -2.07833264e-05)
(0.008508776922 4.438933254e-05 -1.761574562e-05)
(0.008482176613 2.781439956e-05 -1.268701594e-05)
(0.008498898202 2.521278492e-05 -1.838619543e-05)
(0.008398802442 2.44528591e-05 -5.766254799e-06)
(0.008348257765 1.536741725e-05 4.402488477e-06)
(0.008339721056 2.545154837e-05 6.919851987e-06)
(0.008386371478 3.934653617e-06 3.432714867e-06)
(0.00839989578 1.974392175e-05 5.944890659e-06)
(0.00840044528 3.624925967e-05 5.458855109e-06)
(0.008374366097 1.934287604e-05 1.040739082e-05)
(0.008350720287 3.810355884e-05 9.342366143e-06)
(0.00838497877 5.580875752e-05 1.198804136e-05)
(0.008409645284 4.998189087e-05 -1.059925076e-05)
(0.008375602459 4.870631686e-05 -1.371638493e-05)
(0.008355640172 7.297149522e-05 -5.347440935e-06)
(0.008383234325 0.0001137973819 -9.092853981e-06)
(0.008383375832 0.0001379412457 -1.617149631e-05)
(0.008494371623 0.0001645650031 -2.794119867e-05)
(0.008610018678 0.0001746916193 -2.471620383e-05)
(0.008788560121 0.0002441136087 -1.944753483e-05)
(0.008834190243 0.0002525879124 -1.808268504e-05)
(0.008920034345 0.0003045829452 6.656308875e-07)
(0.00892823706 0.0003698424708 -4.231961085e-07)
(0.009007760064 0.0004294713369 1.49724842e-06)
(0.009139888918 0.0005472839064 -1.216454758e-05)
(0.008289909113 -8.348985341e-06 1.093194246e-05)
(0.00821826334 7.343150428e-06 6.260556917e-06)
(0.008215725286 1.672248747e-05 1.426674946e-06)
(0.008239752494 7.005677958e-06 1.397466687e-06)
(0.008258919445 -7.143138977e-06 -1.114709502e-06)
(0.008255695007 2.273320698e-06 3.329235843e-06)
(0.00824109131 2.282861569e-05 1.614966901e-06)
(0.008311108291 2.289114106e-05 2.219184793e-06)
(0.008341341303 2.004280697e-05 -7.272035658e-06)
(0.008292225526 1.185973652e-05 1.081819497e-05)
(0.00834632345 2.815549951e-05 1.166037227e-06)
(0.008367722445 2.673546328e-05 3.565487557e-07)
(0.008385366638 1.196407016e-05 8.879890383e-06)
(0.008327443521 2.317690075e-05 1.29609553e-05)
(0.008393128601 2.626795285e-05 1.017333771e-05)
(0.008393592413 3.851144242e-05 5.158602352e-06)
(0.008336349737 2.798225285e-05 3.240216676e-06)
(0.008370916889 5.149555964e-05 1.305761369e-05)
(0.008326405787 7.096581214e-05 2.377016787e-05)
(0.008426544647 5.930819476e-05 2.345741437e-05)
(0.008474727914 6.067203278e-05 2.556531384e-05)
(0.008529430838 7.375681789e-05 4.970696761e-05)
(0.008474941787 0.0001028417695 4.886515128e-05)
(0.008543458997 0.0001394072981 2.756232525e-05)
(0.008525008483 0.0001625195355 1.199962199e-05)
(0.008536669806 0.0002370749198 1.592696377e-05)
(0.008611038439 0.0002535393018 6.703989198e-06)
(0.00876216172 0.0002873568995 1.145340349e-05)
(0.008959584152 0.0003558724376 6.008312419e-06)
(0.008994782767 0.000378236793 1.479826194e-05)
(0.008283919953 4.014655633e-06 -2.885437867e-06)
(0.008205662518 -1.657211181e-05 -2.186820187e-06)
(0.008255362807 -2.344782863e-05 -3.439223939e-06)
(0.008229022696 -9.303938985e-06 -4.171775651e-06)
(0.00827042587 6.302959704e-06 -8.89815577e-06)
(0.008283850968 8.565458488e-06 -2.470693376e-06)
(0.008285871649 -4.694238379e-07 -5.984069645e-07)
(0.008225157798 1.708886719e-05 4.543710689e-06)
(0.008277778692 1.382320561e-05 -2.814874463e-06)
(0.00826095886 1.768299418e-05 -1.234416739e-05)
(0.008325012222 1.017223139e-05 -6.72628428e-06)
(0.008262356487 3.482830711e-06 1.072825323e-05)
(0.008212321559 1.605235897e-05 -2.106449311e-06)
(0.008285982437 1.184735735e-05 6.881237237e-06)
(0.008299153987 2.396216244e-05 6.441456424e-07)
(0.008355276229 2.598977679e-05 4.132672152e-06)
(0.008435914058 3.473186146e-05 1.231433933e-05)
(0.008391698025 2.427378692e-05 1.000506452e-05)
(0.008451854206 4.092260492e-05 1.582920706e-06)
(0.008474158083 4.874299851e-05 1.003551771e-05)
(0.008399787412 7.342200068e-05 8.616498954e-06)
(0.008409143886 7.303783151e-05 -9.64539014e-07)
(0.008391053977 9.656591362e-05 7.077605573e-06)
(0.008437706919 0.000119927769 6.137371805e-06)
(0.008527547799 0.0001290276662 1.564753501e-05)
(0.008625861257 0.0001498829443 1.752135762e-05)
(0.008594957676 0.0002045517936 4.577802778e-06)
(0.008662208453 0.0002312614406 -1.072792471e-05)
(0.008719063092 0.0002734285182 3.054986996e-06)
(0.008843170829 0.0003081891862 3.676726619e-06)
(0.008300090974 1.984487351e-05 -1.790542302e-06)
(0.008359559967 1.859781068e-05 7.643721594e-07)
(0.008310278777 1.267988994e-05 1.176491783e-05)
(0.008298616296 4.229539989e-06 1.798299496e-05)
(0.008271235363 -3.432965245e-06 1.775121341e-05)
(0.008289953993 -1.210159997e-05 2.746403063e-05)
(0.008368666111 -1.181739086e-05 1.266292883e-05)
(0.008450574577 -1.309709233e-05 1.019656836e-05)
(0.0084163455 1.068004875e-05 5.912394678e-06)
(0.008474010639 6.893263215e-06 1.016972634e-05)
(0.008442152698 8.344229422e-06 3.115280423e-06)
(0.008443550352 2.36666907e-05 4.646437285e-06)
(0.008491611564 1.543796936e-05 -4.003897e-06)
(0.008458949533 1.833310964e-05 -8.488991362e-06)
(0.008410075008 1.318575888e-05 7.595275201e-06)
(0.008413614996 9.816360477e-06 5.609569319e-06)
(0.008400643783 1.955140726e-05 8.510566031e-06)
(0.008366820038 2.897795116e-05 2.533173059e-05)
(0.008363015712 2.336893309e-05 1.472383968e-05)
(0.008345529099 6.415869523e-05 3.903760879e-06)
(0.008407873926 6.731438457e-05 3.83111991e-06)
(0.008546841671 6.030230174e-05 8.614011075e-06)
(0.00864528214 6.973788729e-05 5.993044457e-07)
(0.008596136598 8.32502725e-05 3.753769953e-06)
(0.008580128825 9.974523157e-05 1.143274102e-05)
(0.008664031842 0.00011919587 1.600035372e-05)
(0.00873864717 0.0001412999104 -4.22811392e-06)
(0.008861956702 0.000183535208 3.48988798e-06)
(0.008929701875 0.0001966058703 7.479780401e-06)
(0.008963740646 0.0002573424592 -8.027629994e-06)
(0.008438965084 6.733352094e-06 -1.210746155e-05)
(0.00841327309 1.569906916e-06 -1.385953922e-05)
(0.008438849754 -1.076349598e-06 -1.725256355e-05)
(0.008478860473 8.319204148e-06 -1.195820667e-05)
(0.00845727799 6.55095026e-06 -9.947061095e-06)
(0.008397732731 9.958632797e-06 -1.554516119e-05)
(0.008340732614 6.719816641e-06 -5.204841228e-06)
(0.008308797703 1.98784225e-06 -5.864323838e-06)
(0.008327947276 -1.614335475e-05 -1.363983487e-06)
(0.008320586561 -1.436949572e-05 -1.625980182e-06)
(0.008305339911 -1.029438542e-05 -1.547740747e-06)
(0.008327346229 6.568779327e-06 8.667630085e-06)
(0.008337249206 1.19421037e-05 1.844834338e-05)
(0.008372125757 1.872645123e-05 8.021727104e-06)
(0.008393380853 1.223518377e-05 1.347343233e-05)
(0.008419958666 2.692863629e-05 1.247483321e-05)
(0.008450398424 4.859571867e-05 2.27324199e-06)
(0.008482265003 3.794814099e-05 -1.050539386e-05)
(0.008480129319 2.825118663e-05 -9.511142269e-06)
(0.008483577598 1.288416099e-05 -1.841263139e-05)
(0.008442137571 1.504185543e-05 -5.983704648e-06)
(0.008419072667 3.474098598e-05 6.59780051e-07)
(0.008437689332 2.806594199e-05 4.665552373e-06)
(0.008480162072 4.723605907e-05 -7.849255543e-06)
(0.008504702594 6.612090726e-05 -2.57754968e-06)
(0.008562294554 0.0001025155211 -4.777678235e-06)
(0.008571963302 0.0001228240532 1.873075663e-05)
(0.00854804522 0.0001394158942 2.615658125e-06)
(0.008534216219 0.000187564005 1.37716985e-06)
(0.008600811869 0.0001985920955 3.024278193e-05)
(0.008378185103 4.106961936e-06 -1.086180979e-06)