/*--------------------------------*- C++ -*----------------------------------*\
| =========                 |                                                 |
| \\      /  F ield         | OpenFOAM: The Open Source CFD Toolbox           |
|  \\    /   O peration     | Version:  2406                                  |
|   \\  /    A nd           | Website:  www.openfoam.com                      |
|    \\/     M anipulation  |                                                 |
\*---------------------------------------------------------------------------*/
FoamFile
{
    version     2.0;
    format      ascii;
    arch        "LSB;label=32;scalar=64";
    class       volScalarField;
    location    "0.006";
    object      overallT;
}
// * * * * * * * * * * * * * * * * * * * * * * * * * * * * * * * * * * * * * //

dimensions      [1 2 -2 0 0 0 0];

internalField   nonuniform List<scalar> 
654
(
733.5442229
716.9247703
723.8077688
726.9288001
724.9169294
722.3412395
670.5356945
683.3676285
689.8619792
688.4635458
699.2078301
704.9260393
703.9464324
710.8308732
711.5528991
712.5437906
714.9375757
565.8891201
587.6134077
600.3344967
619.4652171
633.7953406
650.6521265
659.6685638
665.8494771
677.9223145
683.3437564
688.055004
695.1805924
693.1275153
697.1208111
701.4274086
703.423052
413.1032544
429.0011623
442.5721166
470.4697154
486.6774765
506.9536582
529.8210284
552.9137987
569.4960868
595.1706679
612.1843123
623.6818773
640.8012211
647.3517985
653.4170507
661.5015902
671.6144617
681.1376649
681.1645959
686.24472
688.1451721
693.2763451
324.1650836
329.2471385
334.3016215
347.7234611
360.0142155
364.8333154
376.3732798
384.3374495
400.6822655
419.5069765
431.0367973
449.4952815
476.3999534
493.4606864
513.5839521
532.4542711
550.2676525
571.7848801
589.4768969
609.1865738
626.8153669
636.6042347
646.7104732
657.5666985
666.405341
672.433718
676.858222
679.3430829
679.9139216
315.3618888
317.5800605
324.1884088
325.2405522
331.5677271
342.2274076
352.1891217
363.4440715
369.5009381
384.0685671
395.0430804
407.228621
424.7748156
438.1892117
463.0734347
480.4198547
498.9623363
517.1612493
540.3493363
557.3432078
574.9831307
594.5170952
609.4833816
626.3174135
642.5181395
646.3221907
653.9449323
661.519095
662.3431495
671.020221
311.3476655
311.8358777
318.8692776
324.1458975
327.5067423
331.8920646
336.5781753
343.6476203
352.7756232
365.4888195
369.9043259
386.4313706
400.1465895
415.2030838
436.6949908
449.6909347
465.60018
484.3012662
497.9396293
517.8646397
536.3586291
563.3079216
579.5228395
599.6702353
614.6851077
623.0020784
638.9122843
644.2176813
647.9964383
651.618412
312.1354225
313.3092106
311.9987864
315.8436819
320.9047359
325.9639521
329.7306331
333.994159
341.3274853
347.2539011
356.7626864
365.2449508
371.0932234
381.8983714
402.4845966
416.103207
436.4960564
457.1027705
472.1438264
490.9080795
508.9606389
531.7587985
542.9349615
570.4373899
587.5992458
599.4851855
613.9375168
631.6252729
638.9250775
641.2582089
308.1034845
310.1316054
315.2681309
313.2345303
313.5606347
318.4957863
322.3518342
323.8854604
333.240192
339.1950447
347.3417246
352.1029619
361.8130159
369.4855386
381.8685248
396.8996618
407.6634688
429.3325175
444.3747435
467.355635
476.4499185
504.6416883
523.318567
534.0763982
560.3270756
581.7255544
591.5533733
608.3686004
618.7847975
629.63311
305.8242525
307.0029057
305.2492
309.4518723
313.3867467
315.1627603
318.7530332
320.9283687
327.1420875
330.7128167
337.6788597
341.7469485
343.7381333
353.5138838
361.6833707
370.2503141
383.205571
400.2850529
416.0826732
427.2746914
447.2599227
464.7325436
492.5512568
507.6695713
523.0877815
547.2665996
565.5388553
580.7529314
598.6452527
608.8041342
305.3586623
306.8125558
305.8985904
308.4404688
308.8804904
311.1681799
313.1963007
318.358362
321.2298686
322.3935632
327.7774004
333.767339
336.9660602
346.3202572
354.230326
364.3949822
371.6573913
384.4780434
393.2557679
408.977899
421.2733549
432.8914101
453.1689083
472.6573299
491.9409853
510.8164464
533.856102
549.1296918
571.014149
582.3976871
300.8859273
301.0342536
302.8331187
306.1774389
307.5720933
310.5732314
311.1629348
315.5940754
315.9541208
318.2360988
322.3496716
328.5404612
331.2526191
332.0633438
337.9472487
349.4087651
354.3847657
363.6550572
378.444952
391.0832238
401.5767939
408.7803698
430.4716386
445.8228345
464.0724352
483.6930976
504.4616634
525.479242
541.4113537
560.8572529
303.3841495
304.7537857
306.5255464
306.9858671
305.1706451
306.7516811
307.5270866
311.5254899
309.7103736
314.1751439
315.7184267
319.5198408
321.2455792
326.3719642
334.0721068
342.5835312
346.5293763
352.267824
360.389059
366.9982937
383.0468617
393.6450605
404.9308078
418.1157154
440.3092384
454.0457024
472.5261669
497.1620357
517.8993679
533.9413018
301.4705655
300.8112012
302.0652395
305.4933099
304.9925469
303.7737006
305.3674092
306.1286695
309.4943861
311.5470163
314.4716594
317.9494737
317.6154553
321.1535464
323.9303426
333.9685046
336.5623884
344.1128421
347.4264347
357.2682499
361.6203916
373.3501732
387.4795122
401.7391688
411.7120698
426.6856971
442.8543494
464.8127324
481.0818673
504.8771827
301.7126182
301.0264178
299.6886098
299.2411837
301.0226015
302.7087099
306.5616291
307.1922742
306.6745598
308.5814926
310.7034438
310.0668824
316.9370477
317.2873244
318.4304272
322.5371885
327.7792555
334.8647751
340.9243677
346.891403
352.0918399
362.9593509
369.9659106
387.16156
394.7547442
406.1613193
421.4126765
443.6630472
460.4783374
477.8736794
300.7386293
299.520841
300.8959861
300.3415467
302.2826736
301.8947326
302.107957
301.3838866
303.4601066
306.569878
309.0289609
310.6030528
312.1145624
310.794651
316.244771
319.6305411
323.3089341
328.4916469
332.8377031
336.7193285
348.2411038
353.1123962
361.4217149
369.2619043
371.7421676
385.3225064
396.8368102
409.8245156
434.0660921
450.6351917
302.5225971
302.8374467
303.8682884
302.2480557
301.6332463
302.4760483
303.2941576
303.8337301
305.3674196
305.7239754
305.9413073
306.4033848
309.9292459
309.5115642
312.1107411
315.60618
319.7546268
321.0037072
324.3535351
326.6280264
330.4831662
335.1608002
342.9763345
352.1871673
358.2912467
368.19398
380.7559695
395.7846369
405.5270284
424.5616084
301.5469358
302.6943437
303.1467479
303.719205
303.6072303
302.9887643
303.5998584
302.5426629
301.0019169
302.9492611
304.1635548
306.2139809
307.0742414
309.6795267
309.195091
309.8165996
312.0718628
315.4720918
317.9399256
321.969532
322.7271705
328.6449591
334.5773175
341.4485361
355.3197625
356.4546264
364.5920684
374.7876797
385.0524734
399.7952858
298.6980177
297.9251498
298.9172736
301.9501377
303.2985117
301.2943358
302.5011656
304.8739917
304.9630204
303.4802466
304.5805992
302.9729337
304.9814251
305.5846283
308.5567754
308.0350519
308.6998865
313.6554328
315.339382
316.4394127
318.7602648
322.4303876
326.8206652
337.0833094
341.2397902
353.0450961
354.9149143
362.1900743
373.488311
378.1483781
302.0911923
301.507205
301.1606122
302.3592878
302.1365488
303.0400166
302.7102957
301.1232551
301.7603615
301.4276676
303.9855535
303.9064698
304.6187442
303.7940722
306.035579
307.2143288
309.7807572
306.0321896
310.921328
312.8030135
315.6309739
315.6013379
318.5390205
323.5096769
329.7296581
338.1108922
346.0525985
352.3935237
363.6283873
371.7952434
298.7181808
299.3627308
298.3879233
297.8145409
297.2183225
296.69269
297.80435
299.3436949
301.229049
301.8114391
301.1340116
300.4307004
299.207833
300.8641372
303.1253284
303.3035464
306.5209028
307.2022459
306.0899486
308.8998916
312.0593699
314.5533021
315.5033657
318.0435075
321.2410135
327.1177889
329.2590525
340.2025043
344.235886
355.1489213
301.0001404
301.3807979
300.1745225
299.3818143
301.3422268
300.2812721
301.3383902
302.1339514
299.2742664
300.0617295
300.7086051
303.5702756
303.6526915
302.6091272
302.4458375
302.8436253
304.2880584
304.980937
305.2765045
307.4184793
308.9068832
313.8979887
313.988911
317.5990484
319.1747706
325.7859212
330.8431062
333.8407497
338.623573
347.5231154
300.5408422
301.1851431
300.7842215
300.1506923
301.8016461
301.2370931
298.5839658
297.9308741
298.8799427
298.3760746
299.0841753
300.99659
301.3539033
302.1762218
304.0794242
301.9024496
302.3316746
304.1729087
305.2374774
307.0871362
309.6371305
309.0124767
310.8871021
311.6201847
315.676258
318.9891475
323.0058765
326.5075101
333.3373372
338.0348764
298.2099992
299.8057699
301.2803848
299.7828548
299.2963868
298.2950281
299.8843204
300.4009031
300.0761211
300.0141601
299.4175476
300.0214395
300.071259
298.2924943
299.9120586
302.8139539
302.597683
304.5643902
302.3597687
302.431465
303.2058504
307.6076099
309.8282856
308.5482485
312.0487224
310.8012246
314.7509634
322.53555
322.0391033
330.5035238
)
;

boundaryField
{
    flow
    {
        type            calculated;
        value           nonuniform List<scalar> 
55
(
733.5442229
722.3412395
714.9375757
703.423052
693.2763451
679.9139216
671.020221
651.618412
641.2582089
629.63311
608.8041342
582.3976871
560.8572529
533.9413018
504.8771827
477.8736794
450.6351917
424.5616084
399.7952858
378.1483781
371.7952434
355.1489213
347.5231154
338.0348764
330.5035238
298.2099992
299.8057699
301.2803848
299.7828548
299.2963868
298.2950281
299.8843204
300.4009031
300.0761211
300.0141601
299.4175476
300.0214395
300.071259
298.2924943
299.9120586
302.8139539
302.597683
304.5643902
302.3597687
302.431465
303.2058504
307.6076099
309.8282856
308.5482485
312.0487224
310.8012246
314.7509634
322.53555
322.0391033
330.5035238
)
;
    }
    obstacle
    {
        type            calculated;
        value           nonuniform List<scalar> 0();
    }
    frontAndBack
    {
        type            empty;
    }
    procBoundary3to1
    {
        type            processor;
        value           nonuniform List<scalar> 
36
(
740.4114631
734.8034653
733.6893276
740.9111294
736.3250456
736.3250456
689.2612147
688.7565909
700.9163091
706.7813085
714.2919363
712.2279068
712.2279068
599.028646
617.0876629
634.4289421
652.363114
659.7574372
659.7574372
447.6312248
460.785849
486.3043448
508.241029
521.8254382
544.284475
544.284475
337.5790953
340.8090016
348.0066805
366.09814
380.96206
384.9911306
395.0236008
395.0236008
322.0934898
322.0934898
)
;
    }
    procBoundary3to2
    {
        type            processor;
        value           nonuniform List<scalar> 
19
(
311.7696024
307.4522002
309.3284124
305.3605223
302.0925616
305.0413804
299.7914145
301.6201149
301.2972132
302.4575164
300.5767312
300.9586635
302.2185558
299.0480954
299.8836748
298.6224242
300.2863415
300.0185647
297.0947053
)
;
    }
}


// ************************************************************************* //
