/*--------------------------------*- C++ -*----------------------------------*\
| =========                 |                                                 |
| \\      /  F ield         | OpenFOAM: The Open Source CFD Toolbox           |
|  \\    /   O peration     | Version:  2406                                  |
|   \\  /    A nd           | Website:  www.openfoam.com                      |
|    \\/     M anipulation  |                                                 |
\*---------------------------------------------------------------------------*/
FoamFile
{
    version     2.0;
    format      ascii;
    arch        "LSB;label=32;scalar=64";
    class       volScalarField;
    location    "0.006";
    object      p;
}
// * * * * * * * * * * * * * * * * * * * * * * * * * * * * * * * * * * * * * //

dimensions      [1 -1 -2 0 0 0 0];

internalField   nonuniform List<scalar> 
654
(
2.506706852
2.554876506
2.601355574
2.565908286
2.533934707
2.51901724
2.064317804
2.174179543
2.262064433
2.308661421
2.417209286
2.485133043
2.473842713
2.528389998
2.570095953
2.548848042
2.516206332
1.280149001
1.40907308
1.494077414
1.617901946
1.736699814
1.879245144
1.97577099
2.060182931
2.170617599
2.264665954
2.337779044
2.427323576
2.422134447
2.456656763
2.499181539
2.482748528
0.7027623779
0.7539507597
0.7902062367
0.8862315158
0.9417999853
1.022336024
1.106545802
1.214972865
1.323487814
1.450398022
1.56360839
1.674860799
1.806489475
1.886448606
1.975416026
2.070246529
2.174040733
2.283115596
2.345020412
2.387074879
2.403420613
2.459043189
0.4705703574
0.4812983054
0.490917587
0.526487181
0.5622064813
0.576616587
0.6088066405
0.6237851509
0.6774771906
0.7342851335
0.7769139727
0.8280162744
0.9134954443
0.9822501145
1.069431024
1.152923056
1.246910123
1.34694282
1.453624407
1.59160072
1.725373356
1.817145087
1.913008576
2.042649139
2.149202977
2.226041237
2.291829107
2.338750149
2.372066064
0.4530393824
0.4591289068
0.4785584269
0.4855127292
0.4991429942
0.5188405709
0.5442029478
0.5713119957
0.5866961749
0.6243438091
0.6582482563
0.6994960407
0.7520794302
0.8011763566
0.879401351
0.9438959127
1.003110171
1.089331135
1.193380464
1.271834967
1.387093635
1.509812615
1.634550631
1.738608038
1.870072277
1.968890643
2.053225887
2.152167271
2.189340831
2.271431176
0.4452903545
0.4439373003
0.4577408514
0.4700037914
0.4831817901
0.4949101436
0.5080549746
0.5252921642
0.5497144024
0.5849535507
0.6016480568
0.6464650166
0.6812889911
0.7292378461
0.7930510873
0.8352068453
0.8850826492
0.9472017309
1.017786839
1.111439677
1.178239126
1.313431809
1.41828308
1.556244884
1.685576095
1.756433933
1.907291853
2.013661687
2.09913767
2.138215132
0.4476314963
0.4556002842
0.4518394416
0.4587415329
0.4721115634
0.4795158789
0.4864077959
0.4978042453
0.5179014051
0.5344982669
0.5535801145
0.5841931472
0.6030594605
0.631689916
0.6938980611
0.7303899916
0.7935314608
0.8564135261
0.8989887114
0.975262763
1.075645759
1.169671366
1.227410265
1.382098121
1.491387891
1.575042117
1.687945192
1.81078118
1.919215294
1.9923126
0.4376067202
0.4407545773
0.455237399
0.4490666487
0.4494690839
0.4615677951
0.4706696115
0.4773403641
0.4981511322
0.5138839078
0.5293941479
0.5405292526
0.5617021867
0.5775149319
0.6102886706
0.6565537271
0.6940001482
0.7576033701
0.8189563933
0.893166417
0.9330501856
1.048997029
1.128374008
1.179858506
1.3086311
1.446193016
1.543519153
1.666250871
1.771088917
1.889338657
0.4277250779
0.4310664092
0.4288597923
0.4370893096
0.4504796172
0.4570712504
0.4681356359
0.4691299729
0.4824734035
0.4836312595
0.5043185806
0.5127134869
0.5187437936
0.5443312692
0.5695021403
0.5901483941
0.6272192024
0.6863891867
0.7353558703
0.7722641967
0.8388661973
0.9052162106
1.016926574
1.087210068
1.16680349
1.284640215
1.384639415
1.488086191
1.594105289
1.674458312
0.4302789937
0.4346922025
0.4354378748
0.4384130986
0.4415795448
0.4472264646
0.445751888
0.4580269397
0.4666697916
0.4752155722
0.4820236842
0.4930208545
0.502610611
0.5278403869
0.5451522105
0.5733822153
0.5910113013
0.6256377226
0.6530476555
0.7072602265
0.7442443192
0.7899978207
0.8655301356
0.9474980329
1.024087218
1.109696282
1.224277912
1.305821465
1.438992933
1.55205534
0.4278722109
0.4211500383
0.4197516798
0.4289824508
0.4293382025
0.4377046786
0.4400131933
0.451392281
0.4510469434
0.4519895408
0.4681710532
0.4872330534
0.4915710952
0.4920759903
0.5071114799
0.540044334
0.5540522721
0.5763183436
0.6193212667
0.6475135488
0.6879544163
0.7177056668
0.7799706806
0.8320614835
0.8978930401
0.9779881013
1.068215925
1.173550314
1.273955829
1.399594774
0.4154976873
0.4233242062
0.4263265382
0.4287899948
0.4226133828
0.4262510186
0.4277047466
0.4322018078
0.4315652212
0.4435108218
0.448440892
0.4551087139
0.4680788745
0.4793765496
0.4971302138
0.5217413639
0.533691414
0.5510353153
0.5669986968
0.5935047539
0.6327535221
0.6607700765
0.7008342182
0.7425399674
0.8142951503
0.8707339195
0.9368850428
1.049273158
1.136786643
1.226478406
0.4131927726
0.4105681488
0.4151348537
0.4206343668
0.4205578682
0.4189978832
0.4259209123
0.4254155645
0.4343997843
0.4435078676
0.4455080948
0.4541472102
0.4488205267
0.462904496
0.4729453623
0.4982202936
0.5070088438
0.5302380704
0.5370753424
0.5636050698
0.5717139399
0.6053764974
0.6472400931
0.6915890735
0.7291474288
0.7812188786
0.8405101784
0.9165687579
0.9926469057
1.09527049
0.4130896415
0.4099746865
0.409561509
0.410367726
0.4120705311
0.4171657113
0.4280918761
0.4343295045
0.4315119415
0.4352682527
0.4413690235
0.4439567274
0.4560094966
0.4600619348
0.4591874311
0.4725474941
0.4812302275
0.490866663
0.504968519
0.5187563771
0.5314219371
0.568284235
0.5838218459
0.6302883884
0.6615671523
0.7049219049
0.7597702823
0.8357945572
0.8876339841
0.958879358
0.4165144988
0.415270475
0.4158714024
0.4139294027
0.4190921343
0.4209161267
0.4200448342
0.4199516797
0.4242122975
0.4314043278
0.4338913541
0.4374294918
0.4452627477
0.4402383765
0.4514629531
0.4575849075
0.4641567695
0.4772106129
0.4876806089
0.4998018836
0.5260471634
0.542896219
0.5710564141
0.5989727516
0.6001214832
0.633193253
0.6715577997
0.7128021241
0.8037574441
0.8616106415
0.4252033695
0.4262935347
0.4288252503
0.4202748013
0.4189119389
0.4163270654
0.4143541453
0.4136673907
0.4171018837
0.4214501092
0.4270795647
0.4266924047
0.434724165
0.4335652793
0.4388975074
0.4482983095
0.4595646318
0.4651789489
0.4792769332
0.4888087573
0.5027859207
0.510868326
0.5216921873
0.5455548386
0.5631952259
0.5840792531
0.6209438283
0.6715366055
0.6994665642
0.7662308459
0.4184866116
0.4196802728
0.4249234023
0.4279550848
0.4226052178
0.4247421772
0.4262507403
0.4281622497
0.4198432624
0.4207813475
0.4217176843
0.425478992
0.430417802
0.437958069
0.4381041818
0.4387759733
0.4488531594
0.4569328516
0.4604176094
0.4626481514
0.4669256957
0.4822230967
0.4981702504
0.518948633
0.5598179671
0.5687582213
0.5963888817
0.6180772065
0.6424344569
0.6902727971
0.4077820299
0.4016285648
0.4040780245
0.4113320517
0.4181380863
0.4167546113
0.4148391419
0.4218135736
0.4230067112
0.4168122636
0.4245096477
0.424775317
0.4275372617
0.4256010788
0.433972756
0.4345076842
0.4347268135
0.4470168165
0.4465464893
0.4543834439
0.4602925351
0.4742195052
0.4813579792
0.5062494534
0.5141529529
0.5416305812
0.5486332533
0.574946161
0.6149318682
0.6267879975
0.4117700109
0.4082209372
0.4107007727
0.4136103581
0.4139529072
0.41581821
0.4145055647
0.4079985151
0.4138975923
0.4150679944
0.4210748388
0.4156313015
0.4140772244
0.4193183559
0.4275221652
0.4328633167
0.439555572
0.4321371225
0.4458951744
0.4499135621
0.4530187385
0.4546794664
0.4601303796
0.4749791187
0.4914335313
0.5173948864
0.5300448893
0.5434346631
0.5752085925
0.5992851311
0.4144444211
0.4173282323
0.4125841057
0.4099801775
0.407775265
0.4062651047
0.4138628609
0.4208376882
0.4207214242
0.4246499444
0.4227005722
0.42529083
0.4239643438
0.4263400808
0.4288351231
0.4280850955
0.4330537986
0.4322934905
0.431790048
0.4365220234
0.4442809248
0.4550329763
0.4657462062
0.466079789
0.4729497037
0.4921474309
0.504862701
0.5372442785
0.5475070829
0.5764421246
0.4236689974
0.4217866928
0.4213762861
0.4230138572
0.4254680764
0.419662382
0.4167422997
0.4170492703
0.4137921975
0.4146589916
0.4133729515
0.4202650716
0.4243537497
0.4222625427
0.4244694301
0.42830339
0.4344523596
0.4337853369
0.4312100311
0.440335586
0.4408544521
0.447367691
0.4475115939
0.4556572293
0.462021898
0.4803335625
0.4899701809
0.4986421446
0.5116253836
0.5325847634
0.4171298888
0.4165873602
0.4174928751
0.4182157759
0.4206802579
0.4234431043
0.419411671
0.4157987827
0.4186555706
0.4167558575
0.4158047071
0.421189196
0.4225685338
0.4242886563
0.4250515085
0.4197519743
0.4214343352
0.4292416391
0.431264676
0.4306518009
0.4398429905
0.4346461245
0.4406891902
0.4448595886
0.4563890143
0.458439138
0.4740941983
0.4828113794
0.5022729957
0.5197654328
0.4010945254
0.4087722288
0.4124306456
0.4082268965
0.4046571712
0.4034278435
0.4076751472
0.4109330829
0.4095636262
0.4103218485
0.4134381399
0.409318895
0.4092734974
0.4052968161
0.4089612806
0.415210798
0.4100379747
0.4134476741
0.4054429826
0.4075287634
0.4136767669
0.4322905805
0.4302516797
0.4300717693
0.4326071705
0.4314339285
0.4388863332
0.4593891817
0.4602416842
0.4825066221
)
;

boundaryField
{
    flow
    {
        type            calculated;
        value           nonuniform List<scalar> 
55
(
2.506706852
2.51901724
2.516206332
2.482748528
2.459043189
2.372066064
2.271431176
2.138215132
1.9923126
1.889338657
1.674458312
1.55205534
1.399594774
1.226478406
1.09527049
0.958879358
0.8616106415
0.7662308459
0.6902727971
0.6267879975
0.5992851311
0.5764421246
0.5325847634
0.5197654328
0.4825066221
0.4010945254
0.4087722288
0.4124306456
0.4082268965
0.4046571712
0.4034278435
0.4076751472
0.4109330829
0.4095636262
0.4103218485
0.4134381399
0.409318895
0.4092734974
0.4052968161
0.4089612806
0.415210798
0.4100379747
0.4134476741
0.4054429826
0.4075287634
0.4136767669
0.4322905805
0.4302516797
0.4300717693
0.4326071705
0.4314339285
0.4388863332
0.4593891817
0.4602416842
0.4825066221
)
;
    }
    obstacle
    {
        type            calculated;
        value           nonuniform List<scalar> 0();
    }
    frontAndBack
    {
        type            empty;
    }
    procBoundary3to1
    {
        type            processor;
        value           nonuniform List<scalar> 
36
(
2.469803152
2.601978934
2.584353871
2.590123061
2.542135105
2.542135105
2.204265861
2.275848269
2.425126161
2.455925233
2.537537859
2.514340075
2.514340075
1.47887189
1.597292317
1.703634383
1.839396936
1.926393019
1.926393019
0.7923930286
0.8344280092
0.9379545807
1.013053655
1.074604225
1.168486271
1.168486271
0.4934014504
0.5041283661
0.5224017594
0.5672315741
0.6021430048
0.614985279
0.6504429322
0.6504429322
0.461852442
0.461852442
)
;
    }
    procBoundary3to2
    {
        type            processor;
        value           nonuniform List<scalar> 
19
(
0.4458699115
0.4346329257
0.4402662735
0.4345719804
0.4213122546
0.4289821386
0.4215936475
0.4133606408
0.4131861982
0.4147824608
0.4169165126
0.4204878681
0.4165305373
0.4077926934
0.4035838196
0.4162861039
0.4173079278
0.4201621614
0.399868494
)
;
    }
}


// ************************************************************************* //
