/*--------------------------------*- C++ -*----------------------------------*\
| =========                 |                                                 |
| \\      /  F ield         | OpenFOAM: The Open Source CFD Toolbox           |
|  \\    /   O peration     | Version:  2406                                  |
|   \\  /    A nd           | Website:  www.openfoam.com                      |
|    \\/     M anipulation  |                                                 |
\*---------------------------------------------------------------------------*/
FoamFile
{
    version     2.0;
    format      ascii;
    arch        "LSB;label=32;scalar=64";
    class       volScalarField;
    location    "0.006";
    object      rhoM;
}
// * * * * * * * * * * * * * * * * * * * * * * * * * * * * * * * * * * * * * //

dimensions      [1 -3 0 0 0 0 0];

internalField   nonuniform List<scalar> 
654
(
4.068616629e-06
9.760959826e-06
1.205774105e-05
1.272562912e-05
1.068729654e-05
9.556306025e-06
8.569985165e-06
7.945394987e-06
1.083120508e-05
8.971726192e-06
1.173884067e-05
1.437496391e-05
1.331766581e-05
1.122987122e-05
1.346848657e-05
8.155619323e-06
7.286245381e-06
7.804256099e-06
6.529630668e-06
8.947386906e-06
9.618135499e-06
1.26160531e-05
1.064673602e-05
8.991637239e-06
1.144768402e-05
6.218663624e-06
7.974748557e-06
1.157292805e-05
1.167678534e-05
1.537143722e-05
1.207534917e-05
1.143700504e-05
1.466679173e-05
3.007035228e-06
3.350556675e-06
1.045169099e-05
4.700178365e-06
1.797086245e-06
7.164505631e-06
4.732602095e-06
4.688146816e-06
6.667971146e-06
8.596123713e-06
9.184027677e-06
9.954485673e-06
1.187353518e-05
9.598247028e-06
3.819730547e-06
9.140133061e-06
9.311535744e-06
1.167458808e-05
1.049374066e-05
1.254047403e-05
9.655036131e-06
1.097537897e-05
6.305274546e-06
5.973551675e-06
4.342448624e-06
4.989080401e-06
3.790016086e-06
3.428835943e-06
6.126041246e-06
7.993737728e-06
5.18483638e-06
7.074633398e-06
5.673302245e-06
4.656534314e-06
4.117737218e-06
7.140276907e-06
6.529630668e-06
7.342976986e-06
8.085117686e-06
6.436339798e-06
5.626357768e-06
1.196054668e-05
4.315353124e-06
8.261327386e-06
8.155532909e-06
8.498392642e-06
1.049048406e-05
1.067721899e-05
7.89593696e-06
1.143700494e-05
7.00106324e-06
3.203785551e-06
3.52665978e-06
6.879704553e-06
2.666576773e-06
6.140264422e-06
3.867097183e-06
2.337671993e-06
2.983802489e-06
4.115191308e-06
3.430057339e-06
6.431660868e-06
5.186740242e-06
6.453620457e-06
4.117737153e-06
4.316865123e-06
8.957133051e-06
5.402080828e-06
5.532138526e-06
8.668707064e-06
6.318608127e-06
8.119418264e-06
7.044565514e-06
8.349859829e-06
1.084355348e-05
6.509499917e-06
1.377444281e-05
9.113218789e-06
1.281820661e-05
1.16238675e-05
1.29625368e-05
4.246961997e-06
2.176562678e-06
4.839494394e-06
6.094246213e-06
3.914395458e-06
1.059551094e-05
4.442327728e-06
3.377055316e-06
4.748151045e-06
3.430057339e-06
5.386104436e-06
4.213616447e-06
4.247479506e-06
8.729920231e-06
4.15137026e-06
4.268986128e-06
7.258855446e-06
2.979159233e-06
6.094171052e-06
5.712628413e-06
7.071072886e-06
6.515851832e-06
6.929062359e-06
6.452112587e-06
9.221428418e-06
9.942791503e-06
8.007914311e-06
9.381651853e-06
6.186788009e-06
1.040729399e-05
3.651117584e-06
6.604492545e-06
5.898190669e-06
2.742502549e-06
4.451737929e-06
4.408528081e-06
3.896745774e-06
4.476649654e-06
7.439659673e-06
4.147484779e-06
4.020030157e-06
2.917419425e-06
3.022282876e-06
1.086987398e-05
6.641792429e-06
3.013520609e-06
6.077086788e-06
3.063985186e-06
3.861803911e-06
4.414398551e-06
5.761692881e-06
9.598247028e-06
6.484260742e-06
6.63073832e-06
9.131321253e-06
7.936050026e-06
5.98300089e-06
8.081091941e-06
1.228014463e-05
6.81246137e-06
5.364394658e-06
1.050879083e-06
6.728982725e-06
4.799838227e-06
4.451737929e-06
6.10990177e-06
3.974417872e-06
8.088521609e-06
3.957428039e-06
4.626410263e-06
2.251371821e-06
4.619410027e-06
8.169289336e-06
5.434936989e-06
7.804256162e-06
3.013520609e-06
3.038543344e-06
4.255648845e-06
5.664392566e-06
4.934107555e-06
7.508234029e-06
7.485513676e-06
6.395728315e-06
5.108102349e-06
1.057739273e-05
9.21326709e-06
7.36352291e-06
7.89593696e-06
8.062188042e-06
6.150075371e-06
4.694294003e-06
5.854639428e-06
5.293481512e-06
6.094246168e-06
5.602921992e-06
5.10412124e-06
3.896745803e-06
5.811060664e-06
4.036309689e-06
6.301688565e-06
5.788688492e-06
3.48474965e-06
5.963148348e-06
6.011459869e-06
5.396581345e-06
6.529630721e-06
6.499727944e-06
1.78749554e-06
7.982301907e-06
8.309088138e-06
6.459888661e-06
5.723842008e-06
7.017594732e-06
6.452112587e-06
7.865464111e-06
5.290699971e-06
8.65230556e-06
4.737114629e-06
1.134357366e-05
8.420136158e-06
3.873886233e-06
5.628418013e-06
4.839494394e-06
3.275817883e-06
3.761397272e-06
4.485609174e-06
7.325581637e-06
2.827258088e-06
7.597422915e-06
2.313205114e-06
4.582873076e-06
4.619410027e-06
4.575116875e-06
4.776337087e-06
1.743695506e-06
3.599538932e-06
4.81119643e-06
2.637805246e-06
2.403451541e-06
6.838316985e-06
1.082518993e-05
5.548311253e-06
5.685329634e-06
6.541425453e-06
7.052321152e-06
1.122000866e-05
5.338609541e-06
9.566806834e-06
4.124525339e-06
7.663449247e-06
4.172705811e-06
4.878564898e-06
5.51956448e-06
2.970279818e-06
4.528237008e-06
3.325666318e-06
7.247909594e-06
3.298783115e-06
5.1444658e-06
5.743262453e-06
5.305975007e-06
5.348276929e-06
5.309841331e-06
8.645859476e-06
3.487391039e-06
6.613059624e-06
8.524745754e-06
6.127970323e-06
4.291582396e-06
5.626357815e-06
3.754116983e-06
6.515851832e-06
4.9749309e-06
5.824763952e-06
7.86546418e-06
6.4770012e-06
8.099653474e-06
9.939354407e-06
6.843065138e-06
1.296253668e-05
3.725373774e-06
5.478808911e-06
4.46086813e-06
3.73320751e-06
7.214949365e-06
4.94995895e-06
1.091163908e-06
5.732788419e-06
2.928153578e-06
7.019116005e-06
5.225845497e-06
6.807962641e-06
5.228423887e-06
7.74102845e-06
7.804256099e-06
4.185557279e-06
2.363537415e-06
5.701790433e-06
5.578850413e-06
7.964005623e-06
6.897049736e-06
5.019597627e-06
1.101439002e-05
5.824763901e-06
1.988892856e-06
5.199784136e-06
7.18004452e-06
5.387394627e-06
6.093356672e-06
8.705318235e-06
4.172705811e-06
3.902490354e-06
5.444203477e-06
5.560930813e-06
4.37523885e-06
5.027040039e-06
5.065581779e-06
6.910655036e-06
5.223347451e-06
1.116852234e-06
6.431660968e-06
6.644473932e-06
4.656534277e-06
4.612183045e-06
4.815349509e-06
3.180378308e-06
7.849739863e-06
4.851480726e-06
7.982301907e-06
5.020378201e-06
6.459888715e-06
3.170160488e-06
3.908262886e-06
3.942717845e-06
6.509499803e-06
5.747476786e-06
3.405435335e-06
7.523389476e-06
6.093356672e-06
1.125828176e-05
5.364394658e-06
4.353125325e-06
3.705437085e-06
5.485005098e-06
4.528237008e-06
8.661030922e-06
2.182327832e-06
4.083396905e-06
1.02889316e-05
6.460689893e-06
2.894344224e-06
6.321400723e-06
4.003227297e-06
6.011459869e-06
5.479328758e-06
4.102128431e-06
5.402080784e-06
5.105958586e-06
3.004314426e-06
1.990480116e-06
3.667105379e-06
4.578649401e-06
5.773862007e-06
7.796122824e-06
5.153535496e-06
5.929308497e-06
6.443913961e-06
9.566806834e-06
7.312479704e-06
6.812461433e-06
3.278041767e-06
3.827685814e-06
5.594925444e-06
4.342448624e-06
3.377053011e-06
4.408528081e-06
3.273491698e-06
4.554921855e-06
7.281896373e-06
4.147484779e-06
6.914374349e-06
2.917419403e-06
2.859448069e-06
4.199814206e-06
4.649854719e-06
2.930091784e-06
5.402080784e-06
4.766654734e-06
6.179713252e-06
4.847836869e-06
6.111842298e-06
2.641446915e-06
3.197864185e-06
7.258087005e-06
6.329285369e-06
5.381615946e-06
1.933174188e-06
3.25139975e-06
5.250216987e-06
7.569148212e-06
2.309121554e-06
4.728955876e-06
5.51956444e-06
7.084951173e-06
4.836082243e-06
6.57425151e-06
3.974417872e-06
5.576244018e-06
4.59038771e-06
3.350556675e-06
3.537316672e-06
4.132848145e-06
4.819369082e-06
5.51701401e-06
4.15137026e-06
5.524451671e-06
2.615902216e-06
5.447312573e-06
4.462666796e-06
4.414398588e-06
7.682257175e-06
8.981767924e-06
3.731198175e-06
5.646138217e-06
1.988892856e-06
5.838392668e-06
4.049826737e-06
5.202239646e-06
5.999925391e-06
2.081458798e-06
4.917062651e-06
5.404004439e-06
6.57826075e-06
6.779413034e-06
6.524608736e-06
7.115682428e-06
4.36465563e-06
3.377055291e-06
4.115191339e-06
2.313205132e-06
2.894344246e-06
5.834838805e-06
4.0846447e-06
3.623291355e-06
4.815349548e-06
7.282506772e-06
4.304433712e-06
4.766654734e-06
3.0898566e-06
3.808418942e-06
2.007575898e-06
7.485513676e-06
6.484260686e-06
5.197415216e-06
6.056785814e-06
3.374874422e-06
2.577565585e-06
3.343977269e-06
1.012445069e-05
4.73100253e-06
4.395474428e-06
4.953369373e-06
7.107608905e-06
6.018320456e-06
4.451737929e-06
4.485609174e-06
1.091163908e-06
5.104719076e-06
5.1444658e-06
4.546909564e-06
5.868817962e-06
3.971311571e-06
5.881730945e-06
4.858414108e-06
3.735633283e-06
4.688146816e-06
4.811196391e-06
6.978280022e-06
3.690719511e-06
5.626357768e-06
6.19885385e-06
6.781269252e-06
1.95413146e-06
4.480753664e-06
3.977785678e-06
5.929308549e-06
3.958087574e-06
6.037674583e-06
4.687371187e-06
1.987157849e-06
6.630339845e-06
6.529688081e-06
4.536229126e-06
6.551635815e-06
2.686712357e-06
7.424006876e-06
6.70232764e-06
5.182991277e-06
3.007035228e-06
3.509558003e-06
6.431660868e-06
5.348276846e-06
6.53503791e-06
3.128845466e-06
3.735633253e-06
2.93009176e-06
3.713549353e-06
4.25564888e-06
3.690719511e-06
7.530567302e-06
2.531748545e-06
3.962170373e-06
1.865599087e-06
4.659379397e-06
4.610714209e-06
6.02022443e-06
6.074740106e-06
4.737114672e-06
6.186787953e-06
4.73100253e-06
4.469730644e-06
5.628417932e-06
4.23478524e-06
3.42766942e-06
3.453552065e-06
3.790016086e-06
5.766507928e-06
6.126041199e-06
5.698543856e-06
3.430057339e-06
5.305975007e-06
4.21361648e-06
5.147006484e-06
5.352859925e-06
7.887003513e-06
3.599538932e-06
7.004457494e-06
4.766654773e-06
4.977987522e-06
5.885169753e-06
3.22994433e-06
3.170160515e-06
7.550928722e-06
7.079461272e-06
5.153535541e-06
1.277217064e-06
5.338609494e-06
6.037674583e-06
6.843065076e-06
5.676291416e-06
5.512907089e-06
6.529688034e-06
7.107608905e-06
8.303433342e-06
5.602921992e-06
2.242804603e-06
3.974417872e-06
1.177866564e-06
2.374075504e-06
5.18483638e-06
2.814214776e-06
5.267508585e-06
5.391258734e-06
3.046768445e-06
4.068622846e-06
1.841483905e-06
3.713549353e-06
6.638976266e-06
3.089856626e-06
6.404878667e-06
4.452312817e-06
4.403118561e-06
3.197864157e-06
3.136743454e-06
8.768714453e-06
3.831651191e-06
3.958087539e-06
5.945097039e-06
4.687371145e-06
8.137233184e-06
4.39547446e-06
8.18081117e-06
4.990216285e-06
4.875763983e-06
3.300553908e-06
2.784235473e-06
3.35116382e-06
4.476649654e-06
5.06558415e-06
5.822763116e-06
5.948947433e-06
3.97131154e-06
8.90401375e-06
9.388520133e-06
6.143308057e-06
5.274165168e-06
2.447658995e-06
3.148811114e-06
2.403451541e-06
5.540087169e-06
4.365301213e-06
7.220096255e-06
5.151995644e-06
6.273486853e-06
5.423857277e-06
8.392826795e-06
4.602478935e-06
3.994257225e-06
6.656202575e-06
5.393388566e-06
8.568180209e-06
2.176562678e-06
4.310146235e-06
4.951689739e-06
3.224054829e-06
4.485609174e-06
5.611163733e-06
6.59756623e-06
4.511506095e-06
2.95113189e-06
3.939900656e-06
4.86171497e-06
2.287558455e-06
3.459137284e-06
2.324927341e-06
4.185557313e-06
2.531780636e-06
3.063985186e-06
4.291582396e-06
6.146066731e-06
5.674681277e-06
5.636076655e-06
5.506125134e-06
5.914076768e-06
7.23253558e-06
2.554434127e-06
6.074740106e-06
7.245657004e-06
4.687371145e-06
3.406230654e-06
)
;

boundaryField
{
    flow
    {
        type            zeroGradient;
    }
    obstacle
    {
        type            calculated;
        value           nonuniform List<scalar> 0();
    }
    frontAndBack
    {
        type            empty;
    }
    procBoundary3to1
    {
        type            processor;
        value           nonuniform List<scalar> 
36
(
7.852051181e-06
8.483742602e-06
1.638500239e-05
1.309593908e-05
1.52812364e-05
1.52812364e-05
9.868215028e-06
9.254774973e-06
8.981767847e-06
1.54559868e-05
1.308285102e-05
7.142428459e-06
7.142428459e-06
1.09586576e-05
8.287685844e-06
6.583849491e-06
6.127970323e-06
1.047129565e-05
1.047129565e-05
5.619662206e-06
4.067984115e-06
5.145716067e-06
2.8366511e-06
2.859448047e-06
1.325804252e-05
1.325804252e-05
4.278320814e-06
3.326810857e-06
7.236802686e-06
4.604736121e-06
6.72841381e-06
2.805581866e-06
5.654516261e-06
5.654516261e-06
2.234865338e-06
2.234865338e-06
)
;
    }
    procBoundary3to2
    {
        type            processor;
        value           nonuniform List<scalar> 
19
(
3.254189527e-06
1.035585909e-06
7.840610217e-06
3.180473604e-06
6.434663154e-06
4.216059536e-06
4.142343665e-06
2.662680672e-06
1.035585909e-06
3.106757727e-06
5.9905861e-06
8.726982672e-06
5.9905861e-06
3.624550655e-06
5.843154341e-06
4.289775436e-06
5.251645445e-06
2.736396573e-06
3.698266581e-06
)
;
    }
}


// ************************************************************************* //
