/*--------------------------------*- C++ -*----------------------------------*\
| =========                 |                                                 |
| \\      /  F ield         | OpenFOAM: The Open Source CFD Toolbox           |
|  \\    /   O peration     | Version:  2406                                  |
|   \\  /    A nd           | Website:  www.openfoam.com                      |
|    \\/     M anipulation  |                                                 |
\*---------------------------------------------------------------------------*/
FoamFile
{
    version     2.0;
    format      ascii;
    arch        "LSB;label=32;scalar=64";
    class       volScalarField;
    location    "0.006";
    object      rhoMMean;
}
// * * * * * * * * * * * * * * * * * * * * * * * * * * * * * * * * * * * * * //

dimensions      [1 -3 0 0 0 0 0];

internalField   nonuniform List<scalar> 
654
(
1.154139616e-05
1.15879327e-05
1.180818493e-05
1.173118381e-05
1.170179738e-05
1.177405354e-05
9.449665564e-06
9.8453774e-06
1.022895165e-05
1.06269219e-05
1.101206248e-05
1.132286666e-05
1.140713001e-05
1.155227756e-05
1.183027324e-05
1.182522969e-05
1.177424452e-05
6.759242258e-06
7.126215074e-06
7.468786025e-06
7.825312667e-06
8.29942812e-06
8.799685306e-06
9.19215938e-06
9.568875146e-06
9.990718731e-06
1.040475549e-05
1.076430945e-05
1.113380392e-05
1.124831699e-05
1.143516976e-05
1.161923509e-05
1.159726497e-05
5.315739549e-06
5.426427569e-06
5.490319468e-06
5.678997383e-06
5.83883906e-06
6.063284276e-06
6.252963247e-06
6.56198952e-06
6.934135874e-06
7.281354838e-06
7.69038256e-06
8.054493038e-06
8.542521717e-06
8.92336123e-06
9.334337404e-06
9.763736902e-06
1.016282145e-05
1.055601473e-05
1.094518307e-05
1.113724457e-05
1.127193652e-05
1.157593529e-05
4.864509369e-06
4.884078411e-06
4.87497437e-06
4.947422068e-06
5.02770004e-06
5.079159573e-06
5.158612679e-06
5.205003455e-06
5.31520442e-06
5.434616176e-06
5.556526164e-06
5.67132222e-06
5.84455245e-06
6.063600047e-06
6.280515151e-06
6.499739359e-06
6.805943785e-06
7.082636871e-06
7.457298092e-06
7.901842853e-06
8.348720702e-06
8.726903526e-06
9.131894152e-06
9.605930913e-06
1.006936106e-05
1.04692597e-05
1.079441e-05
1.106858526e-05
1.129393797e-05
4.865232934e-06
4.875330792e-06
4.927351393e-06
4.967250354e-06
4.974286111e-06
4.988468737e-06
5.027570988e-06
5.075902926e-06
5.121157147e-06
5.202983788e-06
5.255149078e-06
5.374725496e-06
5.493923615e-06
5.633856927e-06
5.793723146e-06
5.978352005e-06
6.11741941e-06
6.349483996e-06
6.648631354e-06
6.896280461e-06
7.293456616e-06
7.663002161e-06
8.156159468e-06
8.509044282e-06
8.958939274e-06
9.441981957e-06
9.782954497e-06
1.021763675e-05
1.051350814e-05
1.085391932e-05
4.861214349e-06
4.841692451e-06
4.862763704e-06
4.883239038e-06
4.924795906e-06
4.946002781e-06
4.991923835e-06
5.034892311e-06
5.07778348e-06
5.186278481e-06
5.240997471e-06
5.290084993e-06
5.349778412e-06
5.466118818e-06
5.571684955e-06
5.692185413e-06
5.808947146e-06
5.934814416e-06
6.171835185e-06
6.433408361e-06
6.626495378e-06
7.028727467e-06
7.424329301e-06
7.885269387e-06
8.357353934e-06
8.656558294e-06
9.19830229e-06
9.6854454e-06
1.013758799e-05
1.041658183e-05
4.909807113e-06
4.955490226e-06
4.94756714e-06
4.946255963e-06
4.999646903e-06
4.967811731e-06
4.957659489e-06
4.987192263e-06
4.988033638e-06
4.990680988e-06
5.019008377e-06
5.133333605e-06
5.198764954e-06
5.255289483e-06
5.369160035e-06
5.461814545e-06
5.604976539e-06
5.761286399e-06
5.835231883e-06
6.044645379e-06
6.363228462e-06
6.598322021e-06
6.80861634e-06
7.268746176e-06
7.663420324e-06
7.98551092e-06
8.409198612e-06
8.834407008e-06
9.284044508e-06
9.701779075e-06
4.879891096e-06
4.884779473e-06
4.925121828e-06
4.913926195e-06
4.885252585e-06
4.89433351e-06
4.917126466e-06
4.938968348e-06
4.960756554e-06
4.991365309e-06
4.98471716e-06
5.026046216e-06
5.051818144e-06
5.064795083e-06
5.125634103e-06
5.243176938e-06
5.342938766e-06
5.476765329e-06
5.67766944e-06
5.835148764e-06
5.973511598e-06
6.242834794e-06
6.475108062e-06
6.635320798e-06
7.012865823e-06
7.475198614e-06
7.861779368e-06
8.283595925e-06
8.761185466e-06
9.241120574e-06
4.792580069e-06
4.803447725e-06
4.80052155e-06
4.800345892e-06
4.859062048e-06
4.869863313e-06
4.908602439e-06
4.904719964e-06
4.917134525e-06
4.906898897e-06
4.963773511e-06
4.962940628e-06
4.977149488e-06
5.034217301e-06
5.097174618e-06
5.128266426e-06
5.218058938e-06
5.377194398e-06
5.501820778e-06
5.587365869e-06
5.764301691e-06
5.939516244e-06
6.23333655e-06
6.489348047e-06
6.737488101e-06
7.088656818e-06
7.433611591e-06
7.788047661e-06
8.10939248e-06
8.445743096e-06
4.829419637e-06
4.840468645e-06
4.866314549e-06
4.843416058e-06
4.867780791e-06
4.86607633e-06
4.840460784e-06
4.869585683e-06
4.914149933e-06
4.949981692e-06
4.916403319e-06
4.908754537e-06
4.962770791e-06
4.997624753e-06
4.993590772e-06
5.038732275e-06
5.049633304e-06
5.15319511e-06
5.232005949e-06
5.386660905e-06
5.515048719e-06
5.672340912e-06
5.839011134e-06
6.096995545e-06
6.320742331e-06
6.581435497e-06
6.908273087e-06
7.206508752e-06
7.640108396e-06
8.110118739e-06
4.883639462e-06
4.834108042e-06
4.804464068e-06
4.829421516e-06
4.826919148e-06
4.850629909e-06
4.839452334e-06
4.849779579e-06
4.833592344e-06
4.81895435e-06
4.888715276e-06
4.938899329e-06
4.928140967e-06
4.921566962e-06
4.967459629e-06
5.056698209e-06
5.098733718e-06
5.10814309e-06
5.222391023e-06
5.256491055e-06
5.407690331e-06
5.488967477e-06
5.604381624e-06
5.742801182e-06
5.918956937e-06
6.149090597e-06
6.431420955e-06
6.773044035e-06
7.139746623e-06
7.554090826e-06
4.742625153e-06
4.795652989e-06
4.791934305e-06
4.786413589e-06
4.748492416e-06
4.766409151e-06
4.759156985e-06
4.759530748e-06
4.750075424e-06
4.796104194e-06
4.820133692e-06
4.810593189e-06
4.897283405e-06
4.920882947e-06
4.949056581e-06
5.017264008e-06
5.060131985e-06
5.114785525e-06
5.121585656e-06
5.209400662e-06
5.25341788e-06
5.324027875e-06
5.417581796e-06
5.523445854e-06
5.692562528e-06
5.880945603e-06
6.063524408e-06
6.388741666e-06
6.652831838e-06
6.952440092e-06
4.741009722e-06
4.729506585e-06
4.742657722e-06
4.739097892e-06
4.765958011e-06
4.745478135e-06
4.784904777e-06
4.765254508e-06
4.792289022e-06
4.841166617e-06
4.83171889e-06
4.836607659e-06
4.820689143e-06
4.897483844e-06
4.948614594e-06
4.979411464e-06
4.999103795e-06
5.064509191e-06
5.050737117e-06
5.127870297e-06
5.136199142e-06
5.208551321e-06
5.337078987e-06
5.442983416e-06
5.567913579e-06
5.738688892e-06
5.890067508e-06
6.06192308e-06
6.286006045e-06
6.578307547e-06
4.76087775e-06
4.73321676e-06
4.733543523e-06
4.763982919e-06
4.735947645e-06
4.781624328e-06
4.818907123e-06
4.865592613e-06
4.82522795e-06
4.837006926e-06
4.834123991e-06
4.878010402e-06
4.854035634e-06
4.886749443e-06
4.858411997e-06
4.904202375e-06
4.908656175e-06
4.884443938e-06
4.919966094e-06
4.950008158e-06
4.958363458e-06
5.064750407e-06
5.088524977e-06
5.17335093e-06
5.303151271e-06
5.43789562e-06
5.587491743e-06
5.795368245e-06
5.92781362e-06
6.146101927e-06
4.783010215e-06
4.782054121e-06
4.781883404e-06
4.77917801e-06
4.786898764e-06
4.812276612e-06
4.791084248e-06
4.819628034e-06
4.848472537e-06
4.842653394e-06
4.813594546e-06
4.834203074e-06
4.858947571e-06
4.828279691e-06
4.823001809e-06
4.820803262e-06
4.809765685e-06
4.851683397e-06
4.882349493e-06
4.930274508e-06
4.980476498e-06
5.06272756e-06
5.120621662e-06
5.208418597e-06
5.209296227e-06
5.253608398e-06
5.360845477e-06
5.478746279e-06
5.727006316e-06
5.879085734e-06
4.846068135e-06
4.880295647e-06
4.890437838e-06
4.838237238e-06
4.814104358e-06
4.777260321e-06
4.739079647e-06
4.740232276e-06
4.732610132e-06
4.768227323e-06
4.780336012e-06
4.753996082e-06
4.771941519e-06
4.792543869e-06
4.819067726e-06
4.857943473e-06
4.895785147e-06
4.92737689e-06
4.984924583e-06
5.006656043e-06
5.057688738e-06
5.053013664e-06
5.031549358e-06
5.050007206e-06
5.101408182e-06
5.106873049e-06
5.208740053e-06
5.348741334e-06
5.403828833e-06
5.616936033e-06
4.846527023e-06
4.832099997e-06
4.863356615e-06
4.881469236e-06
4.864421878e-06
4.903159529e-06
4.899831557e-06
4.909891568e-06
4.850822225e-06
4.820181964e-06
4.817149572e-06
4.845339745e-06
4.85000002e-06
4.858549288e-06
4.844989872e-06
4.83034503e-06
4.852585737e-06
4.869398268e-06
4.859670949e-06
4.858154334e-06
4.877872379e-06
4.877480388e-06
4.958454653e-06
5.027885724e-06
5.147880109e-06
5.191492479e-06
5.252618303e-06
5.271918705e-06
5.330876598e-06
5.438910573e-06
4.786650564e-06
4.738355748e-06
4.746433663e-06
4.768645204e-06
4.780272968e-06
4.779676772e-06
4.764814298e-06
4.802353325e-06
4.820623581e-06
4.793790349e-06
4.826349775e-06
4.841274445e-06
4.852618495e-06
4.813098583e-06
4.849203073e-06
4.853845416e-06
4.818083688e-06
4.848828957e-06
4.822018293e-06
4.869654741e-06
4.901388779e-06
4.951574891e-06
4.922976662e-06
4.985646404e-06
4.992375105e-06
5.013338278e-06
5.057785246e-06
5.162183893e-06
5.29276007e-06
5.323130261e-06
4.764987859e-06
4.734403456e-06
4.767122445e-06
4.75800604e-06
4.775953043e-06
4.790739737e-06
4.792399078e-06
4.753825978e-06
4.778224416e-06
4.774461279e-06
4.806305589e-06
4.76131489e-06
4.7392742e-06
4.792028015e-06
4.805093247e-06
4.835894603e-06
4.875738323e-06
4.856783245e-06
4.894768015e-06
4.911612549e-06
4.871007178e-06
4.884910968e-06
4.881194286e-06
4.911895113e-06
4.966675484e-06
5.036110188e-06
5.026082575e-06
5.065036356e-06
5.130775868e-06
5.222937525e-06
4.788927755e-06
4.819164657e-06
4.779298632e-06
4.772941317e-06
4.762674328e-06
4.767771538e-06
4.822483132e-06
4.875216667e-06
4.855741485e-06
4.893156651e-06
4.873833224e-06
4.887871086e-06
4.919272827e-06
4.898811833e-06
4.870744445e-06
4.869345835e-06
4.859503323e-06
4.832781686e-06
4.830758799e-06
4.831009615e-06
4.876890675e-06
4.94711282e-06
5.00625014e-06
4.982514248e-06
4.981781059e-06
5.044439475e-06
5.098728583e-06
5.189905024e-06
5.240151343e-06
5.274996549e-06
4.875342921e-06
4.857349645e-06
4.877338236e-06
4.896689024e-06
4.882566525e-06
4.848412834e-06
4.811865051e-06
4.788541437e-06
4.804134578e-06
4.791878527e-06
4.785069461e-06
4.797261051e-06
4.800745935e-06
4.807997905e-06
4.826847067e-06
4.852714212e-06
4.876491351e-06
4.897921868e-06
4.898814256e-06
4.899337316e-06
4.868783215e-06
4.867371369e-06
4.879321512e-06
4.908383892e-06
4.924207792e-06
4.976579055e-06
4.988749495e-06
4.98140052e-06
4.990095175e-06
5.040833813e-06
4.821796821e-06
4.800676377e-06
4.807693626e-06
4.818897885e-06
4.817369552e-06
4.846519184e-06
4.840470441e-06
4.807507036e-06
4.819700753e-06
4.821151947e-06
4.806549888e-06
4.836518432e-06
4.849906512e-06
4.868134573e-06
4.833642393e-06
4.824182302e-06
4.834783817e-06
4.875454653e-06
4.881295161e-06
4.887714277e-06
4.890177467e-06
4.839990774e-06
4.87245294e-06
4.887902691e-06
4.922545662e-06
4.874039492e-06
4.952199708e-06
4.975344244e-06
5.040350805e-06
5.081498799e-06
4.679159869e-06
4.71433939e-06
4.720024423e-06
4.724065086e-06
4.715576549e-06
4.702218779e-06
4.727228434e-06
4.760899484e-06
4.744755162e-06
4.750419894e-06
4.762857906e-06
4.714305986e-06
4.698572915e-06
4.690608093e-06
4.712479641e-06
4.730413316e-06
4.700284553e-06
4.678852052e-06
4.655506826e-06
4.681473355e-06
4.727588179e-06
4.801596412e-06
4.763230293e-06
4.768655533e-06
4.724005876e-06
4.754967703e-06
4.780446116e-06
4.814493138e-06
4.82424242e-06
4.905927877e-06
)
;

boundaryField
{
    flow
    {
        type            calculated;
        value           nonuniform List<scalar> 
55
(
1.154139616e-05
1.177405354e-05
1.177424452e-05
1.159726497e-05
1.157593529e-05
1.129393797e-05
1.085391932e-05
1.041658183e-05
9.701779075e-06
9.241120574e-06
8.445743096e-06
8.110118739e-06
7.554090826e-06
6.952440092e-06
6.578307547e-06
6.146101927e-06
5.879085734e-06
5.616936033e-06
5.438910573e-06
5.323130261e-06
5.222937525e-06
5.274996549e-06
5.040833813e-06
5.081498799e-06
4.905927877e-06
4.679159869e-06
4.71433939e-06
4.720024423e-06
4.724065086e-06
4.715576549e-06
4.702218779e-06
4.727228434e-06
4.760899484e-06
4.744755162e-06
4.750419894e-06
4.762857906e-06
4.714305986e-06
4.698572915e-06
4.690608093e-06
4.712479641e-06
4.730413316e-06
4.700284553e-06
4.678852052e-06
4.655506826e-06
4.681473355e-06
4.727588179e-06
4.801596412e-06
4.763230293e-06
4.768655533e-06
4.724005876e-06
4.754967703e-06
4.780446116e-06
4.814493138e-06
4.82424242e-06
4.905927877e-06
)
;
    }
    obstacle
    {
        type            calculated;
        value           nonuniform List<scalar> 0();
    }
    frontAndBack
    {
        type            empty;
    }
    procBoundary3to1
    {
        type            processor;
        value           nonuniform List<scalar> 
36
(
1.13202282e-05
1.176120241e-05
1.175922439e-05
1.172017483e-05
1.16311113e-05
1.16311113e-05
9.964311839e-06
1.037162945e-05
1.091216932e-05
1.111969299e-05
1.136996685e-05
1.140877291e-05
1.140877291e-05
7.329471746e-06
7.683237693e-06
8.045045334e-06
8.534355997e-06
8.919699178e-06
8.919699178e-06
5.447929704e-06
5.547429741e-06
5.813960908e-06
5.996241609e-06
6.180663788e-06
6.434561291e-06
6.434561291e-06
4.876689326e-06
4.90810304e-06
4.954707578e-06
5.02289642e-06
5.049387936e-06
5.116738281e-06
5.228647539e-06
5.228647539e-06
4.810726887e-06
4.810726887e-06
)
;
    }
    procBoundary3to2
    {
        type            processor;
        value           nonuniform List<scalar> 
19
(
4.862344872e-06
4.838789561e-06
4.915521206e-06
4.884931745e-06
4.794452751e-06
4.85206451e-06
4.847226243e-06
4.747728525e-06
4.744805055e-06
4.771494887e-06
4.779615291e-06
4.825802497e-06
4.827817027e-06
4.778479602e-06
4.732731196e-06
4.831025636e-06
4.826636162e-06
4.849751776e-06
4.67642528e-06
)
;
    }
}


// ************************************************************************* //
