/*--------------------------------*- C++ -*----------------------------------*\
| =========                 |                                                 |
| \\      /  F ield         | OpenFOAM: The Open Source CFD Toolbox           |
|  \\    /   O peration     | Version:  2406                                  |
|   \\  /    A nd           | Website:  www.openfoam.com                      |
|    \\/     M anipulation  |                                                 |
\*---------------------------------------------------------------------------*/
FoamFile
{
    version     2.0;
    format      ascii;
    arch        "LSB;label=32;scalar=64";
    class       volScalarField;
    location    "0.006";
    object      rhoN;
}
// * * * * * * * * * * * * * * * * * * * * * * * * * * * * * * * * * * * * * //

dimensions      [0 -3 0 0 0 0 0];

internalField   nonuniform List<scalar> 
654
(
8.546915403e+19
2.06002754e+20
2.49441833e+20
2.657057884e+20
2.258157844e+20
1.994280242e+20
1.824454736e+20
1.708687094e+20
2.253794296e+20
1.872285822e+20
2.428446524e+20
2.994500579e+20
2.746703339e+20
2.355839513e+20
2.796903036e+20
1.693618383e+20
1.566934491e+20
1.624949217e+20
1.386279961e+20
1.90607856e+20
2.050174096e+20
2.584356495e+20
2.21540934e+20
1.840124563e+20
2.386370411e+20
1.337347016e+20
1.618964349e+20
2.450045928e+20
2.472033026e+20
3.18731231e+20
2.517212732e+20
2.399292731e+20
3.133868981e+20
5.957828555e+19
7.205498226e+19
2.178746906e+20
9.760519915e+19
3.689610412e+19
1.487800982e+20
9.999687487e+19
1.008203616e+20
1.397790956e+20
1.793902334e+20
1.938267371e+20
2.085091126e+20
2.497311907e+20
1.988642026e+20
8.024082096e+19
1.888791741e+20
1.905591294e+20
2.334697879e+20
2.217260718e+20
2.65705786e+20
1.975888113e+20
2.279177441e+20
1.355973021e+20
1.252221451e+20
9.175317996e+19
1.040017687e+20
8.150572227e+19
7.039767198e+19
1.300595493e+20
1.668191995e+20
1.080824742e+20
1.45249796e+20
1.220064999e+20
9.838961099e+19
8.678839133e+19
1.499953135e+20
1.386279961e+20
1.524862836e+20
1.665766426e+20
1.292178237e+20
1.172863759e+20
2.497311886e+20
9.280329298e+19
1.738551106e+20
1.753878045e+20
1.769477615e+20
2.197362671e+20
2.217260718e+20
1.678141821e+20
2.399292709e+20
1.424485887e+20
6.730170614e+19
6.779865006e+19
1.366059745e+20
5.734573705e+19
1.271132728e+20
8.150572167e+19
4.693178062e+19
5.911797608e+19
8.340959913e+19
7.205498226e+19
1.331456443e+20
1.098058482e+20
1.35285713e+20
8.678838995e+19
8.749726621e+19
1.890381796e+20
1.143647146e+20
1.153222929e+20
1.809049562e+20
1.303181976e+20
1.708687108e+20
1.458337486e+20
1.738551121e+20
2.293532848e+20
1.36113665e+20
2.884038556e+20
1.940103145e+20
2.657057884e+20
2.399292709e+20
2.706523211e+20
8.973560819e+19
4.519910036e+19
1.024544824e+20
1.261606224e+20
8.089026452e+19
2.21229816e+20
9.386356194e+19
7.094157237e+19
9.532525688e+19
7.205498226e+19
1.089373453e+20
8.540454926e+19
8.609090961e+19
1.859751228e+20
8.749726551e+19
8.821781572e+19
1.524862848e+20
6.40679405e+19
1.292178248e+20
1.172863759e+20
1.445812144e+20
1.32576134e+20
1.471081718e+20
1.349136958e+20
1.905591277e+20
2.060027522e+20
1.662945553e+20
1.957832125e+20
1.270213799e+20
2.136728851e+20
7.851865773e+19
1.355973011e+20
1.252221442e+20
5.734573747e+19
9.24460166e+19
9.314939689e+19
8.21306167e+19
9.458876244e+19
1.549035424e+20
8.406414597e+19
8.472904702e+19
6.100324995e+19
6.149350687e+19
2.231701474e+20
1.374957029e+20
6.301272602e+19
1.270719051e+20
6.40679405e+19
7.753069486e+19
9.122273678e+19
1.182937219e+20
1.988642026e+20
1.337347016e+20
1.349136958e+20
1.905591294e+20
1.648022018e+20
1.247209154e+20
1.678141821e+20
2.540427574e+20
1.4244859e+20
1.121695102e+20
2.259955018e+19
1.366059765e+20
1.032223275e+20
9.24460166e+19
1.280804198e+20
8.21306167e+19
1.655303355e+20
8.340959977e+19
9.607331042e+19
4.84165983e+19
9.760519839e+19
1.721818179e+20
1.115850737e+20
1.62494923e+20
6.301272602e+19
6.35359515e+19
8.969511596e+19
1.162960423e+20
1.042545572e+20
1.577249639e+20
1.590913608e+20
1.337347005e+20
1.079309566e+20
2.177818603e+20
1.922692354e+20
1.524366757e+20
1.678141821e+20
1.693618383e+20
1.282037299e+20
1.009525592e+20
1.242975251e+20
1.138383121e+20
1.261606215e+20
1.155575216e+20
1.047930723e+20
8.213061732e+19
1.182359539e+20
8.340959977e+19
1.321008008e+20
1.210414957e+20
7.320389993e+19
1.229870137e+20
1.239834152e+20
1.124964842e+20
1.386279972e+20
1.397790956e+20
3.84407643e+19
1.679831722e+20
1.69413654e+20
1.314374677e+20
1.193185206e+20
1.471081718e+20
1.349136958e+20
1.633363952e+20
1.098681335e+20
1.801524317e+20
9.789160537e+19
2.399292709e+20
1.709383081e+20
7.851865773e+19
1.129977517e+20
1.024544824e+20
6.881488446e+19
8.089026392e+19
9.314939619e+19
1.52528287e+20
5.911797608e+19
1.549035412e+20
4.803665484e+19
9.683319584e+19
9.760519839e+19
9.838961021e+19
9.918673216e+19
3.749882808e+19
7.561527061e+19
1.016575232e+20
5.12543524e+19
5.168712991e+19
1.433500149e+20
2.234436969e+20
1.193185216e+20
1.203612314e+20
1.349136958e+20
1.497250302e+20
2.334697879e+20
1.108630369e+20
1.957832125e+20
8.468091991e+19
1.566934491e+20
8.973560883e+19
1.016979758e+20
1.138383137e+20
5.734573747e+19
9.24460166e+19
6.986204714e+19
1.525282882e+20
7.094157237e+19
1.07240914e+20
1.200916371e+20
1.089373462e+20
1.098058499e+20
1.106883124e+20
1.735767813e+20
7.499765675e+19
1.386279984e+20
1.779006656e+20
1.281358799e+20
9.045247734e+19
1.172863768e+20
7.886248126e+19
1.32576134e+20
1.069877613e+20
1.214223272e+20
1.633363966e+20
1.373351681e+20
1.662945553e+20
2.097677296e+20
1.411348665e+20
2.706523186e+20
7.851865717e+19
1.129977501e+20
9.107065033e+19
8.028403246e+19
1.50224777e+20
1.047930715e+20
2.346589049e+19
1.18235953e+20
5.957828555e+19
1.441099645e+20
1.089373453e+20
1.464077987e+20
1.106883115e+20
1.611784385e+20
1.624949217e+20
8.821781572e+19
5.082876161e+19
1.153222929e+20
1.162960433e+20
1.694136554e+20
1.445812157e+20
1.060609081e+20
2.273489927e+20
1.214223262e+20
4.083409916e+19
1.098681345e+20
1.524366744e+20
1.118761214e+20
1.270213787e+20
1.851831671e+20
8.973560883e+19
7.909842621e+19
1.138383129e+20
1.146914741e+20
9.24460166e+19
1.047930707e+20
1.055965072e+20
1.418831447e+20
1.07240914e+20
2.40183276e+19
1.331456463e+20
1.342071488e+20
9.838961021e+19
9.918673216e+19
9.999687487e+19
6.301272602e+19
1.651934766e+20
1.025087048e+20
1.679831722e+20
1.042545572e+20
1.314374688e+20
6.628806642e+19
8.024082027e+19
8.094821746e+19
1.361136627e+20
1.236016513e+20
6.928939805e+19
1.53829667e+20
1.270213787e+20
2.27917742e+20
1.121695102e+20
9.039820007e+19
7.968681904e+19
1.146914749e+20
9.24460166e+19
1.746551192e+20
4.693178132e+19
8.276516776e+19
2.14481828e+20
1.321008008e+20
6.05207474e+19
1.342071488e+20
8.609090961e+19
1.239834152e+20
1.124964842e+20
8.821781572e+19
1.143647136e+20
1.025087048e+20
6.460891238e+19
3.909545862e+19
7.886248126e+19
9.280329456e+19
1.203612314e+20
1.618964349e+20
1.088909301e+20
1.236016502e+20
1.385787949e+20
1.957832125e+20
1.552483532e+20
1.424485913e+20
6.730170614e+19
7.909842564e+19
1.138383137e+20
9.175317996e+19
6.933451296e+19
9.314939689e+19
7.039767093e+19
9.458876244e+19
1.549035424e+20
8.406414597e+19
1.452497938e+20
6.100324947e+19
6.149350687e+19
8.678839064e+19
9.999687567e+19
6.301272653e+19
1.143647136e+20
1.02508704e+20
1.292178248e+20
1.042545563e+20
1.314374688e+20
5.303045403e+19
6.68673508e+19
1.484050653e+20
1.361136639e+20
1.098681355e+20
4.157363846e+19
6.992257527e+19
1.129078922e+20
1.566934476e+20
4.486780442e+19
1.016979758e+20
1.138383129e+20
1.490989174e+20
1.040017687e+20
1.397240943e+20
8.21306167e+19
1.18235953e+20
9.532525615e+19
7.205498226e+19
7.262489744e+19
8.540454926e+19
9.838961021e+19
1.115850737e+20
8.749726551e+19
1.134229059e+20
5.082876161e+19
1.153222929e+20
9.045247734e+19
9.122273754e+19
1.577249625e+20
1.856065875e+20
8.024082096e+19
1.214223272e+20
4.083409916e+19
1.236016513e+20
8.314727766e+19
1.118761214e+20
1.270213787e+20
4.273457701e+19
1.009525592e+20
1.129977509e+20
1.366059755e+20
1.376297689e+20
1.386690249e+20
1.513677699e+20
9.386356194e+19
7.094157183e+19
8.340959977e+19
4.803665521e+19
6.052074787e+19
1.220064989e+20
8.609090961e+19
7.439004971e+19
9.999687567e+19
1.512305424e+20
8.895033354e+19
1.02508704e+20
6.460891185e+19
7.819091724e+19
3.943124063e+19
1.590913608e+20
1.337347005e+20
1.079309566e+20
1.225022975e+20
6.866758407e+19
5.543151795e+19
6.992257589e+19
2.117022979e+20
9.971401212e+19
8.973560819e+19
1.016979751e+20
1.479898068e+20
1.261606224e+20
9.24460166e+19
9.314939619e+19
2.346589049e+19
1.064123585e+20
1.07240914e+20
9.607330968e+19
1.210414957e+20
8.540454992e+19
1.229870137e+20
9.918673216e+19
7.499765675e+19
1.008203616e+20
1.016575224e+20
1.409494679e+20
7.753069486e+19
1.172863759e+20
1.314374677e+20
1.458337474e+20
4.012041048e+19
9.443958704e+19
8.16681976e+19
1.236016513e+20
8.314727766e+19
1.258606366e+20
9.879440656e+19
4.27345774e+19
1.346034142e+20
1.355973021e+20
9.1070651e+19
1.376297699e+20
5.777876037e+19
1.513677688e+20
1.407953429e+20
1.064123585e+20
5.957828555e+19
7.205498226e+19
1.331456443e+20
1.098058482e+20
1.35285714e+20
6.19917076e+19
7.499765615e+19
6.301272602e+19
7.624314304e+19
8.96951167e+19
7.753069486e+19
1.563818358e+20
5.257498795e+19
7.954568105e+19
4.012041048e+19
9.443958704e+19
9.527956387e+19
1.236016513e+20
1.247209165e+20
9.789160625e+19
1.270213787e+20
9.971401212e+19
8.973560819e+19
1.129977501e+20
9.107065033e+19
6.881488497e+19
6.933451245e+19
8.150572227e+19
1.173294524e+20
1.300595484e+20
1.191565711e+20
7.205498226e+19
1.089373462e+20
8.540454992e+19
1.106883115e+20
1.115850728e+20
1.624949217e+20
7.561527061e+19
1.397790944e+20
1.025087048e+20
1.033742607e+20
1.172863768e+20
6.571873383e+19
6.628806698e+19
1.604816419e+20
1.484050653e+20
1.088909311e+20
2.746703363e+19
1.108630359e+20
1.258606366e+20
1.411348652e+20
1.13958872e+20
1.121695102e+20
1.355973011e+20
1.479898068e+20
1.720372112e+20
1.155575216e+20
4.657469844e+19
8.21306167e+19
2.364719061e+19
4.766262807e+19
1.080824742e+20
6.052074787e+19
1.09805849e+20
1.106883124e+20
6.19917076e+19
8.749726551e+19
3.780763561e+19
7.624314304e+19
1.409494691e+20
6.460891238e+19
1.303181954e+20
9.200622814e+19
9.280329377e+19
6.686735023e+19
6.745684847e+19
1.76947763e+20
8.240110088e+19
8.314727692e+19
1.258606355e+20
9.879440567e+19
1.709383065e+20
8.973560883e+19
1.694966264e+20
1.024544816e+20
1.032223275e+20
6.933451245e+19
5.821837305e+19
7.039767146e+19
9.458876244e+19
1.07240914e+20
1.200916371e+20
1.210414957e+20
8.540454926e+19
1.844805192e+20
1.983734643e+20
1.249960946e+20
1.134229068e+20
5.08287612e+19
6.406793997e+19
5.168712991e+19
1.172863768e+20
9.200622814e+19
1.458337474e+20
1.069877613e+20
1.349136958e+20
1.088909311e+20
1.785357186e+20
9.700515641e+19
8.390709107e+19
1.411348665e+20
1.139588731e+20
1.794712164e+20
4.519910036e+19
9.1070651e+19
1.032223275e+20
6.933451245e+19
9.314939619e+19
1.173294524e+20
1.418831447e+20
9.532525688e+19
6.004581855e+19
8.472904636e+19
9.760519915e+19
4.919480549e+19
7.439004912e+19
4.999843743e+19
8.821781643e+19
5.082876202e+19
6.40679405e+19
9.045247734e+19
1.303181954e+20
1.182937219e+20
1.193185216e+20
1.069877613e+20
1.214223262e+20
1.497250289e+20
5.493406725e+19
1.247209165e+20
1.53829667e+20
9.879440567e+19
7.122429437e+19
)
;

boundaryField
{
    flow
    {
        type            zeroGradient;
    }
    obstacle
    {
        type            calculated;
        value           nonuniform List<scalar> 0();
    }
    frontAndBack
    {
        type            empty;
    }
    procBoundary3to1
    {
        type            processor;
        value           nonuniform List<scalar> 
36
(
1.566934491e+20
1.78535717e+20
3.464469872e+20
2.657057884e+20
3.246101901e+20
3.246101901e+20
2.085091126e+20
1.971562015e+20
1.85606586e+20
3.209632811e+20
2.698273939e+20
1.497250315e+20
1.497250315e+20
2.249929703e+20
1.764356343e+20
1.397790944e+20
1.281358799e+20
2.196703021e+20
2.196703021e+20
1.191565711e+20
8.406414597e+19
1.089373462e+20
6.100324947e+19
6.149350638e+19
2.727635134e+20
2.727635134e+20
9.039820007e+19
6.830298775e+19
1.490989174e+20
9.244601728e+19
1.397240953e+20
5.866472621e+19
1.182359539e+20
1.182359539e+20
4.486780442e+19
4.486780442e+19
)
;
    }
    procBoundary3to2
    {
        type            processor;
        value           nonuniform List<scalar> 
19
(
6.681199412e+19
2.227066471e+19
1.670299853e+20
6.681199365e+19
1.336239882e+20
8.908265883e+19
8.908265946e+19
5.567666177e+19
2.227066471e+19
6.681199412e+19
1.224886559e+20
1.781653177e+20
1.224886559e+20
7.794732592e+19
1.224886568e+20
8.908265883e+19
1.113533235e+20
5.567666177e+19
7.794732648e+19
)
;
    }
}


// ************************************************************************* //
