/*--------------------------------*- C++ -*----------------------------------*\
| =========                 |                                                 |
| \\      /  F ield         | OpenFOAM: The Open Source CFD Toolbox           |
|  \\    /   O peration     | Version:  2406                                  |
|   \\  /    A nd           | Website:  www.openfoam.com                      |
|    \\/     M anipulation  |                                                 |
\*---------------------------------------------------------------------------*/
FoamFile
{
    version     2.0;
    format      ascii;
    arch        "LSB;label=32;scalar=64";
    class       volScalarField;
    location    "0.006";
    object      rhoNMean;
}
// * * * * * * * * * * * * * * * * * * * * * * * * * * * * * * * * * * * * * //

dimensions      [0 -3 0 0 0 0 0];

internalField   nonuniform List<scalar> 
654
(
2.406336549e+20
2.415359402e+20
2.460327946e+20
2.444353408e+20
2.436787538e+20
2.452584835e+20
1.970497993e+20
2.052921825e+20
2.132663901e+20
2.215003284e+20
2.295736418e+20
2.35907663e+20
2.377409075e+20
2.407714175e+20
2.465609871e+20
2.464638152e+20
2.452727306e+20
1.409664278e+20
1.486134127e+20
1.557605042e+20
1.631468749e+20
1.729279076e+20
1.83461957e+20
1.917409794e+20
1.995977889e+20
2.083452916e+20
2.170491538e+20
2.243788358e+20
2.320415001e+20
2.34475323e+20
2.383753842e+20
2.423144523e+20
2.418824542e+20
1.108275268e+20
1.131463374e+20
1.144043862e+20
1.183951066e+20
1.217243471e+20
1.264176229e+20
1.304334237e+20
1.368174316e+20
1.445358205e+20
1.518538326e+20
1.603679351e+20
1.679106508e+20
1.780890077e+20
1.860706056e+20
1.946820629e+20
2.035263043e+20
2.120378656e+20
2.201803213e+20
2.283778539e+20
2.323294101e+20
2.350224821e+20
2.413791358e+20
1.014343151e+20
1.017980148e+20
1.016090007e+20
1.030965681e+20
1.047426156e+20
1.058272559e+20
1.074922469e+20
1.084483672e+20
1.108165605e+20
1.133190492e+20
1.158736398e+20
1.182438146e+20
1.21821972e+20
1.264085505e+20
1.309992555e+20
1.356450207e+20
1.42021537e+20
1.477347378e+20
1.555043586e+20
1.64778772e+20
1.741166545e+20
1.820575056e+20
1.906015723e+20
2.004137569e+20
2.100724492e+20
2.181784546e+20
2.250667873e+20
2.308495946e+20
2.354485241e+20
1.014236712e+20
1.015887439e+20
1.026821575e+20
1.035128784e+20
1.036550961e+20
1.039586074e+20
1.047673783e+20
1.058487656e+20
1.068357808e+20
1.085468277e+20
1.096232471e+20
1.120589015e+20
1.145747002e+20
1.175238783e+20
1.208295581e+20
1.24668579e+20
1.274870066e+20
1.32407077e+20
1.386894925e+20
1.438235068e+20
1.520819151e+20
1.598072732e+20
1.700347574e+20
1.773170719e+20
1.867615598e+20
1.96819609e+20
2.04006465e+20
2.130121352e+20
2.191589232e+20
2.263460613e+20
1.012142881e+20
1.00801527e+20
1.012477962e+20
1.016969308e+20
1.025688554e+20
1.030309946e+20
1.039851827e+20
1.048949971e+20
1.057554287e+20
1.079864001e+20
1.091511853e+20
1.102369387e+20
1.114631305e+20
1.13932493e+20
1.161797025e+20
1.187243766e+20
1.211884749e+20
1.236724811e+20
1.286320373e+20
1.341104549e+20
1.381977348e+20
1.46496628e+20
1.54775628e+20
1.643923383e+20
1.741891912e+20
1.805225007e+20
1.917838152e+20
2.018618151e+20
2.112788952e+20
2.171058961e+20
1.02324767e+20
1.03264878e+20
1.031147438e+20
1.03111459e+20
1.04221328e+20
1.034812175e+20
1.03269473e+20
1.038781671e+20
1.038926143e+20
1.040153699e+20
1.046201995e+20
1.069956335e+20
1.083392604e+20
1.094814884e+20
1.1177984e+20
1.137085645e+20
1.167833165e+20
1.201231172e+20
1.217145764e+20
1.260307268e+20
1.32585356e+20
1.375123865e+20
1.418657715e+20
1.515755372e+20
1.598110527e+20
1.665234692e+20
1.753853228e+20
1.842832795e+20
1.936511486e+20
2.02362467e+20
1.017639187e+20
1.01890072e+20
1.027201051e+20
1.02411841e+20
1.018138796e+20
1.020723321e+20
1.025342085e+20
1.030111043e+20
1.034993977e+20
1.041514746e+20
1.039786796e+20
1.048076487e+20
1.053588743e+20
1.055884092e+20
1.069508251e+20
1.09373289e+20
1.113573443e+20
1.141989674e+20
1.183678347e+20
1.216998198e+20
1.246596777e+20
1.303311781e+20
1.35183493e+20
1.384349432e+20
1.462314449e+20
1.559074607e+20
1.640357209e+20
1.728672536e+20
1.828355134e+20
1.927471854e+20
9.984208106e+19
1.000557411e+20
1.000297248e+20
1.000683112e+20
1.013208349e+20
1.015289621e+20
1.023347492e+20
1.02250453e+20
1.025103981e+20
1.022660351e+20
1.034582011e+20
1.034696457e+20
1.037764422e+20
1.049643593e+20
1.06296678e+20
1.069325961e+20
1.088074366e+20
1.121701502e+20
1.14788501e+20
1.165826576e+20
1.202784267e+20
1.239233316e+20
1.300837442e+20
1.354218707e+20
1.405373567e+20
1.477772175e+20
1.549218527e+20
1.623788658e+20
1.691077955e+20
1.761709196e+20
1.006683972e+20
1.009446582e+20
1.014602944e+20
1.009858429e+20
1.014672063e+20
1.01466861e+20
1.008955064e+20
1.014976825e+20
1.024269877e+20
1.032187621e+20
1.02538285e+20
1.023512512e+20
1.034689738e+20
1.041956621e+20
1.041550782e+20
1.051010253e+20
1.053892015e+20
1.075615297e+20
1.091718329e+20
1.123820678e+20
1.150603602e+20
1.183286198e+20
1.217699036e+20
1.272281122e+20
1.319032145e+20
1.373489029e+20
1.441589023e+20
1.502403081e+20
1.593130373e+20
1.690532384e+20
1.018312211e+20
1.007751609e+20
1.001777161e+20
1.006761767e+20
1.006005256e+20
1.011175508e+20
1.009033291e+20
1.011508586e+20
1.008263186e+20
1.005046911e+20
1.019330783e+20
1.02969419e+20
1.027884465e+20
1.026582678e+20
1.03571764e+20
1.054538983e+20
1.062744691e+20
1.064424755e+20
1.087798721e+20
1.095845714e+20
1.127908732e+20
1.144750725e+20
1.168573823e+20
1.197269118e+20
1.234732416e+20
1.281978016e+20
1.340796045e+20
1.412622506e+20
1.489584426e+20
1.576715946e+20
9.888116226e+19
9.996157632e+19
9.989691419e+19
9.983128284e+19
9.907131445e+19
9.937100035e+19
9.923333988e+19
9.918814101e+19
9.897144795e+19
9.996427872e+19
1.00488649e+20
1.003259441e+20
1.021079176e+20
1.02658267e+20
1.031926083e+20
1.04584321e+20
1.054612089e+20
1.066047818e+20
1.067683822e+20
1.085898092e+20
1.095224615e+20
1.110059979e+20
1.130058229e+20
1.152432789e+20
1.186865778e+20
1.226815057e+20
1.264854854e+20
1.332724296e+20
1.387543905e+20
1.450316578e+20
9.884003415e+19
9.859430497e+19
9.885719094e+19
9.879523579e+19
9.937946784e+19
9.89479461e+19
9.979652125e+19
9.941279007e+19
1.000319414e+20
1.010330951e+20
1.007791501e+20
1.008749733e+20
1.005336838e+20
1.021003424e+20
1.031884418e+20
1.038659767e+20
1.043345055e+20
1.057035594e+20
1.053986724e+20
1.06943456e+20
1.070777246e+20
1.085886912e+20
1.111781143e+20
1.134354354e+20
1.160550459e+20
1.196280871e+20
1.227992905e+20
1.263967097e+20
1.310719494e+20
1.371162632e+20
9.925506062e+19
9.871860107e+19
9.872817418e+19
9.931134816e+19
9.875930915e+19
9.972031059e+19
1.004926768e+20
1.014898017e+20
1.006436118e+20
1.008729721e+20
1.00787218e+20
1.0168835e+20
1.011650179e+20
1.018689067e+20
1.012426693e+20
1.02227645e+20
1.023013542e+20
1.017655167e+20
1.025128076e+20
1.031642274e+20
1.033711879e+20
1.055880532e+20
1.061095701e+20
1.07872494e+20
1.106286479e+20
1.134846263e+20
1.165586244e+20
1.208448572e+20
1.236247341e+20
1.281230113e+20
9.974486749e+19
9.974688132e+19
9.972236284e+19
9.968983002e+19
9.989177359e+19
1.003607127e+20
9.990602799e+19
1.003941477e+20
1.009772502e+20
1.008849813e+20
1.003514686e+20
1.008221038e+20
1.013331002e+20
1.006497365e+20
1.005885239e+20
1.00501098e+20
1.002512608e+20
1.011248365e+20
1.01759037e+20
1.027645849e+20
1.038093128e+20
1.05561538e+20
1.067782436e+20
1.08601028e+20
1.086050924e+20
1.095019084e+20
1.118469453e+20
1.14244165e+20
1.19390687e+20
1.225057863e+20
1.010722074e+20
1.017620079e+20
1.019801553e+20
1.008864444e+20
1.003540029e+20
9.958446698e+19
9.883441974e+19
9.891619832e+19
9.876888103e+19
9.947590606e+19
9.965346344e+19
9.911401285e+19
9.948009506e+19
9.993476543e+19
1.004801931e+20
1.01286655e+20
1.021234535e+20
1.027179934e+20
1.039600473e+20
1.044022511e+20
1.054654249e+20
1.053715113e+20
1.048792108e+20
1.052506721e+20
1.063546798e+20
1.064896894e+20
1.085857253e+20
1.115731236e+20
1.127808708e+20
1.172446862e+20
1.01001166e+20
1.006922958e+20
1.013426608e+20
1.017083992e+20
1.013516495e+20
1.021538386e+20
1.020492467e+20
1.02285923e+20
1.010368285e+20
1.003926063e+20
1.003676083e+20
1.009319097e+20
1.010461305e+20
1.012283265e+20
1.009635121e+20
1.006943362e+20
1.01140765e+20
1.015690408e+20
1.013412319e+20
1.013397727e+20
1.017063133e+20
1.016991524e+20
1.034259595e+20
1.048684157e+20
1.073346982e+20
1.082384238e+20
1.095188216e+20
1.099415968e+20
1.111390019e+20
1.134080698e+20
9.975608444e+19
9.873366744e+19
9.890652087e+19
9.93457556e+19
9.959902713e+19
9.959222943e+19
9.93154705e+19
1.000512642e+20
1.004609051e+20
9.991223901e+19
1.006096913e+20
1.009319105e+20
1.011281218e+20
1.003273796e+20
1.010926748e+20
1.012236431e+20
1.005392896e+20
1.011333788e+20
1.005400822e+20
1.015048424e+20
1.022145374e+20
1.03290066e+20
1.026502991e+20
1.039734882e+20
1.040815807e+20
1.045166408e+20
1.05444606e+20
1.076294903e+20
1.103815791e+20
1.109864458e+20
9.926254002e+19
9.865457044e+19
9.931254491e+19
9.91278418e+19
9.953354453e+19
9.984450904e+19
9.987082991e+19
9.90817294e+19
9.955531515e+19
9.951593661e+19
1.002021841e+20
9.925635299e+19
9.88528613e+19
9.995956211e+19
1.001968686e+20
1.007909557e+20
1.01610931e+20
1.011889052e+20
1.020303944e+20
1.024127267e+20
1.01579258e+20
1.018803406e+20
1.017587344e+20
1.02430975e+20
1.035870344e+20
1.049744247e+20
1.047332348e+20
1.054898595e+20
1.068437975e+20
1.087405044e+20
9.975608444e+19
1.004173339e+20
9.958196153e+19
9.946427012e+19
9.925620649e+19
9.937488158e+19
1.005122309e+20
1.01631684e+20
1.012155634e+20
1.020058366e+20
1.015699538e+20
1.018998287e+20
1.024891773e+20
1.020218188e+20
1.014343299e+20
1.014630906e+20
1.012636003e+20
1.006849041e+20
1.006348428e+20
1.006317113e+20
1.015529688e+20
1.030116561e+20
1.042729468e+20
1.03748632e+20
1.03759446e+20
1.05134649e+20
1.063823215e+20
1.082681165e+20
1.093654071e+20
1.101459981e+20
1.016480102e+20
1.012572846e+20
1.017486841e+20
1.020830581e+20
1.017599535e+20
1.010709768e+20
1.003323258e+20
9.982661516e+19
1.001153503e+20
9.988822145e+19
9.968977589e+19
9.99558577e+19
1.000499357e+20
1.002529895e+20
1.006593542e+20
1.011060193e+20
1.015855166e+20
1.020602292e+20
1.020131654e+20
1.020782425e+20
1.014565821e+20
1.014163233e+20
1.016740349e+20
1.02255588e+20
1.026659995e+20
1.037658752e+20
1.039987663e+20
1.039002853e+20
1.040916676e+20
1.051507999e+20
1.005188378e+20
1.000331423e+20
1.001094124e+20
1.00389448e+20
1.003617068e+20
1.009584213e+20
1.007938216e+20
1.001379698e+20
1.004450175e+20
1.004926819e+20
1.002263932e+20
1.008221038e+20
1.011404197e+20
1.014597614e+20
1.00721853e+20
1.00589315e+20
1.008146121e+20
1.016032104e+20
1.017633443e+20
1.018653902e+20
1.019341383e+20
1.008815995e+20
1.015358433e+20
1.018913202e+20
1.026024798e+20
1.015776682e+20
1.0319039e+20
1.03657888e+20
1.049996362e+20
1.058725414e+20
9.748278236e+19
9.824024464e+19
9.838665996e+19
9.848174649e+19
9.830093098e+19
9.803973949e+19
9.855282906e+19
9.926302453e+19
9.891584155e+19
9.898353035e+19
9.925806045e+19
9.823556606e+19
9.788126466e+19
9.77361262e+19
9.818026498e+19
9.85351001e+19
9.790466712e+19
9.751140544e+19
9.70425864e+19
9.757357683e+19
9.852990784e+19
1.000773052e+20
9.930247376e+19
9.938192543e+19
9.845101221e+19
9.910105733e+19
9.96381544e+19
1.002969429e+20
1.005115465e+20
1.02249597e+20
)
;

boundaryField
{
    flow
    {
        type            calculated;
        value           nonuniform List<scalar> 
55
(
2.406336549e+20
2.452584835e+20
2.452727306e+20
2.418824542e+20
2.413791358e+20
2.354485241e+20
2.263460613e+20
2.171058961e+20
2.02362467e+20
1.927471854e+20
1.761709196e+20
1.690532384e+20
1.576715946e+20
1.450316578e+20
1.371162632e+20
1.281230113e+20
1.225057863e+20
1.172446862e+20
1.134080698e+20
1.109864458e+20
1.087405044e+20
1.101459981e+20
1.051507999e+20
1.058725414e+20
1.02249597e+20
9.748278236e+19
9.824024464e+19
9.838665996e+19
9.848174649e+19
9.830093098e+19
9.803973949e+19
9.855282906e+19
9.926302453e+19
9.891584155e+19
9.898353035e+19
9.925806045e+19
9.823556606e+19
9.788126466e+19
9.77361262e+19
9.818026498e+19
9.85351001e+19
9.790466712e+19
9.751140544e+19
9.70425864e+19
9.757357683e+19
9.852990784e+19
1.000773052e+20
9.930247376e+19
9.938192543e+19
9.845101221e+19
9.910105733e+19
9.96381544e+19
1.002969429e+20
1.005115465e+20
1.02249597e+20
)
;
    }
    obstacle
    {
        type            calculated;
        value           nonuniform List<scalar> 0();
    }
    frontAndBack
    {
        type            empty;
    }
    procBoundary3to1
    {
        type            processor;
        value           nonuniform List<scalar> 
36
(
2.359138583e+20
2.452256741e+20
2.450627408e+20
2.442908341e+20
2.423803131e+20
2.423803131e+20
2.077358913e+20
2.162058718e+20
2.274873863e+20
2.318291032e+20
2.370028914e+20
2.378087213e+20
2.378087213e+20
1.52795226e+20
1.602329619e+20
1.676671416e+20
1.778867709e+20
1.859659861e+20
1.859659861e+20
1.135244372e+20
1.156442435e+20
1.212391969e+20
1.250403939e+20
1.288944889e+20
1.342079142e+20
1.342079142e+20
1.016640758e+20
1.023292595e+20
1.032605579e+20
1.046604473e+20
1.052394124e+20
1.06707226e+20
1.090056671e+20
1.090056671e+20
1.003281497e+20
1.003281497e+20
)
;
    }
    procBoundary3to2
    {
        type            processor;
        value           nonuniform List<scalar> 
19
(
1.013278126e+20
1.00771046e+20
1.024190752e+20
1.018214783e+20
9.994703143e+19
1.011162413e+20
1.011310892e+20
9.894485152e+19
9.894856329e+19
9.943851792e+19
9.966493634e+19
1.006893869e+20
1.005334923e+20
9.963152964e+19
9.858480981e+19
1.006225749e+20
1.006782516e+20
1.010976824e+20
9.743786987e+19
)
;
    }
}


// ************************************************************************* //
