/*--------------------------------*- C++ -*----------------------------------*\
| =========                 |                                                 |
| \\      /  F ield         | OpenFOAM: The Open Source CFD Toolbox           |
|  \\    /   O peration     | Version:  2406                                  |
|   \\  /    A nd           | Website:  www.openfoam.com                      |
|    \\/     M anipulation  |                                                 |
\*---------------------------------------------------------------------------*/
FoamFile
{
    version     2.0;
    format      ascii;
    arch        "LSB;label=32;scalar=64";
    class       volScalarField;
    location    "0.006";
    object      translationalT;
}
// * * * * * * * * * * * * * * * * * * * * * * * * * * * * * * * * * * * * * //

dimensions      [1 2 -2 0 0 0 0];

internalField   nonuniform List<scalar> 
654
(
754.5075389
766.1336774
765.8136839
760.3149585
753.1719852
743.9153224
758.7819027
767.0777683
768.2436091
754.9223341
762.620777
762.9990519
753.6757997
760.5986265
754.9903149
749.0437424
743.0420426
657.7505649
686.7393189
694.7557647
718.2734954
727.4046516
741.9144292
746.3423156
747.5951265
754.5986647
755.7226815
754.6367895
757.6670705
748.1996594
746.4478632
747.0245756
743.4380234
459.2797155
482.6350806
500.2811973
542.1629556
560.3993572
585.736715
614.4646511
643.1933537
663.2249526
691.7956776
706.1986087
722.4651052
734.7079249
734.3170455
734.9351787
736.7462283
742.6268645
751.0447288
743.7192841
744.1804478
740.6905023
737.8750593
336.0129904
342.4454709
349.9393763
369.8792732
388.7665012
394.6444494
410.2217117
416.6087788
442.7987785
469.3298928
485.629081
507.1971959
543.1217104
562.8103036
591.2897547
615.6202131
635.9124758
660.3633115
677.0582632
699.5991415
717.7268213
722.9319501
726.95385
738.2146318
741.0111408
738.9886134
737.5427903
733.7888608
729.704813
323.5288641
327.344802
337.564203
339.7211911
348.7793179
361.484665
376.2280889
390.9344546
397.7525119
416.6036558
434.9140702
452.1216486
475.4352561
493.7628513
527.1453065
548.3823886
569.900598
595.8886608
623.2349042
640.4972802
660.6091865
684.2942821
696.2690234
710.178524
725.2492736
724.5521225
728.9692408
731.7927113
723.5534545
726.8470689
318.6528932
318.98549
327.4541484
334.7417774
341.2019088
347.9163716
353.879701
362.7125226
376.4877484
392.3455407
399.2367071
424.7508793
442.7071514
463.5942086
494.41007
509.5309277
528.979583
554.7353119
573.0916558
600.2603593
617.5170007
649.3761054
663.7075373
685.6662398
700.8798323
704.7204601
720.3135798
722.5181075
719.6166578
713.3393527
316.8518706
319.5565714
317.3801594
322.2385777
328.0986459
335.6277537
341.1496804
347.0968885
361.0595339
372.1904163
383.2492734
395.4638649
403.172286
417.9070079
449.6230768
465.2410629
492.1525595
516.3846534
534.968301
560.4819161
587.6112651
616.0818885
626.6550299
660.4290423
675.9276352
685.0671205
697.0781938
711.6991422
717.8273829
713.0892987
311.4630724
313.3151281
320.9954534
317.597468
319.749034
327.5245545
332.4786625
335.6298045
348.6098887
357.3682765
368.7663128
373.5447417
386.1458713
396.1533872
413.3020613
434.7858502
451.3953706
480.5030223
501.1220089
531.5680296
542.1199714
582.9648104
604.5689134
617.3061502
648.1758839
671.8553262
681.537872
698.1424727
701.6107143
709.9670093
310.2897948
312.0459652
310.5293538
316.3661556
322.0273722
326.0696379
331.3332157
332.3107138
340.8959647
342.5305784
353.0664485
358.9039041
362.0516566
375.6105886
388.0539168
399.7307164
417.5198904
443.2099833
463.9974373
479.7868629
505.1511648
529.0730558
566.2170857
581.4884053
601.3431128
629.6372757
647.3518759
663.765974
682.7626843
688.4248223
309.5803545
311.8996668
310.846861
314.4411884
315.2097534
319.2417424
319.9910046
326.8521147
329.9982912
333.4635889
340.485586
348.8900122
351.8340875
366.9183066
379.0999531
395.1424318
406.1776985
421.2911725
433.2620753
455.8255031
468.4963395
483.5623698
514.8238214
539.4008624
562.338695
585.187902
615.1130633
629.5261002
654.219894
664.9670266
304.33334
302.6911666
303.4853415
308.623658
309.1118729
313.5241866
315.8468909
323.2220329
324.0143439
325.7305218
332.6640121
342.7242882
346.3844908
347.1799578
354.6324496
370.9224997
377.6054023
392.1605289
412.3669514
427.972486
441.775988
454.100365
483.4354871
503.3615532
526.7058693
552.5472171
577.0490503
601.7166037
619.4491336
642.9323156
304.3487
306.7301094
309.1054749
311.0959763
308.9667348
310.6863485
312.1784099
315.6045321
315.8296634
321.3481376
323.2247462
328.5627301
332.0290054
338.21998
348.9297278
361.3308902
366.5336684
374.3856124
384.6412003
395.8690371
418.4540525
431.1419928
449.190827
466.6815493
496.9316332
514.0706011
536.4904761
570.2491553
593.4014875
612.5104432
302.786308
301.612841
304.1566627
308.3792539
306.5106002
306.7054179
309.1220352
309.9470557
314.5337885
317.9465184
320.1852421
326.0840983
323.3534637
328.3829524
331.9680746
347.4277523
351.9686444
363.3270203
369.0765703
381.7131128
386.7194814
403.7916746
421.6601032
441.5864957
455.0590164
472.994373
495.7509124
525.2253557
548.5313295
578.5605538
301.444975
300.7976596
300.4653747
299.2889778
302.2107557
302.9991324
308.545328
309.9654808
310.5439033
312.5349409
317.1851125
316.2174584
326.4825149
327.1079197
328.5056232
334.8062148
340.7123837
349.3649232
356.7817066
364.20904
372.3543002
389.8227928
398.5127214
423.1993474
433.1344547
449.9045415
472.1220586
500.942373
520.0498239
542.0673317
302.4516574
301.5422225
302.0528233
300.7404353
303.8758513
303.7723433
304.5231811
302.9753726
304.2818982
309.72366
313.165323
314.2452396
318.2595432
316.8047313
325.0798764
329.7746651
335.3445467
341.7973287
347.1194124
352.2660736
367.0327094
372.5010582
387.3581018
399.474933
400.2260819
418.8234533
434.8862461
451.9093847
487.6081543
509.4139746
304.7062409
303.4167005
304.5657643
301.7289198
302.3461482
302.8024919
303.6546065
302.9006973
305.8710827
306.8631013
310.4079224
311.8144629
316.5147789
314.2348157
316.3727403
320.576199
325.9398848
328.0121486
333.9154101
339.1138423
345.2942957
351.15768
360.2809713
375.4308329
383.5471526
397.2652912
414.1865397
435.9397814
449.2084514
473.3505275
300.1038616
301.8830403
303.6929781
304.7598664
302.0093832
301.1529357
302.5322976
303.1858358
300.9704692
303.5785998
304.3299122
305.3275789
308.5225705
313.3623949
314.2891235
315.6125018
321.4359557
325.8422791
329.0653462
330.6642993
332.5188464
343.4369963
348.8708096
358.4231629
377.7661987
380.5946075
394.4184109
407.1899873
418.6766464
440.8523931
296.0772866
294.6291596
295.908002
299.8883794
304.0752229
303.0898287
302.5375083
305.3615652
304.9766389
302.1608543
305.6076007
304.822613
306.2093394
307.2554915
310.9275333
310.9080024
313.1821622
320.1442802
321.6946558
324.2292117
326.1652336
332.5349223
339.6443221
352.6617479
357.7954865
375.3480268
376.8548959
386.9120874
403.5030302
409.0412721
300.4593563
299.7053312
299.5282656
302.2123154
301.2297557
301.6447156
300.6132433
298.2506556
301.1236398
302.0946363
304.3676603
303.295758
303.3950577
303.8336928
309.044408
311.0610419
313.3211861
309.3179201
316.5334487
318.1936865
323.0186019
323.2446578
327.5107908
335.8610286
343.6179074
356.9891623
366.5595483
373.1238633
389.9352097
399.1706142
300.9146325
301.0131593
300.087717
298.5466221
297.563466
296.1074265
298.2317973
299.9175689
301.0674013
301.5243935
301.4282718
302.2936103
299.6178815
302.6770583
306.2117041
305.5894967
309.7454183
310.9787675
310.7711242
314.186633
316.8702351
319.9432151
323.5147465
325.3825769
330.1442338
339.0515669
343.7322064
359.4079011
362.5986399
379.0560129
301.8868573
301.7053419
299.9560961
300.1354716
302.8352897
300.7391591
300.8452142
302.5919867
299.3629356
300.6721545
300.3363088
304.5309588
307.2045425
305.0714942
305.4278826
306.8251129
309.7610226
307.846862
306.1604125
312.4402693
314.7251187
319.5016881
318.7943642
322.7510154
325.9510039
335.277788
341.2383754
347.6071046
356.0020672
366.8534093
300.5662782
301.6328102
302.0581505
301.7371247
303.5991113
303.7868122
301.3859499
300.7466746
301.8873242
300.3749272
300.4856263
302.5783636
302.6138534
302.8893385
305.6569376
302.2437297
302.7769675
305.9925244
306.9509058
306.2076364
312.5319503
312.0615453
314.3615492
316.2293456
322.1764022
326.8886572
332.7681787
337.3584124
346.4722351
355.5825646
298.0130077
301.3757821
303.6205156
300.2356619
298.1576886
298.0438213
299.6136144
299.8472051
299.8968693
300.2466054
301.6901675
301.7931957
302.8520052
300.3547283
301.6993642
305.2067118
303.3451721
307.1012187
302.6103849
302.5118865
304.0951241
312.8647055
313.8187656
313.4367618
318.2657691
315.3206479
319.0382728
331.7488842
331.6548844
341.7889957
)
;

boundaryField
{
    flow
    {
        type            calculated;
        value           nonuniform List<scalar> 
55
(
754.5075389
743.9153224
743.0420426
743.4380234
737.8750593
729.704813
726.8470689
713.3393527
713.0892987
709.9670093
688.4248223
664.9670266
642.9323156
612.5104432
578.5605538
542.0673317
509.4139746
473.3505275
440.8523931
409.0412721
399.1706142
379.0560129
366.8534093
355.5825646
341.7889957
298.0130077
301.3757821
303.6205156
300.2356619
298.1576886
298.0438213
299.6136144
299.8472051
299.8968693
300.2466054
301.6901675
301.7931957
302.8520052
300.3547283
301.6993642
305.2067118
303.3451721
307.1012187
302.6103849
302.5118865
304.0951241
312.8647055
313.8187656
313.4367618
318.2657691
315.3206479
319.0382728
331.7488842
331.6548844
341.7889957
)
;
    }
    obstacle
    {
        type            calculated;
        value           nonuniform List<scalar> 0();
    }
    frontAndBack
    {
        type            empty;
    }
    procBoundary3to1
    {
        type            processor;
        value           nonuniform List<scalar> 
36
(
758.2724721
768.5183505
763.8201249
767.9441368
759.6572527
759.6572527
768.5441825
762.4163875
772.135319
767.2971565
775.4883697
765.7952047
765.7952047
701.0309167
722.0195298
735.9441182
748.942041
750.287621
750.287621
505.5541634
522.6142616
560.3445609
586.8113662
603.8521232
630.6115052
630.6115052
351.5194077
356.8269981
366.4262401
392.5493055
414.4170681
417.4334939
432.1918017
432.1918017
333.42399
333.42399
)
;
    }
    procBoundary3to2
    {
        type            processor;
        value           nonuniform List<scalar> 
19
(
318.7101547
312.3944139
311.3515058
309.1282717
305.3167247
307.2802837
301.9435638
302.5884338
302.4493923
302.1218559
302.9863794
302.4726953
300.0906611
296.455181
296.510547
299.6490395
300.2184464
301.017775
297.2390117
)
;
    }
}


// ************************************************************************* //
