/*--------------------------------*- C++ -*----------------------------------*\
| =========                 |                                                 |
| \\      /  F ield         | OpenFOAM: The Open Source CFD Toolbox           |
|  \\    /   O peration     | Version:  2406                                  |
|   \\  /    A nd           | Website:  www.openfoam.com                      |
|    \\/     M anipulation  |                                                 |
\*---------------------------------------------------------------------------*/
FoamFile
{
    version     2.0;
    format      ascii;
    arch        "LSB;label=32;scalar=64";
    class       volVectorField;
    location    "0.006";
    object      UMean;
}
// * * * * * * * * * * * * * * * * * * * * * * * * * * * * * * * * * * * * * //

dimensions      [0 1 -1 0 0 0 0];

internalField   nonuniform List<vector> 
654
(
(1311.099509 413.6002098 -0.6530794695)
(1355.484977 433.9480144 1.769767195)
(1343.591359 436.7785541 3.855230514)
(1337.740509 429.9067102 2.184715688)
(1339.337211 425.2174063 3.623990379)
(1334.007309 417.8395374 2.85244463)
(1433.188214 375.5308516 2.009299934)
(1425.123427 385.9717169 -2.104608571)
(1411.600537 403.8004137 -7.822838526)
(1406.202678 413.8661668 -7.774600161)
(1389.499852 424.269308 -1.721307096)
(1374.558761 429.7078566 -7.106187141)
(1375.248898 428.5959921 -7.182978032)
(1369.718498 433.577704 -2.973198691)
(1363.952504 437.8052832 -1.998311367)
(1358.661665 429.4296082 1.749256795)
(1353.722163 423.851318 2.899191622)
(1556.400927 235.2934915 1.237844029)
(1538.515194 256.5126879 -2.947667993)
(1523.817298 283.0546206 -1.8661142)
(1503.134063 303.9735228 -5.3276527)
(1481.849351 322.7611043 -3.386337282)
(1461.877342 353.9220843 -4.743055743)
(1447.755424 365.3910072 0.2665262185)
(1437.106851 380.34775 -3.134784317)
(1424.410617 398.9017866 -4.102118357)
(1414.524238 411.141469 -2.956654071)
(1405.994197 423.4840708 0.1641225926)
(1390.793197 428.6148249 -2.974838984)
(1391.459098 428.5317094 -3.942830418)
(1383.302942 431.1725622 -0.2053286401)
(1376.010376 436.1786541 -3.55442709)
(1377.317996 430.8594986 -2.335909761)
(1668.754004 80.70815195 0.4249153374)
(1660.174013 92.67029922 -0.4856025407)
(1651.983489 108.6740456 -1.3638332)
(1633.598066 131.7517848 4.658398067)
(1627.578692 148.9275329 3.052409591)
(1609.488154 167.1210093 -3.973955744)
(1593.945892 189.1542151 -0.5466832999)
(1574.210109 216.846645 -3.179508085)
(1562.136025 235.7003186 -1.126861368)
(1540.695702 267.3506865 -2.087082442)
(1522.00561 290.0683378 -5.076613611)
(1499.014665 314.3904226 -0.8736211374)
(1482.726615 344.5805985 -4.631400211)
(1466.595223 357.80137 1.415414238)
(1451.327872 372.5698951 -2.146594665)
(1438.828436 389.558129 -2.632307452)
(1432.327854 406.6489287 -4.486264098)
(1417.126516 421.3645264 -3.521793643)
(1404.706619 423.7257776 -0.9971964297)
(1401.244207 429.4295409 -1.192553253)
(1394.301345 433.6068514 0.4044235869)
(1391.555504 432.1504257 1.685879774)
(1723.074378 15.39260636 6.807472272)
(1719.222709 19.23354132 5.960059134)
(1716.954536 25.82685189 5.633754956)
(1712.140906 28.17769762 4.446934846)
(1705.825193 36.80520414 2.397912164)
(1702.261329 43.43689889 2.155693859)
(1695.504399 53.8286459 3.488772662)
(1688.237071 59.29542056 2.229498393)
(1679.756309 73.95072849 -1.909389113)
(1668.913682 87.75433979 -3.235665888)
(1659.442772 101.7762411 -5.753319339)
(1647.98675 119.9854818 -1.52323249)
(1632.513407 139.4365329 0.7331020869)
(1621.532928 156.6483255 -1.414196414)
(1602.028229 178.1620563 -1.624478566)
(1584.234193 201.6695268 -3.561376807)
(1566.542455 225.0309897 0.2010102666)
(1550.646153 254.9107758 0.5935024228)
(1532.671514 275.592057 3.139999409)
(1510.346212 304.0266202 4.172773293)
(1495.731973 333.1454562 -2.622416573)
(1482.029973 347.2625264 2.024299995)
(1470.000361 367.4105759 -0.005771658699)
(1449.455241 383.5906816 -0.5156376738)
(1442.965782 397.0471797 0.5912802165)
(1433.391662 411.7812316 0.7053171103)
(1420.916637 418.9543046 -2.694682451)
(1416.948759 423.4400453 0.166169087)
(1407.041156 430.4791362 -0.8292790533)
(1730.207285 10.21479162 -1.709096018)
(1731.373475 15.81746192 -2.364330757)
(1724.67406 16.33957676 1.132420106)
(1724.238623 16.90326629 0.0265823308)
(1720.343702 20.73531629 0.491632243)
(1714.410737 26.63432757 2.817824764)
(1709.570036 34.9781348 2.82654614)
(1705.41821 44.52377281 -0.8197902985)
(1702.274842 49.82759593 0.1053613408)
(1691.642246 53.72352931 0.8797484494)
(1683.090678 65.14896002 0.5043320949)
(1676.155555 78.10302181 1.449376489)
(1665.150719 93.18298906 0.6903505633)
(1655.87757 106.1222732 4.562084507)
(1638.529158 126.9924931 8.132170805)
(1629.114442 146.6681437 6.174946825)
(1615.880894 167.9015367 3.757018311)
(1602.615595 191.2975017 2.206246598)
(1582.484435 219.0154658 -2.341291441)
(1566.646999 242.8241674 -6.987191501)
(1544.24422 265.8988507 -3.537659907)
(1527.296688 292.953419 -3.06826782)
(1509.449244 319.4966403 -1.519730318)
(1493.267628 334.9887222 5.892182182)
(1478.264251 355.5685949 1.610915797)
(1462.910552 375.8402633 -2.323191184)
(1452.969859 391.8292416 -0.1790959277)
(1444.695006 405.8596835 -4.121926631)
(1435.922511 416.1837914 -7.357926668)
(1429.737604 423.8723077 -3.664093245)
(1731.57948 9.674281276 1.80764837)
(1732.638581 6.324476827 1.17490785)
(1731.063289 12.01289499 1.97005822)
(1726.82976 14.73408287 1.691996261)
(1725.301006 17.75944275 -0.7840391229)
(1721.073207 20.59989179 1.236764534)
(1715.854221 22.98352169 2.243296355)
(1713.719205 24.31163529 2.829571548)
(1711.731594 33.76992944 1.684762483)
(1700.345593 44.57741003 0.002835720493)
(1695.898168 50.74950333 -0.1191352346)
(1687.91821 62.00189077 -2.517801677)
(1681.880975 72.17156261 -3.214752339)
(1669.032807 87.57467398 -3.978370351)
(1653.765988 104.6853009 -4.056184151)
(1641.28572 121.0870238 -4.972407638)
(1632.483838 140.9169395 -1.976445979)
(1621.75915 164.4526961 -2.515823827)
(1606.700944 181.0511207 1.490981142)
(1593.084572 204.6589344 2.726879861)
(1582.900591 226.6828693 -0.2415804936)
(1558.513021 256.273157 -0.8198214803)
(1539.610477 282.153142 -4.843808503)
(1518.338759 304.8873334 -3.641445058)
(1502.927413 323.5708993 -0.04923238712)
(1492.189612 343.0546337 -0.4523199041)
(1476.220951 367.5847181 -0.6945640936)
(1461.54034 383.0915019 0.4556514993)
(1454.556402 395.8900781 -6.775521512)
(1446.194283 410.3163174 -7.777842003)
(1731.967876 9.863161369 2.356881678)
(1728.29299 9.475162186 2.230721809)
(1729.23284 7.654631714 0.2339892988)
(1727.341735 9.872738477 -2.669759721)
(1725.314782 12.29865848 -2.24888832)
(1724.993905 15.99072286 -4.660475936)
(1722.242847 21.63424268 -3.370976294)
(1716.877336 25.31386322 -2.097333945)
(1713.41391 27.46489034 -1.723493023)
(1710.162738 31.62936509 -1.143967955)
(1702.53923 35.10982898 -3.041212791)
(1695.170167 42.05170781 -1.693886227)
(1691.700441 54.7282785 -0.008872625058)
(1687.973168 69.69884279 -0.7211907574)
(1673.533572 86.45638864 -3.612595435)
(1668.882263 102.6814032 -1.63481983)
(1658.647529 118.194954 -1.223362198)
(1645.510901 134.4030439 -0.8577451805)
(1636.94869 155.7624166 -3.217232632)
(1619.026641 174.7564699 -1.296644995)
(1601.279493 195.3881398 -1.317648185)
(1589.433283 219.8054836 -1.166343828)
(1579.856294 233.7076166 -0.03484393467)
(1550.507062 267.1709054 -5.881893436)
(1527.636583 295.8410011 -2.883203639)
(1518.474003 317.5303462 0.8101255494)
(1499.738072 339.757354 -1.674969965)
(1486.108685 363.8091489 3.223874436)
(1469.360802 379.9688639 4.900696774)
(1467.010691 390.5392478 -0.5604442651)
(1733.438043 3.414963303 -1.146611134)
(1729.98602 5.326766814 -1.175359379)
(1729.817462 8.917158572 -2.388050485)
(1726.408148 11.30374156 -1.611031437)
(1727.588092 15.40844191 1.112137408)
(1724.921082 15.50660803 -0.4382668767)
(1723.930993 15.32872209 -3.504169531)
(1724.313709 15.96956866 -2.823187451)
(1718.603404 21.30486763 -1.420973863)
(1717.414907 23.72876499 -1.466086035)
(1712.882506 32.2521621 -0.5732734594)
(1711.731321 39.15265806 -4.159311421)
(1702.825266 47.07377633 -1.535439092)
(1696.686832 54.32902119 0.5014538252)
(1692.379575 62.73016044 0.4336328098)
(1683.160368 76.00792473 -3.357382157)
(1670.726263 91.75492169 -2.516464058)
(1661.112217 113.5880621 -2.58117024)
(1652.013502 123.91512 -3.253878749)
(1639.503056 144.7732143 -3.799035866)
(1631.475474 158.4607801 -4.467178015)
(1602.966947 186.4874642 -0.880471947)
(1588.765018 211.3557875 0.1999694815)
(1580.967173 229.7813672 1.198283362)
(1558.131086 256.0918997 0.5909692913)
(1539.105344 288.2897456 -4.485369593)
(1525.818128 305.9728523 -4.004174879)
(1504.95755 324.1885276 -2.686072122)
(1496.002365 343.4700648 2.982839369)
(1481.35301 368.7038159 2.491549413)
(1728.536606 -2.389920503 0.3747530665)
(1729.840341 -1.0539584 -0.996123944)
(1729.749761 3.928884098 1.314218941)
(1730.343074 6.404429929 1.991912624)
(1726.634118 7.674317674 3.298080792)
(1724.690782 10.24112419 3.508368132)
(1723.710444 12.03176977 4.09730997)
(1726.39965 16.52870138 0.886212674)
(1721.629478 18.54590495 2.30524774)
(1720.791524 21.46528621 3.076666935)
(1715.646676 28.15285812 2.883138232)
(1712.544887 31.7095388 3.982546108)
(1713.017111 35.80369375 0.7968671417)
(1705.899891 43.80282841 -1.792011085)
(1700.126694 52.80195414 -2.342972597)
(1694.529687 61.91065314 -2.551359427)
(1688.181739 72.06302339 -1.542494366)
(1675.26378 82.17558651 1.176713046)
(1664.941867 99.09464532 0.5802472637)
(1653.50467 116.3860785 -0.5683617484)
(1641.97701 136.5786656 -0.4193701605)
(1630.906058 152.7256343 -2.177313071)
(1613.773755 178.8882732 -4.168903651)
(1603.655382 195.7583076 -3.261859881)
(1591.309149 218.4152737 -5.67220421)
(1568.525365 241.1926018 -2.373268845)
(1552.80479 268.5524875 0.1324810794)
(1538.555728 298.4473843 -2.120089659)
(1523.519326 327.9622658 -0.7880517319)
(1507.593398 340.812672 1.519845515)
(1735.512935 3.038503543 1.462238065)
(1734.314938 4.745350439 0.740580178)
(1733.922002 2.363477448 -0.007951617284)
(1734.198463 1.472672111 0.2760616401)
(1731.616051 3.920840997 -1.760053095)
(1733.414185 5.574059673 -0.6999332175)
(1731.732921 9.252744869 1.268272051)
(1725.921559 12.84790111 2.962755272)
(1724.253612 16.86094477 -0.2758405928)
(1722.66276 19.35632755 -1.557731249)
(1720.958362 22.92019245 -1.063486037)
(1714.604275 31.06767244 -0.8903545986)
(1712.914394 34.52982254 4.031971775)
(1713.238309 39.03247331 2.167482831)
(1707.103392 40.33388767 0.4607321288)
(1704.292855 44.16055009 0.2157406577)
(1698.62039 54.57899116 2.671972921)
(1690.364365 66.65662872 -1.572507401)
(1682.448193 77.79359531 -0.02419352695)
(1672.745183 92.98845777 -1.822670868)
(1670.313431 103.1651567 -5.008173932)
(1662.710673 119.5964223 -6.191533361)
(1644.993819 137.7505279 -4.937359394)
(1629.623097 159.2572579 -5.670992479)
(1611.39408 179.8798822 -7.381808009)
(1598.873588 211.9336833 -6.357244552)
(1584.732527 244.8320096 -6.929055175)
(1563.622168 266.8897054 0.3101933509)
(1543.387448 289.3217091 -3.269081873)
(1529.232172 308.2226986 -5.271888963)
(1733.859194 2.534055835 -5.503207484)
(1734.003037 3.076883316 -3.734213239)
(1734.007806 3.131871926 -2.068822397)
(1731.924148 0.945167897 -0.585231949)
(1731.904688 1.748168876 -0.2100980803)
(1731.952883 6.426199606 0.2415166683)
(1731.447377 7.311944421 -1.041908098)
(1725.658348 10.61013913 0.3422963272)
(1725.56436 14.34442736 0.1321445764)
(1728.590407 21.18695513 1.454942142)
(1725.641361 23.01482902 1.319917915)
(1721.186874 24.60513881 -1.243599964)
(1718.336396 26.8030872 -2.489402803)
(1717.317623 27.57907743 -3.399240635)
(1716.100831 35.1345515 -3.729140473)
(1708.322228 42.90136465 -2.707120144)
(1704.816135 44.5563748 -7.288906312)
(1700.375636 49.75217565 -1.178677369)
(1693.394772 55.95801708 -6.402931453)
(1685.376037 71.37367755 -2.066110373)
(1675.922629 80.54979799 -1.00632343)
(1670.612791 93.58780336 -0.9743168419)
(1661.020056 113.8737763 -1.20914511)
(1653.347799 136.5585651 -1.317550754)
(1640.898676 155.9446165 -2.175530577)
(1622.127876 177.251261 -1.995704248)
(1601.255739 202.9531862 -1.639098076)
(1591.442467 228.0931514 -2.659559393)
(1576.288352 247.874543 -5.124051601)
(1555.997006 273.2365538 -4.284826698)
(1735.4808 -2.013303457 -1.26779141)
(1735.595875 -0.9428342122 -1.997852334)
(1735.927127 1.610388284 -4.271417108)
(1732.210008 5.005779477 -6.911187595)
(1730.482747 6.292692186 -5.779159971)
(1730.241749 4.223932607 -5.648618897)
(1732.311745 7.006664271 -3.358199282)
(1730.628683 8.495018343 -7.002942294)
(1731.238579 12.55438546 -5.691808396)
(1728.164082 11.7910836 -4.21979242)
(1727.164096 13.65761966 -3.793947222)
(1727.468421 13.5526427 -2.701321275)
(1727.195524 19.15847024 -2.296324524)
(1723.494089 24.68196345 3.400598684)
(1719.223571 29.37680695 4.38523895)
(1717.684991 31.31850901 2.666323468)
(1713.937021 33.74960777 2.40014755)
(1710.590602 36.49799481 -0.1123200721)
(1705.273003 47.16593394 0.4475094837)
(1699.808198 54.17860753 3.073302785)
(1690.573458 68.42688126 0.9671814515)
(1682.452377 78.93273828 -0.1311400104)
(1670.62644 93.2243532 0.08845710895)
(1660.416652 110.6825095 0.3255991581)
(1647.978234 126.7427136 1.732331464)
(1640.932536 141.2862883 -1.514821553)
(1632.241509 165.2292887 -1.074869319)
(1611.527991 188.5991247 -6.121417307)
(1593.386495 213.7535903 -0.008817947194)
(1578.713648 241.9736568 2.075148791)
(1732.770099 -0.8690232693 -2.920444886)
(1733.59998 0.4959464557 -4.569653988)
(1731.703148 1.005860276 -2.326302328)
(1729.519708 1.846856065 -2.886576773)
(1732.739045 4.728113631 -0.7576383552)
(1731.523524 6.504203302 -0.5567972523)
(1728.904631 5.128813358 -2.67872873)
(1730.727187 5.330969805 0.7319192651)
(1731.575402 4.387131131 0.6431971421)
(1731.283494 5.723145393 -1.377697304)
(1730.545845 9.85476954 -0.8586260144)
(1728.220317 13.95949804 1.889453151)
(1729.022414 9.621419067 0.1578746372)
(1728.912946 8.026142678 -3.515256163)
(1722.153969 14.29777386 -1.395577408)
(1717.933142 24.23988992 -2.4078373)
(1713.206614 28.69910028 -2.269885355)
(1709.637918 36.11803244 1.618065561)
(1706.922551 37.94897848 2.006564767)
(1701.570036 42.80951224 -0.7389152165)
(1698.916701 50.50289464 1.357544721)
(1692.305989 65.82648632 -2.224876857)
(1684.043895 78.59388864 1.028092887)
(1675.44287 85.26705306 4.371205519)
(1667.105147 101.5331703 4.941764439)
(1658.382648 117.0965283 7.82585409)
(1646.003838 135.760254 5.356056771)
(1630.217854 157.143741 5.415016272)
(1617.583771 180.6050499 4.662175457)
(1603.453633 207.6075454 3.254752182)
(1730.944652 3.469559394 -1.57722364)
(1735.856425 1.482303389 0.164731737)
(1736.460748 1.299327441 1.420410261)
(1736.74767 1.213381758 1.968882704)
(1735.042173 0.2185724651 0.04421573786)
(1735.455206 1.396788549 -1.915625937)
(1730.897714 2.223944603 -0.1106086005)
(1729.869349 2.968977076 0.006556753564)
(1729.287402 4.251969264 -3.153377949)
(1728.644511 6.675076003 -3.680107853)
(1727.937817 3.174470759 -3.077801915)
(1729.637569 4.351788944 -4.331316416)
(1726.460718 11.3739174 -2.833324465)
(1726.629595 11.76681387 -1.584396174)
(1723.840957 11.16071345 -1.216094365)
(1719.130701 11.0181181 -1.28082782)
(1720.925141 15.16256678 1.411224769)
(1714.982656 24.84713596 -1.839584395)
(1714.638784 33.96167697 -0.8906600866)
(1712.24487 43.96227094 3.276488017)
(1707.795378 44.90758182 3.52943386)
(1700.812038 49.21169407 5.169961514)
(1695.046707 53.43774901 1.013996096)
(1683.081422 67.6134389 0.4281342183)
(1677.242412 75.84313172 -0.104246548)
(1666.708484 89.72656008 -1.790159294)
(1659.296294 108.6435061 0.503032472)
(1646.021195 131.3641208 1.20652297)
(1635.563723 152.6301062 2.577216378)
(1624.136963 178.0975163 2.683313553)
(1735.326332 2.786066154 5.000293168)
(1731.982218 3.336666513 3.891821403)
(1734.754269 3.185961331 4.100517241)
(1734.165651 -0.6653743796 0.4082141929)
(1733.71881 -1.382078958 -0.03774210485)
(1735.745634 -2.84526668 0.9145486656)
(1734.608469 -3.411079412 -1.277537222)
(1733.795397 -0.2697345574 -0.9924050151)
(1732.882156 0.2790117252 0.3003827122)
(1732.094659 2.350211591 -1.276934263)
(1729.724506 5.30100929 -2.675667698)
(1727.936513 4.888648258 -3.694353263)
(1727.328214 5.153275308 -1.703498131)
(1724.070154 8.632320214 -2.60160195)
(1724.893719 14.31114723 -3.66197996)
(1720.564627 20.06070789 -4.22452539)
(1722.970623 21.92781549 -1.680500495)
(1722.300866 24.30662351 -0.06082554126)
(1716.210032 21.8893729 -1.18756968)
(1717.053733 24.46578993 -4.474255228)
(1713.492435 33.50382246 -5.109049068)
(1709.65463 39.73238432 -3.332479597)
(1704.454366 47.75396678 1.184593929)
(1697.668187 53.26905225 0.1720212234)
(1695.672986 60.55687028 2.304780056)
(1692.079492 76.582354 -1.292799809)
(1678.505717 87.04887407 -2.905702894)
(1673.052024 100.8009756 -2.248206935)
(1654.381734 125.7109365 -2.733165703)
(1640.230777 142.4838843 -2.992730302)
(1735.135372 5.529647419 -5.314134041)
(1731.578953 3.377868492 -4.854895739)
(1732.304616 2.612065102 -3.70511665)
(1733.500488 3.401948001 -5.275440225)
(1734.638103 1.542635885 -2.953872595)
(1736.030799 1.020465241 -2.439472168)
(1736.415181 2.36328905 -1.288113977)
(1737.061824 -2.348842516 -1.960263071)
(1734.147121 -1.70303244 -1.705820784)
(1732.759801 -0.7210756071 -0.5652076159)
(1730.274868 1.969906115 1.163142483)
(1731.845889 6.347306853 1.840099439)
(1729.266053 10.5933084 0.4872779041)
(1731.523893 8.811109104 -1.841483474)
(1732.076043 9.913009007 -3.791998703)
(1730.764354 7.632802066 -3.492326666)
(1726.729377 11.47906345 -3.869476311)
(1721.519013 14.57125059 -3.910756204)
(1721.86916 21.03588108 -3.031695118)
(1720.41013 21.7103154 -2.727762063)
(1716.463774 23.42603107 -3.196915457)
(1715.241756 28.75247052 -5.883153018)
(1713.891054 37.78273998 -7.32635318)
(1709.400278 50.80860647 -7.278858303)
(1705.449953 55.87175846 -6.217618631)
(1701.827902 60.97057391 -3.943590702)
(1694.380142 73.13562435 -2.401942276)
(1682.852273 85.6156122 -2.314879737)
(1675.734926 98.97887135 0.01645682841)
(1659.419111 117.9111806 0.9818488221)
(1735.396814 -1.148379138 -4.3371265)
(1736.543378 0.65028354 -2.385968079)
(1736.160337 2.317814498 -3.332527458)
(1735.588875 4.67428158 -3.082303097)
(1736.344026 6.034454019 -4.272517253)
(1735.366119 9.05320993 -3.592733526)
(1731.115961 5.676603214 -2.589275935)
(1730.974724 5.135100149 -3.744725353)
(1731.418315 5.040972018 -1.188716991)
(1731.938302 3.188140481 0.9133448715)
(1731.256406 5.283528772 1.436503452)
(1730.811856 0.8120490665 0.7084570015)
(1731.937267 4.070911685 1.225750646)
(1729.002791 7.460922492 1.123556598)
(1728.458948 3.992346023 2.148072771)
(1728.804099 7.888372073 1.934099135)
(1727.940365 11.50082874 2.470444008)
(1727.039938 10.26449021 -2.17670648)
(1723.491682 10.02255448 -2.822492525)
(1719.920694 15.0204152 -1.100714503)
(1718.625186 23.32930694 -1.864102476)
(1718.79232 28.28125072 -3.315543071)
(1713.108664 33.1887684 -5.635061855)
(1712.453136 34.74454848 -4.915824502)
(1707.21927 47.42022027 -3.777775398)
(1701.666771 48.65419981 -3.48313806)
(1698.207224 57.98687962 0.1267236356)
(1693.546043 70.15329549 -0.0802736408)
(1689.733367 80.56298604 0.280863455)
(1680.463173 100.6238104 -2.236577971)
(1731.880989 -1.744222861 2.283839673)
(1734.412479 1.549725436 1.321250926)
(1730.925969 3.523168901 0.3005782967)
(1727.902191 1.469112852 0.2930531896)
(1727.708752 -1.494295205 -0.2331895082)
(1727.249645 0.4756222663 0.6965399549)
(1729.572402 4.791081931 0.3389359584)
(1730.632406 4.766650746 0.4621036069)
(1730.344874 4.157720807 -1.508525927)
(1729.784768 2.473978972 2.256710073)
(1729.324197 5.833704729 0.2415981605)
(1728.413156 5.522401918 0.07364770572)
(1728.00863 2.465487484 1.829917269)
(1730.162675 4.815380435 2.692850579)
(1730.82638 5.41696284 2.097940126)
(1729.266528 7.934212798 1.0627867)
(1730.221033 5.807755669 0.6725114974)
(1726.379083 10.62020543 2.692941699)
(1726.747034 14.71703503 4.92950595)
(1730.41932 12.17913752 4.817059036)
(1729.046255 12.37853913 5.215932666)
(1722.569289 14.89562806 10.03861775)
(1721.50761 20.89015987 9.925936001)
(1713.611095 27.9617299 5.528335348)
(1707.60576 32.55355058 2.403589823)
(1702.7915 47.28883363 3.176917831)
(1702.531448 50.12852257 1.325479211)
(1697.374968 55.66576191 2.218712803)
(1692.799982 67.23759115 1.135194556)
(1689.754397 71.05533293 2.779992451)
(1738.497599 0.8425321851 -0.6055498886)
(1733.198827 -3.500359014 -0.4618998376)
(1731.728711 -4.918654577 -0.7214465286)
(1729.510771 -1.955428158 -0.876790743)
(1731.680734 1.319728156 -1.86311626)
(1729.138175 1.787919811 -0.5157227301)
(1728.961114 -0.09795174196 -0.1248658458)
(1730.21853 3.594760781 0.9558008034)
(1732.396382 2.89295864 -0.5891047004)
(1730.238948 3.703662706 -2.585457641)
(1732.102146 2.116434589 -1.39947079)
(1735.309821 0.7314850608 2.253212291)
(1732.822625 3.387092262 -0.4444666466)
(1729.118113 2.472305529 1.435976003)
(1727.157739 4.986825689 0.1340547643)
(1727.762268 5.374347235 0.8545827589)
(1730.181872 7.123405556 2.525635814)
(1727.830459 4.9979144 2.060018744)
(1726.711906 8.360478943 0.3233903427)
(1725.331141 9.924031674 2.043222588)
(1724.445706 15.07326883 1.768935795)
(1721.452846 14.95172215 -0.1974527316)
(1719.057568 19.78325548 1.449974158)
(1717.810891 24.41578377 1.249491625)
(1716.952885 25.97867862 3.150504811)
(1712.802328 29.76164911 3.479145007)
(1710.070924 40.69805669 0.9108093052)
(1710.196698 45.65839697 -2.118035085)
(1699.365421 53.29184615 0.5954239815)
(1693.141223 59.00686821 0.7039576103)
(1733.183585 4.143907472 -0.3738921098)
(1734.649169 3.859135764 0.158610924)
(1738.80718 2.653085926 2.461641077)
(1738.679725 0.8861495895 3.76769664)
(1736.678763 -0.7208062127 3.727152475)
(1738.748161 -2.538208861 5.760349548)
(1735.343781 -2.450478423 2.625810911)
(1733.374156 -2.686463643 2.09151081)
(1733.277096 2.199468152 1.21760903)
(1731.808573 1.408755882 2.078356993)
(1732.138198 1.712046564 0.6391848633)
(1727.449477 4.841922031 0.95060553)
(1726.19244 3.138262485 -0.8139205003)
(1726.734935 3.742358406 -1.732867408)
(1726.650844 2.707134204 1.559366394)
(1727.87378 2.015950563 1.152017028)
(1728.704196 4.023334478 1.751324254)
(1731.263811 5.996122532 5.241645957)
(1731.201258 4.837528443 3.047935178)
(1727.491718 13.28059771 0.8080631566)
(1724.023458 13.80272576 0.7855660841)
(1727.642361 12.18939287 1.741219857)
(1726.897757 13.93016436 0.1197112467)
(1725.260816 16.70848659 0.7533887042)
(1722.301467 20.02200225 2.294910372)
(1717.541044 23.62916051 3.171879413)
(1713.887497 27.7127735 -0.8292486746)
(1707.537356 35.36388569 0.6724377351)
(1704.092361 37.51912062 1.427397781)
(1699.288438 48.78533223 -1.521826587)
(1730.948001 1.381103279 -2.483407166)
(1732.070718 0.3232023698 -2.853313069)
(1730.216226 -0.2206838128 -3.537290776)
(1731.549713 1.698944758 -2.442100491)
(1732.13779 1.341702202 -2.037260741)
(1732.058102 2.053998522 -3.206237117)
(1733.367941 1.396509788 -1.081668162)
(1735.141653 0.4151247882 -1.224657636)
(1733.495834 -3.360304439 -0.2839186673)
(1736.393465 -2.998718694 -0.3393199917)
(1735.678025 -2.151355483 -0.3234520961)
(1735.854301 1.369277022 1.806787246)
(1736.657036 2.487551698 3.842807687)
(1741.291473 3.894854281 1.668413186)
(1738.895129 2.534819023 2.791352646)
(1735.102934 5.549190641 2.57069192)
(1732.88494 9.965303981 0.4661634413)
(1731.808966 7.747804479 -2.144867587)
(1731.057533 5.766943828 -1.941519268)
(1731.576548 2.629776265 -3.75818814)
(1733.931703 3.089448588 -1.228993854)
(1729.695975 7.137525237 0.1355516152)
(1729.275128 5.752017349 0.9561887571)
(1727.689248 9.623546184 -1.599152739)
(1727.120981 13.42772483 -0.5234445396)
(1720.518143 20.59959661 -0.9600326212)
(1718.258916 24.6202086 3.754599554)
(1715.992357 27.98728864 0.5250848863)
(1710.231152 37.58726006 0.275980678)
(1706.228015 39.39667579 5.999559408)
(1737.56494 0.8517492729 -0.2252647756)
(1736.827281 1.449278678 3.305964602)
(1738.248598 0.918611947 0.6429547083)
(1736.620765 0.1057774753 0.4569759708)
(1736.986346 -0.1936365026 -0.1273023558)
(1736.194937 0.2903101487 0.83543538)
(1737.554411 -1.866253481 -1.156590447)
(1739.734431 0.2281900213 -1.449626521)
(1740.99838 1.842145409 -0.6916769512)
(1740.261455 4.979835983 -1.691557148)
(1738.586013 4.099183571 -3.012537781)
(1738.621299 2.056916738 -3.163084564)
(1738.251688 -1.087960112 -4.235933312)
(1737.831142 0.2916526581 -4.700213906)
(1736.830704 2.909226776 -4.48670781)
(1738.466374 0.01349650649 -3.948680355)
(1736.427404 -2.249916215 -0.9599847835)
(1733.710512 1.65737989 -0.1103389156)
(1733.134769 3.282453559 0.702464062)
(1733.923 9.003221863 0.71425491)
(1730.520922 9.985622317 0.3862671931)
(1729.668955 13.11731154 -0.7402565069)
(1729.992209 13.06655094 1.094499112)
(1729.697598 11.00886688 0.96792783)
(1729.145304 12.33962554 0.768355341)
(1725.900804 11.78283544 3.206245429)
(1721.754066 15.64266257 2.222683061)
(1716.479434 20.45051049 3.692466025)
(1715.070899 26.19362157 0.6329167901)
(1713.528092 35.3292088 -0.8338622954)
(1736.634896 3.243519611 2.915607185)
(1737.498103 2.817967289 1.049858355)
(1737.353149 5.034940271 2.839747598)
(1737.28595 5.268803669 1.102413237)
(1739.686452 2.781337176 0.05286003995)
(1739.449679 6.609065799 -0.9345447859)
(1739.489514 7.606094104 0.017147113)
(1735.449983 8.813141401 1.92005063)
(1738.177059 9.551988468 1.434541191)
(1738.129569 8.287894945 1.368059571)
(1737.256965 5.913752965 2.530808628)
(1736.684113 5.933150066 1.585279223)
(1733.961178 6.26902171 1.085027981)
(1736.502656 9.209706664 2.614382944)
(1736.728094 8.842692751 0.3438152751)
(1735.686975 11.52900195 -0.4111051599)
(1735.858255 10.53691512 -4.752084581)
(1738.381514 11.42750834 -5.226823508)
(1738.262435 9.387709945 -2.027289968)
(1737.782874 8.182469663 -1.189620252)
(1735.860543 12.85248381 -1.651079966)
(1733.57516 14.66332134 -0.4802937112)
(1732.854071 18.6188446 -0.4008601965)
(1734.019476 13.14356001 1.734512255)
(1733.424732 16.36054829 0.04697051287)
(1732.941162 17.07894094 -0.2745815929)
(1732.013134 17.91595872 -3.031350738)
(1728.833795 24.79812619 -1.699881791)
(1729.222879 29.69231428 0.6586173851)
(1722.002796 34.46592911 1.404957044)
)
;

boundaryField
{
    flow
    {
        type            calculated;
        value           nonuniform List<vector> 
55
(
(1311.099509 413.6002098 -0.6530794695)
(1334.007309 417.8395374 2.85244463)
(1353.722163 423.851318 2.899191622)
(1377.317996 430.8594986 -2.335909761)
(1391.555504 432.1504257 1.685879774)
(1407.041156 430.4791362 -0.8292790533)
(1429.737604 423.8723077 -3.664093245)
(1446.194283 410.3163174 -7.777842003)
(1467.010691 390.5392478 -0.5604442651)
(1481.35301 368.7038159 2.491549413)
(1507.593398 340.812672 1.519845515)
(1529.232172 308.2226986 -5.271888963)
(1555.997006 273.2365538 -4.284826698)
(1578.713648 241.9736568 2.075148791)
(1603.453633 207.6075454 3.254752182)
(1624.136963 178.0975163 2.683313553)
(1640.230777 142.4838843 -2.992730302)
(1659.419111 117.9111806 0.9818488221)
(1680.463173 100.6238104 -2.236577971)
(1689.754397 71.05533293 2.779992451)
(1693.141223 59.00686821 0.7039576103)
(1699.288438 48.78533223 -1.521826587)
(1706.228015 39.39667579 5.999559408)
(1713.528092 35.3292088 -0.8338622954)
(1722.002796 34.46592911 1.404957044)
(1736.634896 3.243519611 2.915607185)
(1737.498103 2.817967289 1.049858355)
(1737.353149 5.034940271 2.839747598)
(1737.28595 5.268803669 1.102413237)
(1739.686452 2.781337176 0.05286003995)
(1739.449679 6.609065799 -0.9345447859)
(1739.489514 7.606094104 0.017147113)
(1735.449983 8.813141401 1.92005063)
(1738.177059 9.551988468 1.434541191)
(1738.129569 8.287894945 1.368059571)
(1737.256965 5.913752965 2.530808628)
(1736.684113 5.933150066 1.585279223)
(1733.961178 6.26902171 1.085027981)
(1736.502656 9.209706664 2.614382944)
(1736.728094 8.842692751 0.3438152751)
(1735.686975 11.52900195 -0.4111051599)
(1735.858255 10.53691512 -4.752084581)
(1738.381514 11.42750834 -5.226823508)
(1738.262435 9.387709945 -2.027289968)
(1737.782874 8.182469663 -1.189620252)
(1735.860543 12.85248381 -1.651079966)
(1733.57516 14.66332134 -0.4802937112)
(1732.854071 18.6188446 -0.4008601965)
(1734.019476 13.14356001 1.734512255)
(1733.424732 16.36054829 0.04697051287)
(1732.941162 17.07894094 -0.2745815929)
(1732.013134 17.91595872 -3.031350738)
(1728.833795 24.79812619 -1.699881791)
(1729.222879 29.69231428 0.6586173851)
(1722.002796 34.46592911 1.404957044)
)
;
    }
    obstacle
    {
        type            calculated;
        value           nonuniform List<vector> 0();
    }
    frontAndBack
    {
        type            empty;
    }
    procBoundary3to1
    {
        type            processor;
        value           nonuniform List<vector> 
36
(
(1296.941811 396.1856289 -2.126769106)
(1330.165518 431.2009015 6.055258521)
(1321.146174 426.524929 2.262967452)
(1318.010226 422.8021873 -0.1375230046)
(1313.022888 419.2878143 1.264316426)
(1313.022888 419.2878143 1.264316426)
(1412.447779 401.4640412 -0.8827110369)
(1399.83543 413.3799871 -4.145162406)
(1384.054975 416.2922836 -1.281182267)
(1375.881455 422.8264629 0.3734953253)
(1363.215653 432.4197071 0.0916603123)
(1363.076732 432.2178816 -2.025450904)
(1363.076732 432.2178816 -2.025450904)
(1524.337142 271.9905731 -5.889102648)
(1504.399024 294.9625999 -1.496968692)
(1489.902676 314.6354271 -5.478601723)
(1466.169945 341.5678412 -5.894664697)
(1452.577402 363.552834 1.850498043)
(1452.577402 363.552834 1.850498043)
(1646.217867 103.9335227 -1.108588305)
(1638.625306 115.4735621 -1.513254031)
(1623.381975 140.8542559 2.591372608)
(1606.720187 164.1659953 1.07573118)
(1593.71848 180.5982164 4.337408363)
(1574.729548 205.496317 4.316189995)
(1574.729548 205.496317 4.316189995)
(1720.673348 23.20902218 -4.148534841)
(1715.671452 30.43428403 -1.984874925)
(1708.089111 31.29951865 -3.687520296)
(1699.966392 44.34209871 -0.3407384113)
(1692.785142 54.88402036 2.010349398)
(1687.703479 58.19383524 0.0269845561)
(1678.972757 65.51635462 0.6769983281)