/*--------------------------------*- C++ -*----------------------------------*\
| =========                 |                                                 |
| \\      /  F ield         | OpenFOAM: The Open Source CFD Toolbox           |
|  \\    /   O peration     | Version:  2406                                  |
|   \\  /    A nd           | Website:  www.openfoam.com                      |
|    \\/     M anipulation  |                                                 |
\*---------------------------------------------------------------------------*/
FoamFile
{
    version     2.0;
    format      ascii;
    arch        "LSB;label=32;scalar=64";
    class       volScalarField;
    location    "0.007";
    object      dsmcRhoNMean;
}
// * * * * * * * * * * * * * * * * * * * * * * * * * * * * * * * * * * * * * //

dimensions      [0 -3 0 0 0 0 0];

internalField   nonuniform List<scalar> 
654
(
7.324857143
9.419142857
9.460571429
9.482857143
9.505142857
9.510285714
9.510571429
9.564857143
9.545428571
9.495428571
9.513142857
9.506285714
9.486285714
9.471428571
9.530571429
9.562857143
9.574571429
9.750285714
10.23885714
13.13085714
7.417428571
9.538571429
9.631714286
9.568285714
9.566
9.599142857
9.560857143
9.551714286
9.539428571
9.562571429
9.587142857
9.626285714
9.628
9.675142857
9.656857143
9.73
9.863142857
10.14285714
10.802
12.486
7.468857143
9.673714286
9.684571429
9.674
9.620285714
9.637428571
9.685714286
9.634857143
9.644
9.600571429
9.606
9.606571429
9.578285714
9.63
9.673142857
9.646857143
9.712857143
9.937714286
10.34942857
11.40457143
7.506571429
9.546285714
9.63
9.627714286
9.552857143
9.530857143
9.536571429
9.549142857
9.537714286
9.592857143
9.556
9.563428571
9.610285714
9.523142857
9.559142857
9.544285714
9.598571429
9.766
10.10285714
10.80142857
7.432857143
9.554857143
9.486
9.514
9.552285714
9.572
9.531714286
9.493142857
9.436
9.445714286
9.425428571
9.434
9.504285714
9.524571429
9.520285714
9.692857143
9.756857143
9.923714286
10.12
10.49028571
7.404
9.493142857
9.619714286
9.544285714
9.517714286
9.510857143
9.516285714
9.594
9.601142857
9.632285714
9.611714286
9.599142857
9.518857143
9.524
9.616
9.560857143
9.595142857
9.710857143
9.856285714
10.148
7.467714286
9.581428571
9.624285714
9.588571429
9.665428571
9.682
9.65
9.600857143
9.658571429
9.71
9.663142857
9.678571429
9.676857143
9.615428571
9.642571429
9.627142857
9.719142857
9.760571429
9.917428571
10.08914286
7.413714286
9.508571429
9.588285714
9.603714286
9.583428571
9.566571429
9.631142857
9.682
9.706
9.641428571
9.618571429
9.562
9.610571429
9.658
9.630571429
9.704
9.711428571
9.780571429
9.825142857
9.899714286
7.461142857
9.658285714
9.673714286
9.641428571
9.608285714
9.579714286
9.612571429
9.618857143
9.54
9.540285714
9.653428571
9.663428571
9.622
9.621142857
9.565428571
9.614
9.699142857
9.713714286
9.755142857
9.927428571
7.427714286
9.470571429
9.590285714
9.596285714
9.637142857
9.641142857
9.623428571
9.613142857
9.668857143
9.666857143
9.638571429
9.650285714
9.706571429
9.710857143
9.75
9.78
9.770571429
9.682285714
9.766571429
9.797714286
7.468571429
9.560285714
9.594857143
9.572
9.544857143
9.481714286
9.455714286
9.483428571
9.518
9.566285714
9.595428571
9.606
9.641428571
9.622
9.583714286
9.459714286
9.515714286
9.599714286
9.723714286
9.770857143
7.469714286
9.626285714
9.687428571
9.630857143
9.689428571
9.712571429
9.766857143
9.750285714
9.770857143
9.659428571
9.619714286
9.543142857
9.495714286
9.580285714
9.640571429
9.746571429
9.784857143
9.72
9.697142857
9.762
7.474571429
9.567428571
9.608
9.614
9.552
9.532285714
9.537142857
9.489428571
9.458
9.496857143
9.556
9.584571429
9.628857143
9.608571429
9.518857143
9.591428571
9.620571429
9.700285714
9.758857143
9.728
7.464285714
9.639428571
9.676857143
9.714571429
9.741142857
9.726
9.653142857
9.708571429
9.653428571
9.628
9.575142857
9.593142857
9.564571429
9.585142857
9.610571429
9.528
9.473428571
9.453142857
9.432571429
9.570857143
7.37
9.54
9.584285714
9.507714286
9.556571429
9.586857143
9.645714286
9.647714286
9.704
9.726
9.728285714
9.748
9.787142857
9.738571429
9.696857143
9.652571429
9.656571429
9.66
9.616
9.582857143
7.471142857
9.584857143
9.611714286
9.643714286
9.596285714
9.638857143
9.669428571
9.638857143
9.644571429
9.621714286
9.597142857
9.556571429
9.446
9.492285714
9.536571429
9.605714286
9.650571429
9.621142857
9.675142857
9.625428571
7.490285714
9.554571429
9.578571429
9.584857143
9.560285714
9.567714286
9.454285714
9.509714286
9.497714286
9.494571429
9.566571429
9.576571429
9.62
9.664571429
9.600857143
9.598
9.586
9.601714286
9.580285714
9.6
7.421714286
9.541142857
9.592
9.632
9.596
9.534285714
9.616571429
9.603714286
9.566
9.548285714
9.537714286
9.534857143
9.562
9.570285714
9.564285714
9.564
9.612285714
9.574571429
9.61
9.612857143
7.460857143
9.590857143
9.647714286
9.545714286
9.591428571
9.638
9.603714286
9.626
9.607142857
9.593714286
9.607714286
9.602857143
9.535714286
9.515428571
9.517142857
9.520285714
9.511714286
9.539428571
9.535142857
9.513714286
7.426571429
9.577142857
9.725142857
9.716
9.680571429
9.692571429
9.673714286
9.670285714
9.690857143
9.658285714
9.650285714
9.65
9.697142857
9.672571429
9.704571429
9.668
9.685142857
9.692571429
9.726857143
9.723714286
7.448
9.546285714
9.536571429
9.538571429
9.557428571
9.584
9.555714286
9.430571429
9.480285714
9.515142857
9.567142857
9.587428571
9.576571429
9.606857143
9.611714286
9.645428571
9.623714286
9.601428571
9.590571429
9.566857143
7.438571429
9.533428571
9.578
9.498
9.546857143
9.508857143
9.609714286
9.667714286
9.758
9.746285714
9.650285714
9.601714286
9.589714286
9.637428571
9.633714286
9.612285714
9.617428571
9.611142857
9.650571429
9.651142857
23.10771429
26.43714286
27.29971429
28.046
28.27028571
28.48742857
28.46342857
28.638
27.57942857
27.61657143
15.74942857
18.796
20.67
22.21514286
23.41828571
24.20342857
24.464
24.68371429
24.83685714
24.43628571
13.038
15.00485714
16.64057143
18.33428571
19.60085714
20.81628571
21.688
22.41142857
22.74885714
22.96571429
11.74942857
12.93885714
14.24857143
15.55542857
16.91028571
18.18685714
19.34028571
20.02085714
20.646
21.22285714
11.04057143
11.80828571
12.68657143
13.79057143
14.848
15.72885714
16.74
17.53742857
18.61542857
19.60171429
10.55257143
11.07428571
11.61142857
12.29857143
13.05171429
14.044
15.17457143
16.062
16.90542857
17.74828571
10.33885714
10.64828571
10.98914286
11.53314286
12.02171429
12.78257143
13.54828571
14.41771429
15.34885714
16.27085714
10.072
10.24314286
10.47828571
10.89228571
11.23685714
11.72257143
12.44228571
13.05914286
13.79714286
14.55028571
9.937142857
10.12
10.21
10.47571429
10.74114286
11.07914286
11.43314286
11.93285714
12.53657143
13.22342857
9.916857143
9.988571429
10.07828571
10.13428571
10.26971429
10.59114286
10.90485714
11.20628571
11.54342857
11.94485714
9.831142857
9.849142857
10.00657143
10.08257143
10.16828571
10.24142857
10.40685714
10.71028571
10.96771429
11.32742857
9.736571429
9.69
9.654571429
9.676857143
9.694
9.834571429
9.936571429
10.184
10.41457143
10.66685714
9.679714286
9.673714286
9.670285714
9.678571429
9.669428571
9.790857143
9.909428571
9.880285714
9.969428571
10.23342857
9.63
9.598571429
9.575714286
9.522285714
9.515142857
9.469142857
9.515714286
9.627714286
9.749428571
9.828857143
9.547428571
9.498285714
9.505428571
9.550285714
9.498285714
9.576
9.508
9.545714286
9.552571429
9.654285714
9.710571429
9.676857143
9.542857143
9.478
9.504
9.448285714
9.440857143
9.450285714
9.508571429
9.458
9.525428571
9.513142857
9.424
9.383428571
9.264571429
9.286857143
9.280571429
9.235142857
9.154285714
9.294
9.558285714
9.426571429
9.388
9.347428571
9.403714286
9.330857143
9.274
9.271142857
9.254
9.233714286
9.553428571
9.596571429
9.584
9.536285714
9.397428571
9.319142857
9.273142857
9.220857143
9.160285714
9.174571429
9.644857143
9.567428571
9.458571429
9.363714286
9.344
9.329714286
9.306857143
9.250857143
9.143428571
9.095142857
9.516285714
9.471428571
9.379142857
9.324857143
9.255428571
9.151714286
9.067714286
9.049714286
9.148571429
9.07
9.612
9.504571429
9.442285714
9.423714286
)
;

boundaryField
{
    flow
    {
        type            calculated;
        value           nonuniform List<scalar> 
42
(
7.324857143
7.417428571
7.468857143
7.506571429
7.432857143
7.404
7.467714286
7.413714286
7.461142857
7.427714286
7.468571429
7.469714286
7.474571429
7.464285714
7.37
7.471142857
7.490285714
7.421714286
7.460857143
7.426571429
7.448
7.438571429
7.324857143
9.419142857
9.460571429
9.482857143
9.505142857
9.510285714
9.510571429
9.564857143
9.545428571
9.495428571
9.513142857
9.506285714
9.486285714
9.471428571
9.530571429
9.562857143
9.574571429
9.750285714
10.23885714
13.13085714
)
;
    }
    obstacle
    {
        type            calculated;
        value           nonuniform List<scalar> 10(23.10771429 26.43714286 27.29971429 28.046 28.27028571 28.48742857 28.46342857 28.638 27.57942857 27.61657143);
    }
    frontAndBack
    {
        type            empty;
    }
    procBoundary0to1
    {
        type            processor;
        value           nonuniform List<scalar> 
21
(
27.06228571
24.36942857
22.94285714
21.52571429
19.90657143
18.71314286
17.02114286
15.31085714
13.95857143
12.56142857
11.80742857
11.00142857
10.42142857
9.882285714
9.786571429
9.410571429
9.33
9.272
9.154857143
9.094285714
9.000285714
)
;
    }
    procBoundary0to2
    {
        type            processor;
        value           nonuniform List<scalar> 
31
(
7.415714286
9.565428571
9.668571429
9.615428571
9.614857143
9.598285714
9.588857143
9.559714286
9.517428571
9.561142857
9.598285714
9.671428571
9.628
9.562857143
9.586857143
9.550571429
9.574571429
9.532857143
9.453714286
9.468285714
9.385714286
9.305142857
9.257142857
9.203428571
9.153428571
9.143714286
9.478285714
9.454857143
9.453714286
9.385714286
9.340571429
)
;
    }
}


// ************************************************************************* //
