/*--------------------------------*- C++ -*----------------------------------*\
| =========                 |                                                 |
| \\      /  F ield         | OpenFOAM: The Open Source CFD Toolbox           |
|  \\    /   O peration     | Version:  2406                                  |
|   \\  /    A nd           | Website:  www.openfoam.com                      |
|    \\/     M anipulation  |                                                 |
\*---------------------------------------------------------------------------*/
FoamFile
{
    version     2.0;
    format      ascii;
    arch        "LSB;label=32;scalar=64";
    class       volScalarField;
    location    "0.007";
    object      iDofMean;
}
// * * * * * * * * * * * * * * * * * * * * * * * * * * * * * * * * * * * * * //

dimensions      [0 -3 0 0 0 0 0];

internalField   nonuniform List<scalar> 
654
(
1.525620964e+20
1.961818713e+20
1.970447454e+20
1.975089122e+20
1.979730789e+20
1.980801943e+20
1.980861452e+20
1.992168078e+20
1.988121496e+20
1.977707498e+20
1.981397029e+20
1.979968823e+20
1.975803224e+20
1.972708779e+20
1.985027051e+20
1.991751518e+20
1.994191369e+20
2.030789134e+20
2.132548772e+20
2.734894421e+20
1.544901738e+20
1.986693291e+20
2.006093082e+20
1.992882181e+20
1.992406113e+20
1.999309106e+20
1.991334959e+20
1.989430685e+20
1.986871816e+20
1.99169201e+20
1.996809746e+20
2.004962419e+20
2.00531947e+20
2.015138383e+20
2.011329835e+20
2.026564026e+20
2.054295015e+20
2.112553896e+20
2.249840145e+20
2.6005836e+20
1.555613279e+20
2.01484084e+20
2.017102165e+20
2.014900348e+20
2.003712739e+20
2.007283253e+20
2.017340199e+20
2.006747676e+20
2.00865195e+20
1.999606648e+20
2.000737311e+20
2.000856328e+20
1.994964981e+20
2.00573603e+20
2.014721823e+20
2.009247035e+20
2.022993513e+20
2.06982675e+20
2.155578585e+20
2.375343699e+20
1.563468409e+20
1.988300022e+20
2.00573603e+20
2.005259962e+20
1.989668719e+20
1.98508656e+20
1.986276731e+20
1.988895108e+20
1.986514765e+20
1.997999917e+20
1.990323313e+20
1.991870536e+20
2.001629939e+20
1.983479829e+20
1.990977907e+20
1.987883462e+20
1.999190088e+20
2.034062105e+20
2.104222698e+20
2.249721128e+20
1.5481152e+20
1.990085279e+20
1.975743716e+20
1.981575555e+20
1.989549702e+20
1.993655792e+20
1.985265085e+20
1.97723143e+20
1.965329718e+20
1.967353009e+20
1.963127901e+20
1.964913158e+20
1.979552264e+20
1.983777371e+20
1.982884743e+20
2.018827913e+20
2.032157831e+20
2.06691083e+20
2.107793211e+20
2.184916306e+20
1.542104836e+20
1.97723143e+20
2.003593722e+20
1.987883462e+20
1.982349166e+20
1.98092096e+20
1.982051623e+20
1.998237952e+20
1.999725666e+20
2.006212099e+20
2.001927482e+20
1.999309106e+20
1.9825872e+20
1.983658354e+20
2.002820111e+20
1.991334959e+20
1.998475986e+20
2.022576953e+20
2.05286681e+20
2.11362505e+20
1.555375245e+20
1.995619575e+20
2.004545859e+20
1.997107289e+20
2.013115092e+20
2.016566588e+20
2.009901629e+20
1.999666157e+20
2.011686886e+20
2.022398427e+20
2.012639023e+20
2.015852485e+20
2.015495434e+20
2.002701094e+20
2.008354407e+20
2.005140945e+20
2.024302701e+20
2.032931442e+20
2.065601642e+20
2.101366287e+20
1.544128127e+20
1.980444892e+20
1.99704778e+20
2.000261243e+20
1.996036135e+20
1.99252513e+20
2.005974064e+20
2.016566588e+20
2.021565307e+20
2.008116373e+20
2.003355688e+20
1.991572993e+20
2.001689448e+20
2.011567869e+20
2.005855047e+20
2.021148747e+20
2.02269597e+20
2.037097042e+20
2.046380377e+20
2.061912111e+20
1.554006548e+20
2.011627378e+20
2.01484084e+20
2.008116373e+20
2.00121338e+20
1.995262524e+20
2.002106008e+20
2.003415196e+20
1.986990834e+20
1.987050342e+20
2.010615732e+20
2.012698532e+20
2.00406979e+20
2.003891265e+20
1.992287095e+20
2.002403551e+20
2.020137102e+20
2.023172038e+20
2.03180078e+20
2.067684442e+20
1.547044046e+20
1.972530253e+20
1.99746434e+20
1.99871402e+20
2.007223744e+20
2.008056864e+20
2.004367333e+20
2.002225025e+20
2.013829194e+20
2.013412634e+20
2.007521287e+20
2.009961138e+20
2.021684324e+20
2.022576953e+20
2.030729626e+20
2.036978024e+20
2.035014242e+20
2.016626097e+20
2.034181122e+20
2.040667555e+20
1.55555377e+20
1.991215941e+20
1.998416477e+20
1.993655792e+20
1.988002479e+20
1.974851087e+20
1.969435808e+20
1.975208139e+20
1.982408674e+20
1.992465621e+20
1.998535494e+20
2.000737311e+20
2.008116373e+20
2.00406979e+20
1.996095643e+20
1.970268928e+20
1.981932606e+20
1.999428123e+20
2.025254838e+20
2.03507375e+20
1.555791805e+20
2.004962419e+20
2.017697251e+20
2.005914556e+20
2.018113811e+20
2.022934004e+20
2.034240631e+20
2.030789134e+20
2.03507375e+20
2.011865412e+20
2.003593722e+20
1.987645428e+20
1.977767007e+20
1.995381541e+20
2.007937847e+20
2.030015523e+20
2.03798967e+20
2.024481227e+20
2.019720542e+20
2.033228985e+20
1.55680345e+20
1.992703655e+20
2.001153871e+20
2.002403551e+20
1.989490193e+20
1.985384102e+20
1.986395748e+20
1.976457818e+20
1.969911877e+20
1.978005041e+20
1.990323313e+20
1.996274169e+20
2.005497996e+20
2.001272888e+20
1.9825872e+20
1.997702374e+20
2.003772248e+20
2.020375136e+20
2.032574391e+20
2.026147466e+20
1.554661142e+20
2.007699813e+20
2.015495434e+20
2.023350564e+20
2.02888486e+20
2.025730906e+20
2.010556224e+20
2.022100884e+20
2.010615732e+20
2.00531947e+20
1.994310387e+20
1.998059426e+20
1.99210857e+20
1.996393186e+20
2.001689448e+20
1.984491474e+20
1.973125339e+20
1.968900231e+20
1.964615615e+20
1.993417758e+20
1.535023317e+20
1.986990834e+20
1.99621466e+20
1.980266366e+20
1.99044233e+20
1.996750238e+20
2.009009001e+20
2.009425561e+20
2.021148747e+20
2.025730906e+20
2.026206975e+20
2.030313066e+20
2.038465738e+20
2.028349283e+20
2.019661033e+20
2.010437206e+20
2.011270326e+20
2.011984429e+20
2.002820111e+20
1.995917118e+20
1.556089347e+20
1.996333678e+20
2.001927482e+20
2.008592441e+20
1.99871402e+20
2.007580796e+20
2.013948211e+20
2.007580796e+20
2.008770967e+20
2.004010282e+20
1.998892546e+20
1.99044233e+20
1.967412517e+20
1.977052904e+20
1.986276731e+20
2.000677803e+20
2.010020646e+20
2.003891265e+20
2.015138383e+20
2.004783893e+20
1.560076421e+20
1.99002577e+20
1.995024489e+20
1.996333678e+20
1.991215941e+20
1.992763164e+20
1.969138265e+20
1.980682926e+20
1.978183567e+20
1.977528972e+20
1.99252513e+20
1.994607929e+20
2.003653231e+20
2.012936566e+20
1.999666157e+20
1.999071071e+20
1.996571712e+20
1.999844683e+20
1.995381541e+20
1.999487631e+20
1.545794366e+20
1.987228868e+20
1.997821392e+20
2.00615259e+20
1.998654511e+20
1.985800662e+20
2.002939128e+20
2.000261243e+20
1.992406113e+20
1.988716582e+20
1.986514765e+20
1.98591968e+20
1.991572993e+20
1.993298741e+20
1.992049061e+20
1.991989553e+20
2.002046499e+20
1.994191369e+20
2.001570431e+20
2.002165517e+20
1.553947039e+20
1.997583357e+20
2.009425561e+20
1.988181005e+20
1.997702374e+20
2.00740227e+20
2.000261243e+20
2.00490291e+20
2.000975345e+20
1.998178443e+20
2.001094362e+20
2.000082717e+20
1.986098205e+20
1.981873097e+20
1.982230149e+20
1.982884743e+20
1.981099486e+20
1.986871816e+20
1.985979188e+20
1.981516046e+20
1.546806012e+20
1.994726946e+20
2.025552381e+20
2.023648107e+20
2.016269045e+20
2.018768405e+20
2.01484084e+20
2.014126737e+20
2.018411354e+20
2.011627378e+20
2.009961138e+20
2.009901629e+20
2.019720542e+20
2.014602806e+20
2.021267764e+20
2.013650669e+20
2.017221182e+20
2.018768405e+20
2.025909432e+20
2.025254838e+20
1.551269154e+20
1.988300022e+20
1.986276731e+20
1.986693291e+20
1.990620856e+20
1.996155152e+20
1.990263804e+20
1.964199055e+20
1.974553544e+20
1.981813589e+20
1.992644147e+20
1.996869255e+20
1.994607929e+20
2.000915837e+20
2.001927482e+20
2.008949492e+20
2.004426842e+20
1.999785174e+20
1.997523849e+20
1.992584638e+20
1.549305371e+20
1.985622137e+20
1.994905472e+20
1.978243075e+20
1.988419039e+20
1.980504401e+20
2.001510922e+20
2.01359116e+20
2.032395865e+20
2.029956014e+20
2.009961138e+20
1.999844683e+20
1.997345323e+20
2.007283253e+20
2.006509641e+20
2.002046499e+20
2.003117653e+20
2.001808465e+20
2.010020646e+20
2.010139664e+20
4.829941527e+20
5.563850307e+20
5.785162871e+20
5.984747158e+20
6.074962132e+20
6.164907082e+20
6.203576164e+20
6.286388755e+20
6.097752553e+20
6.150394027e+20
3.291923129e+20
3.9557274e+20
4.38024059e+20
4.740498222e+20
5.032322645e+20
5.237815268e+20
5.331904658e+20
5.418375027e+20
5.491375888e+20
5.442123258e+20
2.725184189e+20
3.157859359e+20
3.526352509e+20
3.912360564e+20
4.212000764e+20
4.504810495e+20
4.726878194e+20
4.91958072e+20
5.029723562e+20
5.114617226e+20
2.455848825e+20
2.723057658e+20
3.019456745e+20
3.319379124e+20
3.63382763e+20
3.93578115e+20
4.215196186e+20
4.394821262e+20
4.564786355e+20
4.726471356e+20
2.307684514e+20
2.485122331e+20
2.688448724e+20
2.942775556e+20
3.190665943e+20
3.40385032e+20
3.64846648e+20
3.849678534e+20
4.115831366e+20
4.365432069e+20
2.20568345e+20
2.330647766e+20
2.460612032e+20
2.624397076e+20
2.804664616e+20
3.039233772e+20
3.307282863e+20
3.525804041e+20
3.737754025e+20
3.952661206e+20
2.161013194e+20
2.240993591e+20
2.328741635e+20
2.46106197e+20
2.583329361e+20
2.766250558e+20
2.952835501e+20
3.164863364e+20
3.393599421e+20
3.623628039e+20
2.105235094e+20
2.155728925e+20
2.220484393e+20
2.324309205e+20
2.414672504e+20
2.536858089e+20
2.711783893e+20
2.866640438e+20
3.050518718e+20
3.240445345e+20
2.077047446e+20
2.129812794e+20
2.163631175e+20
2.235416862e+20
2.308149159e+20
2.397615007e+20
2.491842201e+20
2.619407047e+20
2.771809076e+20
2.94494544e+20
2.072807356e+20
2.102152889e+20
2.135719214e+20
2.162559283e+20
2.206844531e+20
2.292007911e+20
2.376702853e+20
2.459915796e+20
2.552227319e+20
2.660199084e+20
2.054891477e+20
2.072809334e+20
2.120522027e+20
2.151523951e+20
2.185048687e+20
2.216326945e+20
2.268164243e+20
2.351037771e+20
2.424938124e+20
2.522693637e+20
2.035124292e+20
2.039316797e+20
2.045928672e+20
2.064948416e+20
2.083130094e+20
2.128279811e+20
2.165665945e+20
2.235511682e+20
2.302639435e+20
2.375579999e+20
2.023240093e+20
2.035889378e+20
2.049258739e+20
2.065314229e+20
2.077849965e+20
2.118819686e+20
2.159750174e+20
2.168842675e+20
2.204219283e+20
2.279052565e+20
2.012848877e+20
2.020075109e+20
2.029217807e+20
2.031964351e+20
2.044695734e+20
2.049198143e+20
2.073940527e+20
2.113400195e+20
2.155577754e+20
2.188951803e+20
1.995589932e+20
1.998969416e+20
2.014323368e+20
2.037939296e+20
2.04107334e+20
2.072322897e+20
2.07225922e+20
2.095400214e+20
2.112053077e+20
2.150073601e+20
2.029689806e+20
2.03655081e+20
2.022254981e+20
2.022514219e+20
2.042301261e+20
2.044684505e+20
2.057625501e+20
2.074452454e+20
2.102324757e+20
2.106359468e+20
1.99099151e+20
2.002096174e+20
1.997067586e+20
2.00233357e+20
1.99085079e+20
2.009750059e+20
2.022691387e+20
2.027226014e+20
2.023992959e+20
2.069835578e+20
1.997859263e+20
1.983876728e+20
1.989438747e+20
1.994651516e+20
2.02075099e+20
2.01927201e+20
2.021259137e+20
2.035128437e+20
2.046039574e+20
2.056409549e+20
1.996844043e+20
2.019654215e+20
2.030973671e+20
2.034951831e+20
2.019400276e+20
2.016736945e+20
2.021072337e+20
2.024090112e+20
2.025319532e+20
2.043238056e+20
2.0159543e+20
2.013520932e+20
2.004393733e+20
1.998126731e+20
2.007919085e+20
2.019024701e+20
2.028420333e+20
2.030675476e+20
2.021592468e+20
2.02554877e+20
1.989080483e+20
1.993317161e+20
1.987561791e+20
1.989835003e+20
1.988886095e+20
1.980504065e+20
1.976299383e+20
1.98652219e+20
2.022729543e+20
2.019949289e+20
2.009086547e+20
2.000292267e+20
2.000942579e+20
2.010930168e+20
)
;

boundaryField
{
    flow
    {
        type            calculated;
        value           nonuniform List<scalar> 
42
(
1.525620964e+20
1.544901738e+20
1.555613279e+20
1.563468409e+20
1.5481152e+20
1.542104836e+20
1.555375245e+20
1.544128127e+20
1.554006548e+20
1.547044046e+20
1.55555377e+20
1.555791805e+20
1.55680345e+20
1.554661142e+20
1.535023317e+20
1.556089347e+20
1.560076421e+20
1.545794366e+20
1.553947039e+20
1.546806012e+20
1.551269154e+20
1.549305371e+20
1.525620964e+20
1.961818713e+20
1.970447454e+20
1.975089122e+20
1.979730789e+20
1.980801943e+20
1.980861452e+20
1.992168078e+20
1.988121496e+20
1.977707498e+20
1.981397029e+20
1.979968823e+20
1.975803224e+20
1.972708779e+20
1.985027051e+20
1.991751518e+20
1.994191369e+20
2.030789134e+20
2.132548772e+20
2.734894421e+20
)
;
    }
    obstacle
    {
        type            calculated;
        value           nonuniform List<scalar> 10(278.9806829 287.5807683 288.1319347 273.4499846 304.7034413 293.3323066 283.4655575 288.2107939 282.8365425 276.1573451);
    }
    frontAndBack
    {
        type            empty;
    }
    procBoundary0to1
    {
        type            processor;
        value           nonuniform List<scalar> 
21
(
6.071126686e+20
5.467013755e+20
5.146978113e+20
4.829057672e+20
4.465820748e+20
4.198088157e+20
3.818506527e+20
3.434822704e+20
3.131452253e+20
2.81801859e+20
2.648866968e+20
2.468049725e+20
2.337933078e+20
2.216982297e+20
2.195509864e+20
2.111158376e+20
2.093083061e+20
2.080071413e+20
2.053791699e+20
2.040203149e+20
2.019115296e+20
)
;
    }
    procBoundary0to2
    {
        type            processor;
        value           nonuniform List<scalar> 
31
(
1.544544687e+20
1.992287095e+20
2.013769686e+20
2.002701094e+20
2.002582076e+20
1.99913058e+20
1.997166797e+20
1.991096924e+20
1.982289657e+20
1.991394467e+20
1.99913058e+20
2.014364771e+20
2.00531947e+20
1.991751518e+20
1.996750238e+20
1.98919265e+20
1.994191369e+20
1.98550312e+20
1.969019248e+20
1.972054185e+20
2.016883009e+20
2.013707233e+20
2.017585139e+20
2.020264329e+20
2.023803447e+20
2.03636595e+20
1.981137777e+20
1.989829621e+20
2.003364442e+20
2.016883009e+20
1.993188267e+20
)
;
    }
}


// ************************************************************************* //
