/*--------------------------------*- C++ -*----------------------------------*\
| =========                 |                                                 |
| \\      /  F ield         | OpenFOAM: The Open Source CFD Toolbox           |
|  \\    /   O peration     | Version:  2406                                  |
|   \\  /    A nd           | Website:  www.openfoam.com                      |
|    \\/     M anipulation  |                                                 |
\*---------------------------------------------------------------------------*/
FoamFile
{
    version     2.0;
    format      ascii;
    arch        "LSB;label=32;scalar=64";
    class       volScalarField;
    location    "0.007";
    object      iDof;
}
// * * * * * * * * * * * * * * * * * * * * * * * * * * * * * * * * * * * * * //

dimensions      [0 -3 0 0 0 0 0];

internalField   nonuniform List<scalar> 
654
(
1.24967977e+20
1.24967977e+20
2.082799616e+20
1.666239693e+20
1.874519654e+20
1.666239693e+20
1.24967977e+20
1.666239693e+20
1.666239693e+20
1.457959731e+20
1.874519654e+20
1.666239693e+20
1.666239693e+20
1.457959731e+20
1.041399808e+20
1.666239693e+20
2.499359539e+20
1.24967977e+20
3.332479385e+20
1.666239693e+20
1.666239693e+20
2.707639501e+20
1.666239693e+20
1.666239693e+20
2.499359539e+20
2.291079578e+20
1.24967977e+20
1.874519654e+20
1.874519654e+20
1.874519654e+20
2.499359539e+20
1.666239693e+20
1.666239693e+20
6.248398848e+19
2.707639501e+20
1.666239693e+20
1.874519654e+20
2.291079578e+20
3.124199424e+20
2.291079578e+20
1.457959731e+20
2.082799616e+20
1.874519654e+20
2.915919462e+20
2.291079578e+20
1.457959731e+20
1.874519654e+20
1.24967977e+20
2.291079578e+20
2.915919462e+20
2.915919462e+20
1.666239693e+20
1.457959731e+20
2.291079578e+20
2.915919462e+20
2.291079578e+20
1.457959731e+20
1.874519654e+20
2.707639501e+20
2.707639501e+20
1.457959731e+20
2.291079578e+20
1.666239693e+20
2.291079578e+20
2.707639501e+20
1.874519654e+20
2.291079578e+20
2.082799616e+20
1.666239693e+20
2.082799616e+20
1.874519654e+20
1.666239693e+20
2.707639501e+20
2.499359539e+20
2.082799616e+20
2.082799616e+20
1.457959731e+20
1.874519654e+20
3.540759347e+20
3.124199424e+20
1.666239693e+20
2.291079578e+20
1.666239693e+20
1.666239693e+20
1.666239693e+20
2.082799616e+20
1.666239693e+20
3.332479385e+20
1.666239693e+20
1.041399808e+20
1.24967977e+20
2.915919462e+20
1.666239693e+20
1.24967977e+20
1.24967977e+20
1.666239693e+20
2.082799616e+20
1.24967977e+20
2.499359539e+20
1.24967977e+20
2.082799616e+20
1.041399808e+20
1.457959731e+20
2.707639501e+20
2.499359539e+20
1.874519654e+20
8.331198464e+19
2.499359539e+20
1.457959731e+20
1.874519654e+20
1.24967977e+20
2.707639501e+20
1.874519654e+20
1.666239693e+20
2.082799616e+20
8.331198464e+19
2.082799616e+20
2.082799616e+20
2.499359539e+20
1.24967977e+20
1.666239693e+20
2.499359539e+20
1.457959731e+20
1.666239693e+20
1.24967977e+20
2.082799616e+20
2.082799616e+20
1.457959731e+20
1.457959731e+20
3.124199424e+20
3.749039309e+20
3.749039309e+20
1.457959731e+20
2.082799616e+20
2.499359539e+20
1.666239693e+20
2.707639501e+20
1.24967977e+20
1.457959731e+20
2.082799616e+20
1.874519654e+20
1.874519654e+20
1.457959731e+20
2.291079578e+20
3.124199424e+20
2.082799616e+20
6.248398848e+19
2.082799616e+20
2.291079578e+20
2.499359539e+20
2.082799616e+20
2.499359539e+20
1.457959731e+20
1.666239693e+20
2.082799616e+20
2.291079578e+20
2.707639501e+20
1.874519654e+20
1.666239693e+20
1.874519654e+20
1.041399808e+20
2.499359539e+20
2.915919462e+20
1.666239693e+20
2.707639501e+20
2.291079578e+20
3.332479385e+20
1.041399808e+20
2.291079578e+20
2.499359539e+20
1.24967977e+20
1.24967977e+20
6.248398848e+19
2.082799616e+20
3.749039309e+20
1.666239693e+20
1.666239693e+20
1.666239693e+20
2.082799616e+20
2.707639501e+20
1.874519654e+20
2.082799616e+20
1.874519654e+20
2.082799616e+20
2.291079578e+20
1.24967977e+20
1.24967977e+20
1.457959731e+20
1.666239693e+20
1.041399808e+20
1.457959731e+20
1.874519654e+20
2.291079578e+20
1.24967977e+20
2.291079578e+20
2.499359539e+20
2.499359539e+20
1.24967977e+20
1.457959731e+20
1.24967977e+20
1.24967977e+20
1.874519654e+20
1.457959731e+20
2.291079578e+20
1.666239693e+20
2.082799616e+20
1.24967977e+20
1.666239693e+20
2.291079578e+20
2.499359539e+20
2.291079578e+20
2.499359539e+20
1.666239693e+20
2.499359539e+20
1.457959731e+20
1.457959731e+20
1.666239693e+20
2.707639501e+20
2.499359539e+20
1.874519654e+20
1.874519654e+20
1.666239693e+20
2.082799616e+20
2.291079578e+20
2.707639501e+20
1.457959731e+20
1.666239693e+20
1.457959731e+20
2.082799616e+20
1.874519654e+20
2.082799616e+20
2.499359539e+20
1.666239693e+20
1.24967977e+20
2.082799616e+20
1.666239693e+20
3.332479385e+20
2.082799616e+20
2.082799616e+20
1.041399808e+20
1.457959731e+20
3.124199424e+20
1.666239693e+20
6.248398848e+19
2.291079578e+20
1.24967977e+20
2.082799616e+20
2.915919462e+20
3.332479385e+20
2.291079578e+20
1.457959731e+20
1.24967977e+20
3.540759347e+20
2.707639501e+20
2.082799616e+20
1.874519654e+20
1.041399808e+20
1.666239693e+20
2.082799616e+20
1.666239693e+20
1.457959731e+20
2.082799616e+20
2.082799616e+20
1.874519654e+20
1.666239693e+20
8.331198464e+19
1.874519654e+20
1.666239693e+20
2.915919462e+20
1.874519654e+20
1.457959731e+20
2.499359539e+20
2.915919462e+20
1.457959731e+20
1.666239693e+20
1.041399808e+20
1.666239693e+20
2.707639501e+20
1.874519654e+20
1.874519654e+20
2.082799616e+20
1.874519654e+20
1.874519654e+20
2.915919462e+20
1.24967977e+20
2.499359539e+20
1.457959731e+20
2.291079578e+20
2.499359539e+20
1.457959731e+20
1.24967977e+20
2.499359539e+20
2.291079578e+20
3.749039309e+20
2.499359539e+20
2.707639501e+20
2.291079578e+20
1.457959731e+20
2.499359539e+20
1.041399808e+20
1.457959731e+20
1.457959731e+20
1.666239693e+20
1.874519654e+20
2.707639501e+20
2.291079578e+20
4.165599232e+20
1.666239693e+20
1.874519654e+20
1.24967977e+20
1.874519654e+20
1.041399808e+20
2.291079578e+20
2.082799616e+20
1.457959731e+20
1.24967977e+20
3.332479385e+20
1.457959731e+20
1.041399808e+20
2.291079578e+20
1.457959731e+20
2.499359539e+20
2.499359539e+20
2.082799616e+20
1.874519654e+20
2.707639501e+20
2.082799616e+20
1.874519654e+20
1.457959731e+20
2.082799616e+20
2.915919462e+20
1.457959731e+20
2.707639501e+20
1.041399808e+20
1.041399808e+20
1.874519654e+20
1.874519654e+20
1.874519654e+20
1.457959731e+20
1.666239693e+20
1.24967977e+20
2.082799616e+20
1.874519654e+20
2.707639501e+20
1.457959731e+20
1.457959731e+20
1.24967977e+20
2.291079578e+20
1.666239693e+20
2.082799616e+20
2.082799616e+20
2.082799616e+20
1.457959731e+20
1.457959731e+20
2.499359539e+20
2.499359539e+20
1.041399808e+20
1.041399808e+20
1.874519654e+20
1.24967977e+20
1.666239693e+20
1.666239693e+20
2.707639501e+20
8.331198464e+19
2.707639501e+20
1.24967977e+20
1.24967977e+20
2.499359539e+20
1.874519654e+20
2.707639501e+20
2.291079578e+20
2.291079578e+20
1.874519654e+20
3.332479385e+20
2.082799616e+20
2.707639501e+20
2.499359539e+20
2.291079578e+20
2.499359539e+20
1.874519654e+20
1.457959731e+20
1.24967977e+20
2.499359539e+20
3.124199424e+20
2.082799616e+20
1.457959731e+20
2.082799616e+20
1.041399808e+20
1.24967977e+20
2.499359539e+20
2.291079578e+20
2.499359539e+20
1.041399808e+20
1.457959731e+20
1.874519654e+20
2.082799616e+20
2.915919462e+20
2.291079578e+20
1.666239693e+20
1.24967977e+20
1.457959731e+20
2.082799616e+20
2.915919462e+20
2.082799616e+20
1.666239693e+20
1.666239693e+20
1.666239693e+20
2.291079578e+20
1.666239693e+20
3.124199424e+20
1.24967977e+20
1.24967977e+20
3.124199424e+20
2.915919462e+20
1.041399808e+20
2.291079578e+20
2.082799616e+20
1.041399808e+20
2.082799616e+20
2.707639501e+20
1.457959731e+20
2.082799616e+20
2.082799616e+20
1.874519654e+20
3.124199424e+20
2.082799616e+20
1.666239693e+20
1.457959731e+20
1.24967977e+20
2.915919462e+20
2.915919462e+20
2.707639501e+20
2.291079578e+20
1.874519654e+20
1.874519654e+20
3.124199424e+20
1.24967977e+20
2.915919462e+20
2.082799616e+20
1.874519654e+20
6.27055727e+20
5.682306862e+20
6.357388371e+20
5.761540799e+20
6.876435216e+20
7.141463582e+20
5.230776312e+20
8.121949296e+20
6.190739994e+20
6.013079471e+20
2.508222909e+20
4.840483624e+20
4.238258916e+20
4.481198401e+20
5.801992215e+20
3.678935787e+20
4.576929276e+20
6.365852156e+20
5.527446424e+20
6.681199412e+20
2.508222908e+20
3.367292955e+20
3.814433022e+20
3.414246401e+20
3.00844041e+20
4.328159747e+20
3.705133221e+20
5.926827869e+20
3.979761425e+20
4.899546236e+20
2.508222908e+20
2.946381337e+20
2.966781241e+20
2.774075199e+20
3.653106207e+20
3.678935785e+20
4.14103125e+20
6.146340012e+20
3.537565711e+20
5.122252883e+20
1.045092878e+20
3.367292955e+20
4.02634597e+20
2.560684803e+20
2.578663208e+20
3.4625278e+20
3.051286184e+20
3.512194293e+20
4.864152856e+20
2.895186414e+20
1.881167181e+20
1.683646477e+20
3.178694185e+20
2.133903999e+20
3.008440406e+20
3.029711821e+20
3.269235193e+20
2.634145716e+20
4.421957136e+20
4.00871965e+20
2.717241484e+20
1.894102287e+20
1.907216512e+20
4.054417604e+20
2.578663208e+20
2.164079875e+20
2.615388158e+20
2.414633576e+20
3.537565711e+20
2.227066471e+20
2.717241484e+20
2.315013908e+20
3.814433024e+20
2.774075199e+20
2.363774605e+20
2.164079873e+20
3.269235197e+20
2.853657863e+20
3.316467854e+20
5.122252883e+20
3.553315786e+20
3.577748764e+20
2.542955348e+20
1.920513601e+20
2.363774608e+20
3.678935785e+20
1.307694078e+20
3.731706436e+20
2.87427214e+20
3.786013e+20
1.463130031e+20
2.315013908e+20
2.54295535e+20
1.707123201e+20
1.933997405e+20
1.514855912e+20
2.179490132e+20
8.780485732e+19
2.653174283e+20
2.227066471e+20
1.254111454e+20
1.262734858e+20
2.119129457e+20
1.2803424e+20
2.578663207e+20
2.380487861e+20
2.615388156e+20
2.634145718e+20
1.989880713e+20
2.227066471e+20
1.46313003e+20
2.525469718e+20
1.695303566e+20
8.535615997e+19
2.578663207e+20
4.32815975e+20
1.743592111e+20
1.975609302e+20
2.653174296e+20
1.11353324e+20
2.299204332e+20
1.894102292e+20
1.483390626e+20
2.133904001e+20
1.933997397e+20
2.16407987e+20
1.743592102e+20
1.756097132e+20
2.432076416e+20
1.781653177e+20
1.6721486e+20
2.104558084e+20
2.754868275e+20
2.347294393e+20
2.363774608e+20
2.380487856e+20
2.397439131e+20
2.634145716e+20
3.979761408e+20
1.781653164e+20
1.045092884e+20
1.052279051e+20
1.271477674e+20
2.77407521e+20
1.93399742e+20
1.514855919e+20
1.089745067e+20
2.41463359e+20
1.768782861e+20
1.781653177e+20
2.090185754e+20
2.104558102e+20
1.48339063e+20
1.920513607e+20
3.223329011e+20
2.380487872e+20
2.179490135e+20
2.414633556e+20
2.874272128e+20
2.672479765e+20
2.090185754e+20
1.894102279e+20
1.907216498e+20
1.920513594e+20
3.00844041e+20
2.596895843e+20
2.397439148e+20
1.756097156e+20
2.432076433e+20
8.908265883e+19
2.299204329e+20
2.104558102e+20
1.271477683e+20
2.133903993e+20
2.578663191e+20
2.164079869e+20
2.397439131e+20
1.097560715e+20
1.547685003e+20
1.55894653e+20
2.299204345e+20
1.052279051e+20
2.966781239e+20
1.493732806e+20
1.504220205e+20
1.514855908e+20
2.179490135e+20
1.536585001e+20
2.653174272e+20
2.227066487e+20
2.926260055e+20
1.473190672e+20
2.966781239e+20
2.560684792e+20
1.074443004e+20
6.492239652e+19
2.397439148e+20
2.634145716e+20
3.095370006e+20
1.336239882e+20
1.881167178e+20
2.946381323e+20
4.238258913e+19
1.066952004e+20
1.289331604e+20
3.895343764e+20
2.179490135e+20
2.41463359e+20
2.653174291e+20
1.113533235e+20
2.299204329e+20
2.946381323e+20
1.695303565e+20
1.493732806e+20
)
;

boundaryField
{
    flow
    {
        type            zeroGradient;
    }
    obstacle
    {
        type            calculated;
        value           nonuniform List<scalar> 10(460.3325772 1e-300 497.6794407 1e-300 138.1684831 287.6895061 515.4162796 332.532372 256.6892488 610.3683703);
    }
    frontAndBack
    {
        type            empty;
    }
    procBoundary0to1
    {
        type            processor;
        value           nonuniform List<scalar> 
21
(
7.178848676e+20
5.608475532e+20
6.505831612e+20
4.935458465e+20
3.365085317e+20
2.467729236e+20
3.813763359e+20
3.365085317e+20
2.916407277e+20
1.570373148e+20
2.467729232e+20
1.794712175e+20
2.243390205e+20
3.140746287e+20
1.12169511e+20
2.243390205e+20
2.243390205e+20
1.794712177e+20
1.570373155e+20
3.365085307e+20
2.692068265e+20
)
;
    }
    procBoundary0to2
    {
        type            processor;
        value           nonuniform List<scalar> 
31
(
1.457959731e+20
1.457959731e+20
2.082799616e+20
2.082799616e+20
1.874519654e+20
2.707639501e+20
1.24967977e+20
1.874519654e+20
2.707639501e+20
3.124199424e+20
2.499359539e+20
1.24967977e+20
1.874519654e+20
1.24967977e+20
2.082799616e+20
3.124199424e+20
2.082799616e+20
2.291079578e+20
1.874519654e+20
1.24967977e+20
2.578663208e+20
1.298447921e+20
1.743592096e+20
1.975609287e+20
1.326587145e+20
2.449773118e+20
1.463130028e+20
2.315013913e+20
1.907216511e+20
2.578663208e+20
2.560684792e+20
)
;
    }
}


// ************************************************************************* //
