/*--------------------------------*- C++ -*----------------------------------*\
| =========                 |                                                 |
| \\      /  F ield         | OpenFOAM: The Open Source CFD Toolbox           |
|  \\    /   O peration     | Version:  2406                                  |
|   \\  /    A nd           | Website:  www.openfoam.com                      |
|    \\/     M anipulation  |                                                 |
\*---------------------------------------------------------------------------*/
FoamFile
{
    version     2.0;
    format      ascii;
    arch        "LSB;label=32;scalar=64";
    class       volScalarField;
    location    "0.007";
    object      internalE;
}
// * * * * * * * * * * * * * * * * * * * * * * * * * * * * * * * * * * * * * //

dimensions      [1 -1 -2 0 0 0 0];

internalField   nonuniform List<scalar> 
654
(
0.157716318
0.4907658277
0.3843579757
0.2997742602
0.4224810159
0.255887841
0.2566264806
0.3226379404
0.2707107041
0.1923751235
0.4334831942
0.3561314939
0.2829027262
0.2331108063
0.1536703639
0.4868007989
0.5433437045
0.3300522253
0.7122617844
0.4742122911
0.3948005694
0.6764911103
0.4499978036
0.3809655584
0.4690314915
0.4338883188
0.1764513757
0.5498721633
0.4658029763
0.3004215962
0.5095519962
0.3130479405
0.3082168826
0.02375321759
0.3601489465
0.2925360007
0.1562076462
0.3613127791
1.037649243
0.5227762177
0.2851975528
0.5579077323
0.3115923507
0.4951212182
0.5092959403
0.336002025
0.7212116617
0.2504842962
0.3580589012
0.4611662188
0.4744550634
0.4574499962
0.1778398264
0.5479796926
0.8544800601
0.3934140339
0.3632534602
0.6180488238
0.7024455812
0.3813846775
0.3421884169
0.375923154
0.2445444177
0.547359306
0.5195782839
0.4042534832
0.5593566983
0.3090093939
0.3990820098
0.3844362545
0.2102609823
0.2194029701
0.6190811423
0.4593060856
0.5694387981
0.4851149262
0.3436638545
0.591420351
0.5274432136
1.263273113
0.458652641
0.3988811571
0.3840838118
0.3496338243
0.4645743502
0.4114895905
0.1904643939
0.5887892525
0.2614614855
0.06640258284
0.3688547593
0.5347672457
0.3373818137
0.2512502113
0.1584491815
0.3366192648
0.4072209042
0.2561751042
0.2610958102
0.1777524206
0.5144989408
0.1923578094
0.1136730809
0.6194298873
0.4173170654
0.7395541856
0.1088350153
0.3568864721
0.265313278
0.3547376743
0.1885844603
0.5752404816
0.3852502868
0.3729543902
0.3288670618
0.153920914
0.2510493572
0.4706717879
0.4203385831
0.2213616493
0.2077044427
0.4626614213
0.1860518379
0.3977476122
0.377888198
0.3625252665
0.5412621865
0.2805452439
0.2466879699
0.4905841766
0.5617611041
0.6888528678
0.138453898
0.3625895143
0.5123648903
0.4243165298
0.5473999809
0.4084284707
0.3239982825
0.2634971838
0.2652872261
0.2707496788
0.2913564143
0.563791921
0.4843519985
0.2171362216
0.1212118079
0.4793366894
0.9379636099
0.6703776041
0.4479430428
0.4838649259
0.2659518974
0.4226477437
0.4945812263
0.4125568499
0.4439929215
0.3604351444
0.4323980956
0.3569001988
0.1581791957
0.5165878747
0.8726453644
0.484612055
0.5415816176
0.6165308808
0.8659290697
0.1165292417
0.434220333
0.3633236789
0.1472164673
0.4165697042
0.1336272505
0.5728373064
0.5437887468
0.1955157829
0.402041678
0.4934204209
0.1953050713
0.7305156664
0.4267885222
0.4657564626
0.4195289446
0.4011524164
0.5199912978
0.3992668432
0.2272011269
0.4795209206
0.3103874424
0.2147254774
0.2601994936
0.3936017985
0.4249329344
0.3477796139
0.5018304018
0.5512776699
0.6019836985
0.2674740559
0.411074234
0.40524408
0.5936780941
0.5582444063
0.5833270807
0.5499056419
0.371580071
0.3360735408
0.4157013451
0.4465842228
0.3166041178
0.3839433356
0.4035810368
0.5290412554
0.4988108331
0.440805709
0.2091721728
0.2067860657
0.4149220472
0.6708192072
0.6669800113
0.4747165784
0.340388378
0.3530285835
0.2861257348
0.3644099475
1.150034619
0.1685921557
0.6572207041
0.4807502377
0.5387330572
0.3499334667
0.4102355832
0.6085402522
0.4433317035
0.105857471
0.4934491087
0.309657529
0.8791901
0.3415344903
0.5845868452
0.1889645746
0.3666813048
0.4552145882
0.2576397795
0.028174558
0.6003417719
0.3633616425
0.3593527926
0.5041492723
0.6248567295
0.768593716
0.4505379602
0.3622047253
0.6998935878
0.3900089585
0.7183493982
0.1695128975
0.1530223218
0.3962455615
0.5122270022
0.316965679
0.3382033546
0.4955477338
0.5416657515
0.3651374627
0.3204386781
0.1029701726
0.2963548694
0.5302342057
0.4662216954
0.3707421012
0.2979383543
0.4304499831
0.6225763368
0.245386711
0.3684746772
0.1937605094
0.3087762355
0.5771582451
0.3426624302
0.1835508734
0.4740038478
0.4752006401
0.3798186164
0.4080294729
0.3081004518
0.5328372559
0.3286122401
0.3412656764
0.3669344437
0.2820342077
0.2796549429
0.4930444357
0.4378380279
0.5928434056
0.651300952
0.5781987247
0.5855753042
0.2837249881
0.3173489023
0.30666829
0.2727418142
0.177299468
0.5343853083
0.3462092347
0.3859668371
0.351484172
0.990850931
0.4006581363
0.5491543383
0.09122475623
0.2656922198
0.2382334484
0.5144172797
0.701225738
0.2341027003
0.2693577429
0.6750314083
0.2668818436
0.2925032406
0.2489634392
0.3055415469
0.3819875396
0.4847873145
0.3967193514
0.2145240717
0.6841859889
0.5885648417
0.6128571087
0.2518968625
0.8028813022
0.4854032012
0.2491614051
0.5139862629
0.1997551345
0.3862888284
0.4684944692
0.4764526573
0.3597113711
0.3379063497
0.3319860191
0.1461957619
0.2385834975
0.3147835213
0.6505424375
0.2638723706
0.3040867314
0.4384764207
0.6219560083
0.2901385499
0.3857188194
0.4740360285
0.5388874518
0.7741538139
0.3512665643
0.6422634238
0.441726099
0.3625787787
0.2852449514
0.3851658806
0.1320535388
0.3086643234
0.277112444
0.3595835908
0.1169332559
0.3538854532
0.1534566357
0.2399381544
0.4959372531
0.4835191785
0.7484460304
0.4813186086
0.2903437542
0.3691202917
0.5184718018
0.3778518039
0.298418218
0.7534751638
0.3905538116
0.3037351257
0.4265556628
0.3556752133
0.3382643931
0.4862343898
0.6543434294
0.4071347601
0.2323889731
0.3740887572
0.1299346577
0.2926450023
0.5391970462
0.4258685229
0.3550306761
0.2065440616
0.2960526284
0.3329252743
0.4965324003
0.4838309861
0.4311794238
0.26210516
0.2734472203
0.1104346177
0.3580212645
0.5259842982
0.375223819
0.2817906492
0.2986201905
0.239770788
0.5658215717
0.420970656
0.4830635193
0.1326371615
0.229184791
0.6869296906
0.5270158453
0.2514227431
0.4153974323
0.354977557
0.39256661
0.3261176689
0.4443947535
0.2404679559
0.3238924465
0.5368129975
0.2592481085
0.5608415531
0.6427303662
0.4220558924
0.3734103816
0.4004779613
0.6503893948
0.5572834968
0.5493974476
0.5306648178
0.2712650433
0.2528599183
0.5395329525
0.1374383769
0.7460396286
0.7849939064
0.3870801981
1.621962498
2.175478595
2.214636488
3.73986146
3.783260093
3.991973396
1.886326339
4.335998641
2.470504109
2.956654335
0.8287906861
2.095047306
1.728877384
2.175215178
3.15579592
1.484356409
3.537362775
2.609749791
2.820426961
2.670062276
0.4510406824
0.776001298
1.860207696
0.8164416765
1.426152817
0.962448429
1.683867423
2.000822841
2.327542117
1.457576236
0.4236395168
0.9918956722
1.183808617
0.6159784021
1.09491234
1.980734106
2.510309651
2.666750679
1.705716121
3.166982234
0.3213342288
1.106487495
2.09255169
1.856099632
0.4509796421
1.383640825
1.277572544
1.834118899
2.22917277
0.8591623748
0.3986645472
0.6985958697
1.061964067
0.8137253341
0.839634518
0.5686689201
0.6323936803
0.483214528
1.853372906
1.223237152
0.5626349863
0.296956422
0.4197344518
1.114725093
0.4507020126
0.5850137295
0.6725687996
1.147013328
1.496167142
0.6265169558
0.4232990653
0.3647153949
0.8948627317
0.9688143563
0.4998481771
0.2522419448
1.0498963
0.979158651
0.8795753782
1.563028496
0.9180297374
0.7377102109
0.6430006825
0.2595766805
0.8025739717
1.093189546
0.1808362191
1.503466067
1.071620917
2.049170944
0.3168968762
0.2252191703
0.8687823709
0.453584553
0.299305946
0.3382614484
0.4669094299
0.3087105531
0.3172945129
0.5672655833
0.304016713
0.2259478915
0.3851431978
0.4831812511
0.668756124
0.5757554936
0.852690556
1.293081686
1.114692536
0.3953198381
0.1495291508
0.8784103076
0.8434870445
0.205719052
0.7493867118
0.9630698093
0.425390047
0.9424204592
0.7200421677
0.4374889928
0.7082105266
0.2686266313
0.3689417781
0.5104187727
0.3215882083
0.3269568954
0.493017008
0.1277839303
0.4686949872
0.2082578021
0.2442139887
0.3352673179
0.3835979865
0.4428350136
0.7132042385
0.1567183084
0.7430232608
1.028505796
1.057199622
0.3083983338
0.2036880806
0.1398252218
0.1673622009
0.6697125664
0.4026624431
0.2821090419
0.5896050162
0.4980913177
0.5090479965
0.3632896061
0.5463745949
0.4722080807
0.3575632254
0.3434613649
0.6065299911
1.205530473
0.3887680282
0.6282641641
0.8323937587
0.4383916613
0.7309342571
0.2196663542
0.4576998965
0.3408902175
0.5285289617
0.575290617
0.4562695058
0.3239275437
0.2951687433
0.2128705661
0.7827010562
0.347035277
0.2743679277
0.6870994907
0.6113225849
0.4670916934
0.5239818378
0.294534365
0.3421066568
0.3786550012
0.5052064472
0.1051935947
0.6783408371
0.1773294985
0.2518039219
0.4586752403
0.3078586932
0.3576095055
0.5261749304
0.4460502769
0.4938681814
0.2850331119
0.741665005
0.5356063876
0.1806098554
0.03482763506
0.513611585
0.6290835115
0.8940446359
0.1629523859
0.1753007147
0.6692360864
0.04665034363
0.1419951865
0.2739352643
0.8243037519
0.3326679016
0.4714824088
0.5737571774
0.251976264
0.7832548222
0.3346791176
0.6406626701
0.2277262745
)
;

boundaryField
{
    flow
    {
        type            zeroGradient;
    }
    obstacle
    {
        type            calculated;
        value           nonuniform List<scalar> 10(1.472084874e-18 0 4.232999274e-18 0 5.408077204e-19 2.229683797e-19 1.809880587e-18 8.653998044e-19 4.209851005e-19 2.456354614e-18);
    }
    frontAndBack
    {
        type            empty;
    }
    procBoundary0to1
    {
        type            processor;
        value           nonuniform List<scalar> 
21
(
3.638288899
2.473049493
3.2656876
1.373654701
1.614385331
0.6725825447
1.649288052
0.6253354075
0.6926626119
0.3978298801
0.7357998776
0.428707421
0.7850857999
0.6485805086
0.3626280146
0.1943150306
0.6769728463
0.153170391
0.2290122864
0.817074934
0.6036307627
)
;
    }
    procBoundary0to2
    {
        type            processor;
        value           nonuniform List<scalar> 
31
(
0.3199564388
0.3797718979
0.5863122176
0.5852525494
0.3869187322
0.2391572969
0.2520779515
0.1573579895
0.8237748123
0.5462516293
0.5430123445
0.09662364307
0.2715919406
0.1627152602
0.5041108462
0.9202789608
0.5769041981
0.5105768258
0.3693578446
0.1924255041
0.6891739879
0.3485123801
0.508581586
0.6305142797
0.2680344465
0.6211480692
0.3192280331
1.047492518
0.2595527207
0.6891739879
0.6584965562
)
;
    }
}


// ************************************************************************* //
