/*--------------------------------*- C++ -*----------------------------------*\
| =========                 |                                                 |
| \\      /  F ield         | OpenFOAM: The Open Source CFD Toolbox           |
|  \\    /   O peration     | Version:  2406                                  |
|   \\  /    A nd           | Website:  www.openfoam.com                      |
|    \\/     M anipulation  |                                                 |
\*---------------------------------------------------------------------------*/
FoamFile
{
    version     2.0;
    format      ascii;
    arch        "LSB;label=32;scalar=64";
    class       volScalarField;
    location    "0.007";
    object      internalEMean;
}
// * * * * * * * * * * * * * * * * * * * * * * * * * * * * * * * * * * * * * //

dimensions      [1 -1 -2 0 0 0 0];

internalField   nonuniform List<scalar> 
654
(
0.314560271
0.4060713082
0.4078112445
0.4073657535
0.4069641111
0.4077976591
0.4068854834
0.4074927375
0.4074742656
0.4051540196
0.4060078327
0.4102287229
0.4074850793
0.4084401703
0.4141824342
0.4164816053
0.4216817976
0.432627394
0.4915325501
0.8043451317
0.3204868582
0.4106605087
0.4148410323
0.4120895692
0.4136134395
0.415975701
0.4130644919
0.4117451289
0.4129549814
0.4164245274
0.4163409043
0.4164529952
0.4185512543
0.4193439497
0.4149325529
0.4220723873
0.4375105427
0.4667475202
0.5474086226
0.7521597632
0.3218666852
0.4151688824
0.4148542994
0.411940088
0.4096873448
0.4126827652
0.4131695308
0.4115121929
0.4104540255
0.4092783161
0.4088890471
0.4101899279
0.4095521714
0.4136334643
0.4214804381
0.4204435443
0.4286424039
0.4553452342
0.513362663
0.6462827386
0.3223780832
0.4091918142
0.4153197197
0.4140600863
0.4125976305
0.4071669891
0.408713862
0.4103983027
0.4094188333
0.4070040938
0.4052891305
0.4086351549
0.4123137343
0.4096854528
0.4130746896
0.4176898809
0.4254218071
0.4438603568
0.4857756448
0.5712408023
0.3168335312
0.4092891309
0.4043988587
0.4099316931
0.4101598449
0.4114737477
0.408751651
0.4088260099
0.4079760758
0.4101666216
0.4127646576
0.4122615837
0.4157636679
0.4179556405
0.418825401
0.4264742555
0.4318474204
0.4508393369
0.4862772321
0.5338663494
0.3190508026
0.4094104738
0.4137080988
0.4082792096
0.4068904901
0.4078741611
0.4072454383
0.409546122
0.4085818272
0.4132996757
0.4120676538
0.4116996072
0.4079877293
0.4103551839
0.4115481155
0.4170920888
0.4232862434
0.4449211782
0.4544693728
0.4904548627
0.3182348741
0.4108479529
0.4128954421
0.408470623
0.4125916939
0.4141774026
0.4123864064
0.4087495197
0.4141314558
0.4160677203
0.4164888511
0.4139017837
0.4187872032
0.4170894379
0.4222010195
0.423254164
0.4276685278
0.4314459942
0.4430232899
0.4687383325
0.3206088554
0.411670818
0.4137430655
0.4169346095
0.4133742799
0.4124532309
0.416517749
0.4181447904
0.4192154241
0.4155418349
0.4112762132
0.4107253439
0.4120837244
0.4137788088
0.4117048197
0.4175711304
0.423788746
0.4384717835
0.4455918908
0.452760944
0.3258149778
0.4216148759
0.4219913111
0.4178546725
0.4153394923
0.4116216882
0.409940067
0.4114280491
0.411873326
0.4147585959
0.4190694135
0.4184333006
0.4188670146
0.4172215428
0.416478032
0.4223857158
0.4268703263
0.430712832
0.4349726037
0.451058813
0.3211866316
0.4107191302
0.415599214
0.4177951614
0.4219219939
0.4248500278
0.42382467
0.4226299044
0.418785084
0.4183861641
0.4171349678
0.4174560233
0.4242473289
0.4260269265
0.4262202883
0.4297238136
0.4305879201
0.4308418093
0.4401750897
0.4461960613
0.3243452791
0.4141313265
0.4166308008
0.4157719428
0.415026669
0.4119552071
0.4093860475
0.4087771932
0.4119205615
0.413280497
0.4127899549
0.4135187644
0.4153349356
0.4137277459
0.4120338718
0.4093058384
0.4128142733
0.4205962558
0.4249606401
0.4330396067
0.3246161763
0.4196587459
0.4197133288
0.4198484904
0.4228849568
0.4229475684
0.4245232071
0.4223048205
0.4228061833
0.4193194157
0.4187276376
0.4184559412
0.4159906544
0.4194073435
0.4212547668
0.4223632256
0.4230167195
0.4228600505
0.4237974012
0.4331751241
0.3182309699
0.4069033372
0.409526989
0.4092301916
0.403869186
0.403664814
0.4083730024
0.4104510449
0.4091799521
0.4091659615
0.4076568217
0.4087959096
0.4104605668
0.4108072096
0.408554469
0.4087648726
0.4145454359
0.4200751396
0.4204042087
0.4228690319
0.3168985158
0.4075837587
0.4085260611
0.4135358816
0.4190335108
0.4186609581
0.4145008278
0.4162106181
0.41195045
0.4123809063
0.4114746965
0.4112852156
0.411058465
0.4131807292
0.4151208184
0.4139859896
0.4099209796
0.4083832388
0.4081630162
0.4155286158
0.3138028417
0.4107700834
0.4141728611
0.4092738235
0.4079021608
0.4110746086
0.408972918
0.4110926995
0.4110274713
0.4157701785
0.4188343995
0.418797961
0.4194100698
0.415910493
0.4144493304
0.411311291
0.4106537519
0.4136310103
0.4130640142
0.4149432473
0.3228062913
0.4118359661
0.4124894559
0.4095843063
0.4049176405
0.4072592202
0.411162948
0.4125080949
0.409232393
0.4102617894
0.4064641222
0.407100226
0.4039820791
0.4054693197
0.4065432942
0.4093535788
0.4139936743
0.4113466476
0.41454492
0.4191879819
0.3205585856
0.4098263093
0.4091372408
0.4102527922
0.4127358548
0.4112767501
0.4048885322
0.4058025017
0.4070201653
0.4075076427
0.4113146299
0.4098901621
0.4122853455
0.4135280017
0.4118598418
0.4096019953
0.4107655056
0.4136600139
0.4132183554
0.4169511289
0.3246663999
0.415863387
0.418661379
0.4183901879
0.4153140634
0.4141446968
0.4169518181
0.4169006669
0.4156776841
0.4113757704
0.4098919185
0.4090839425
0.4103742753
0.4122014238
0.4128682449
0.4100709889
0.4117199417
0.4094289673
0.4149645096
0.4138607304
0.3160743234
0.4077281371
0.4117234899
0.4094892365
0.4092918675
0.4127497187
0.4087371894
0.4077024819
0.4086168747
0.4099885708
0.4133692899
0.413124188
0.407784934
0.4052774327
0.4053710867
0.4069805976
0.4088130995
0.4109494863
0.4093559294
0.4100687171
0.3171927183
0.4096109642
0.4179907602
0.4154322631
0.4175688171
0.4165056036
0.4159388832
0.4159727584
0.4166069191
0.4099713837
0.4114251472
0.4150137444
0.4186667082
0.4196248654
0.4235944629
0.4212328414
0.4222882991
0.4224481171
0.421670252
0.4196251448
0.323890201
0.4140286908
0.4143439238
0.4105772706
0.4095811415
0.4116613708
0.4102459053
0.409265119
0.4121838359
0.4150367939
0.4150966622
0.4144831572
0.4137826566
0.4131124775
0.4122509931
0.4154986867
0.4164786094
0.4166485475
0.4150558309
0.416290366
0.3214634429
0.4111483399
0.4134069963
0.4125688352
0.4157978499
0.4145934175
0.4192243285
0.4211693531
0.4235881781
0.4222593104
0.4198251835
0.4161064492
0.4128555528
0.4179168159
0.4172938448
0.4148207305
0.4139145238
0.4119260826
0.4130830386
0.4122345243
1.822360782
2.318219906
2.529376308
2.700594442
2.805629519
2.885581853
2.996558958
3.047795177
2.965047079
2.97611081
1.155115219
1.5661575
1.861505978
2.118366448
2.35002402
2.500710061
2.667993384
2.766842001
2.820258446
2.830125584
0.8525618045
1.108247841
1.344465684
1.62527974
1.83834081
2.065730512
2.271730461
2.457755323
2.553638179
2.645535337
0.6909589488
0.8580314188
1.040182314
1.232211624
1.449641614
1.672298497
1.863215136
2.02692701
2.15996444
2.308765642
0.6148726081
0.7181155989
0.8376567829
0.995891347
1.15354493
1.322931441
1.509212151
1.632211888
1.837532543
2.018912294
0.5487689972
0.6195383416
0.6977231781
0.8100159076
0.9184196086
1.071374071
1.261945835
1.403932216
1.556825801
1.728904942
0.5129643644
0.566316658
0.6021516703
0.6898728791
0.7678174413
0.8699964142
0.9950242393
1.131931321
1.266727264
1.420216412
0.4759714088
0.5131232549
0.5472443415
0.6046707483
0.6659743878
0.7343908067
0.8326495734
0.9401506755
1.036716568
1.157391852
0.4665796045
0.4920302747
0.5048677858
0.5497707214
0.5959697633
0.6526744292
0.7048675429
0.7778349938
0.861088408
0.9733587773
0.4581634891
0.4715921656
0.4916461171
0.5140469749
0.5395988271
0.5872163771
0.6333767672
0.6847253407
0.7315825799
0.7936604166
0.4441307572
0.4626584686
0.4743951497
0.4912076275
0.5101577832
0.5414783654
0.5670552617
0.6024005926
0.6513593475
0.7085636858
0.4311731899
0.4399895844
0.4479510416
0.4524039495
0.4641441248
0.4828004038
0.5059941825
0.5379973666
0.5699980706
0.6147394912
0.4254663383
0.4300605679
0.4364721774
0.4476134033
0.4532827475
0.4705453937
0.494688038
0.5007263176
0.5229458377
0.5553499893
0.4242662364
0.4256553264
0.4330413446
0.4370064124
0.4443803878
0.4463271709
0.4639416507
0.4808798796
0.4996974857
0.5106531212
0.4168554269
0.4189759482
0.4234340863
0.4346523439
0.4422780733
0.4488869711
0.4553049138
0.4673601125
0.4828242243
0.4996430708
0.4235562873
0.4283290664
0.4246412965
0.4240279361
0.4341167239
0.4425898628
0.4444237404
0.454134675
0.4677512602
0.4737289302
0.4182407238
0.4189969539
0.422481836
0.4245909038
0.4176395732
0.4304939534
0.4359609736
0.441422422
0.4425674137
0.4558616523
0.4165986483
0.4166888033
0.4190415585
0.4172008701
0.4251090362
0.4264221939
0.4269207403
0.4365330294
0.4402552791
0.447081385
0.4118735095
0.4188254117
0.4251925371
0.4265999179
0.4211533916
0.4205838394
0.423320755
0.4303818474
0.4304897949
0.4387678096
0.4193240178
0.4178697677
0.4158764297
0.4140713643
0.4185133745
0.4231002716
0.4292338955
0.4304751894
0.4319595071
0.4369185131
0.4162421192
0.4152880219
0.4162638044
0.416345693
0.4152369883
0.4130548187
0.4181802392
0.4204972706
0.4293667929
0.4301546604
0.4142502297
0.4105760505
0.4121836351
0.4171612077
)
;

boundaryField
{
    flow
    {
        type            calculated;
        value           nonuniform List<scalar> 
42
(
0.314560271
0.3204868582
0.3218666852
0.3223780832
0.3168335312
0.3190508026
0.3182348741
0.3206088554
0.3258149778
0.3211866316
0.3243452791
0.3246161763
0.3182309699
0.3168985158
0.3138028417
0.3228062913
0.3205585856
0.3246663999
0.3160743234
0.3171927183
0.323890201
0.3214634429
0.314560271
0.4060713082
0.4078112445
0.4073657535
0.4069641111
0.4077976591
0.4068854834
0.4074927375
0.4074742656
0.4051540196
0.4060078327
0.4102287229
0.4074850793
0.4084401703
0.4141824342
0.4164816053
0.4216817976
0.432627394
0.4915325501
0.8043451317
)
;
    }
    obstacle
    {
        type            calculated;
        value           nonuniform List<scalar> 10(1.023950805e-18 1.136755697e-18 1.165318642e-18 1.119633524e-18 1.266092708e-18 1.228767822e-18 1.223550494e-18 1.257499491e-18 1.245078454e-18 1.154342987e-18);
    }
    frontAndBack
    {
        type            empty;
    }
    procBoundary0to1
    {
        type            processor;
        value           nonuniform List<scalar> 
21
(
2.96048843
2.850938059
2.737443177
2.423960567
2.115097811
1.886378981
1.581022719
1.311318084
1.091919947
0.8888382962
0.7788922649
0.6774162837
0.5919503033
0.5405042034
0.5090589083
0.4858273294
0.4656550081
0.459555421
0.4439283724
0.442158738
0.4284057882
)
;
    }
    procBoundary0to2
    {
        type            processor;
        value           nonuniform List<scalar> 
31
(
0.3218315072
0.419204098
0.4231851042
0.4176217498
0.4158481664
0.4126947862
0.4119245281
0.4102582971
0.4081143046
0.4094354549
0.4115395798
0.4168828796
0.4138922411
0.4094151532
0.4110018523
0.4074526946
0.404795962
0.4035509817
0.4010599929
0.4025231472
0.4232820044
0.4225314761
0.4242181519
0.4226993798
0.4231316849
0.4242557095
0.4043401894
0.4085587552
0.4123479705
0.4232820044
0.4111468836
)
;
    }
}


// ************************************************************************* //
