/*--------------------------------*- C++ -*----------------------------------*\
| =========                 |                                                 |
| \\      /  F ield         | OpenFOAM: The Open Source CFD Toolbox           |
|  \\    /   O peration     | Version:  2406                                  |
|   \\  /    A nd           | Website:  www.openfoam.com                      |
|    \\/     M anipulation  |                                                 |
\*---------------------------------------------------------------------------*/
FoamFile
{
    version     2.0;
    format      ascii;
    arch        "LSB;label=32;scalar=64";
    class       volScalarField;
    location    "0.007";
    object      internalT;
}
// * * * * * * * * * * * * * * * * * * * * * * * * * * * * * * * * * * * * * //

dimensions      [1 2 -2 0 0 0 0];

internalField   nonuniform List<scalar> 
654
(
298.6782656
299.8401803
299.8062876
298.774974
297.780581
298.2291381
297.5531098
296.3058968
296.8955328
296.7594041
296.8310327
300.1332503
298.7544753
299.924449
302.2537134
302.9054353
306.312289
308.5997593
333.8871528
426.0379347
300.5078092
299.4322089
299.5553115
299.5410834
300.7205969
301.3938712
300.4830259
299.8099599
301.0781635
302.8729717
302.0360569
300.8888898
302.3510461
301.4476514
298.8412957
301.6984021
308.5120337
320.052055
352.4571868
418.9726523
299.7234922
298.4904551
297.929905
296.160329
296.1852916
297.8201439
296.684968
297.054638
296.0098938
296.4971768
296.0477771
296.9719874
297.3858872
298.7365009
303.0461219
303.1242984
306.9354425
318.6788186
344.9902466
394.1327255
298.6914538
298.1202099
299.954357
299.1156141
300.3947622
297.1252157
298.0753147
298.9097456
298.5536722
295.0867505
294.9767083
297.1809846
298.3942236
299.2052113
300.5443325
304.3753176
308.2563676
316.102949
334.4186077
367.8213482
296.4655683
297.9236108
296.5006914
299.6727538
298.6377781
298.9773937
298.2547806
299.5210927
300.7084787
302.0121536
304.5792461
303.931634
304.2467595
305.199387
305.9721796
306.0130287
307.8359191
315.9704436
334.1968353
353.951812
299.7038631
299.9492926
299.1098803
297.5176555
297.3334606
298.2671639
297.6375117
296.894405
295.9749965
298.4245982
298.1718101
298.2956411
298.0994686
299.6673635
297.6631492
303.412894
306.818554
318.6577042
320.6935654
336.1379102
296.3868879
298.2289301
298.3805368
296.2823833
296.8918491
297.5227856
297.2185679
296.1052839
298.2113938
298.0188283
299.7670471
297.4301212
300.9940997
301.6889862
304.5266623
305.7755335
306.0400297
307.4327335
310.689364
323.1283841
300.7728134
301.115921
300.1156691
301.9448492
300.0001353
299.8591468
300.7839078
300.3727437
300.3971968
299.7590298
297.386964
298.7457063
298.2188977
297.9750858
297.3259424
299.2806145
303.5045518
311.8001583
315.4258735
318.0864766
303.7138514
303.6091015
303.3955189
301.4274394
300.6465526
298.8440425
296.6058397
297.4879173
300.271561
302.3659786
301.9279278
301.1576564
302.7678232
301.6053014
302.8214085
305.5652862
306.0987243
308.3907868
310.1181467
316.0059874
300.7469146
301.6252238
301.3991902
302.8022833
304.4968312
306.4827547
306.3058666
305.7691999
301.2416175
301.0169306
300.9974644
300.8634766
303.9850121
305.1254222
304.0383817
305.597274
306.5072752
309.4844668
313.4600801
316.737782
302.0431228
301.2770994
302.0033567
302.1004683
302.4164991
302.1774429
301.1186159
299.7921035
301.0001277
300.4695544
299.2014218
299.3998295
299.6097791
299.0530279
299.0184397
300.9323174
301.7256425
304.7235396
303.9592944
308.2434561
302.2491421
303.2050569
301.3305452
303.1981622
303.5449278
302.8664843
302.3051255
301.2365092
300.9591668
301.9203916
302.7389938
304.9700723
304.6876454
304.4783929
303.9071802
301.3929834
300.6782079
302.5723943
303.9578788
308.6196786
296.1113508
295.7977953
296.4479445
296.0482231
294.066339
294.5253994
297.8088809
300.829356
300.8942904
299.6529117
296.6999565
296.6420767
296.4801397
297.3569841
298.5135614
296.4074943
299.6885698
301.1905653
299.6173815
302.3299895
295.2778431
294.0793231
293.6191293
296.0659494
299.1835787
299.3829802
298.6452272
298.1650495
296.7989113
297.8937398
298.8799493
298.1817752
298.9076229
299.8060394
300.4167978
302.1918899
300.9482834
300.4627221
300.9556198
301.9597192
296.1340143
299.4672545
300.5528121
299.3896316
296.860767
298.2244907
294.889335
296.3563521
294.5906583
297.3157938
299.4366367
298.80506
298.0449965
297.0322006
297.2619718
296.3647297
295.7683832
297.8069809
298.7595634
301.1567467
300.5064922
298.8391803
298.4770257
295.3914239
293.4691385
293.8625827
295.7413637
297.6499687
295.1113949
296.5565516
294.5636599
296.2771394
297.4493801
297.0886813
296.492318
296.3929275
298.3593039
297.3583981
297.9978431
302.8918982
297.6514063
298.3235463
297.0757343
297.6903871
300.2619053
298.9681133
297.8555268
296.7878793
298.0545356
298.5102868
299.0313683
297.684589
298.0723803
297.5919862
298.3584555
296.8111609
298.0268902
299.6357808
299.9853548
302.0736411
304.2510065
303.1441539
303.5656582
302.1091831
301.0130386
302.1084354
301.5536015
301.9202679
302.2214207
299.6485718
298.8986523
298.3988545
298.4903526
299.5597735
300.2326014
298.2073803
297.9024952
297.4117566
300.321536
299.4336754
294.6452214
295.673342
296.8110883
298.3547586
296.7896339
297.8508018
296.0082617
294.5753534
295.815522
297.2240032
299.2382035
299.2120397
297.4245792
296.2258657
296.240949
297.3189788
298.9268436
299.6159926
298.5883032
299.7819252
297.0528721
297.4640708
298.9300685
297.3799095
300.0032607
298.8689157
299.0440561
299.1744448
298.9944979
295.224506
296.516982
299.1121648
300.2780201
301.729782
303.5797669
303.0292084
303.25078
303.1330422
301.5083441
300.1430035
302.4524108
301.6441579
302.1813228
299.371516
298.0559532
298.7392046
298.5932656
301.8322441
302.3907067
303.3682987
301.7629327
300.6793866
300.5115308
299.078979
298.3044742
299.6036057
300.9877977
301.8095142
300.9961528
302.639758
300.5667696
299.9496321
300.1939248
302.1086521
302.9149618
303.2445395
303.4135081
302.99249
301.9130786
301.3276641
302.5709469
301.4078629
299.4272844
301.5973933
301.2639225
300.1460901
299.3302481
298.0870909
297.7030219
297.0739194
546.5613104
603.5671466
633.3506994
653.6721181
669.010826
678.0367935
699.7245424
702.3133781
704.3819122
700.9589025
508.3022346
573.5291255
615.6202096
647.3266687
676.4726175
691.6072905
724.8510491
739.7103529
743.9677923
753.3273446
453.1859215
508.3824014
552.2940905
601.7770868
632.2429357
664.2683136
696.1916154
723.6973011
735.4643816
749.2846373
407.5651252
456.4495173
499.0304554
537.7430939
577.886732
615.5016994
640.3119536
668.1027994
685.4448909
707.6022727
385.9713854
418.5939886
451.3471976
490.2315043
523.7205029
563.0063358
599.2200422
614.1839593
646.7312779
669.9410916
360.4066385
385.0684566
410.7583545
447.1059004
474.3584164
510.6501028
552.7334815
576.8121067
603.3588693
633.6186078
343.8556587
366.0708269
374.5682707
406.0625344
430.5509894
455.5880736
488.1359632
518.0975166
540.7156497
567.7502235
327.5115823
344.8053112
357.0096483
376.852548
399.5265903
419.3507812
444.7885363
475.0842555
492.3032962
517.3948699
325.4061314
334.6545952
338.0187788
356.2619848
374.0302728
394.3333863
409.7635982
430.1608528
450.0189776
478.7867187
320.1901257
324.9740488
333.4685316
344.3350123
354.1976346
371.1320371
386.0411849
403.2204575
415.2316041
432.182303
313.0893953
323.3311587
324.0737468
330.723698
338.2126108
353.9106904
362.1573332
371.169415
389.1046196
406.8747859
306.9072933
312.5389134
317.1658799
317.3683245
322.7623456
328.6134219
338.4546263
348.6178376
358.5864262
374.8589217
304.6240457
306.0002956
308.5362294
313.9520649
316.0104196
321.7021219
331.7984017
334.4404248
343.6752931
352.9870918
305.3329687
305.2368431
309.1342297
311.5430904
314.8274495
315.5119195
324.0510729
329.6106696
335.8070964
337.9373467
302.5941684
303.6192768
304.5110263
308.9563891
313.8941322
313.7805163
318.2765598
323.0956111
331.1544701
336.6300955
302.29284
304.6693003
304.1814402
303.703142
307.9166051
313.5606493
312.8796485
317.1228796
322.3009311
325.7945513
304.3009497
303.1603001
306.4514477
307.1713141
303.8850464
310.2925898
312.2226367
315.4268197
316.750154
319.0388793
302.0642742
304.259079
305.1215785
302.987403
304.7431375
305.9083794
305.9649343
310.7217721
311.7000997
314.9367738
298.7900367
300.4017112
303.2688038
303.6777916
302.1094357
302.0993044
303.4129427
308.0140311
307.9042674
311.0729068
301.3113242
300.6292278
300.5575688
300.191621
301.93227
303.5624647
306.5366825
307.0817453
309.5250658
312.4669879
303.1377804
301.8001128
303.3852123
303.0982358
302.4353273
302.1192189
306.5188377
306.6310703
307.4942748
308.4825231
298.6830042
297.3353567
298.4025414
300.5061227
)
;

boundaryField
{
    flow
    {
        type            calculated;
        value           nonuniform List<scalar> 
42
(
298.6782656
300.5078092
299.7234922
298.6914538
296.4655683
299.7038631
296.3868879
300.7728134
303.7138514
300.7469146
302.0431228
302.2491421
296.1113508
295.2778431
296.1340143
300.5064922
297.6514063
304.2510065
294.6452214
297.0528721
302.4524108
300.5667696
298.6782656
299.8401803
299.8062876
298.774974
297.780581
298.2291381
297.5531098
296.3058968
296.8955328
296.7594041
296.8310327
300.1332503
298.7544753
299.924449
302.2537134
302.9054353
306.312289
308.5997593
333.8871528
426.0379347
)
;
    }
    obstacle
    {
        type            calculated;
        value           nonuniform List<scalar> 10(531.6812648 572.6031043 585.8678913 593.1224859 601.9141415 606.8150326 625.2705842 632.0391419 637.6870487 605.5146684);
    }
    frontAndBack
    {
        type            empty;
    }
    procBoundary0to1
    {
        type            processor;
        value           nonuniform List<scalar> 
21
(
706.3833778
755.4122333
770.4406518
727.1258038
686.0812762
650.9142703
599.778608
553.0318251
505.1163242
456.9043607
425.9549228
397.6016014
366.7748687
353.1695475
335.8760581
333.3554236
322.2732164
320.0413152
313.1143032
313.943284
307.3552315
)
;
    }
    procBoundary0to2
    {
        type            processor;
        value           nonuniform List<scalar> 
31
(
301.8383928
304.8035325
304.4156474
302.0740179
300.8090268
299.0433975
298.7787554
298.477343
298.2367106
297.834189
298.2063217
299.7935887
298.9854906
297.7660324
298.1717078
296.7199498
294.0463126
294.4246943
295.0569023
295.6775932
304.0153388
303.9548903
304.5816785
303.0887478
302.8681569
301.7993273
295.6505078
297.4301763
298.1606309
304.0153388
298.8099667
)
;
    }
}


// ************************************************************************* //
