/*--------------------------------*- C++ -*----------------------------------*\
| =========                 |                                                 |
| \\      /  F ield         | OpenFOAM: The Open Source CFD Toolbox           |
|  \\    /   O peration     | Version:  2406                                  |
|   \\  /    A nd           | Website:  www.openfoam.com                      |
|    \\/     M anipulation  |                                                 |
\*---------------------------------------------------------------------------*/
FoamFile
{
    version     2.0;
    format      ascii;
    arch        "LSB;label=32;scalar=64";
    class       volScalarField;
    location    "0.007";
    object      linearKE;
}
// * * * * * * * * * * * * * * * * * * * * * * * * * * * * * * * * * * * * * //

dimensions      [1 -1 -2 0 0 0 0];

internalField   nonuniform List<scalar> 
654
(
5.21713231
5.260183244
8.205496294
6.070559106
9.118458438
6.996384092
5.226336595
6.383304611
7.481145295
6.340361598
6.451270866
6.256866479
7.979098346
6.027851741
3.989478553
6.826228881
9.449201066
6.015547214
14.05713277
4.555418726
6.529660318
10.15571478
7.531468961
6.127078303
9.400487844
7.907967639
4.68750243
6.572902759
7.175565415
6.284645055
10.50367168
7.433267013
5.925729784
1.842902458
10.59936561
5.011665024
7.168871427
8.788309065
11.74089543
6.803225668
6.224503276
7.642020017
6.429220372
13.91012309
10.00691977
5.594457117
9.521132603
5.3915348
10.0321823
10.85563214
13.11884067
6.077308473
5.698230746
9.288663888
11.73592975
8.085469955
6.521869222
8.30176511
11.09854405
8.900365185
5.411697802
10.0225134
5.000348812
10.13075221
10.30681531
7.043554466
9.086183313
9.705165432
6.758315519
9.036997469
6.730856351
6.144931362
11.07922
8.981137399
9.131342788
8.806642612
5.202116582
6.399628577
14.20994132
10.38902222
7.076213258
9.760370806
8.451420474
6.464016705
6.704385925
7.814292581
7.283667306
13.51385067
7.544677948
4.330864318
4.400416793
12.05057843
5.819715059
4.99869018
5.179927799
5.839737126
8.399597801
4.950766844
10.40863453
4.518567498
8.678539681
3.914613583
6.934583844
9.379287831
9.589511219
6.205728157
3.90943306
9.141547362
6.030381606
8.661966222
4.065902324
10.62689642
9.072741064
6.972972968
9.111625481
2.752195408
9.046359704
8.662973026
9.618419651
4.737627581
6.952888142
9.515530345
5.840416538
6.673078829
4.878351559
9.345024012
8.491220174
5.818088424
6.234643037
12.56520842
14.76003922
15.49121615
4.593854886
9.342335658
11.3045043
6.960621786
9.677767159
3.816971583
5.249960606
8.165115098
6.770473015
7.474007393
5.098005495
8.581351208
11.99804029
8.694741317
2.717862791
9.013696106
9.389239007
9.49445614
6.985257688
11.42978149
4.813513816
7.318601511
8.941088625
9.5879545
10.17568227
5.933820781
5.919860229
6.505755932
4.432462466
9.684447861
10.2534526
7.626713613
11.6885093
7.354879905
11.81646982
4.147916351
10.08881797
9.433658219
4.906799467
4.722698982
1.91206701
9.439560651
14.97559856
7.763364965
6.674263829
6.65589498
6.757839791
10.05608156
6.82295605
8.070892695
7.681384874
9.058874518
9.686418177
4.612174523
4.916642028
8.200137729
6.897287082
3.895336124
5.494407211
7.456184555
9.463690455
5.049549334
9.66096732
7.886455668
9.066026157
4.527370472
5.045705675
5.826706463
4.337097829
7.737242268
5.499979909
7.36649197
5.732339023
9.247176012
4.22214196
6.615259754
9.099888941
10.47615762
9.102669631
10.11937017
6.665248119
9.522346124
6.830855569
5.453808498
7.174888287
9.296244914
9.64645852
6.813571824
7.211286288
7.238148292
8.59440418
10.47108246
11.61673101
5.62834025
6.78737349
6.214615558
8.782337262
6.967439984
9.245077678
11.3105665
7.336535349
5.312488692
8.520557091
6.853002598
12.65525741
8.229854595
8.527780389
4.300530556
4.877144341
12.23135364
5.729843283
2.277034038
9.498660825
4.358367149
8.250023443
11.34158604
14.25195295
9.011375131
6.322371294
4.380901478
12.92356434
11.47982797
8.248986057
6.7894923
3.449702453
6.216855931
7.868958818
6.63977129
5.416554302
9.727313108
7.514627974
7.338308578
5.903252643
3.029128181
6.876134422
6.744832043
12.84777665
6.266694597
6.1609138
8.693477172
10.46728697
4.80093688
7.394397744
4.058221457
5.331100232
10.53799188
7.472124312
8.142470635
7.380393441
6.55546909
8.706338268
10.7193207
5.086499628
9.81022736
4.477332654
9.27405537
8.537953731
5.871146543
5.857138639
9.430549997
9.056499879
14.73280389
9.195034006
11.3020332
10.90337894
5.801316492
9.879561661
3.778315949
5.618174321
3.99577919
6.224655645
7.982666088
8.953925972
9.330828302
17.58449408
5.985358165
8.265060641
4.922896581
7.046852242
5.042982041
8.190119396
7.734279162
6.649732567
6.163562059
12.70261359
5.75331108
4.239453742
10.28326289
5.297026391
10.14258596
9.119139814
7.509391212
6.236949998
10.80865958
8.441513246
7.358815069
5.622808745
7.724970732
10.33135664
4.401261022
11.38723963
5.100302834
3.429533382
7.073355211
6.584729936
6.793849563
6.179837437
7.25958484
4.371410068
7.832171082
7.456095106
10.18693567
4.689987016
5.728400739
4.851205775
8.949837669
6.387899854
7.436927569
8.045168136
9.565435981
5.495259885
5.295880116
10.11516234
10.3697091
4.180622392
3.719302161
7.834447114
4.654216647
6.164396295
6.548163374
12.37873529
2.984141633
10.26509537
3.96964495
5.23407694
9.925984102
8.890162042
11.9205129
8.095373686
10.0435418
7.706034089
12.64224762
7.59681498
11.42898269
8.627579345
8.658944116
9.57859292
7.184827508
5.637793756
5.63436238
8.378112795
11.99478327
8.277458638
5.745292249
8.113866933
3.605575663
5.266077495
9.334090869
8.228017152
8.702983831
3.75030226
5.104402284
7.003372813
9.323500401
12.20670877
9.105448983
6.320622388
4.675407752
4.492916681
8.994474728
12.02987047
7.822376402
6.492328792
6.841633153
5.811690344
7.720916213
6.367461066
11.39779404
4.837839119
4.871913962
11.86310678
11.59181428
4.465658295
9.824862067
8.825195299
4.738412282
7.519745168
10.56260679
5.745721637
9.773081928
8.612717371
7.439213526
13.48714944
8.043637681
6.699677589
6.53584695
5.822214374
11.46050539
14.04237052
10.47146194
10.48120789
7.806363445
8.884585969
12.13650168
5.744945939
10.95379912
8.187822518
6.76450613
11.28603091
7.202051863
10.02908159
9.307426448
12.92886222
8.676103511
6.239283667
9.133303531
7.027155958
6.377687204
4.26830799
9.498779562
8.749633498
8.706959741
13.24769365
8.330596043
5.895009173
11.97961446
9.779803868
14.08080399
8.056858281
8.77477361
10.95618958
8.609555883
6.94637716
8.244334051
7.710674627
11.07382945
4.883286256
8.6584878
10.64014475
8.934642736
8.9082385
10.57099972
11.68034049
8.082287561
10.78449526
14.52344172
10.28799463
11.21070867
4.725946403
12.3623241
8.99005594
7.681244897
9.42009833
11.54154301
11.58355154
13.04089525
13.19511988
9.285838385
6.444071765
4.321826052
13.13001341
8.669547088
9.151944886
9.951330716
10.42521915
8.049552198
13.81043149
16.0480539
10.18021582
6.344720271
6.92714122
15.0263571
10.14514447
10.64278425
7.808947089
7.076081926
9.821305045
8.816717424
10.40414061
8.964090937
13.82297109
10.28210742
7.284048795
8.511285559
12.02878953
9.877283735
11.56672972
16.29596727
16.8424634
14.9597316
11.09021112
7.385530646
7.135374162
13.19432566
3.385497452
12.59583603
10.18698206
12.60161403
5.978342228
10.79285335
10.06439217
6.755334971
6.932757056
5.983706519
6.351034808
3.330093347
9.187558372
5.626543918
5.571658015
5.076962609
8.615941893
3.555333263
8.495932643
8.762643044
10.45260109
10.60177339
8.355680506
9.09536553
5.523232101
9.209022023
4.968079717
3.414185284
8.222613001
15.35275027
6.39267635
9.237636206
9.124146221
3.88102428
8.468250378
7.191673952
6.015825266
8.560485973
7.469330291
6.963213066
6.613178321
5.922720828
9.038169765
6.424617894
6.578888953
9.079661443
10.69690018
9.821323495
10.56242856
10.92030846
9.102592931
9.412523331
14.73924024
6.865897132
2.930647388
3.911353065
4.495689093
10.72422109
8.280959923
5.47901977
4.063113325
8.398157237
6.761478174
6.246040129
8.058717306
9.52925702
5.714056949
7.586508324
12.64116758
8.183587799
9.797426885
10.01609617
9.02522185
10.60683175
8.383876786
6.733982536
7.874484482
6.860615544
10.70735406
9.928535261
8.382401644
6.662984897
9.400951018
4.309089248
9.031768354
8.080963447
4.426612674
9.467858818
10.57554307
9.315883087
10.63450029
3.551095802
5.70984363
5.979118146
9.156242385
4.266567487
11.60468112
6.020141724
6.335959249
6.196219918
8.785518265
6.195064813
10.89297311
7.044124457
9.895193515
6.173186397
11.08500563
10.84697465
3.89998085
1.843575955
10.0097557
9.311061727
12.36351526
5.750698081
7.94566024
11.86765931
1.027199781
4.192494408
5.665181758
13.05583542
8.275908481
9.803732456
11.48188579
5.624587454
7.335511735
12.08245091
7.852953792
6.75610056
)
;

boundaryField
{
    flow
    {
        type            zeroGradient;
    }
    obstacle
    {
        type            calculated;
        value           nonuniform List<scalar> 10(8.824694313e-18 0 6.700066259e-18 0 1.047567416e-18 2.373207298e-18 2.28838609e-18 3.688281419e-18 1.174446439e-18 5.226358481e-18);
    }
    frontAndBack
    {
        type            empty;
    }
    procBoundary0to1
    {
        type            processor;
        value           nonuniform List<scalar> 
21
(
8.99825053
6.946140778
11.0447954
11.2396687
7.681435703
6.821787456
12.58227199
13.58488969
7.23900175
4.66603369
7.603156526
6.897142704
7.283491709
9.973073044
3.507919773
7.608507857
10.06654715
7.996152249
6.643978922
12.57023398
10.37493724
)
;
    }
    procBoundary0to2
    {
        type            processor;
        value           nonuniform List<scalar> 
31
(
5.028338767
5.401818409
8.152625352
8.9511902
7.199842668
9.645558891
5.79654484
7.175631525
12.22411852
12.47579901
10.37155647
5.541569574
5.592021929
5.822948723
8.17855005
12.33973975
7.914820042
9.54646
6.215066598
5.126442864
10.46402775
4.450186648
7.070882519
7.426190784
5.353180573
8.537079916
5.746499022
9.084738625
8.190392323
10.46402775
9.221706114
)
;
    }
}


// ************************************************************************* //
