/*--------------------------------*- C++ -*----------------------------------*\
| =========                 |                                                 |
| \\      /  F ield         | OpenFOAM: The Open Source CFD Toolbox           |
|  \\    /   O peration     | Version:  2406                                  |
|   \\  /    A nd           | Website:  www.openfoam.com                      |
|    \\/     M anipulation  |                                                 |
\*---------------------------------------------------------------------------*/
FoamFile
{
    version     2.0;
    format      ascii;
    arch        "LSB;label=32;scalar=64";
    class       volScalarField;
    location    "0.007";
    object      linearKEMean;
}
// * * * * * * * * * * * * * * * * * * * * * * * * * * * * * * * * * * * * * //

dimensions      [1 -1 -2 0 0 0 0];

internalField   nonuniform List<scalar> 
654
(
5.792598136
7.775107836
7.740084414
7.769532409
7.774720171
7.792855418
7.785137603
7.817918397
7.787204267
7.727664836
7.754031502
7.733939407
7.713991633
7.709313731
7.740202179
7.766745503
7.733147073
7.764122844
7.840414956
8.336217825
5.879580059
7.886961118
7.855554066
7.797415541
7.801052759
7.823745849
7.785758269
7.785256162
7.790189936
7.825584506
7.855299163
7.885596355
7.879265362
7.90325786
7.894396367
7.946462497
7.999169139
8.077510093
8.212328397
8.454236538
5.913251231
7.991584911
7.913195935
7.899633321
7.85799332
7.865296602
7.907626079
7.884563641
7.868647012
7.828632159
7.815787428
7.808998156
7.802624512
7.827658333
7.853760397
7.827103013
7.835477772
7.932518896
7.983276245
8.223418909
5.93841679
7.857556418
7.841043748
7.849160476
7.808703312
7.802121649
7.809600547
7.811340281
7.804814825
7.85371613
7.826868757
7.83042077
7.869699565
7.777451173
7.787566931
7.746521614
7.728607681
7.791281633
7.899455772
8.122387504
5.883077462
7.907498086
7.799680029
7.808603585
7.83122796
7.827662324
7.789640216
7.77176057
7.735062875
7.743871605
7.736237847
7.716984784
7.777921614
7.777361864
7.769657589
7.891594515
7.88450937
7.951956622
7.973007133
8.061515562
5.874731817
7.861306107
7.871994851
7.799224912
7.783983615
7.765906292
7.791759219
7.857246694
7.852909239
7.879501627
7.860154093
7.870681968
7.810356532
7.807776239
7.875520207
7.806200102
7.803216328
7.814822219
7.854737981
7.971741291
5.914743847
7.922817969
7.875207564
7.838286679
7.903495701
7.920849289
7.897774198
7.833128377
7.874796838
7.910753678
7.87183747
7.856584936
7.861688684
7.817546602
7.82824833
7.799143927
7.84545489
7.868514747
7.959842568
7.990441784
5.886913611
7.87503997
7.831890714
7.849547002
7.826811551
7.834360216
7.877412413
7.915512062
7.923787785
7.875652556
7.85089936
7.8258996
7.848694203
7.894029682
7.84499453
7.911745121
7.929438559
7.926760083
7.928265322
7.943425202
5.909073015
7.987934975
7.919856428
7.895905143
7.856764247
7.835904067
7.851357005
7.872460855
7.810319888
7.803641955
7.890883979
7.8975288
7.851360193
7.861683386
7.815839256
7.834810721
7.877626506
7.880654244
7.881282469
7.988524024
5.902636548
7.856426414
7.855738199
7.862566833
7.881506415
7.878742943
7.866239717
7.836910788
7.897047033
7.904607465
7.865654347
7.886212513
7.935375062
7.926556933
7.963614357
8.003311144
7.981387065
7.922293646
7.944044837
7.93626351
5.879255208
7.857711663
7.813461298
7.80593193
7.793131484
7.760406044
7.729272315
7.778329303
7.801018945
7.820501805
7.853043614
7.859060317
7.878893487
7.864376562
7.837462314
7.720498929
7.773993384
7.845318369
7.927136352
7.957857411
5.913123601
7.943576389
7.892663711
7.824832831
7.885337838
7.892168269
7.926671536
7.914375922
7.925773834
7.852465943
7.826842002
7.772276977
7.755689501
7.834449552
7.872598655
7.95047779
7.982303466
7.896706092
7.87472736
7.918231134
5.881808222
7.862520522
7.825342229
7.841241839
7.788178637
7.776003158
7.787637132
7.759226441
7.73380696
7.771728855
7.817463778
7.829696762
7.865045592
7.826083095
7.765766892
7.812873685
7.851204218
7.928523688
7.974417884
7.944379152
5.883957626
7.954835495
7.907984023
7.92943633
7.970132171
7.95936527
7.912931644
7.975061867
7.919041647
7.887172152
7.839668472
7.846108123
7.822897259
7.850675117
7.874209251
7.795944687
7.747469564
7.705061436
7.684815962
7.787959425
5.875480797
7.940862502
7.871976587
7.813207154
7.845621544
7.853243826
7.8843433
7.870880042
7.919744726
7.934923134
7.942983851
7.970547437
8.009600848
7.964234541
7.917941672
7.88583435
7.877309794
7.882431876
7.850924743
7.8213727
5.912519829
7.916979315
7.856329261
7.864264745
7.811413202
7.859168492
7.897385586
7.88311207
7.88923902
7.867432489
7.845505407
7.82582368
7.741005208
7.780976772
7.815305669
7.892414193
7.906748668
7.894940618
7.918322917
7.87581856
5.914792336
7.898469529
7.829314211
7.838283458
7.812585589
7.821502307
7.717512143
7.773230357
7.742805989
7.753033663
7.806866058
7.819900865
7.84097493
7.887182197
7.837262235
7.798583424
7.790017155
7.818497948
7.79560145
7.807138843
5.897666487
7.897492708
7.855066911
7.877112134
7.868580914
7.819729384
7.882999183
7.876023571
7.851702507
7.816637135
7.78772933
7.79048751
7.7759181
7.799423354
7.814443609
7.822391021
7.873662271
7.837594581
7.8641798
7.871988171
5.890368535
7.908421929
7.874817905
7.779134761
7.821292093
7.854244927
7.828857691
7.844569045
7.827164286
7.846529311
7.831005042
7.830322786
7.788671001
7.770742505
7.76199364
7.762305531
7.755455061
7.777536066
7.782053478
7.768528931
5.895999344
7.922625827
7.950702188
7.935244633
7.917268923
7.908574804
7.892520382
7.891242607
7.916496447
7.880305292
7.883392489
7.89553763
7.946815497
7.928908083
7.939925457
7.938368611
7.932827213
7.966537668
7.961374894
7.94195765
5.904811056
7.908064241
7.807309173
7.8191829
7.828798887
7.84703246
7.84546098
7.730867044
7.782114234
7.823796119
7.869431446
7.879600652
7.856896173
7.876362765
7.872611317
7.890931292
7.870029227
7.833534053
7.832467345
7.809322671
5.883044351
7.896869342
7.848191362
7.799965681
7.822471034
7.793245016
7.858627815
7.922635451
7.972066237
7.946010862
7.859855782
7.811195499
7.803711427
7.848155194
7.857976615
7.862490635
7.848152997
7.851825974
7.894550444
7.896545791
9.716903262
9.826269706
9.588403898
9.182616756
8.781648489
8.460377893
8.15086036
7.829023008
7.480828838
7.251244532
9.117492872
9.818942458
10.22166193
10.47813604
10.53220912
10.40349481
10.05468457
9.753286569
9.450585204
9.078898014
8.657284003
9.277571519
9.785937669
10.35304628
10.64406711
10.9658908
11.03204396
11.02800637
10.85351046
10.52756147
8.43601102
8.793612196
9.250974998
9.748650993
10.25488018
10.71575284
11.15654268
11.36042999
11.52382288
11.53979523
8.212292552
8.516999122
8.929385742
9.398274209
9.898143102
10.24830195
10.64329018
10.99597339
11.38643635
11.71113484
8.135184114
8.367036592
8.637498319
8.957356691
9.303367361
9.771860304
10.30587349
10.73539285
11.18466129
11.56309855
8.122506921
8.285166411
8.433256805
8.696861507
8.955225549
9.399528125
9.820429065
10.27588838
10.77576888
11.26259236
8.015788973
8.062658812
8.250940091
8.446241956
8.69594429
8.965345462
9.393951383
9.733753764
10.12200812
10.51160134
7.952871633
8.099958264
8.166944965
8.317853782
8.521668896
8.726611904
8.950624953
9.262410239
9.661238712
10.0323359
8.031287473
8.097089157
8.188028453
8.215378264
8.315753169
8.522681033
8.761791753
8.967736745
9.196546604
9.457342194
8.000215956
8.02150104
8.181868779
8.24255335
8.343075469
8.379242735
8.498788663
8.663438394
8.864173712
9.125395146
7.937501869
7.931542492
7.942128026
7.960591913
8.004687458
8.125678326
8.209325112
8.371278504
8.545955192
8.795145703
7.890443583
7.90374143
7.923428734
7.980014954
7.991979478
8.119753682
8.246279441
8.28871536
8.380847537
8.563781271
7.839970102
7.862138813
7.889460067
7.895405393
7.922434846
7.929948608
7.987676657
8.139905937
8.244735105
8.339541001
7.812175754
7.801549102
7.88728428
7.952182137
7.965271352
8.099016507
8.062764903
8.128670996
8.170853834
8.272678785
7.979638994
8.007803739
7.937795019
7.94534499
7.991994034
7.975038951
8.013121264
8.0294196
8.089922968
8.093060149
7.769830245
7.817928763
7.804885948
7.815145294
7.76625459
7.828599288
7.856782316
7.878281452
7.882295317
8.05531533
7.835780651
7.766682243
7.781017637
7.79747168
7.88195832
7.868160991
7.874546307
7.949076331
7.962404368
7.981594043
7.828675036
7.916691335
7.951168045
7.964110226
7.941853161
7.92609374
7.925149378
7.922488757
7.893995828
7.949604407
7.916642063
7.901451587
7.869612072
7.842609605
7.868437605
7.910353523
7.938046284
7.94195272
7.916195422
7.925168575
7.800643345
7.820102379
7.81062073
7.819823887
7.821500868
7.772919585
7.752174882
7.769813613
7.898140849
7.878669411
7.882161533
7.854837966
7.828399286
7.880584233
)
;

boundaryField
{
    flow
    {
        type            calculated;
        value           nonuniform List<scalar> 
42
(
5.792598136
5.879580059
5.913251231
5.93841679
5.883077462
5.874731817
5.914743847
5.886913611
5.909073015
5.902636548
5.879255208
5.913123601
5.881808222
5.883957626
5.875480797
5.912519829
5.914792336
5.897666487
5.890368535
5.895999344
5.904811056
5.883044351
5.792598136
7.775107836
7.740084414
7.769532409
7.774720171
7.792855418
7.785137603
7.817918397
7.787204267
7.727664836
7.754031502
7.733939407
7.713991633
7.709313731
7.740202179
7.766745503
7.733147073
7.764122844
7.840414956
8.336217825
)
;
    }
    obstacle
    {
        type            calculated;
        value           nonuniform List<scalar> 10(4.132286012e-18 3.641372467e-18 3.36144519e-18 3.029909319e-18 3.085529588e-18 2.877689778e-18 2.754954034e-18 2.687041795e-18 2.549604939e-18 2.502009545e-18);
    }
    frontAndBack
    {
        type            empty;
    }
    procBoundary0to1
    {
        type            processor;
        value           nonuniform List<scalar> 
21
(
6.985743375
8.752527851
10.27082363
11.37535353
11.81896959
11.92573328
11.66940642
10.95112359
10.54244045
9.824009756
9.468478379
9.012201238
8.760398978
8.382149966
8.396825783
8.095516267
8.109948781
8.062611183
7.946972471
7.9756712
7.879016119
)
;
    }
    procBoundary0to2
    {
        type            processor;
        value           nonuniform List<scalar> 
31
(
5.870972828
7.874012336
7.870736335
7.813395514
7.829832515
7.828993489
7.824201945
7.802403867
7.784646988
7.830879952
7.861990325
7.936057451
7.909756995
7.838387375
7.850202928
7.823390409
7.840111765
7.81987125
7.76309836
7.767562886
7.913713965
7.894941086
7.909647491
7.920974345
7.936368394
7.993009047
7.795530891
7.846458826
7.906467027
7.913713965
7.842873458
)
;
    }
}


// ************************************************************************* //
