/*--------------------------------*- C++ -*----------------------------------*\
| =========                 |                                                 |
| \\      /  F ield         | OpenFOAM: The Open Source CFD Toolbox           |
|  \\    /   O peration     | Version:  2406                                  |
|   \\  /    A nd           | Website:  www.openfoam.com                      |
|    \\/     M anipulation  |                                                 |
\*---------------------------------------------------------------------------*/
FoamFile
{
    version     2.0;
    format      ascii;
    arch        "LSB;label=32;scalar=64";
    class       volVectorField;
    location    "0.007";
    object      momentumMean;
}
// * * * * * * * * * * * * * * * * * * * * * * * * * * * * * * * * * * * * * //

dimensions      [1 -2 -1 0 0 0 0];

internalField   nonuniform List<vector> 
654
(
(0.006248635066 -3.504670929e-05 -8.193559832e-06)
(0.008207107539 -3.939437878e-05 -1.532640827e-05)
(0.008214450825 -4.650216512e-05 -1.266390068e-05)
(0.008237713208 -4.106868047e-05 -7.752180101e-06)
(0.008248149212 -3.697910232e-05 -1.07495651e-05)
(0.008263010536 -4.226729054e-05 -5.656615125e-06)
(0.008256752139 -3.915822563e-05 6.758636939e-06)
(0.00829695055 -4.411788776e-05 -3.140550907e-06)
(0.008269461744 -3.709047663e-05 7.716866069e-06)
(0.008216338996 -3.742796242e-05 5.426497322e-06)
(0.008240998688 -2.768909225e-05 -4.815404663e-07)
(0.0082256499 -2.176334108e-05 -6.818942981e-06)
(0.008204872575 -2.009960609e-05 -6.629913567e-06)
(0.008189646032 -2.486220837e-05 -1.211036015e-05)
(0.008219993208 -1.668189864e-05 -8.871912549e-06)
(0.008230470189 -3.252346592e-05 -5.725719003e-06)
(0.008174834691 -4.298097077e-05 1.04488683e-05)
(0.008146160976 -7.288783498e-05 7.745859881e-06)
(0.008030517887 -0.0001051770325 -4.342899327e-06)
(0.007737965989 7.968422941e-05 4.872957408e-06)
(0.006336747177 -6.319932719e-06 -3.715659205e-06)
(0.008319522036 -8.452021972e-06 -1.683517222e-06)
(0.008344344384 -9.5723399e-07 6.139318835e-06)
(0.008284555051 -1.193119488e-05 -6.256998033e-06)
(0.008285781298 -1.370121537e-05 -8.478108001e-06)
(0.008310225242 -2.208691358e-05 -1.489364112e-05)
(0.008272430534 -3.024199738e-05 -2.65465317e-05)
(0.008268438392 -1.494220727e-05 -1.548639106e-05)
(0.008266019121 -1.240748279e-05 -9.602501175e-06)
(0.008296537524 -6.178043125e-06 -1.559706227e-06)
(0.008323966026 -1.461650419e-05 1.278700393e-06)
(0.008353839953 -1.307210862e-05 4.257900226e-06)
(0.008341247674 -9.513871094e-06 6.048016462e-06)
(0.00836645782 -1.114359926e-05 5.462667061e-06)
(0.008352155987 -8.707879656e-06 -4.742781108e-06)
(0.008389513298 -1.411060109e-05 -3.676574321e-06)
(0.008413674725 -3.762547791e-06 6.771942467e-06)
(0.00843169138 1.768001418e-05 -2.420635067e-06)
(0.008368221681 0.0001052717563 8.550803896e-07)
(0.008167752191 0.0004430980264 8.900149525e-06)
(0.006374301497 -1.393562178e-06 1.789596407e-05)
(0.008425871934 -9.393642841e-06 2.117932097e-05)
(0.008396215178 -2.141751955e-05 5.76141281e-06)
(0.008381806789 -2.337715623e-05 5.028788711e-06)
(0.00833984224 -2.494153898e-05 1.006603531e-05)
(0.00835173562 -1.336847955e-05 9.7837449e-06)
(0.008397535124 -4.873828661e-06 1.305881495e-05)
(0.008363067701 -1.904569969e-06 9.527879695e-06)
(0.008356871244 -7.516317136e-06 -1.869323934e-06)
(0.008315721443 -1.590628596e-05 -4.591548108e-06)
(0.008312334236 -1.761627741e-05 -1.051263035e-05)
(0.00831049542 -2.509224132e-05 -1.841290684e-05)
(0.008293684904 -2.41862527e-05 -1.876201883e-05)
(0.008318402805 -1.611981896e-05 -1.417546306e-05)
(0.008338172888 -1.581935453e-05 -1.788562372e-05)
(0.008291110143 3.934829886e-06 -4.9046051e-06)
(0.008259668696 1.169593436e-05 -4.072934533e-06)
(0.008279070984 5.011816867e-05 -4.307899703e-06)
(0.008201364533 0.0001440725164 1.286052701e-05)
(0.008243699198 0.0003715055982 1.221807659e-05)
(0.006408164251 -1.792352423e-05 -4.630951148e-06)
(0.008306299038 -1.827567849e-05 -8.990431046e-06)
(0.008337950727 -8.588082675e-06 -1.195668867e-06)
(0.008341892953 -5.533542544e-06 6.610211857e-06)
(0.008290919688 6.44629244e-06 1.197183343e-06)
(0.008275784921 -3.323295386e-06 -3.047598878e-06)
(0.008283384173 -1.286798038e-05 -1.26225289e-05)
(0.00828820567 -2.123569942e-05 -1.31762228e-05)
(0.008279034502 -1.87912333e-05 -1.001007874e-05)
(0.008329677006 -1.447383138e-06 -7.10733515e-06)
(0.008297177312 5.510402813e-06 -2.587992488e-06)
(0.00830270536 1.544976185e-05 -8.321920329e-06)
(0.008339452571 2.138821259e-05 -1.350314351e-05)
(0.008248738327 1.590884776e-05 2.137737004e-06)
(0.008251614288 9.733787966e-06 4.538084505e-07)
(0.008196982142 8.02690992e-07 1.528799378e-06)
(0.00816724977 1.685229427e-05 -7.282815013e-07)
(0.008165266187 5.284531064e-05 6.921536625e-06)
(0.008193511015 0.0001223195828 -2.862351563e-06)
(0.008281372397 0.0003027155873 2.26777864e-06)
(0.00634465179 -9.139903741e-06 1.104926953e-06)
(0.008336579721 -1.100571232e-05 8.841370583e-06)
(0.008257769009 -6.828040248e-06 7.385659621e-06)
(0.008275596758 -3.006273486e-06 3.249041466e-06)
(0.008299158853 -2.110065827e-06 5.669816184e-06)
(0.008302579482 -1.876296223e-06 4.018320033e-06)
(0.008265792188 1.518971525e-05 2.205678597e-05)
(0.008240711441 1.178507782e-05 1.713441104e-05)
(0.008196897909 8.745712187e-06 9.535846249e-06)
(0.008206311642 -1.649445638e-07 8.961356026e-06)
(0.008193329208 -1.025137327e-05 1.923821012e-05)
(0.008181763339 -8.35282535e-06 1.670228591e-05)
(0.008243855398 -8.804733709e-06 8.530646778e-06)
(0.008247596372 -4.246450495e-06 2.706223257e-06)
(0.008236089714 1.040332621e-05 4.486063897e-06)
(0.008348802193 2.016887416e-05 -3.258049221e-06)
(0.008334080504 3.256997872e-05 -3.65977258e-06)
(0.00835725958 5.459850951e-05 -1.244529022e-05)
(0.008339572533 0.0001131543386 -1.718473106e-05)
(0.008345657597 0.0002418155084 -5.593006892e-06)
(0.006329507905 1.84587175e-05 -5.830056541e-06)
(0.008284752733 1.596559061e-05 -4.883283065e-06)
(0.008347110802 1.145378004e-05 1.424846159e-06)
(0.00827403084 9.135486962e-06 -8.514741259e-06)
(0.008256719924 1.417430093e-05 -1.391583702e-06)
(0.008247546969 2.904312106e-06 2.882779221e-06)
(0.008263867696 1.42901363e-06 -7.555908176e-06)
(0.00833055509 -9.679066114e-07 -9.45129735e-06)
(0.008331995551 2.913140346e-06 -9.12571701e-07)
(0.008354281497 8.041675782e-06 4.094205449e-07)
(0.008337212021 9.507390194e-06 -5.940248856e-06)
(0.008340981636 1.313102383e-06 -3.943225015e-06)
(0.008270548282 -5.446006526e-06 -6.481645971e-06)
(0.008269610365 -1.695187971e-05 -5.658756414e-06)
(0.008330857243 -8.356592132e-06 2.358248224e-07)
(0.008254088905 -5.116963269e-06 2.40853856e-07)
(0.008237217275 2.547203054e-05 -1.197780985e-05)
(0.008217868586 6.879157959e-05 -1.978323413e-05)
(0.008238576306 9.545107771e-05 -1.846871665e-05)
(0.008283863842 0.0001938671935 -9.734887208e-06)
(0.006376346964 2.405905977e-06 -1.493798912e-05)
(0.008356662338 8.11657915e-06 -2.319282547e-05)
(0.008355233076 1.058766948e-05 -2.201525271e-05)
(0.008317343681 9.118002708e-06 -2.599259014e-05)
(0.008383387911 3.189906517e-06 -2.885453909e-05)
(0.00839815371 1.179734509e-05 -2.788248976e-05)
(0.00837415368 -1.53263544e-06 -2.325266153e-05)
(0.008319838473 -8.75629519e-06 -2.47548718e-05)
(0.008365738157 -4.258721565e-06 -2.313040247e-05)
(0.008406032659 -5.693399452e-06 -1.605668548e-05)
(0.008363572728 -2.168012151e-06 -2.158057997e-05)
(0.008358063655 -3.754284792e-06 -1.4732873e-05)
(0.008359209874 9.754136597e-06 -2.755556394e-06)
(0.008308462262 1.94454949e-05 -1.453460851e-05)
(0.008318612946 1.594349956e-05 -1.02948581e-05)
(0.008286067379 1.866570053e-05 -1.621965851e-05)
(0.008313428599 3.35161634e-05 -1.760522755e-05)
(0.008317632179 3.617823042e-05 -2.531629502e-05)
(0.008379686637 8.150786444e-05 -1.116052817e-05)
(0.008364140592 0.0001453054133 -6.739336423e-06)
(0.006340771022 -1.126784776e-05 -2.030722628e-05)
(0.008299881069 -6.390850014e-06 -2.789042184e-05)
(0.00831366312 -8.618662411e-06 -2.421968981e-05)
(0.008325827007 -3.007005173e-06 -1.768821419e-05)
(0.008309789049 9.839856129e-07 -9.372769158e-06)
(0.00830468592 -1.750900751e-06 -2.226411888e-05)
(0.00835587666 1.306562875e-05 -2.235905598e-05)
(0.008395289403 1.148578344e-05 -1.560261808e-05)
(0.008410968823 9.026382614e-06 -1.781657152e-05)
(0.008357197453 3.713431502e-07 -2.59179357e-05)
(0.008335664127 -3.402362875e-06 -2.391221931e-05)
(0.008296876798 1.039547101e-05 -2.557823196e-05)
(0.008328062 1.547906836e-05 -2.727196311e-05)
(0.008370682548 8.785867362e-06 -1.897167441e-05)
(0.008317437515 1.731876447e-05 -2.513308201e-05)
(0.00837886185 1.045339556e-05 -1.806533289e-05)
(0.008386392006 2.437214046e-06 -1.03878199e-05)
(0.008376855719 3.425288205e-05 -2.426782168e-05)
(0.008368740528 5.674054114e-05 -1.91703298e-05)
(0.008357442177 9.499802735e-05 -1.958298846e-05)
(0.006367126949 8.61843098e-07 -8.319054146e-06)
(0.008417528232 3.507215226e-06 -1.411750995e-05)
(0.008397011396 2.714985933e-06 -2.081303337e-05)
(0.008368682602 4.173676013e-06 -2.08451933e-05)
(0.00833291713 -4.739511721e-06 -1.773743369e-05)
(0.008309838676 1.222690716e-06 -1.418974105e-05)
(0.008330426923 -5.942717289e-06 -9.009096623e-06)
(0.008344202002 5.098989828e-06 -7.772372161e-06)
(0.008277902999 6.609835987e-06 -8.980638507e-06)
(0.008274694812 1.613193293e-05 2.448751089e-06)
(0.008367533301 1.505186562e-05 2.530241368e-06)
(0.008377657833 1.358634441e-05 -1.162757859e-05)
(0.008332349669 -8.392812735e-06 -1.168369897e-05)
(0.008331039546 -4.294375564e-06 -8.878474326e-06)
(0.008282228378 -1.257577432e-05 -7.272792606e-06)
(0.008303261827 5.183243609e-06 -1.006459945e-05)
(0.008346410696 2.362986076e-05 -5.369966188e-06)
(0.00833954246 3.695486448e-05 -1.467857291e-05)
(0.008332761551 5.153705937e-05 -1.840181402e-05)
(0.008422376084 9.017696716e-05 -1.307325452e-05)
(0.006353163723 -2.068212653e-06 1.361135802e-05)
(0.008273031939 -1.446310798e-05 1.28726231e-05)
(0.008327084869 -1.768588169e-05 1.465983565e-05)
(0.008335952067 -1.536316151e-05 1.204273671e-05)
(0.00836169952 -5.9079446e-06 4.52779514e-06)
(0.008359096778 -8.562090628e-07 3.219705213e-06)
(0.008347130948 -1.102284242e-06 3.973923823e-06)
(0.00832604862 3.284079746e-06 -8.090486565e-06)
(0.008381616217 9.236799631e-06 -1.260797848e-05)
(0.00838179367 1.399063836e-05 -2.0168214e-05)
(0.008346986886 1.137136331e-05 -9.512883537e-06)
(0.008360539219 9.171512633e-06 -3.398341804e-06)
(0.008407065869 3.022544159e-06 8.837155072e-06)
(0.008404912729 4.598155569e-06 -8.601006032e-07)
(0.008440015682 6.914431062e-06 -7.260269195e-06)
(0.008468683309 9.84654707e-06 -6.140691138e-06)
(0.008448964465 1.550869765e-05 -3.516229084e-06)
(0.008374032086 3.632307402e-05 2.625464363e-06)
(0.00839477135 5.709148425e-05 5.820895886e-06)
(0.008365788818 7.926070472e-05 -6.453132583e-06)
(0.006354808687 1.567448357e-05 -1.311064039e-05)
(0.008311311399 2.382742795e-05 -1.58037511e-05)
(0.008304520733 1.289922562e-05 -1.911566268e-05)
(0.008289493827 7.948656374e-06 -1.769171895e-05)
(0.008272492819 5.268213282e-06 -1.152714911e-05)
(0.008229873672 -1.132886497e-05 -8.598506004e-06)
(0.008201629637 -9.323964986e-06 -3.013912548e-07)
(0.008237776047 -1.393009082e-05 -7.261160674e-06)
(0.00826269066 -1.23319419e-05 -4.170812225e-06)
(0.008294499874 -1.517266514e-05 -5.670878995e-06)
(0.008323869964 -1.12062579e-05 -1.110438577e-05)
(0.008334493305 -1.100316494e-05 -1.102663696e-05)
(0.00835722573 6.55238387e-06 -1.286608181e-05)
(0.008339402362 1.630579073e-05 -1.781570665e-05)
(0.008305077388 2.698314176e-05 -1.824688782e-05)
(0.00819027076 2.243416892e-05 -6.367779223e-06)
(0.008235716684 1.861127062e-05 -3.820374477e-06)
(0.008304398932 9.135484692e-08 -5.252635228e-06)
(0.008385343221 1.466623646e-05 -6.983123009e-06)
(0.008390527998 5.362892838e-05 8.275789478e-06)
(0.006374060879 7.530767612e-07 9.287872452e-06)
(0.008380505759 -7.675730327e-06 1.02872595e-05)
(0.008386036615 -7.029296507e-07 1.528490095e-05)
(0.008327257042 -3.411607218e-06 1.008136631e-05)
(0.008386144013 -1.117536592e-05 6.862154622e-06)
(0.008401701079 -6.197566466e-06 1.127867349e-06)
(0.008441460509 5.86371187e-06 -1.732315147e-06)
(0.008429620442 -4.826418056e-06 1.769154751e-06)
(0.00843667658 -1.893358306e-06 5.468608091e-06)
(0.008351460017 -5.159893237e-06 2.993503549e-06)
(0.008322714485 5.495012e-06 -6.760716732e-07)
(0.008261462501 1.427466368e-05 -4.507591514e-06)
(0.008234146135 9.596919398e-06 -8.587050142e-07)
(0.008312034899 4.31657241e-06 3.1551417e-06)
(0.008354559295 -6.467915071e-06 7.081150977e-06)
(0.008432559781 -3.70512126e-06 3.959763503e-07)
(0.008459622411 2.923587107e-07 5.072509026e-06)
(0.008378640842 1.124012526e-05 8.789175397e-06)
(0.008354168982 9.133424269e-06 -3.708192183e-06)
(0.008382806141 2.423765689e-05 1.395108436e-05)
(0.006359000226 5.432704371e-06 4.696800998e-07)
(0.008311455818 4.235960944e-06 -1.101920467e-05)
(0.008317460938 5.55732996e-07 -4.946191085e-06)
(0.008326193991 5.669862809e-06 -1.65612303e-06)
(0.008271448549 4.93500808e-06 -5.73931732e-06)
(0.008254573411 7.818648089e-06 -3.688514157e-06)
(0.008262271023 -1.064296916e-05 -2.50826267e-06)
(0.008224841606 -4.381511386e-06 -1.180394877e-05)
(0.008199732312 5.436671741e-06 -2.699042048e-06)
(0.008239712517 3.251475915e-06 1.524797444e-06)
(0.008289107478 6.650373388e-07 5.752704937e-06)
(0.008309670008 -1.87074574e-05 4.830749707e-06)
(0.008344126752 -2.885171788e-05 2.945953934e-06)
(0.008311604564 -2.424610262e-05 5.326811041e-06)
(0.00824251873 -1.222427623e-05 9.794550101e-06)
(0.008295963725 -1.346089644e-05 7.910175864e-06)
(0.008326615946 -1.099842028e-05 3.359483318e-06)
(0.008398286904 2.379705174e-06 8.513158317e-06)
(0.00843772895 1.304435774e-05 1.27013264e-05)
(0.008401549442 3.868210433e-05 8.392799551e-07)
(0.006355739087 -4.959412928e-07 -3.652401725e-06)
(0.008395316152 -2.986315467e-06 -5.580733229e-06)
(0.008387885039 7.532609807e-06 -7.185656777e-06)
(0.008413482784 1.072595348e-05 -1.194933923e-05)
(0.008450216561 3.314939536e-06 -2.36082206e-06)
(0.008436568241 1.271563157e-05 -2.745960446e-06)
(0.008382139436 2.593768289e-05 6.791255385e-06)
(0.008442615809 1.689846102e-05 1.148337849e-05)
(0.008388040789 3.698566096e-06 8.148207421e-06)
(0.008359944886 -5.565468399e-06 1.529425368e-05)
(0.008305132649 -1.15820605e-05 -2.237936954e-06)
(0.00831663028 -5.79104292e-06 4.796427261e-06)
(0.008293528984 2.016456938e-06 1.036849608e-05)
(0.008320850403 -4.835120318e-06 1.187139948e-05)
(0.008341088822 -7.191307244e-06 8.830881841e-06)
(0.008263767759 -7.501695097e-06 -5.457242718e-07)
(0.008211443919 -2.788697114e-06 -8.294829109e-06)
(0.008174677127 -1.040424103e-06 -8.116041673e-07)
(0.008150153936 2.402963638e-06 -1.008882827e-05)
(0.008252510292 4.049291912e-06 -9.308327757e-06)
(0.006311710496 -3.649737881e-06 1.129530547e-05)
(0.0083427871 5.42295864e-07 1.586832434e-05)
(0.008331854037 7.914452364e-07 2.495073369e-05)
(0.008271511688 -7.571812456e-06 2.453839234e-05)
(0.008304940071 1.604954637e-06 1.660243138e-05)
(0.008324960698 1.395820561e-07 2.555707367e-06)
(0.008366019325 -1.129587484e-06 3.809084042e-06)
(0.008362111045 -3.972328942e-06 -1.065806387e-05)
(0.008408602233 2.06190245e-06 -7.189791923e-06)
(0.008425873468 5.780184795e-06 -4.418119399e-06)
(0.008433374196 6.861542245e-06 -1.899172723e-06)
(0.008457059417 -9.711159662e-06 -4.401407709e-06)
(0.008495768577 1.086584965e-06 -8.984797103e-06)
(0.008448752476 6.516024663e-06 -2.169393358e-05)
(0.00840636774 9.996837749e-06 -1.818334549e-05)
(0.00836790975 1.721607777e-05 -1.008358826e-05)
(0.008358970663 1.461104148e-05 -6.379813781e-06)
(0.008361672392 1.336564744e-05 -8.67572908e-06)
(0.008322799331 2.24071422e-05 -3.277759293e-06)
(0.008291289551 7.085330311e-06 -6.003063022e-06)
(0.006377213514 -1.280423379e-05 8.364950172e-06)
(0.008354584152 -2.487941758e-05 7.169067863e-06)
(0.008338349894 -2.04939421e-05 3.768009757e-06)
(0.008354570341 -3.28293912e-06 9.243568454e-06)
(0.008304567676 -7.310740496e-06 1.196457809e-05)
(0.008347840114 -1.007045352e-05 1.799705882e-05)
(0.008381409761 1.281070686e-06 1.506427755e-05)
(0.008359926817 -3.78731596e-06 1.710144257e-05)
(0.008365472463 -1.320616318e-05 1.112809418e-05)
(0.008342747704 -3.899633379e-06 1.004664234e-05)
(0.008319741948 1.573689124e-06 9.186665237e-06)
(0.008294942002 2.005169756e-05 7.960173054e-06)
(0.008203261406 2.589751035e-05 1.661736227e-05)
(0.008244183811 1.504888802e-05 2.530080963e-05)
(0.008283148991 7.822240774e-06 2.758472833e-05)
(0.008354493912 2.224188527e-06 1.733361538e-05)
(0.008379741249 3.999382161e-06 9.006373575e-06)
(0.008360478641 1.362185653e-05 8.590943056e-06)
(0.008393135618 2.017833653e-05 -3.627571029e-06)
(0.008343037307 2.206218062e-05 -6.858564956e-06)
(0.006382073372 1.273053586e-05 1.765446928e-06)
(0.008326720885 1.597995638e-05 4.726923749e-06)
(0.008308008429 -3.480951235e-06 -3.674320944e-06)
(0.008312870393 -1.739395869e-06 -1.647861188e-05)
(0.00828692641 -4.105235921e-06 -1.321478337e-05)
(0.008296271516 -7.598723824e-06 -1.570097885e-05)
(0.008190838926 -4.658194445e-06 -1.372719912e-05)
(0.008247129155 3.512029322e-06 -8.685589832e-06)
(0.008223293905 7.818511382e-06 -8.287881513e-06)
(0.008230449123 7.690444002e-06 -1.161812765e-05)
(0.008290717824 2.309951537e-06 -4.157590255e-06)
(0.008300861439 5.419602232e-06 -4.427102707e-06)
(0.008330192907 -3.204072339e-06 -1.211086097e-05)
(0.008372888342 4.484263259e-06 -2.200748904e-05)
(0.008319953335 9.775087831e-06 -1.968897822e-05)
(0.008291670253 1.781071033e-06 -1.156166824e-05)
(0.008281205663 9.1132713e-06 -1.199595774e-05)
(0.008301196964 -1.431535608e-06 -2.632904219e-06)
(0.008280730419 1.49865491e-05 1.900703112e-06)
(0.008287308215 1.237751652e-05 7.977276683e-06)
(0.00634924174 -1.813128787e-06 -9.274281834e-07)
(0.008326540779 -9.747075552e-06 -1.66276322e-06)
(0.00832694209 9.847929444e-06 6.698711305e-06)
(0.008358086229 1.556319787e-05 7.983100996e-06)
(0.008337855777 2.065311576e-05 1.451562726e-05)
(0.008284265595 9.830668328e-06 5.89491534e-06)
(0.00835345035 -1.063782061e-06 9.801192164e-06)
(0.008345498432 -4.263288268e-06 7.756461456e-06)
(0.008319046238 -1.143944593e-05 8.103909738e-06)
(0.008291998913 -1.253945432e-05 2.188874058e-06)
(0.008271377104 -4.145074763e-06 -2.034559568e-06)
(0.008273838027 -5.443922683e-06 4.388545016e-06)
(0.008273540273 5.856142277e-06 5.267729578e-06)
(0.008287339015 4.734528568e-06 1.15660687e-05)
(0.008291459293 9.173205306e-06 1.632667088e-05)
(0.008297351786 2.40237811e-05 1.710457358e-05)
(0.008348100421 1.990812745e-05 2.138616869e-05)
(0.008311494458 1.088491166e-05 8.200674864e-06)
(0.008339950458 1.214248577e-05 1.543005306e-05)
(0.008340436216 1.155288994e-05 9.124640289e-06)
(0.006359718462 1.519870761e-05 -7.962718886e-07)
(0.008350242307 1.272107611e-05 -6.346095058e-06)
(0.008362927654 1.287652158e-05 -1.181464864e-05)
(0.008266987744 -3.365270604e-06 -1.219259882e-06)
(0.008308246586 -1.395894907e-05 -1.87106448e-05)
(0.008346985677 6.804870326e-06 -1.409519869e-05)
(0.008316150928 1.146585075e-05 -9.608774503e-06)
(0.008333267938 1.25916042e-05 -1.465760209e-06)
(0.008313936783 2.08887626e-05 -3.698870661e-07)
(0.008318253018 1.713016428e-05 3.008479333e-06)
(0.008318305345 2.753009324e-06 4.735642282e-06)
(0.008313908131 4.122542393e-06 1.300750372e-07)
(0.008265482098 4.301926678e-06 -6.105390989e-07)
(0.008249441 -4.661036844e-06 -3.322398279e-06)
(0.008245223097 -1.921598437e-06 -9.761766163e-06)
(0.00824391214 -7.132732511e-06 -1.597826901e-05)
(0.008237288285 -4.291321511e-06 -1.207079759e-05)
(0.008262308769 9.69108087e-07 -1.930391355e-06)
(0.008262692763 8.644327855e-06 1.723904785e-06)
(0.00825023046 1.097693135e-05 6.789944194e-06)
(0.006348136566 -5.754607405e-07 -9.963085807e-06)
(0.008351423181 2.560954685e-06 -1.819265453e-05)
(0.008434329846 -5.941858578e-06 -1.962173129e-05)
(0.00842224684 5.076263352e-06 -1.75109539e-05)
(0.008399390563 1.482489759e-05 -1.307786382e-05)
(0.008400007615 1.469478951e-05 -8.354643057e-06)
(0.0083808696 -2.997609806e-06 -1.228004728e-05)
(0.008380164804 1.151742981e-05 -9.123455271e-06)
(0.008405913674 -7.604195481e-07 -1.472379437e-05)
(0.008374547117 1.198479394e-05 -2.350678352e-05)
(0.008373368716 1.232844972e-05 -1.864475111e-05)
(0.008380004463 9.064196055e-06 -1.64370126e-05)
(0.008422591955 1.649829112e-05 -1.706974855e-05)
(0.008402507267 2.256784237e-05 -1.604601825e-05)
(0.008420712684 7.723871857e-06 -1.173052871e-05)
(0.00840632864 8.083811985e-06 -1.233048869e-05)
(0.008412812998 8.416174808e-06 -6.235957541e-06)
(0.008432953538 -4.581867784e-06 -1.09061713e-05)
(0.008439700235 2.867884674e-06 -1.38877222e-05)
(0.008424317378 -8.417505052e-06 -2.13730202e-05)
(0.006361655414 -1.996224809e-05 -2.268101939e-06)
(0.008333727658 -1.16643167e-05 -1.605512387e-06)
(0.008282018436 1.139353388e-05 -2.398530397e-06)
(0.008287622667 2.16468749e-06 -2.487587854e-06)
(0.008298418717 4.871821663e-06 -1.042924408e-05)
(0.008318494369 6.05152906e-06 -5.610885144e-06)
(0.008308074976 1.700600772e-05 -4.121718033e-06)
(0.008194062237 1.165029354e-05 -1.926668297e-05)
(0.008241859718 9.951630028e-06 -7.663147145e-06)
(0.008276508968 2.473991454e-06 -9.389675075e-06)
(0.008321441886 2.665180245e-06 -9.933152666e-06)
(0.008334648488 8.210076346e-06 -1.898278811e-05)
(0.008321495498 -4.86490783e-06 -1.091631915e-05)
(0.008346705953 2.533404641e-06 -4.519516143e-06)
(0.00834734558 1.319589214e-05 4.438421592e-06)
(0.008367536569 9.957215133e-06 6.30704266e-06)
(0.008344626022 3.350457535e-06 3.596364404e-06)
(0.008314874487 -1.203056869e-06 1.605437501e-06)
(0.008311161131 -1.396023756e-06 1.934545041e-06)
(0.008287586216 1.954987197e-06 -6.083827092e-06)
(0.006346649643 1.187720674e-05 7.556838045e-06)
(0.008320376986 9.632819499e-06 2.505068519e-06)
(0.008320603012 -1.590565979e-05 -6.734467121e-06)
(0.00825999476 -4.663764517e-06 -5.849650918e-06)
(0.008292647912 -5.17344358e-07 -6.900137556e-06)
(0.008260627064 1.256066763e-05 -8.25357845e-06)
(0.008339091318 7.668621516e-06 -1.32009465e-05)
(0.008396533488 9.787376833e-06 2.557317505e-06)
(0.008458012579 1.143179814e-05 6.147118583e-06)
(0.008440573856 1.43363744e-05 -1.780423586e-06)
(0.008355048562 1.531458517e-05 1.736049233e-05)
(0.008308945724 -4.303475473e-06 7.877550856e-06)
(0.008295451766 -5.817615266e-06 3.340375733e-06)
(0.00833995008 -1.097740114e-05 -5.14236062e-06)
(0.008342347758 -1.802445011e-05 -1.996429018e-05)
(0.008340065595 -9.949831765e-06 -1.573287028e-05)
(0.008334671518 1.653081124e-06 -1.53379387e-05)
(0.008329273594 1.808690177e-05 -1.970542378e-05)
(0.008368299347 1.788880678e-05 -1.874739587e-05)
(0.008368856058 2.876959684e-05 -1.628573873e-05)
(0.00778681213 0.001746402842 -3.414728578e-05)
(0.008056035846 0.002287231325 1.819734573e-05)
(0.007982343749 0.002300263237 9.673178087e-06)
(0.007675042126 0.002184866066 4.565064013e-05)
(0.007300999439 0.002154056929 6.088094599e-05)
(0.00699981086 0.002018472488 2.91620122e-05)
(0.006606984626 0.001900592275 8.912028448e-08)
(0.00628354317 0.001842789125 -6.470772087e-05)
(0.005961368192 0.001691430178 -5.527982657e-05)
(0.005740006592 0.001676497929 1.135680905e-06)
(0.008399222861 0.001271560608 -5.568783648e-05)
(0.008991653124 0.002097557065 -5.422086429e-05)
(0.009452636199 0.002559627782 3.081678913e-05)
(0.009779352272 0.002852260309 -3.451882968e-05)
(0.00993046102 0.002969898168 -9.546636802e-05)
(0.009800572943 0.003063492891 -8.855284003e-05)
(0.009594039982 0.002954601467 -5.723476565e-05)
(0.009282234839 0.00291684008 -7.739773615e-05)
(0.009024109257 0.002801500545 -7.853923662e-07)
(0.008695893053 0.00262738163 1.692934253e-05)
(0.008412767417 0.0009001505731 1.833935937e-05)
(0.008901335378 0.001510558273 -5.375946811e-05)
(0.009386348421 0.002075010472 -9.61966874e-06)
(0.009907819646 0.002544827775 -7.097850051e-05)
(0.01022051643 0.002866392839 -4.674073223e-05)
(0.01057817323 0.003206044734 -2.196706816e-05)
(0.01074833875 0.003353211851 -5.836587558e-05)
(0.01086383609 0.003431299045 -1.332154472e-05)
(0.01076834971 0.003415666746 -4.405631429e-05)
(0.0105320619 0.003430142678 -4.07778092e-05)
(0.008434632845 0.0006198978657 1.564296072e-05)
(0.00868207714 0.001060442517 2.296162753e-05)
(0.009076627001 0.001504586745 3.766761885e-05)
(0.009505165905 0.002004255021 -1.966619703e-05)
(0.009982587775 0.002449869579 2.051219405e-05)
(0.01052010375 0.002799326196 -2.468962181e-05)
(0.01095069205 0.003156806041 1.210562387e-05)
(0.01128412343 0.003402039809 -4.203862894e-05)
(0.01143911709 0.003593010239 -3.520719236e-06)
(0.01149938733 0.003690623836 -2.483585146e-05)
(0.008395533538 0.000454476072 -1.794423844e-05)
(0.00860033557 0.0007505238483 1.112068206e-05)
(0.008939441852 0.001099641212 1.750660399e-05)
(0.009340788084 0.001470840953 1.127968825e-06)
(0.00979719931 0.001878558114 2.75248483e-05)
(0.01012348922 0.002301883838 3.670675834e-05)
(0.01048070616 0.002703218717 9.130812087e-06)
(0.01089172116 0.002992497058 4.569402475e-06)
(0.01129494949 0.003350481522 -9.91858471e-06)
(0.01167176583 0.003596559219 2.393377442e-05)
(0.008380315522 0.0003245777358 -2.675716922e-06)
(0.008533872561 0.000529289824 8.868412422e-06)
(0.008737880028 0.0007816296511 4.63253075e-05)
(0.009002710463 0.001095331831 2.353269092e-05)
(0.009318838163 0.001427195016 5.918585925e-06)
(0.009758850524 0.001768246932 -1.781706553e-05)
(0.01024489896 0.002223740932 -2.277282033e-05)
(0.01065562485 0.002543378578 1.334030032e-05)
(0.01106687176 0.002903695786 1.277226246e-05)
(0.01149200093 0.003204015799 -9.554860027e-06)
(0.008457655409 0.0002404396639 -1.054421843e-05)
(0.00854975911 0.0003877833116 -6.916472939e-06)
(0.008672777782 0.0005543001611 -3.233589399e-05)
(0.008854338344 0.000815685166 -8.386628918e-06)
(0.00909466879 0.001043347675 -9.010187352e-07)
(0.009465923093 0.001358937268 -4.717596407e-05)
(0.009845756409 0.001676176161 -4.232733658e-05)
(0.01026349129 0.002057671732 -3.111837675e-05)
(0.01077292179 0.0024061953 -4.731430724e-05)
(0.01124094349 0.002748858274 -2.47444928e-05)
(0.008393570575 0.0001850961471 -1.555073952e-05)
(0.008401170644 0.000290918067 -2.819420109e-05)
(0.008562962042 0.0003988303135 7.017544258e-07)
(0.008694842734 0.0005758431009 -9.262274186e-06)
(0.008897099438 0.0007522824114 1.269024615e-05)
(0.009122683959 0.0009989991865 1.649790549e-05)
(0.009531633623 0.001248832539 -3.411015915e-07)
(0.009831506119 0.001536098687 -8.23316704e-06)
(0.01017827918 0.001873582266 -1.749078656e-05)
(0.01057889669 0.002202657954 1.072955567e-05)
(0.008357005628 0.0001492155435 -2.454620791e-05)
(0.008463107535 0.0002096817212 1.297949705e-07)
(0.00852891714 0.0002871837191 8.995402068e-07)
(0.008634720867 0.0004023975262 -1.150563995e-05)
(0.00880555227 0.0005461839368 1.15139929e-05)
(0.008962877296 0.0007073626102 3.375105112e-05)
(0.009125739476 0.0009286610775 1.235306672e-06)
(0.009408212448 0.00116142591 -1.853265522e-05)
(0.009771581476 0.00141663133 -2.604529461e-05)
(0.01013560251 0.00172441308 -3.219590176e-05)
(0.008450774311 0.0001015264984 3.64315358e-06)
(0.008506169502 0.0001581081303 -5.697317718e-06)
(0.008563540292 0.0002128093112 8.307659964e-07)
(0.008552311002 0.0002957778172 -6.728575938e-07)
(0.008655091272 0.0003860020058 -8.016982691e-06)
(0.008819142982 0.0005388243452 7.067611306e-06)
(0.009023775157 0.0006975337141 -1.878767663e-05)
(0.009197134564 0.0008490543362 1.478854539e-05)
(0.009367946866 0.001078195174 1.090579732e-05)
(0.009611258378 0.001285109851 -9.635798075e-06)
(0.008436252004 6.835999351e-05 -2.677295966e-06)
(0.008440615869 0.0001193179268 4.145492295e-06)
(0.008580848203 0.0001601824337 -1.459690411e-05)
(0.008624549565 0.0002368689769 2.482965289e-06)
(0.008709728625 0.0002982731664 1.361738316e-06)
(0.00870716157 0.0003959926545 -8.488981519e-06)
(0.008802197114 0.0005276990821 2.152116438e-05)
(0.008968937234 0.0006566735565 2.53051357e-05)
(0.009136695834 0.0008355388761 3.950618303e-05)
(0.009381873375 0.001011524985 2.240454715e-05)
(0.008379864874 3.869776488e-05 1.907727595e-05)
(0.008359389706 5.853268045e-05 1.866532031e-05)
(0.008353547566 9.295880821e-05 1.399757017e-05)
(0.008355157316 0.0001608748025 2.025787447e-05)
(0.008393324987 0.0002014974302 1.700532947e-05)
(0.008489169723 0.0002791614908 2.000028438e-05)
(0.00855701171 0.0003676638136 1.661580481e-05)
(0.008727700919 0.0004764093941 -6.296647435e-06)
(0.008874709417 0.0005907392339 1.703054676e-06)
(0.009089528916 0.0007351957836 -1.216153652e-06)
(0.008347203484 6.005959855e-05 7.866503187e-06)
(0.008359796246 8.540796449e-05 1.219218982e-05)
(0.008366646299 0.0001105067756 1.320921173e-05)
(0.008423018406 0.0001220274202 -9.869950491e-07)
(0.00842885814 0.0001542910235 -4.40160984e-06)
(0.008525777536 0.0002262306417 -1.119645731e-05)
(0.008649275042 0.000259012878 -9.843408057e-06)
(0.008652357955 0.0003390676933 -1.880975275e-05)
(0.008727090943 0.0004240071527 -2.193336112e-05)
(0.008904337435 0.000533640961 -7.160784475e-06)
(0.008300956541 2.099162089e-05 -7.059855917e-06)
(0.008322330595 2.754541533e-05 -4.972439786e-06)
(0.008337514347 6.825717824e-05 -1.187127402e-05)
(0.008332959982 9.353740368e-05 -6.772252632e-06)
(0.008355441584 0.0001139750409 -1.85408967e-05)
(0.008353541223 0.0001425510375 -1.684956225e-05)
(0.008399836808 0.0001811219636 -8.193932474e-06)
(0.008528574775 0.0002440421195 -4.557551494e-06)
(0.008618936392 0.0003070337839 -1.809785713e-05)
(0.008701493269 0.0003743775607 -6.726353804e-06)
(0.008265778008 3.123560723e-05 -8.406116951e-06)
(0.008266838077 3.637116831e-05 -1.244553934e-05)
(0.008333022449 4.788307681e-05 -6.433153268e-07)
(0.008409664314 5.307978672e-05 -3.216359148e-07)
(0.00839909925 8.753071691e-05 5.229981537e-06)
(0.008520517074 0.0001096123964 6.583012709e-06)
(0.00847900678 0.0001522019229 1.02291022e-05)
(0.008527790161 0.0001852048257 -6.008624519e-07)