/*--------------------------------*- C++ -*----------------------------------*\
| =========                 |                                                 |
| \\      /  F ield         | OpenFOAM: The Open Source CFD Toolbox           |
|  \\    /   O peration     | Version:  2406                                  |
|   \\  /    A nd           | Website:  www.openfoam.com                      |
|    \\/     M anipulation  |                                                 |
\*---------------------------------------------------------------------------*/
FoamFile
{
    version     2.0;
    format      ascii;
    arch        "LSB;label=32;scalar=64";
    class       volVectorField;
    location    "0.007";
    object      momentum;
}
// * * * * * * * * * * * * * * * * * * * * * * * * * * * * * * * * * * * * * //

dimensions      [1 -2 -1 0 0 0 0];

internalField   nonuniform List<vector> 
654
(
(0.005460050456 -5.064473679e-05 -0.0001412200353)
(0.005435094466 -2.039352915e-06 0.0001826139963)
(0.008684716937 0.0007210664835 0.0009501960512)
(0.006468785446 -0.0005419614545 -0.0004537887501)
(0.008547530146 -2.041901305e-05 0.000539683657)
(0.007195730906 -0.0002112362913 0.0002410146112)
(0.005397723039 4.678969722e-05 0.0005073507134)
(0.006958123076 -0.0001526574083 0.0007113202838)
(0.007419576942 0.0003894375354 0.0004235471209)
(0.00659940295 0.0005627101388 8.603715299e-06)
(0.00724334827 -0.0002994199187 0.0006117042337)
(0.006824050505 -0.0001506764087 0.00054538388)
(0.0076663557 7.170475738e-05 0.0001993934042)
(0.006201693619 -0.0002422719944 0.0004060799105)
(0.004387927616 0.0006807356765 0.0001027870504)
(0.007184829599 -0.0001480965647 0.0006331157922)
(0.01019933341 -0.0001744201424 -9.374404233e-05)
(0.005842294234 -0.0005473774568 0.0003432680008)
(0.01431755548 0.0001943764351 0.0005726121349)
(0.002780381763 0.000241443834 -0.001678670093)
(0.006981708753 -0.000311303349 -0.0007396108498)
(0.0110179933 0.0006215237927 -0.0002462869884)
(0.007666732698 0.0004931997053 0.0002737280191)
(0.006766772354 0.000232705442 -0.0006983486839)
(0.01041586195 5.250589525e-05 -0.0006368086772)
(0.008884282915 -0.0004994626495 0.0007100431514)
(0.004964523761 -0.0006123308974 0.0008176706516)
(0.007243011845 0.0005303136604 -0.0005147973461)
(0.00758508372 -0.0004727865648 -0.0004668539191)
(0.007232121378 6.620371645e-05 0.0004539976793)
(0.01077882419 -0.0006871103318 0.000450129741)
(0.007252788441 -0.0009004710855 0.0003343026451)
(0.006706746807 0.0004167067152 7.222526484e-05)
(0.002242358579 -0.0004801297498 -0.0003326586284)
(0.01129820677 0.0002293727656 5.75394647e-05)
(0.006061119398 -5.601863089e-06 -0.0003496852174)
(0.007835505126 -0.0002918929516 -0.0001770705277)
(0.007815340465 -0.0005520881796 0.000447157816)
(0.01136056205 0.0002696065413 -0.0001894582766)
(0.005832628414 0.0007730929761 -0.0002843011217)
(0.006435953549 -0.0003121578357 -0.0002025244819)
(0.008484470709 0.0001316452397 0.0005394170589)
(0.00713346464 0.0003377704976 -0.0002753275394)
(0.01325969852 -0.0007072092914 -0.000743574284)
(0.01005429825 5.507632099e-06 0.0001260679645)
(0.0059775764 0.0007547787369 -0.000344288222)
(0.009061937885 -9.30997412e-06 0.000120153435)
(0.005504765515 -7.829988036e-05 0.0002415269477)
(0.01017021648 -0.0003678502452 -0.0001729759465)
(0.01210155665 0.00102590396 -0.0008715525612)
(0.01311734685 0.0005715135634 -0.0007834854813)
(0.006793512999 2.403618926e-05 0.0007611455119)
(0.00618039227 -0.0008022765994 -0.0002504843026)
(0.009871712227 6.502367986e-05 0.0001688354809)
(0.01232096668 5.731598475e-06 -0.0009649179878)
(0.008801352186 0.001227625427 -0.0003597172044)
(0.00555808007 -0.0001319199739 0.0001529518833)
(0.008369311103 -0.0002564394289 -0.0002513658377)
(0.01104299191 0.0005274878051 0.0003907017717)
(0.008187827215 0.0008326576006 0.0003995565435)
(0.00580794985 -0.000789092216 -0.0004888232549)
(0.01006872187 0.0004919895833 8.389255031e-05)
(0.006121295176 0.0003016609978 0.0004149170751)
(0.01013624937 -0.0005223927044 2.101370438e-05)
(0.01115338011 5.765230236e-05 -0.0001658203342)
(0.007477066241 0.0004314888162 0.0001374346151)
(0.00962107715 0.0008407236644 -0.0006401027429)
(0.009546845519 0.000164170795 -0.0003687478731)
(0.007039304406 0.0005888788149 -0.0003361194848)
(0.009086618151 -0.0006348770775 0.0005579780217)
(0.007346012491 0.0003543395344 0.0007810567998)
(0.006689939849 -0.0004274583402 0.0001198739791)
(0.01158186251 0.00104657135 0.0001493075949)
(0.009997711619 0.0006634360723 0.0003288149836)
(0.009166477406 -0.000422588406 -0.000298841942)
(0.009095315189 9.795876496e-05 -0.0002142182584)
(0.005691831261 -0.0005318579936 -0.0003412694057)
(0.006420507627 -1.124003381e-05 0.0001322892527)
(0.01487667074 0.0001707000929 -0.0007994628775)
(0.01085117542 0.0005969128969 -0.0001110262085)
(0.007201131079 -0.0002399454943 0.0004050146114)
(0.00978521849 -0.0005886198702 -0.0008347769382)
(0.008124025657 0.0002328905157 0.0001235150693)
(0.006890348869 5.839999069e-05 0.0007191926583)
(0.007005566198 0.0001893020236 0.0003056419805)
(0.00853523758 0.0001482897912 7.022213723e-06)
(0.007366355374 -0.0003666832563 -0.0001081597657)
(0.01432854873 6.984517431e-05 -0.0003862554198)
(0.007488640684 0.0005676799378 0.0001359507774)
(0.004609231728 0.0002248681573 3.71496261e-05)
(0.004892554801 0.0005938079317 0.0004730069039)
(0.01264015611 -0.0004642746025 0.0005925243517)
(0.006388861703 -0.0001022148783 -8.067727172e-05)
(0.00543034129 -0.000380655539 0.0001204457375)
(0.005373542854 5.038820517e-05 0.000226282452)
(0.006557283119 4.984031691e-05 -0.0006283351845)
(0.008884068817 -0.0005306162859 8.433502031e-05)
(0.005477792038 0.0002259230463 -0.0001988448738)
(0.010471534 0.0004054075413 -0.0005839873047)
(0.005094134896 -2.826304329e-05 0.0007551876938)
(0.009123116868 4.848473806e-05 0.0001294403976)
(0.004304969068 -0.0001225321031 0.0003539522312)
(0.006738040653 0.0001582260059 0.0003039237711)
(0.01053979603 -0.0002178970991 0.0004222727189)
(0.01038108093 0.0001343120445 0.0002019251041)
(0.006957667461 -0.0004071676339 -0.0003138558203)
(0.003969147482 -0.0001636269836 0.000401623659)
(0.009983738581 -0.001419692899 0.000565644554)
(0.006225064992 0.0004069164271 0.0004893949895)
(0.008611480705 0.001058185169 8.304993407e-05)
(0.004780809857 -0.0001203472039 -0.0001548815517)
(0.01093735433 2.349475015e-05 -0.0005073760761)
(0.008681340125 0.0004471650018 0.0002139257316)
(0.007211430712 -0.0002004764933 2.861224037e-05)
(0.009251781075 0.001174172869 0.0003199572437)
(0.00317256081 -0.0003001617877 5.304505156e-05)
(0.009275594435 -0.0005333573997 -0.0005732244089)
(0.008948497541 -0.0004230395331 -0.0009118651207)
(0.01029580984 -0.0003140066833 -0.0005300063414)
(0.004572508352 0.0005840457685 -0.0003126604776)
(0.007135367982 0.0001536807816 0.0004427255131)
(0.01012026501 -0.0002467914323 -8.857320356e-05)
(0.006237131967 -0.000140869965 3.16196104e-05)
(0.007161514443 0.0007927648905 -8.24625956e-05)
(0.005171484012 6.338498827e-05 -0.0006466996889)
(0.009377684033 0.0001251597773 -0.000454856564)
(0.008985551071 0.0003319527241 2.008767682e-05)
(0.006257135877 -0.0005692623507 -0.0004075060974)
(0.006313550982 -0.0005452066593 -0.0004901038174)
(0.01331159737 4.788662611e-05 -0.0006996283371)
(0.01555397392 0.000651501123 2.12739516e-05)
(0.01582457257 -0.0009904046435 -5.187071214e-05)
(0.005631517935 -6.484575094e-05 -0.0002694919782)
(0.009398780723 0.0005042601604 -0.0001177424176)
(0.01114689039 -0.0002910851412 0.0003973385185)
(0.007156462247 0.0006367785847 0.000689622858)
(0.01084589296 0.0009888961652 0.0002831521414)
(0.004325406551 0.0001219247677 0.0001016536967)
(0.005720010738 0.0002156354866 9.703766939e-05)
(0.008499309728 9.546641324e-06 0.0001934490601)
(0.007636083012 -0.0004413213721 0.0002826871915)
(0.007815609574 0.000436200015 -0.0004080838221)
(0.005789588118 0.0002049201516 3.23653639e-05)
(0.009359492029 0.0005021005628 -0.0004216177256)
(0.0129677172 -0.0003119392979 -3.766134186e-05)
(0.009102719654 -0.0002962986026 -0.0001903791537)
(0.002854669059 4.320957033e-05 -0.0001655093497)
(0.009324201267 0.0004127653842 -0.00115095788)
(0.009849258132 -0.0002472633843 0.0003075175052)
(0.00994688888 -0.0002089764152 -0.000435639088)
(0.008010159854 0.0002289106885 0.0006237689029)
(0.01136653152 -8.569842344e-05 9.444405777e-05)
(0.005507565609 0.0005196431612 3.437870788e-05)
(0.007328887813 0.0005898512938 0.0002079504294)
(0.009008594516 -0.000369638984 -0.0002035150705)
(0.009751385561 5.589924526e-05 0.0002803061329)
(0.01123862472 0.0006028840686 0.0003745258536)
(0.006679121007 2.28405179e-05 0.0003313347496)
(0.006618103984 -0.0005400525474 -0.0005534770458)
(0.006839581175 0.0007673579917 -0.000988346774)
(0.004266154548 -0.001109972346 0.0006872951272)
(0.01026739995 1.417705203e-05 0.0003049497308)
(0.01138298997 3.397357516e-05 0.0003220482551)
(0.007461365413 0.0004704280121 0.001004622519)
(0.01178631552 1.217853118e-05 -0.0004560153661)
(0.008311021031 -0.0001356856841 0.0002003375497)
(0.0130475013 0.0002105291073 0.0001426989176)
(0.00447651798 -0.0003201479149 -0.0003787316277)
(0.01005642393 0.0005222064597 0.0008848515994)
(0.01010990487 0.0007918986626 -0.000820252218)
(0.005222573908 -9.093414363e-06 -0.0001285350092)
(0.005178544998 -0.0001029036356 0.0004323117096)
(0.002360455385 0.0001848050632 -0.0002838236946)
(0.009397728784 0.0004595047892 0.0006308733684)
(0.01595460819 -0.0004049253732 -0.0002156791177)
(0.007639526089 0.0003631851588 -0.0001589070114)
(0.006988789653 -0.0008784385496 0.0004685024355)
(0.007086663547 -0.0001228529476 -0.000610884973)
(0.007823524877 -0.0006870164315 0.0004910026832)
(0.01070115898 -2.723858331e-05 -0.0004891081584)
(0.007575264695 1.996232401e-05 0.0002221848252)
(0.008688054609 -0.0001969688048 -0.0005808328804)
(0.008097387805 -0.0003168591077 -0.0002309110093)
(0.009188257467 -0.0003410198926 0.0001653352028)
(0.009923816455 -0.000322976812 -0.001166804445)
(0.005139243478 -0.0001961526896 0.0002052403552)
(0.005200909785 -9.174032383e-05 5.162560091e-05)
(0.007274681769 0.0001180200412 0.0001570669267)
(0.007318192631 -0.0005675483128 0.0001234230889)
(0.004085423825 -0.0005131674332 9.417955172e-05)
(0.006147511553 0.0001880237412 5.443286441e-05)
(0.007992355759 0.0001336296421 0.0002330239507)
(0.009733202049 -0.0001333057098 0.0002326403329)
(0.00538361188 6.390938085e-05 0.0002446984187)
(0.0100815753 -0.0003140527391 -7.141728483e-05)
(0.009276999802 0.001349593259 -0.0004794552303)
(0.009955290637 -0.000238828812 6.082779946e-05)
(0.004984726863 6.19363953e-06 -0.0006084855923)
(0.005609594767 0.000230935419 0.0004792322377)
(0.005779046688 -0.0006997486526 -0.0001716036227)
(0.004970050378 -2.243855107e-05 -0.0002004137173)
(0.007984349464 0.0001388930541 -0.0001190037754)
(0.005857838089 -0.0001006967846 0.0004399860255)
(0.00872060571 0.0001987167244 -0.0001587639661)
(0.006518689578 0.0002215806011 -3.537811096e-05)
(0.009474899344 -0.0002809327195 0.0004431917081)
(0.004962695128 -6.506413998e-06 7.832866714e-06)
(0.006958362934 -4.364513745e-05 0.0001903497289)
(0.009798762695 -4.258564541e-05 0.0003166946415)
(0.01056253933 8.092805397e-05 -0.0002623646506)
(0.009572694059 -0.00022362093 -0.0003396987364)
(0.01038298235 -0.0002722744474 -0.0001358700069)
(0.006858454129 -0.0002111738562 0.000801834674)
(0.01017804789 0.0003134012237 0.0008358610043)
(0.006538826177 0.0008157937722 0.0002030949895)
(0.00624829514 0.000175946277 6.756504709e-05)
(0.007342965248 0.0005006080916 -9.603223675e-05)
(0.009911924013 0.0002766007312 0.0005097924554)
(0.01014774661 -0.001102502448 -0.0001934044719)
(0.00729860691 0.0006835927151 -0.00111483157)
(0.007725172133 0.0002350589701 0.0005466334562)
(0.007291648721 -0.001002854304 -0.0006539775094)
(0.008961627573 0.0003088186403 6.266507815e-05)
(0.01027801645 -0.0004332448734 9.825799525e-05)
(0.01164626348 0.0006796501656 -0.0002439217613)
(0.005861406331 6.143000434e-05 0.0004167582713)
(0.007166517933 0.0007991593786 -0.0002977160315)
(0.006364789411 6.989254832e-05 -0.0001779445066)
(0.009188305273 -0.000910944166 0.0006255084013)
(0.007497908837 -0.0001685587798 0.0006618167424)
(0.009059575097 -9.699441314e-05 0.0004815056567)
(0.011292708 0.000254886606 -0.0004457004247)
(0.007369131082 -0.0006243431997 3.082825617e-06)
(0.005434587338 -0.0005302082143 0.0004019192718)
(0.008978847147 0.0002533121936 -0.0001688358779)
(0.007117596463 0.0005527134508 -7.546587554e-05)
(0.01371749095 -0.0003158307055 0.0001188099279)
(0.008719487429 -0.000819309142 -0.0003869412283)
(0.008942369846 0.0005531633002 -0.0004018113675)
(0.004562105129 -7.827375748e-05 -0.0007938122905)
(0.005471549118 -0.0005755909868 0.001033368529)
(0.01307946772 -0.0002452916409 0.000365555774)
(0.006543553252 -0.0001560041185 -0.0004375686146)
(0.002519567902 -0.0004189890174 -5.093932137e-05)
(0.009694968248 -0.0001443661238 -0.0006966304319)
(0.005015852476 -0.0002062249543 -0.0004099097874)
(0.008904102394 5.602860838e-05 6.513276631e-05)
(0.01209030585 -8.297696847e-05 0.0005204935809)
(0.014265815 -0.0003145809514 0.001257200994)
(0.009470957732 -0.000324744541 0.0009900273575)
(0.006431696602 0.0002940086871 -0.0005483618137)
(0.0049063221 0.0005560341566 2.694315383e-05)
(0.01403510991 0.0002751197581 0.001240904025)
(0.01182174427 0.0004384425969 0.0004270509229)
(0.008784279103 0.0001065250148 -0.0003702193826)
(0.007551495727 8.384623864e-05 0.0007547328886)
(0.004076299428 3.656287419e-05 -0.0001690514207)
(0.006794989488 0.0006371185938 -0.000162592791)
(0.008577228836 -0.0007178237969 0.0001968040034)
(0.006936674531 0.0006485884226 0.0002556737167)
(0.006022429454 -2.744584395e-05 -0.0001096778374)
(0.009596056516 0.0003273128705 0.001077749561)
(0.00823676286 -3.299554041e-05 0.0003193637066)
(0.007751223687 -0.0005837144722 0.0006691198427)
(0.006715203584 0.0003397808994 0.0001175819024)
(0.003330779219 7.972376247e-06 0.000101860142)
(0.007472205705 0.0001072655632 0.0003013217498)
(0.007194669384 -0.0006469677573 -0.0006317475301)
(0.01271718871 -0.000235130107 2.95086997e-05)
(0.007192087873 0.0006705016077 -0.0003160395623)
(0.006455535348 -0.0004868322266 4.118472101e-05)
(0.009666026292 -0.0004338718333 0.0004458664867)
(0.01159164139 -0.0002336907393 -0.0003441145002)
(0.005594660952 -0.0002199256285 -0.0003528045575)
(0.007337571834 -0.0007150585057 7.928137377e-05)
(0.004239836475 -0.0001027247049 -0.0001901015054)
(0.006329331853 0.0008393530858 0.0006301096657)
(0.01135347751 -5.356433962e-05 -2.564051261e-05)
(0.00803301591 -0.0005667112351 -0.0002488712682)
(0.008061167892 0.0003216016757 0.0001628955378)
(0.008039707842 0.000135436585 0.0009577925848)
(0.007337526612 -0.0004862725987 -0.0002012316398)
(0.008574952269 -5.705215356e-05 -0.0001118664619)
(0.01183363243 5.565699195e-05 -0.0001455520465)
(0.005439391995 -0.0001855713808 0.0005071336849)
(0.01046251962 0.001055104454 0.0004542432494)
(0.005253283998 -7.93968765e-05 -0.0004227867465)
(0.009753533305 -0.0001595002989 -0.0001178199837)
(0.009645291479 0.000784583997 -0.0002516174924)
(0.006114456687 -0.0003609497617 3.370309577e-05)
(0.005935085372 -0.0003811643605 0.0005440534034)
(0.0101833351 -1.270360291e-05 -0.0003330213506)
(0.009704168702 -0.0003826066996 -0.0001546943988)
(0.01549995935 0.0007518824476 0.0004342755468)
(0.01000908412 -1.37128032e-05 -0.0004653332461)
(0.01128563308 0.001426692353 -0.001036178848)
(0.01061991725 0.0003006912175 0.0003529172118)
(0.005993088867 0.0003652969928 3.409495804e-05)
(0.0102439012 0.0005470866819 0.0005200685724)
(0.003971498616 0.0002389613156 0.0002392117553)
(0.005971829062 -0.0005385135768 -0.0003012452306)
(0.0050917951 -0.0002421613661 -7.858249392e-05)
(0.006782835504 -0.0004695772084 0.0003149314962)
(0.008179550564 2.731176135e-06 -0.0003014097955)
(0.01038108375 5.649311989e-05 -0.000216531433)
(0.009820352492 9.973066964e-05 0.0007818548123)
(0.0181015668 0.0001383406365 -0.0002744834865)
(0.006629212922 -0.0004359399642 0.0003680767128)
(0.008363086938 0.000426916961 -0.0001413474259)
(0.005162130766 -0.0002322891958 7.925819671e-05)
(0.007424267074 -0.0002860039426 6.769058094e-05)
(0.004942923277 -0.0004206333019 -0.000444837819)
(0.009211516437 -0.0001862266536 -0.0003364922827)
(0.008466187325 -5.196752614e-05 -0.0004540242008)
(0.006746759399 0.0003732631967 -0.000466006915)
(0.006039408426 0.0004645874183 -0.0004774454974)
(0.01389737119 0.0004198956428 -0.0001661466387)
(0.006108928139 0.0004064669968 -2.780502555e-06)
(0.004333384034 -4.779859045e-05 9.02133286e-05)
(0.0103726382 6.050011188e-05 0.0007589676324)
(0.005845945614 0.0003896774455 -0.0001313698172)
(0.01054231259 6.755909331e-05 -0.000141334898)
(0.01019651528 0.0003611618847 -0.0007015415976)
(0.008419597668 -0.0001158172007 0.0004195817108)
(0.007101499839 -0.0002499192054 3.266059202e-06)
(0.01133790921 0.0004084685456 0.0001996304653)
(0.008968260056 0.0002861914056 -8.888302998e-05)
(0.007724061113 7.233017819e-06 -0.0001462737718)
(0.006017062849 -0.0002018749372 -0.0002506886423)
(0.008463866448 -1.957442985e-05 4.185853001e-06)
(0.01143301022 0.0002008814185 -1.729700034e-05)
(0.005258573284 0.000303634578 -0.0003540826185)
(0.01160330688 -0.0009353505128 -0.0001673779503)
(0.004782791277 -8.472948221e-05 -0.0003503161362)
(0.003984274031 0.0002648927127 5.329899511e-05)
(0.007256419131 -0.0009529222472 -0.0009422917835)
(0.007456992765 0.0001592396609 0.0004722118345)
(0.007536543424 0.000220507892 0.0003448096703)
(0.006209749049 0.0003392628222 8.785631362e-05)
(0.007321463323 -0.0001109054761 0.0003053130753)
(0.004888086515 -0.001010840017 0.0002300109877)
(0.008417997001 0.0004449061638 0.0004700819957)
(0.008021854752 -0.0003870120402 -0.0002087664712)
(0.01122350781 -0.0002093631543 -0.0001009337811)
(0.005525859522 -0.0002322089297 -0.0002327458275)
(0.006050039029 0.0005814942125 0.0003933313679)
(0.005181307907 -4.882037295e-05 0.0004181516747)
(0.009453757328 -0.0001040550348 -0.0002801428859)
(0.006977889456 0.0004703476231 0.0001736360862)
(0.008296426314 0.0006423036562 0.0002712859514)
(0.008713311438 0.0002007340583 -0.0005063283168)
(0.0094810569 0.0002002846103 -0.0005201332123)
(0.005704553274 0.000523599157 -0.000157346759)
(0.005800139035 -0.000647708031 0.0001712922459)
(0.0105723331 0.0001926945535 0.0007799411992)
(0.01052990555 0.0008236782026 -0.001481768803)
(0.004454996946 -9.586660377e-05 -0.000265176979)
(0.004055894516 0.0006289487713 -0.0003478871251)
(0.008024509732 0.0005767140148 0.0005194897597)
(0.00516801773 -0.0002765739194 5.571987047e-05)
(0.006828169318 -0.0001720384318 -0.0001511849696)
(0.006913905188 0.0005641497914 -0.0002050361666)
(0.01233018444 -1.588722897e-05 0.0001295843598)
(0.003372375925 -3.354068181e-05 2.521489625e-05)
(0.01080736456 -0.0002522612115 -0.0005760914215)
(0.004657685449 0.0001972011967 -7.228284688e-06)
(0.005550327194 0.0002776515755 0.0001882243041)
(0.01067071345 -0.0001363688649 0.0007138030999)
(0.008558672957 -0.0003814272987 -0.0002148792841)
(0.01202694173 0.0001060410669 -0.001020949943)
(0.009019545738 0.0002576959509 -0.0002182876498)
(0.01022699517 0.0002669185469 0.000256309842)
(0.008159884932 0.0001087275852 -0.0009116301513)
(0.01356891401 0.001070040091 0.0010699659)
(0.008238320352 -0.0004063338589 0.0009148352555)
(0.01198997601 0.0004874314061 -0.0001116911307)
(0.009784402105 0.0004649176551 -0.0008956954921)
(0.009398460304 -0.001242900807 -0.0009695583421)
(0.01032688242 -0.0002320302343 0.0001527625778)
(0.007691466187 0.0001448420854 -9.083092408e-05)
(0.006152066311 -0.0001613403934 5.735719121e-05)
(0.005595647894 -0.0001801858423 -0.0002296022234)
(0.009765678831 0.0003539082177 0.0008514372302)
(0.01274288625 0.0002796978868 0.0007434223879)
(0.008825866227 0.0001240094155 8.768955194e-05)
(0.006143694902 0.0002158489682 -0.000351980464)
(0.008786838364 -0.0003967378926 -0.0005350487979)
(0.004066075115 0.0003118950617 0.0002011505898)
(0.005438450004 -0.0004443181479 0.0003260306474)
(0.009926237746 -0.0001693801004 -0.0007288142793)
(0.00911851255 -0.0004733749438 0.000105057709)
(0.009511492456 -0.001280480572 -0.0001641168726)
(0.004326734781 -0.0001310694821 -0.0002884099739)
(0.005647521237 0.0003750282639 -0.0009312954939)
(0.007629899993 0.0003045246254 0.0006390010044)
(0.009171077948 8.640859879e-05 0.0003083868908)
(0.01251717015 0.0001840921789 0.0002945357744)
(0.009574837098 0.0007366618949 -0.0002345695412)
(0.006832727419 -0.0009036254214 0.0002584880108)
(0.004987419794 0.0005062354564 -0.0003418631514)
(0.005338136661 0.000435164637 -2.825509914e-05)
(0.008944491312 0.0008304260074 0.0001314448691)
(0.01256884867 -0.0002402241127 0.0006475647969)
(0.008512258436 0.0006561347902 0.0005985942166)
(0.00689926226 -0.00047102047 -0.0002591738687)
(0.007254295715 0.0004676039235 0.0001160414456)
(0.006534914302 4.844367137e-05 0.0002389940749)
(0.008932391195 -0.0001994009706 -0.0007040893864)
(0.006813438401 -0.0007135437417 0.0007682737688)
(0.01246053783 -0.0005490701519 0.0009517228037)
(0.005068042399 5.878692041e-05 -0.0006631995754)
(0.005105368039 -0.0007470661443 -0.0002826506982)
(0.01287216366 -0.0003987621908 -6.043636715e-05)
(0.01219144446 0.0003195394192 -0.0006607113867)
(0.004495402004 -0.0001186578095 0.0001100962633)
(0.01036471716 0.0002598365665 0.0001373620077)
(0.009005112069 0.0009086855683 0.0005587819854)
(0.004765763728 -0.0002352875855 -0.0002882683506)
(0.008380112919 0.0002494881393 -0.0008280796603)
(0.01118268011 0.0005085919046 0.0002760635818)
(0.00595733531 0.000251184637 -0.0006116118188)
(0.009684532988 -0.0002691746831 -3.582411105e-06)
(0.008788032525 -0.0009256347757 -4.857394862e-05)
(0.007822430163 -0.0004773032711 0.0005478482028)
(0.01381956397 -0.0001532870629 0.0002946344833)
(0.008456215411 0.0003337562507 -0.0002970707895)
(0.007131247529 -0.0002034962508 5.263528929e-05)
(0.006544253962 -1.96678704e-05 0.0002039459454)
(0.005705566107 0.0001967678976 -6.97746098e-05)
(0.01221608608 0.0005748583024 0.0004025780542)
(0.0135277013 0.0002087318921 -0.0003066520972)
(0.01124354001 0.0003409215092 -0.000170375701)
(0.0102949208 0.0005479031779 0.0002674899046)
(0.008124531074 8.668906721e-05 0.0004483240645)
(0.00873760261 -0.0002484498341 -0.0002095264537)
(0.01310728345 0.0004780604715 0.0003552248493)
(0.005629809107 -0.0003204464305 -0.0003120072275)
(0.01189144392 -1.488965027e-05 -0.0002056503011)
(0.008617621579 -0.0007764191102 -0.0007608298307)
(0.007351917731 -0.0005365712547 -0.0002532290648)
(0.007522448069 0.003727509314 0.002130861864)
(0.005698116527 0.004680507761 -8.155064236e-05)
(0.007727148569 0.00287561564 0.001354796145)
(0.008118899019 0.002116100741 0.001447776169)
(0.01112385472 0.0009902111109 -0.0002973663015)
(0.006954398225 0.0003382173403 0.002812397618)
(0.003617124243 0.002515482816 -0.0003919531513)
(0.003614523535 0.002996208133 -0.002821964731)
(0.005127565042 9.915720976e-05 -0.0001612738066)
(0.00491981063 0.002304554473 -0.0008444600508)
(0.003265872241 0.001032305975 -0.0006193865288)
(0.009231274031 0.002468816598 0.001649916757)
(0.009354544205 0.003360977919 0.001241481729)
(0.00789268389 0.003823834423 -0.002050160835)
(0.01396401785 0.002939638027 4.412698344e-05)
(0.006646263461 0.003828960421 0.0008749820633)
(0.006592748519 0.003611476132 0.001993816728)
(0.01086105291 0.002964194282 0.0007661748856)
(0.01021207238 0.002761948067 -0.001085668044)
(0.01145279502 0.002602981978 0.0006009357475)
(0.008009856184 0.0001874784675 0.0007072198547)
(0.007177549996 0.0008450290982 0.0007957983127)
(0.0107314101 0.002469746065 -0.0005990076713)
(0.008079348592 0.001748228973 0.001423461182)
(0.006111858191 0.001054111161 0.000852324815)
(0.007193403422 0.002390529087 0.0005300666555)
(0.006801904619 0.003565943122 0.0003699027644)
(0.01147082093 0.004521086783 5.534336571e-05)
(0.006767607136 0.00181354484 -3.464705104e-05)
(0.008172269902 0.004515327301 0.0007441170857)
(0.01021652606 -3.812896748e-05 0.0006306018567)
(0.009446415021 0.001618748522 -0.001345511319)
(0.008498194235 0.002264150606 -0.0002529728879)
(0.0100821769 0.002042738239 -0.001453501456)
(0.01144052928 0.00352005141 1.961824923e-05)
(0.009367394158 0.001799236665 0.001332411582)
(0.01133238352 0.002224334843 -0.0002649050962)
(0.01663398394 0.003030380783 3.033071242e-05)
(0.009772789582 0.001302104215 0.001124498708)
(0.01269309551 0.004078189308 -0.001477505099)
(0.0048848924 -0.0001080209612 0.0004662052355)
(0.01247918811 0.0008029753533 -6.540426217e-05)
(0.008511412079 0.001906490453 0.0002574194021)
(0.008204436562 0.00112886813 -0.0007013419952)
(0.009737012097 0.001405377352 -0.0001160955739)
(0.01175837986 0.0002384329643 0.000658966865)
(0.01146032496 0.001748627259 -9.40268077e-05)
(0.01252914605 0.0007136167984 0.0003175796205)
(0.01199172524 0.004175343793 0.0006492374713)
(0.008788773285 0.004004145869 2.025101312e-05)
(0.006701996583 -0.0001615971139 0.0004512169338)
(0.005064871877 0.0002539649042 -0.0004875042101)
(0.01159492654 0.0009034458755 -0.0007068105369)
(0.008498865795 -0.0001326496869 0.0002421071075)
(0.008732017874 0.003115609404 0.001026478693)
(0.01036248207 0.001093867737 0.0005753562047)
(0.009767456687 0.002597974782 -0.001300694281)
(0.007922145183 0.001544360709 -0.0001665340748)
(0.01383714779 0.004472867627 0.0008869330245)
(0.01400718901 0.004010775742 -0.0009148420963)
(0.009724375918 0.0008778107241 0.000530128236)
(0.00568990404 0.0007022750515 0.0006792876272)
(0.007074375418 0.000233482588 -0.0009392857226)
(0.01549634984 0.00245241082 -0.001395974238)
(0.01051748343 -0.0005034136725 5.826523375e-05)
(0.009507767833 0.001220509406 0.0002705667423)
(0.008722854975 -0.0003911126329 0.0001057895225)
(0.007173719327 0.001354629385 -0.0005900100415)
(0.00842367191 0.005443719999 -5.081886743e-05)
(0.008233653399 0.002472227168 0.000180614612)
(0.01047163824 0.0003902511632 -0.001592784136)
(0.009489787166 -0.000173665619 -2.788583979e-05)
(0.01385009623 0.0006953839486 -0.0007663924282)
(0.01021479759 0.0001133463047 -7.004716183e-05)
(0.007543689619 0.0008807455636 -0.000136654276)
(0.008772481749 -0.0002318891098 0.0007832580882)
(0.01174195724 0.001523314665 -0.0002885594441)
(0.00949709996 0.003278557023 -0.0007571705946)
(0.01011341106 0.002837690746 0.001529225834)
(0.01689944616 0.002281924127 -0.00029767501)
(0.01570384261 0.002001630286 0.001153885801)
(0.01515331483 0.001807964596 -0.0003084378058)
(0.01121938602 -0.0003922579564 0.000205553999)
(0.007940465347 0.000520661288 -1.32249178e-05)
(0.006648575511 0.0007679819389 9.419378829e-05)
(0.01407307739 0.001721196894 -0.0008267229991)
(0.004194701941 0.0001009144849 0.0005401506834)
(0.01372118768 0.0004160528864 -0.0008601154322)
(0.009857273693 0.001671976743 0.0004875691075)
(0.01146304684 0.004402723554 -0.001776673673)
(0.006210076325 -0.0003208648951 -7.633518642e-05)
(0.01060607343 -0.0004941041399 0.0002292756353)
(0.01033782771 0.0007259020064 0.0002214119068)
(0.007202067496 0.0007480919099 0.0004368484803)
(0.007405059662 0.0004015043946 0.0003236446159)
(0.006254484214 -0.0004716036334 -0.0005271246939)
(0.006862609984 0.0001130206548 -0.000831932752)
(0.002758330388 0.001105573789 -0.0001942528849)
(0.01001248884 0.0006741264801 -0.0003439279248)
(0.006953084119 -0.000460326226 -0.0004562877129)
(0.005475843822 -0.0002623053313 6.55618526e-05)
(0.005448963033 0.0004791432218 -0.0004140900123)
(0.009050459523 0.0008223963439 -0.0008435014319)
(0.004007083684 -3.104929968e-05 -0.0003707650893)
(0.009205182415 -0.00108841126 0.0004583112794)
(0.009609406781 -0.000787393587 -1.795163025e-05)
(0.01090560489 2.098127013e-05 -0.0003161293012)
(0.01066345218 0.002310928807 -9.913125024e-05)
(0.00782012906 0.002079953105 0.0005368866856)
(0.009365012327 0.0008381527495 0.0005438802668)
(0.005822958122 -0.0003416309794 0.0001489257837)
(0.009575581686 0.0009426642753 0.0002668843551)
(0.005518663839 0.0007172483749 0.0005781283145)
(0.003638410616 -0.0002519267391 -0.0001562149884)
(0.009288066114 0.0005104880739 -0.001043039247)
(0.01709340353 -0.0006441189554 -0.0001367170786)
(0.006157453852 0.0009964346089 7.938517134e-05)
(0.009083730387 0.0002892509787 0.0001717501521)
(0.009386877479 0.0007034944614 -0.0001162049836)
(0.004332473845 0.0003218095453 0.0001203771272)
(0.009367991073 0.000250776164 -0.0003108130475)
(0.007588381423 0.0008331502627 -0.0005652524065)
(0.006278938886 0.0001523417675 -0.0001001411223)
(0.008767153441 0.0006432295867 0.0007354232716)
(0.007885705842 -0.0004772522249 7.597577204e-05)
(0.008096975288 0.0001537271168 0.0003467470447)
(0.006761956459 0.0009686639015 0.0006309405405)
(0.006630789015 -0.0001475207326 0.0009062683869)
(0.009682764837 -0.000375705376 -0.000146577217)
(0.006998768844 0.0001546991537 -0.0004575475611)
(0.006994399971 0.0001604874448 -0.0004782987699)
(0.008952938043 3.617957212e-05 -4.665841168e-05)
(0.01141959725 0.0002359657879 9.303889859e-05)
(0.009931971979 -0.0005712723682 0.0008133679681)
(0.01055810509 0.0003603607834 0.0005622816711)
(0.01089140549 -0.0002623734341 -0.0008092114454)
(0.009740815196 0.0006476379859 1.664911279e-05)
(0.009926652295 0.0007693250029 0.0007941380819)
(0.01570647422 0.0008493526649 3.467693388e-05)
(0.007024721704 -0.0003067870744 0.0006964554291)
(0.003740380803 0.0001124589206 5.189880062e-05)
(0.004357867915 8.785117435e-05 -0.0001822559857)
(0.005160651159 0.0003329709209 -1.978062028e-05)
(0.01184846019 0.0003288556013 -0.0003854283881)
(0.008427858038 0.0001729743312 -0.0002300896817)
(0.005953583479 6.69487916e-05 -0.001002448437)
(0.004500824089 0.0001189288599 -0.0002028157186)
(0.009180533604 0.0001551769431 0.001150558218)
(0.007261449198 -0.0002195679727 0.0004460994326)
(0.007056291766 -0.0006486083982 9.203753906e-05)
(0.008810031943 -0.0005201925439 -0.0004417977485)
(0.009516197085 0.0001923490882 0.0002425399941)