/*--------------------------------*- C++ -*----------------------------------*\
| =========                 |                                                 |
| \\      /  F ield         | OpenFOAM: The Open Source CFD Toolbox           |
|  \\    /   O peration     | Version:  2406                                  |
|   \\  /    A nd           | Website:  www.openfoam.com                      |
|    \\/     M anipulation  |                                                 |
\*---------------------------------------------------------------------------*/
FoamFile
{
    version     2.0;
    format      ascii;
    arch        "LSB;label=32;scalar=64";
    class       volScalarField;
    location    "0.007";
    object      overallT;
}
// * * * * * * * * * * * * * * * * * * * * * * * * * * * * * * * * * * * * * //

dimensions      [1 2 -2 0 0 0 0];

internalField   nonuniform List<scalar> 
654
(
293.3090469
302.2317796
296.5160617
298.4185232
298.5969199
298.34704
298.2890102
298.1772216
298.6219176
297.853532
296.7738975
298.6068533
298.3141321
301.3268246
307.7072562
317.1801883
338.2011141
394.0436968
550.6630984
969.6692864
293.8107026
302.1114579
299.4304752
299.5805397
300.2899314
301.27755
300.6092156
300.359907
301.6265597
301.450755
300.8951629
301.2563271
306.6532122
310.2109304
311.2643728
324.1588595
354.5958272
420.5522018
584.8320954
857.0636208
294.7061665
305.2349135
299.8157733
299.40393
298.0255852
298.816615
297.0228731
298.1887099
297.8909502
298.5704367
297.6807278
296.9709423
299.0230308
305.2079021
312.2453269
323.0196621
354.949519
416.6121766
535.2164119
705.7355883
291.7425921
301.5209962
298.2447011
298.1156424
297.4102939
296.661635
296.5167802
297.8550143
298.1440141
296.8106416
297.9165813
298.7285103
302.1174781
303.8276456
313.9938447
327.2440911
348.000506
400.8772443
478.6381387
601.1541984
292.3296683
302.1325511
297.0545419
297.8489419
299.5762591
300.4876223
300.4830906
300.6683928
301.0053206
300.4229958
301.4807186
302.6789864
303.5858934
305.0118205
307.7894219
319.9622534
338.4009629
379.5132454
433.4393978
514.9350539
293.1098049
302.8901957
299.5455306
299.7612653
298.4793874
296.6431859
296.934587
297.2995545
297.0564981
300.5446167
299.5303345
299.093693
300.1313861
301.2666045
307.6334092
318.3055983
334.6570645
374.2217201
401.0869748
464.7420995
292.4740628
302.0280632
297.7174315
298.0224708
299.422096
300.8422127
299.4483845
297.9393152
299.1399624
299.8985299
301.1197257
301.0070344
302.5525301
304.2922315
308.7067235
313.8670763
330.9534641
344.1313036
370.5563094
419.3035342
292.4350491
302.6822209
299.5874163
302.1707754
299.2793686
300.5218541
301.6217181
302.1569282
301.6600173
301.3705082
299.1860276
300.6678009
300.8911998
302.4966555
308.5286394
312.2644815
317.1592291
337.6021185
350.8286765
375.4003675
297.4644457
307.1713014
301.094889
300.6361386
300.6529678
299.8067015
299.1243208
300.3119347
300.449869
301.1119908
302.5035384
301.9064243
303.5275834
306.2782654
306.9496958
311.6571497
318.2632266
326.3585492
338.9106527
359.520266
295.1866742
303.496509
299.9662837
299.7642498
300.9893445
302.6570512
301.2451201
300.3006245
300.0194909
301.3415304
301.8992
302.5467927
306.2668989
306.4364992
306.5796247
310.9089743
313.5557142
317.2734538
330.4973205
349.6519243
294.9087428
303.1036356
300.5194394
301.0430092
300.8848776
300.1029379
300.0970444
301.7155012
302.5845649
302.0978683
301.1858667
300.2857576
301.1168738
301.709759
304.8062829
304.4460568
307.850655
312.4293561
319.6966814
336.7239907
296.1460867
306.2769198
301.7479752
301.3589021
300.9346059
300.0687444
300.4069665
298.9263941
302.4237433
301.3139631
300.8891118
301.3876807
301.2243228
301.6723893
302.4673062
304.8581506
308.5111436
312.4324143
314.3869242
326.8619749
293.392932
303.3137121
298.3375112
299.3695597
298.5903657
298.7796375
300.6778198
302.8509646
301.772189
300.5820268
299.8446312
299.0797523
300.5142137
301.3281755
301.9486665
301.9139491
303.9635528
307.0621522
311.4633723
316.4143996
292.2978345
301.0276465
298.3067144
299.6380477
300.3215329
301.4529093
300.6013228
299.7224013
298.5947378
298.6436692
301.3111575
300.7115825
299.7953652
298.8798401
300.4332741
300.6531336
302.3218596
304.1169473
307.5643619
313.3213162
294.8853001
306.1807779
301.520267
299.3272784
299.6798452
298.5342728
296.8226757
296.1975662
297.2016397
298.7852172
298.5244547
298.9421535
298.2243833
297.7870453
298.0794075
299.6534515
301.6029011
302.4570719
303.7600447
305.002094
293.9820006
302.0440852
298.0587689
297.0559976
296.4385607
297.2562324
298.9484831
299.6071836
298.977814
299.7380952
299.5234233
299.205092
299.5020889
299.6902064
299.3098088
299.4623644
300.8962837
301.5284773
304.1317326
308.4949328
294.5484454
304.0656307
298.3499951
299.4384046
300.6355607
299.4260069
299.0835217
298.5461452
299.8731806
299.6549354
299.8888781
299.8153777
300.0726624
300.6067106
300.7933256
301.5579427
301.6940425
303.3963377
303.0728923
307.4355143
295.4834865
303.632097
301.7347816
300.6272753
300.5548746
301.7100761
301.1968197
299.9904397
299.1037942
297.8549065
297.3981527
296.2437723
297.5513743
299.086267
300.5502074
299.0572534
297.6786848
298.6290305
300.2021397
302.6843028
290.6565725
300.9004185
297.0155813
298.1508615
298.4304733
298.9119099
299.1977864
298.6282673
299.6298774
300.9241495
299.7669229
300.4660956
298.6500388
296.8998933
297.4170823
299.3105426
299.8763566
299.1489074
299.7121793
299.1137717
293.7730167
303.2850205
300.3969479
298.7694439
299.026733
297.8773367
298.212461
297.9923581
296.8820163
294.7991408
295.3937536
296.833697
299.7663506
300.4066682
301.3159881
300.5907175
299.9873647
301.413042
301.7646685
302.3545862
295.3289134
303.9000043
298.7709543
298.6792395
299.1486391
299.6269799
299.0740335
299.7062535
300.7326972
302.3137611
301.9425662
302.4855258
301.2131418
299.6948272
298.9870296
300.7151101
302.1002263
302.1050363
301.4049457
302.3972152
294.7387548
303.8162655
298.7788584
300.2346284
300.0501837
300.5265813
300.6687448
301.4905918
301.9728511
301.0191295
300.556483
299.7681092
300.1162182
301.5355682
302.4144698
300.1125223
299.055174
300.6712391
300.2681065
300.170157
1054.889115
991.4227691
964.8853784
936.045923
915.8177755
897.8327399
892.869427
871.6152013
868.0689819
849.4560248
1004.115841
1009.410596
994.8199961
982.0742306
971.0976743
963.3002281
954.7330893
949.6466462
937.5590571
931.8321201
857.4251658
918.1415202
932.0835765
948.7366543
950.414407
949.2142329
945.6938094
940.684676
935.1491274
926.2047528
721.3614517
807.7605908
853.6673236
882.7569342
900.5345189
899.3647155
907.4359261
896.9702904
904.2431348
909.4994189
612.2026636
695.6850937
749.7527536
800.9020169
827.2248113
847.08374
868.0944434
861.129637
872.4532197
877.6437509
536.8267987
610.0775473
663.7535582
713.5802573
746.8430509
779.9904137
812.5562185
828.2822429
843.1391683
847.5234266
463.8334043
526.7822165
565.5811005
632.9781645
663.1998183
706.4545606
740.2271193
766.9157171
777.9023479
796.074532
416.359694
468.847017
495.5274066
558.4057181
593.7177139
634.5133658
667.2171776
702.203659
729.5849001
743.3098487
392.2767256
428.5766869
443.291448
493.3854732
523.7735632
567.3794464
606.8921768
637.687399
666.1167765
691.3708697
364.5806665
383.5550979
410.9324306
446.7180422
462.3095386
508.1907571
539.1813282
570.4138926
603.9023341
628.2345345
345.62472
367.554321
386.8396735
410.0302676
427.4076649
463.9173988
490.8492099
517.3034516
544.7489372
567.6541228
334.0095143
349.3206909
362.1485705
382.0502526
393.9901848
418.7326673
441.4987282
461.7313733
491.0923235
514.5033536
326.216474
335.1590245
349.3078254
354.4521243
365.7371301
391.4799108
405.5409576
421.1930426
441.8976744
467.3996507
323.0114047
326.4423878
336.1499823
342.7228197
352.2701953
359.9293695
379.1256877
394.7432052
416.4075724
430.4687703
316.2429949
316.5224459
322.736887
327.4230702
341.4921629
347.7511282
358.8643301
375.4148853
391.3973514
402.7941787
307.247331
312.6278546
317.2133682
322.1500769
330.5651863
340.0089362
343.8710285
356.6789821
369.28266
378.7698935
309.7100697
311.8198905
315.0312111
314.5734364
316.3000794
328.9538018
335.7036434
341.9766879
346.5014385
359.9436028
306.4289944
308.1566746
308.9264582
310.4452425
313.6722548
318.4480471
322.3390472
328.8528414
335.7472507
343.4389801
300.7863523
306.4478085
309.3702516
310.4147127
311.0080147
314.5610352
316.7995724
324.4596056
325.688785
335.0945826
303.4164217
304.6085732
305.481005
304.8114626
307.3586022
310.5111498
313.2981051
318.4211941
325.3395521
327.8104932
302.2477172
302.22001
304.1224952
303.2738164
304.9807686
306.5093524
309.7613579
315.7515421
319.5402417
321.93908
298.1508667
299.5306876
301.2396031
303.3718826
)
;

boundaryField
{
    flow
    {
        type            calculated;
        value           nonuniform List<scalar> 
42
(
293.3090469
293.8107026
294.7061665
291.7425921
292.3296683
293.1098049
292.4740628
292.4350491
297.4644457
295.1866742
294.9087428
296.1460867
293.392932
292.2978345
294.8853001
293.9820006
294.5484454
295.4834865
290.6565725
293.7730167
295.3289134
294.7387548
293.3090469
302.2317796
296.5160617
298.4185232
298.5969199
298.34704
298.2890102
298.1772216
298.6219176
297.853532
296.7738975
298.6068533
298.3141321
301.3268246
307.7072562
317.1801883
338.2011141
394.0436968
550.6630984
969.6692864
)
;
    }
    obstacle
    {
        type            calculated;
        value           nonuniform List<scalar> 10(934.7332521 876.1379422 834.692769 819.6512847 774.3895094 764.8710508 779.2839472 755.9666631 742.0116907 735.393734);
    }
    frontAndBack
    {
        type            empty;
    }
    procBoundary0to1
    {
        type            processor;
        value           nonuniform List<scalar> 
21
(
842.8543351
916.9311068
925.8426058
905.5283385
877.6080712
846.0530729
810.099418
764.2375934
715.6553663
659.2336894
596.3737539
549.7664722
493.0302945
451.492669
417.14134
393.8711485
371.6431497
357.4940752
342.9641895
337.044725
325.4000536
)
;
    }
    procBoundary0to2
    {
        type            processor;
        value           nonuniform List<scalar> 
31
(
291.7337266
303.7082394
300.0277368
300.0895638
299.5394753
298.2380211
299.1473607
300.3826511
299.5874659
299.2406523
301.1833229
301.2740401
300.4243981
298.9630009
298.0438918
297.7321967
296.7951223
296.9286952
297.8175505
299.1581492
304.9250986
306.452158
304.992094
305.5651216
309.6223659
313.278358
299.5350056
302.1589984
300.9982933
304.9250986
301.4795459
)
;
    }
}


// ************************************************************************* //
