/*--------------------------------*- C++ -*----------------------------------*\
| =========                 |                                                 |
| \\      /  F ield         | OpenFOAM: The Open Source CFD Toolbox           |
|  \\    /   O peration     | Version:  2406                                  |
|   \\  /    A nd           | Website:  www.openfoam.com                      |
|    \\/     M anipulation  |                                                 |
\*---------------------------------------------------------------------------*/
FoamFile
{
    version     2.0;
    format      ascii;
    arch        "LSB;label=32;scalar=64";
    class       volScalarField;
    location    "0.007";
    object      p;
}
// * * * * * * * * * * * * * * * * * * * * * * * * * * * * * * * * * * * * * //

dimensions      [1 -1 -2 0 0 0 0];

internalField   nonuniform List<scalar> 
654
(
0.3051357325
0.4114695165
0.4003520328
0.4065557468
0.4088235375
0.408066357
0.4085626474
0.4117819494
0.411423227
0.4076436365
0.4058775826
0.4067515346
0.4064840719
0.4116231191
0.4266375425
0.4491935311
0.4948475263
0.6322677962
1.023411023
2.514940972
0.3085829266
0.4167846649
0.4145528984
0.4121800385
0.4126262049
0.4157081286
0.4133536069
0.4130039154
0.4142086034
0.4131654827
0.4137197999
0.4173005972
0.4284772272
0.4396616179
0.443681029
0.4744422307
0.5464319853
0.7110212958
1.148919167
2.062962896
0.3128866863
0.4308036049
0.4192309472
0.4194594908
0.4139298747
0.4149840782
0.4139538201
0.4141305914
0.4148012179
0.4140481217
0.4126479879
0.4101875219
0.4133098912
0.428567406
0.4428043922
0.4664361029
0.5403970074
0.6885658793
0.9851393375
1.497872142
0.3098782237
0.416971528
0.4113743762
0.4117530163
0.4057655953
0.4061082056
0.4051521523
0.4079847541
0.4084825317
0.4109669437
0.4120212924
0.412181666
0.4208882357
0.4202341999
0.4438835281
0.4699940304
0.5168393466
0.6422553684
0.8349305367
1.175199061
0.3094667859
0.4189262405
0.405657858
0.4057736113
0.4123080839
0.4149378859
0.4138414011
0.4114359883
0.4086472927
0.4065695287
0.4057661363
0.4094297054
0.4142585076
0.4175275351
0.4229712422
0.4588747561
0.5033110071
0.6019483789
0.7269507588
0.9385520192
0.3073512561
0.4161006966
0.4147123678
0.4134106654
0.4095040915
0.4041729008
0.4056424656
0.4104775836
0.4110701112
0.4181931674
0.4151967444
0.4135353569
0.4126226331
0.4140051022
0.4345228646
0.4512129697
0.4872961628
0.5742219248
0.6443512738
0.8031962905
0.3112327797
0.4195709275
0.4113661134
0.412468918
0.4184521831
0.4218789512
0.4175428029
0.4129690741
0.4162806551
0.4204415108
0.4196211477
0.4221977983
0.4224010653
0.4230878124
0.4318598678
0.4419213387
0.4856930276
0.5172829341
0.5853007227
0.7012619037
0.3057961188
0.4152397646
0.4125293061
0.4174545523
0.4117190226
0.4139724762
0.4184513788
0.4222843553
0.4221526121
0.4192650292
0.4154229545
0.4151296078
0.4182381085
0.4242434966
0.437558626
0.4477640206
0.4555658564
0.4989455155
0.5289458748
0.5887275928
0.3146413573
0.429859449
0.4166580868
0.416026434
0.4153542632
0.4138315997
0.4157414043
0.4179374451
0.4122809588
0.4118917489
0.4204009719
0.4201672177
0.4206188439
0.4279953435
0.4259409306
0.4364204477
0.4551436941
0.4725371783
0.5022800228
0.5545774152
0.3112897449
0.4149659711
0.4123061571
0.4108088883
0.4138218232
0.4160113019
0.4121540411
0.4100322573
0.4159534235
0.4191381046
0.4192177399
0.4213487661
0.4295550707
0.4290778801
0.4321577475
0.4421724636
0.4470909145
0.448913913
0.4800492199
0.5234742891
0.3115766692
0.4183158789
0.4132188871
0.4133463601
0.4115234223
0.4072416238
0.4070712501
0.4131482285
0.4155344151
0.4170132679
0.4173529842
0.4155581102
0.4188169597
0.4198535455
0.4253261817
0.4172710517
0.4267811152
0.4383229116
0.4616309564
0.4997249883
0.313691687
0.4267448971
0.4206823694
0.4156036835
0.4168239876
0.4164359131
0.4200806065
0.4169072192
0.426235397
0.4179156943
0.4144632562
0.4102634814
0.4081098523
0.4129654058
0.4179283466
0.4304565304
0.4413833249
0.4458265021
0.4480321315
0.4758495954
0.3133618272
0.4241349939
0.413877548
0.4168820488
0.4142246441
0.4133826303
0.4149297646
0.415048177
0.4111696789
0.4112804205
0.4148579693
0.4143947548
0.4197688256
0.4199510678
0.4163901126
0.4214211275
0.424401082
0.4337237948
0.4481067872
0.4557021449
0.3115681671
0.4236339849
0.419396156
0.4218515449
0.4216898561
0.4234853166
0.4190257244
0.4198338145
0.4161047303
0.4141111462
0.4170531942
0.4171008648
0.4130931737
0.4110533108
0.4151587639
0.4104726394
0.4130392213
0.4166611614
0.4231012325
0.4415865541
0.3115974772
0.4261179749
0.416394842
0.4091317592
0.4143580947
0.4117862848
0.4134417357
0.4107255979
0.417099089
0.4191949457
0.4167078882
0.419118206
0.4198307929
0.4176720742
0.416348809
0.4189184063
0.4241551199
0.4243953753
0.4245867631
0.4237736482
0.3111251962
0.4191972001
0.4115260846
0.413431085
0.411746135
0.4150978905
0.4185942647
0.4170288803
0.4181683631
0.4175974661
0.4178706313
0.4138054918
0.4086285703
0.4113869613
0.4129820893
0.4164190026
0.4198607255
0.420961017
0.4287663468
0.4321118709
0.314988979
0.4229734291
0.4120621264
0.4142677526
0.4135918907
0.4123265888
0.4076706476
0.4098093405
0.4111593697
0.410111981
0.4132804567
0.4147800653
0.4168965688
0.4205100051
0.4174617456
0.4205196627
0.4191894641
0.4223126968
0.4203066302
0.429286085
0.3090733583
0.4169790149
0.4144529687
0.4149697045
0.4142604993
0.4132345468
0.416129627
0.4124593914
0.4085310048
0.4072716823
0.4064624247
0.4041598309
0.4082227121
0.4111154966
0.4135961773
0.4120187849
0.4112044084
0.412221881
0.4146895529
0.4213487938
0.3089430945
0.4197415421
0.4121962628
0.4090228249
0.4130632382
0.415200454
0.4160775101
0.417051437
0.4173983045
0.418495161
0.4145865829
0.4160099946
0.410585218
0.406814369
0.4080534215
0.4115241344
0.41097736
0.4098817395
0.4119239321
0.4085454494
0.3113556751
0.4229701398
0.4214092969
0.4186675043
0.4153034666
0.4142024856
0.4140111143
0.4132334654
0.411701174
0.4089868925
0.4088276322
0.4097448431
0.4174777047
0.4165580405
0.4183299259
0.4155833725
0.4147142484
0.4184531119
0.4222677169
0.4247784422
0.3111761843
0.4191892148
0.4065502286
0.4089948834
0.4120837116
0.4137002886
0.4113468067
0.4044606081
0.4084171599
0.4126322804
0.4155084935
0.4186327284
0.4153927693
0.4145302446
0.4138231235
0.418067796
0.4190440663
0.4173284954
0.4159953327
0.4157343242
0.3110747712
0.4199818224
0.4101591049
0.4083034615
0.4092439283
0.4084001344
0.4129036281
0.4176898747
0.4237279476
0.4215387126
0.415166647
0.4123335322
0.4144387426
0.417774033
0.4199499674
0.4147434092
0.4132805686
0.4178777998
0.4190150855
0.4193953461
4.647163284
4.801055025
4.736094647
4.644936025
4.530685967
4.444590648
4.37512533
4.27231331
4.113429463
4.026918708
3.033006637
3.549953973
3.77253992
3.944126758
4.055872718
4.138019925
4.0782228
4.075598758
4.043379046
3.947813522
2.120028876
2.597004655
2.885353471
3.187060584
3.380225971
3.542597283
3.628640737
3.685943488
3.709195139
3.686635951
1.577608167
1.958685954
2.272194622
2.549848458
2.798590099
2.957709773
3.158701985
3.184178309
3.309087763
3.406682774
1.215536376
1.51038468
1.760676575
2.047755186
2.267707459
2.435455717
2.63786964
2.725987526
2.906424235
3.062122056
0.996475856
1.222901876
1.413961877
1.614629415
1.79769578
2.013193868
2.250614672
2.424042062
2.587987009
2.701680189
0.811269319
0.9806879141
1.113935073
1.332396816
1.459302821
1.668425803
1.85146872
2.037954819
2.192817398
2.372131287
0.6911758127
0.8207784337
0.9011239441
1.090182884
1.205472542
1.362398953
1.526631463
1.689233455
1.869515414
1.9996633
0.6263822448
0.7221805712
0.7669280751
0.9024441395
0.9936313065
1.130031671
1.270028925
1.403265414
1.550241973
1.693653922
0.5640283251
0.6132771399
0.6819930393
0.7687876826
0.8141021499
0.9486471571
1.052137825
1.157922156
1.285603589
1.393711578
0.521052017
0.5681242321
0.6275282532
0.6875245337
0.7343932179
0.8219928865
0.9028918312
0.9976883267
1.085605803
1.175219946
0.4946329129
0.5262913659
0.553836975
0.6060758689
0.6348578792
0.7034731109
0.7627480279
0.8289309609
0.9210436406
0.9964161792
0.4757296687
0.4983612618
0.5326017164
0.5438508626
0.5721620551
0.6406490127
0.6779296293
0.7172039304
0.7720423273
0.8553563013
0.4652071342
0.4749408416
0.4961150122
0.5099002435
0.5324647331
0.5510496531
0.5953582177
0.6392532212
0.6995932772
0.7436916847
0.4481932603
0.448651916
0.4656736659
0.4779518003
0.5070876306
0.5298828919
0.5520751108
0.5934937863
0.6292147311
0.6633164228
0.4351262262
0.4469770461
0.454962535
0.4669537118
0.4873352888
0.5048093181
0.5177922336
0.5485449649
0.5813912406
0.6021122528
0.430631496
0.4389442776
0.4421956395
0.4416436777
0.4460769113
0.4736442958
0.4906057545
0.5033475467
0.5118488799
0.5532734729
0.4266314829
0.425585193
0.42775067
0.4343160875
0.4458688608
0.4555550596
0.4649994415
0.4789869293
0.4968635657
0.5145171737
0.4164599492
0.4328747059
0.4394499112
0.4423730503
0.4418283872
0.4494992904
0.454449059
0.4686803013
0.4719315359
0.4952386983
0.4242066639
0.4270884772
0.4272305556
0.4246920479
0.4310492577
0.4392418727
0.4450135824
0.4569684139
0.4687428378
0.4726762185
0.4142051918
0.4162510119
0.4179498028
0.4167476653
0.4210617122
0.4230584071
0.4255531295
0.4413428071
0.457400584
0.4614281806
0.4130201738
0.4156284281
0.4187150274
0.4237915987
)
;

boundaryField
{
    flow
    {
        type            calculated;
        value           nonuniform List<scalar> 
42
(
0.3051357325
0.3085829266
0.3128866863
0.3098782237
0.3094667859
0.3073512561
0.3112327797
0.3057961188
0.3146413573
0.3112897449
0.3115766692
0.313691687
0.3133618272
0.3115681671
0.3115974772
0.3111251962
0.314988979
0.3090733583
0.3089430945
0.3113556751
0.3111761843
0.3110747712
0.3051357325
0.4114695165
0.4003520328
0.4065557468
0.4088235375
0.408066357
0.4085626474
0.4117819494
0.411423227
0.4076436365
0.4058775826
0.4067515346
0.4064840719
0.4116231191
0.4266375425
0.4491935311
0.4948475263
0.6322677962
1.023411023
2.514940972
)
;
    }
    obstacle
    {
        type            calculated;
        value           nonuniform List<scalar> 10(3.666223841 3.678399122 3.627407225 3.478692224 3.552974866 3.454029825 3.43071426 3.487001987 3.350080865 3.314259884);
    }
    frontAndBack
    {
        type            empty;
    }
    procBoundary0to1
    {
        type            processor;
        value           nonuniform List<scalar> 
21
(
3.91374956
3.866896153
3.657704454
3.41517077
3.099184097
2.8289141
2.505035832
2.145983562
1.850463966
1.544840118
1.298266117
1.109502745
0.9315634373
0.7912999889
0.7143370888
0.6328185532
0.5845466581
0.5491876967
0.5144628454
0.4963856451
0.4703252864
)
;
    }
    procBoundary0to2
    {
        type            processor;
        value           nonuniform List<scalar> 
31
(
0.3038748786
0.4166934568
0.4130186406
0.4130491885
0.4129230512
0.4108423536
0.4127715181
0.4146230531
0.4111949814
0.4126579188
0.4183869299
0.4203139895
0.4172120937
0.412158118
0.4107082149
0.4097693727
0.4111028316
0.4092711316
0.4073140722
0.4104202868
0.4253931092
0.4283172808
0.4251708559
0.428455459
0.4388586594
0.4511502046
0.4131944421
0.4193848348
0.4188886524
0.4253931092
0.4172688857
)
;
    }
}


// ************************************************************************* //
