/*--------------------------------*- C++ -*----------------------------------*\
| =========                 |                                                 |
| \\      /  F ield         | OpenFOAM: The Open Source CFD Toolbox           |
|  \\    /   O peration     | Version:  2406                                  |
|   \\  /    A nd           | Website:  www.openfoam.com                      |
|    \\/     M anipulation  |                                                 |
\*---------------------------------------------------------------------------*/
FoamFile
{
    version     2.0;
    format      ascii;
    arch        "LSB;label=32;scalar=64";
    class       volScalarField;
    location    "0.007";
    object      rhoM;
}
// * * * * * * * * * * * * * * * * * * * * * * * * * * * * * * * * * * * * * //

dimensions      [1 -3 0 0 0 0 0];

internalField   nonuniform List<scalar> 
654
(
3.043386799e-06
2.974446132e-06
4.980390442e-06
3.874007286e-06
4.427198864e-06
4.01188862e-06
3.043386799e-06
4.01188862e-06
3.942947953e-06
3.665519044e-06
4.427198864e-06
3.874007286e-06
3.942947953e-06
3.389756375e-06
2.559135888e-06
4.01188862e-06
5.948892263e-06
3.043386799e-06
8.02377724e-06
4.080829287e-06
4.080829287e-06
6.502083841e-06
4.080829287e-06
4.01188862e-06
6.01783293e-06
5.53358202e-06
2.974446132e-06
4.496139531e-06
4.427198864e-06
4.496139531e-06
5.948892263e-06
4.01188862e-06
4.01188862e-06
1.521693399e-06
6.502083841e-06
4.080829287e-06
4.496139531e-06
5.395700685e-06
7.470585662e-06
5.395700685e-06
3.458697042e-06
5.049331109e-06
4.358258196e-06
6.917394084e-06
5.53358202e-06
3.458697042e-06
4.634020865e-06
3.043386799e-06
5.53358202e-06
7.262097421e-06
7.124216086e-06
4.149769955e-06
3.596578377e-06
5.53358202e-06
6.986334752e-06
5.53358202e-06
3.596578377e-06
4.427198864e-06
6.433143174e-06
6.502083841e-06
3.52763771e-06
5.464641352e-06
4.149769955e-06
5.395700685e-06
6.502083841e-06
4.427198864e-06
5.53358202e-06
5.187212443e-06
3.942947953e-06
5.049331109e-06
4.427198864e-06
3.874007286e-06
6.571024508e-06
5.948892263e-06
5.049331109e-06
5.118271776e-06
3.389756375e-06
4.358258196e-06
8.508028151e-06
7.470585662e-06
4.01188862e-06
5.464641352e-06
4.080829287e-06
3.874007286e-06
4.01188862e-06
4.980390442e-06
4.080829287e-06
8.092717908e-06
3.942947953e-06
2.559135888e-06
2.905505464e-06
6.986334752e-06
3.942947953e-06
3.112327466e-06
2.905505464e-06
4.01188862e-06
5.118271776e-06
3.181268133e-06
5.948892263e-06
3.043386799e-06
5.049331109e-06
2.490195221e-06
3.52763771e-06
6.433143174e-06
6.086773598e-06
4.358258196e-06
2.074884977e-06
5.948892263e-06
3.458697042e-06
4.565080198e-06
2.974446132e-06
6.364202506e-06
4.496139531e-06
3.942947953e-06
5.118271776e-06
1.937003643e-06
5.049331109e-06
4.980390442e-06
5.879951596e-06
3.112327466e-06
4.01188862e-06
6.086773598e-06
3.458697042e-06
4.01188862e-06
2.974446132e-06
5.049331109e-06
5.118271776e-06
3.596578377e-06
3.389756375e-06
7.470585662e-06
9.061219729e-06
8.992279062e-06
3.596578377e-06
5.049331109e-06
5.811010928e-06
3.942947953e-06
6.502083841e-06
2.905505464e-06
3.389756375e-06
4.980390442e-06
4.496139531e-06
4.496139531e-06
3.52763771e-06
5.395700685e-06
7.470585662e-06
4.980390442e-06
1.521693399e-06
5.118271776e-06
5.53358202e-06
5.948892263e-06
4.911449774e-06
5.948892263e-06
3.458697042e-06
4.01188862e-06
4.980390442e-06
5.395700685e-06
6.639965176e-06
4.496139531e-06
4.080829287e-06
4.496139531e-06
2.421254554e-06
6.01783293e-06
6.848453417e-06
4.149769955e-06
6.433143174e-06
5.326760018e-06
7.954836573e-06
2.628076555e-06
5.395700685e-06
5.948892263e-06
3.112327466e-06
2.974446132e-06
1.590634067e-06
5.118271776e-06
8.923338395e-06
4.01188862e-06
3.874007286e-06
4.01188862e-06
4.911449774e-06
6.433143174e-06
4.565080198e-06
4.911449774e-06
4.565080198e-06
5.049331109e-06
5.602522687e-06
3.043386799e-06
2.905505464e-06
3.458697042e-06
4.218710622e-06
2.421254554e-06
3.665519044e-06
4.496139531e-06
5.464641352e-06
3.043386799e-06
5.53358202e-06
6.01783293e-06
5.879951596e-06
2.974446132e-06
3.458697042e-06
3.043386799e-06
3.043386799e-06
4.427198864e-06
3.389756375e-06
5.602522687e-06
3.942947953e-06
5.118271776e-06
3.043386799e-06
3.874007286e-06
5.671463354e-06
5.879951596e-06
5.53358202e-06
5.879951596e-06
3.874007286e-06
5.948892263e-06
3.596578377e-06
3.665519044e-06
3.942947953e-06
6.502083841e-06
5.879951596e-06
4.358258196e-06
4.496139531e-06
4.01188862e-06
5.118271776e-06
5.395700685e-06
6.433143174e-06
3.389756375e-06
4.01188862e-06
3.52763771e-06
5.118271776e-06
4.427198864e-06
4.911449774e-06
6.01783293e-06
4.080829287e-06
2.974446132e-06
5.049331109e-06
4.01188862e-06
8.02377724e-06
4.980390442e-06
4.980390442e-06
2.628076555e-06
3.52763771e-06
7.401644995e-06
4.149769955e-06
1.452752732e-06
5.464641352e-06
2.974446132e-06
5.118271776e-06
6.986334752e-06
7.816955239e-06
5.53358202e-06
3.52763771e-06
3.043386799e-06
8.439087484e-06
6.433143174e-06
4.980390442e-06
4.496139531e-06
2.490195221e-06
4.01188862e-06
5.049331109e-06
3.874007286e-06
3.52763771e-06
5.049331109e-06
4.911449774e-06
4.496139531e-06
4.01188862e-06
1.937003643e-06
4.427198864e-06
4.01188862e-06
6.917394084e-06
4.427198864e-06
3.596578377e-06
5.879951596e-06
6.848453417e-06
3.458697042e-06
4.01188862e-06
2.421254554e-06
4.149769955e-06
6.502083841e-06
4.496139531e-06
4.427198864e-06
4.980390442e-06
4.496139531e-06
4.496139531e-06
6.986334752e-06
3.112327466e-06
5.948892263e-06
3.458697042e-06
5.53358202e-06
5.948892263e-06
3.596578377e-06
3.181268133e-06
6.086773598e-06
5.53358202e-06
8.923338395e-06
5.879951596e-06
6.502083841e-06
5.464641352e-06
3.458697042e-06
5.879951596e-06
2.421254554e-06
3.458697042e-06
3.52763771e-06
4.01188862e-06
4.427198864e-06
6.433143174e-06
5.464641352e-06
1.016760289e-05
3.942947953e-06
4.565080198e-06
2.974446132e-06
4.427198864e-06
2.628076555e-06
5.671463354e-06
4.980390442e-06
3.596578377e-06
3.112327466e-06
8.092717908e-06
3.52763771e-06
2.421254554e-06
5.602522687e-06
3.458697042e-06
5.948892263e-06
6.086773598e-06
4.980390442e-06
4.496139531e-06
6.571024508e-06
5.049331109e-06
4.496139531e-06
3.458697042e-06
4.980390442e-06
6.848453417e-06
3.389756375e-06
6.364202506e-06
2.421254554e-06
2.490195221e-06
4.358258196e-06
4.565080198e-06
4.496139531e-06
3.458697042e-06
3.942947953e-06
2.974446132e-06
4.980390442e-06
4.496139531e-06
6.502083841e-06
3.52763771e-06
3.52763771e-06
2.905505464e-06
5.395700685e-06
4.080829287e-06
4.842509107e-06
4.980390442e-06
4.980390442e-06
3.389756375e-06
3.458697042e-06
5.948892263e-06
6.086773598e-06
2.490195221e-06
2.421254554e-06
4.496139531e-06
3.043386799e-06
4.01188862e-06
3.942947953e-06
6.639965176e-06
2.00594431e-06
6.295261839e-06
2.974446132e-06
3.043386799e-06
6.086773598e-06
4.427198864e-06
6.502083841e-06
5.53358202e-06
5.602522687e-06
4.634020865e-06
7.954836573e-06
4.842509107e-06
6.708905843e-06
6.01783293e-06
5.671463354e-06
5.879951596e-06
4.427198864e-06
3.52763771e-06
2.974446132e-06
6.155714265e-06
7.470585662e-06
4.980390442e-06
3.52763771e-06
5.118271776e-06
2.490195221e-06
3.043386799e-06
5.948892263e-06
5.602522687e-06
5.948892263e-06
2.559135888e-06
3.458697042e-06
4.496139531e-06
4.911449774e-06
6.917394084e-06
5.395700685e-06
4.01188862e-06
2.905505464e-06
3.52763771e-06
4.911449774e-06
7.055275419e-06
4.911449774e-06
4.01188862e-06
4.01188862e-06
4.080829287e-06
5.602522687e-06
3.942947953e-06
7.608466997e-06
2.974446132e-06
2.974446132e-06
7.53952633e-06
6.917394084e-06
2.421254554e-06
5.809344689e-06
5.049331109e-06
2.559135888e-06
5.049331109e-06
6.571024508e-06
3.389756375e-06
5.118271776e-06
4.980390442e-06
4.496139531e-06
7.677407664e-06
4.980390442e-06
3.942947953e-06
3.52763771e-06
2.905505464e-06
6.986334752e-06
7.055275419e-06
6.433143174e-06
5.464641352e-06
4.565080198e-06
4.496139531e-06
7.53952633e-06
3.043386799e-06
6.917394084e-06
4.980390442e-06
4.427198864e-06
1.534008229e-05
1.369898957e-05
1.513164389e-05
1.367811125e-05
1.655673689e-05
1.703368909e-05
1.266654279e-05
1.961011731e-05
1.475938744e-05
1.457013697e-05
5.900803411e-06
1.167208966e-05
1.013452472e-05
1.070131517e-05
1.391640066e-05
8.696787793e-06
1.085778394e-05
1.516389886e-05
1.336359667e-05
1.612351583e-05
5.969988558e-06
8.037938738e-06
9.008843146e-06
8.15001955e-06
7.06575208e-06
1.034949559e-05
8.686575862e-06
1.421582591e-05
9.618862266e-06
1.17600245e-05
5.900803409e-06
7.059319228e-06
7.038052756e-06
6.661621505e-06
8.706856311e-06
8.840049875e-06
9.988603273e-06
1.479885016e-05
8.517573841e-06
1.242524925e-05
2.637396388e-06
8.246921357e-06
9.571683936e-06
6.165488833e-06
6.351032594e-06
8.33690131e-06
7.310663748e-06
8.529144328e-06
1.152870556e-05
6.878740213e-06
4.442898844e-06
4.123460679e-06
7.600893535e-06
5.102591243e-06
7.27913645e-06
7.330604158e-06
7.817395193e-06
6.124388789e-06
1.072015068e-05
9.541420887e-06
6.386771598e-06
4.47344869e-06
4.504421576e-06
9.850314264e-06
6.137648213e-06
5.174747797e-06
6.297200837e-06
5.614023065e-06
8.737124013e-06
5.399077245e-06
6.594327043e-06
5.382407336e-06
9.149129522e-06
6.732253727e-06
5.566904082e-06
5.174747793e-06
7.889536327e-06
6.78007157e-06
8.003521324e-06
1.249896515e-05
8.538199797e-06
8.875552861e-06
6.192943924e-06
4.677090789e-06
5.495775963e-06
8.696787787e-06
3.112529855e-06
8.894193022e-06
6.829049507e-06
9.023627926e-06
3.47096247e-06
5.591389955e-06
6.052657558e-06
4.180958109e-06
4.63880022e-06
3.59367104e-06
5.139455679e-06
2.114121452e-06
6.31499699e-06
5.251645445e-06
2.984994279e-06
3.144841164e-06
5.277691912e-06
3.118060526e-06
6.208776336e-06
5.677896364e-06
6.22505971e-06
6.415022871e-06
4.846022829e-06
5.251645445e-06
3.401777319e-06
6.220021459e-06
3.941580792e-06
2.055162942e-06
6.137648209e-06
1.034949559e-05
4.198133906e-06
4.811267187e-06
6.24181363e-06
2.662680684e-06
5.48402037e-06
4.473448702e-06
3.659312761e-06
5.031959024e-06
4.567672075e-06
5.103116742e-06
4.053851636e-06
4.373559906e-06
5.727761058e-06
4.142343636e-06
4.026115791e-06
4.893097545e-06
6.545355108e-06
5.66935613e-06
5.709160344e-06
5.677896352e-06
5.862610472e-06
6.269705828e-06
9.399312055e-06
4.216059506e-06
2.499026104e-06
2.516209667e-06
3.096471962e-06
6.802885977e-06
4.567672128e-06
3.593671055e-06
2.677939528e-06
5.831998656e-06
4.258786933e-06
4.216059536e-06
5.20560762e-06
5.171741081e-06
3.589169585e-06
4.747723027e-06
7.565368077e-06
5.749527436e-06
5.21159681e-06
5.759340055e-06
6.829049478e-06
6.434663154e-06
5.136422471e-06
4.612770417e-06
4.574564727e-06
4.677090773e-06
7.208008334e-06
6.037782834e-06
5.718328266e-06
4.155584408e-06
5.800944489e-06
2.071171818e-06
5.484020362e-06
5.032419334e-06
3.026328797e-06
5.243855673e-06
5.995391919e-06
5.246378826e-06
5.790469349e-06
2.624487182e-06
3.671551023e-06
3.845698382e-06
5.622390697e-06
2.516209667e-06
7.178339121e-06
3.755457664e-06
3.568440103e-06
3.59367103e-06
5.21159681e-06
3.790535685e-06
6.314996963e-06
5.325361383e-06
7.011110074e-06
3.494829185e-06
7.108195936e-06
6.094856586e-06
2.498079983e-06
1.509445719e-06
5.79046939e-06
6.342364347e-06
7.489468827e-06
3.106757727e-06
4.581269135e-06
7.268301813e-06
9.853951973e-07
2.480663409e-06
3.068824107e-06
9.271567382e-06
5.067314563e-06
5.831998656e-06
6.46136379e-06
2.588964772e-06
5.414835214e-06
7.128980068e-06
4.011723974e-06
3.543560996e-06
)
;

boundaryField
{
    flow
    {
        type            zeroGradient;
    }
    obstacle
    {
        type            calculated;
        value           nonuniform List<scalar> 10(1.135694618e-23 1e-300 1.1571047e-23 1e-300 3.212417232e-24 6.688781017e-24 1.327906191e-23 7.731377649e-24 5.968025035e-24 1.452249191e-23);
    }
    frontAndBack
    {
        type            empty;
    }
    procBoundary0to1
    {
        type            processor;
        value           nonuniform List<scalar> 
21
(
1.713636047e-05
1.348524291e-05
1.564585201e-05
1.184622201e-05
7.972335793e-06
5.885982905e-06
9.089768458e-06
8.120848225e-06
7.003415566e-06
3.651117569e-06
5.960239113e-06
4.32121824e-06
5.364394658e-06
7.376491332e-06
2.682197348e-06
5.438650873e-06
5.364394658e-06
4.321218243e-06
3.873886233e-06
7.97233577e-06
6.407571149e-06
)
;
    }
    procBoundary0to2
    {
        type            processor;
        value           nonuniform List<scalar> 
31
(
3.52763771e-06
3.458697042e-06
4.980390442e-06
5.049331109e-06
4.427198864e-06
6.571024508e-06
2.974446132e-06
4.565080198e-06
6.502083841e-06
7.470585662e-06
6.01783293e-06
3.043386799e-06
4.358258196e-06
3.043386799e-06
5.187212443e-06
7.401644995e-06
5.049331109e-06
5.326760018e-06
4.427198864e-06
2.974446132e-06
6.20877634e-06
3.233784548e-06
4.198133868e-06
4.81126715e-06
3.303865286e-06
5.695722499e-06
3.60933276e-06
5.521729093e-06
4.574564758e-06
6.20877634e-06
6.094856586e-06
)
;
    }
}


// ************************************************************************* //
