/*--------------------------------*- C++ -*----------------------------------*\
| =========                 |                                                 |
| \\      /  F ield         | OpenFOAM: The Open Source CFD Toolbox           |
|  \\    /   O peration     | Version:  2406                                  |
|   \\  /    A nd           | Website:  www.openfoam.com                      |
|    \\/     M anipulation  |                                                 |
\*---------------------------------------------------------------------------*/
FoamFile
{
    version     2.0;
    format      ascii;
    arch        "LSB;label=32;scalar=64";
    class       volScalarField;
    location    "0.007";
    object      rhoMMean;
}
// * * * * * * * * * * * * * * * * * * * * * * * * * * * * * * * * * * * * * //

dimensions      [1 -3 0 0 0 0 0];

internalField   nonuniform List<scalar> 
654
(
3.659560214e-06
4.70517662e-06
4.725750574e-06
4.739142499e-06
4.749954074e-06
4.754315754e-06
4.752701049e-06
4.780485953e-06
4.768812456e-06
4.743378676e-06
4.752468966e-06
4.748990809e-06
4.738025464e-06
4.728723265e-06
4.758190535e-06
4.775282524e-06
4.779793035e-06
4.868546542e-06
5.114769697e-06
6.56058629e-06
3.706535022e-06
4.765669154e-06
4.812743401e-06
4.780097719e-06
4.779542385e-06
4.795749423e-06
4.775141311e-06
4.770438111e-06
4.765552399e-06
4.776168428e-06
4.78861869e-06
4.806490301e-06
4.807300748e-06
4.831587322e-06
4.824997642e-06
4.864277815e-06
4.929993296e-06
5.070172554e-06
5.396729886e-06
6.241715025e-06
3.731872696e-06
4.832687993e-06
4.838930441e-06
4.831565721e-06
4.805357556e-06
4.815234787e-06
4.838873253e-06
4.814639582e-06
4.818732164e-06
4.797150314e-06
4.800409419e-06
4.800390674e-06
4.788347867e-06
4.815458777e-06
4.835188602e-06
4.822380932e-06
4.8557597e-06
4.967306116e-06
5.17120952e-06
5.69693641e-06
3.751179832e-06
4.770054816e-06
4.811854165e-06
4.81137762e-06
4.773532497e-06
4.760810757e-06
4.763676391e-06
4.770906562e-06
4.765155596e-06
4.793493453e-06
4.774916547e-06
4.779104759e-06
4.804060567e-06
4.760108496e-06
4.780377945e-06
4.771016653e-06
4.796556061e-06
4.882498741e-06
5.050999491e-06
5.399151705e-06
3.714301782e-06
4.773850986e-06
4.741275048e-06
4.755976519e-06
4.7745952e-06
4.783511547e-06
4.765322874e-06
4.745876429e-06
4.716964016e-06
4.719895408e-06
4.709244744e-06
4.712312113e-06
4.748199583e-06
4.756132015e-06
4.753426339e-06
4.838274537e-06
4.871137842e-06
4.954361338e-06
5.053450827e-06
5.238336367e-06
3.700150408e-06
4.742015751e-06
4.805179328e-06
4.767983264e-06
4.75426904e-06
4.75037724e-06
4.753498464e-06
4.791683203e-06
4.796796714e-06
4.811917065e-06
4.802112911e-06
4.797817643e-06
4.755807336e-06
4.757825034e-06
4.80383372e-06
4.778115608e-06
4.797082176e-06
4.856445774e-06
4.927519704e-06
5.073194815e-06
3.731535937e-06
4.787466724e-06
4.809106714e-06
4.79106354e-06
4.829837771e-06
4.83874888e-06
4.822071011e-06
4.797859894e-06
4.826379312e-06
4.853076102e-06
4.82918395e-06
4.835571897e-06
4.833678096e-06
4.805231279e-06
4.8186116e-06
4.810608472e-06
4.855651989e-06
4.877269902e-06
4.958132752e-06
5.042841641e-06
3.703416654e-06
4.749526446e-06
4.791122156e-06
4.798297996e-06
4.789183724e-06
4.780567599e-06
4.815440984e-06
4.839359497e-06
4.851808807e-06
4.81894455e-06
4.806733513e-06
4.77835388e-06
4.802268585e-06
4.827225345e-06
4.811796025e-06
4.848397836e-06
4.853078482e-06
4.887860998e-06
4.908262912e-06
4.947092427e-06
3.728117349e-06
4.824566681e-06
4.832865269e-06
4.815497517e-06
4.799585939e-06
4.785316858e-06
4.800676434e-06
4.804724861e-06
4.763957867e-06
4.764312895e-06
4.821840356e-06
4.828869269e-06
4.807763487e-06
4.806737797e-06
4.778891421e-06
4.801013669e-06
4.841141124e-06
4.848788272e-06
4.870878921e-06
4.956553931e-06
3.71275682e-06
4.73069157e-06
4.790534568e-06
4.794720401e-06
4.814781272e-06
4.815792501e-06
4.806465843e-06
4.799534941e-06
4.829548024e-06
4.82792951e-06
4.813739693e-06
4.817816863e-06
4.846964215e-06
4.849866864e-06
4.868782434e-06
4.885437273e-06
4.882210898e-06
4.836976596e-06
4.877890517e-06
4.893877551e-06
3.731044932e-06
4.777070697e-06
4.793516483e-06
4.781305445e-06
4.768378163e-06
4.736737521e-06
4.724678825e-06
4.739832858e-06
4.755845303e-06
4.781039859e-06
4.793615922e-06
4.800074564e-06
4.816344502e-06
4.806502857e-06
4.790306948e-06
4.727620393e-06
4.753930853e-06
4.797207977e-06
4.859520284e-06
4.883550792e-06
3.732484741e-06
4.808203969e-06
4.842283748e-06
4.814554128e-06
4.843429526e-06
4.85644863e-06
4.8830123e-06
4.874357255e-06
4.884259896e-06
4.82638074e-06
4.806814206e-06
4.76827682e-06
4.745644345e-06
4.787937555e-06
4.816559745e-06
4.867220632e-06
4.888183296e-06
4.856264035e-06
4.844880285e-06
4.87699652e-06
3.736018657e-06
4.779781133e-06
4.80116125e-06
4.803653112e-06
4.773156819e-06
4.760951018e-06
4.763637949e-06
4.739488304e-06
4.723559885e-06
4.744562896e-06
4.774680179e-06
4.789815943e-06
4.811438616e-06
4.800019757e-06
4.756870992e-06
4.792210746e-06
4.805023177e-06
4.845555231e-06
4.874903366e-06
4.860847146e-06
3.728851387e-06
4.814706291e-06
4.832929598e-06
4.850641249e-06
4.865773681e-06
4.858992264e-06
4.822706562e-06
4.851950973e-06
4.822510065e-06
4.809309876e-06
4.780601578e-06
4.789613554e-06
4.774418698e-06
4.785444087e-06
4.797226068e-06
4.755408926e-06
4.729849345e-06
4.719257774e-06
4.710891525e-06
4.778841374e-06
3.683173746e-06
4.766183665e-06
4.789342731e-06
4.751612935e-06
4.773775053e-06
4.789189437e-06
4.817494089e-06
4.819230786e-06
4.846703865e-06
4.858618015e-06
4.859429414e-06
4.870827624e-06
4.89021593e-06
4.864036031e-06
4.844604046e-06
4.824163213e-06
4.824741101e-06
4.824687721e-06
4.801017001e-06
4.783490243e-06
3.733964422e-06
4.78855579e-06
4.802329582e-06
4.817628637e-06
4.793440074e-06
4.814941707e-06
4.831715682e-06
4.814882615e-06
4.81833917e-06
4.806049343e-06
4.794367277e-06
4.774838709e-06
4.720388317e-06
4.743747688e-06
4.767438582e-06
4.801866546e-06
4.82482959e-06
4.811583341e-06
4.841475384e-06
4.815313278e-06
3.742072225e-06
4.772471697e-06
4.785807387e-06
4.78766941e-06
4.774155492e-06
4.777752784e-06
4.720658188e-06
4.750651098e-06
4.7447416e-06
4.745150008e-06
4.782005504e-06
4.786532856e-06
4.808469258e-06
4.830604539e-06
4.799711443e-06
4.7958854e-06
4.788183445e-06
4.795379458e-06
4.78502235e-06
4.793918999e-06
3.709280092e-06
4.76699316e-06
4.792920802e-06
4.814693913e-06
4.7963745e-06
4.765996868e-06
4.806592299e-06
4.79841618e-06
4.780192397e-06
4.771023318e-06
4.765628332e-06
4.764343244e-06
4.777743263e-06
4.780908642e-06
4.778160715e-06
4.778140542e-06
4.801779008e-06
4.784500698e-06
4.802110055e-06
4.804104246e-06
3.726422902e-06
4.789708233e-06
4.819033813e-06
4.768832629e-06
4.792447114e-06
4.817323656e-06
4.79951923e-06
4.80977928e-06
4.799426456e-06
4.792608501e-06
4.799072857e-06
4.795873795e-06
4.762315847e-06
4.751980341e-06
4.754169601e-06
4.755927901e-06
4.752289309e-06
4.765355425e-06
4.764836154e-06
4.756094227e-06
3.711474589e-06
4.784918627e-06
4.860113584e-06
4.853716414e-06
4.835969176e-06
4.841346845e-06
4.82975309e-06
4.829018576e-06
4.840398517e-06
4.82561064e-06
4.822032092e-06
4.82252405e-06
4.845274232e-06
4.83311943e-06
4.848497275e-06
4.830255699e-06
4.84050718e-06
4.845089339e-06
4.860057348e-06
4.857747524e-06
3.721102896e-06
4.77046846e-06
4.764996113e-06
4.766004009e-06
4.775135598e-06
4.787766468e-06
4.774502427e-06
4.712345795e-06
4.73732606e-06
4.753792019e-06
4.778145779e-06
4.789722217e-06
4.786375277e-06
4.801632082e-06
4.804161434e-06
4.819483043e-06
4.807923922e-06
4.796166875e-06
4.791263846e-06
4.779208959e-06
3.718329559e-06
4.763296905e-06
4.785924619e-06
4.746258771e-06
4.769858795e-06
4.75153605e-06
4.803015656e-06
4.831476458e-06
4.875512555e-06
4.870549005e-06
4.822879078e-06
4.799220438e-06
4.79073059e-06
4.815825707e-06
4.814263428e-06
4.803413887e-06
4.805254308e-06
4.801205881e-06
4.818940087e-06
4.818665277e-06
1.159538605e-05
1.335996775e-05
1.388925932e-05
1.437378785e-05
1.459198487e-05
1.479583852e-05
1.48801534e-05
1.509376008e-05
1.464955847e-05
1.476559272e-05
7.899209948e-06
9.485123866e-06
1.050932334e-05
1.137368936e-05
1.207664149e-05
1.256343878e-05
1.279776236e-05
1.30050456e-05
1.318601611e-05
1.306894699e-05
6.534792521e-06
7.573157786e-06
8.465634341e-06
9.38958402e-06
1.010789777e-05
1.080830371e-05
1.134123662e-05
1.180167068e-05
1.206359977e-05
1.227506047e-05
5.892279871e-06
6.532528493e-06
7.244133979e-06
7.964849964e-06
8.721679634e-06
9.436683233e-06
1.011789636e-05
1.054857646e-05
1.095723658e-05
1.134233462e-05
5.532320143e-06
5.960978193e-06
6.450250746e-06
7.066442552e-06
7.659016222e-06
8.171578159e-06
8.76040728e-06
9.235905255e-06
9.876594529e-06
1.047814973e-05
5.295938587e-06
5.595495643e-06
5.905239223e-06
6.292571466e-06
6.726202295e-06
7.283854097e-06
7.929600763e-06
8.452297442e-06
8.962959422e-06
9.475428454e-06
5.18346175e-06
5.37476947e-06
5.584251177e-06
5.901879441e-06
6.192596457e-06
6.62999147e-06
7.081291841e-06
7.589340654e-06
8.137792157e-06
8.690860036e-06
5.049883533e-06
5.172011115e-06
5.325458607e-06
5.574242557e-06
5.787422334e-06
6.083842257e-06
6.504192557e-06
6.876354551e-06
7.3183836e-06
7.771779737e-06
4.980710089e-06
5.106979364e-06
5.189507185e-06
5.364621488e-06
5.535040777e-06
5.747986212e-06
5.971227011e-06
6.277580365e-06
6.644832226e-06
7.05466637e-06
4.970318167e-06
5.042371539e-06
5.120663817e-06
5.184612602e-06
5.289915381e-06
5.49794719e-06
5.70156991e-06
5.898916085e-06
6.117179727e-06
6.381889632e-06
4.929948614e-06
4.969669576e-06
5.086392525e-06
5.161296409e-06
5.243975146e-06
5.315480752e-06
5.441818023e-06
5.642162511e-06
5.816862255e-06
6.047025054e-06
4.879680662e-06
4.89233681e-06
4.906970742e-06
4.951794771e-06
4.997503569e-06
5.101807052e-06
5.19149283e-06
5.359219486e-06
5.521017557e-06
5.695487027e-06
4.854461496e-06
4.883432615e-06
4.913530736e-06
4.952524204e-06
4.981223773e-06
5.080487639e-06
5.17866619e-06
5.197529461e-06
5.284830543e-06
5.464552681e-06
4.823917117e-06
4.843678973e-06
4.864670944e-06
4.86967823e-06
4.900990226e-06
4.913316856e-06
4.974892128e-06
5.068646455e-06
5.168665287e-06
5.250287406e-06
4.784679595e-06
4.793533469e-06
4.829861006e-06
4.887545563e-06
4.896327791e-06
4.970520199e-06
4.970302904e-06
5.025779281e-06
5.065567645e-06
5.156272977e-06
4.873390749e-06
4.888413683e-06
4.853212029e-06
4.854729534e-06
4.899670441e-06
4.906138142e-06
4.938588022e-06
4.976888902e-06
5.043743861e-06
5.057059711e-06
4.77513476e-06
4.801897853e-06
4.791805526e-06
4.803067075e-06
4.777040393e-06
4.824444835e-06
4.856047057e-06
4.868914272e-06
4.859008741e-06
4.969572141e-06
4.793632486e-06
4.760015315e-06
4.773827986e-06
4.787305085e-06
4.850460243e-06
4.844332111e-06
4.847213736e-06
4.882201307e-06
4.909493467e-06
4.93332288e-06
4.792062788e-06
4.847457239e-06
4.874785642e-06
4.882880117e-06
4.846222428e-06
4.838867871e-06
4.850097921e-06
4.854336687e-06
4.856907455e-06
4.896738703e-06
4.834280208e-06
4.827544872e-06
4.80601305e-06
4.79029944e-06
4.813899376e-06
4.841362594e-06
4.862688648e-06
4.870395004e-06
4.847593837e-06
4.857611974e-06
4.770968362e-06
4.780173041e-06
4.764974897e-06
4.770133226e-06
4.767920276e-06
4.747995437e-06
4.737220196e-06
4.763441383e-06
4.84866932e-06
4.842002592e-06
4.815703414e-06
4.795653749e-06
4.798910999e-06
4.822751458e-06
)
;

boundaryField
{
    flow
    {
        type            calculated;
        value           nonuniform List<scalar> 
42
(
3.659560214e-06
3.706535022e-06
3.731872696e-06
3.751179832e-06
3.714301782e-06
3.700150408e-06
3.731535937e-06
3.703416654e-06
3.728117349e-06
3.71275682e-06
3.731044932e-06
3.732484741e-06
3.736018657e-06
3.728851387e-06
3.683173746e-06
3.733964422e-06
3.742072225e-06
3.709280092e-06
3.726422902e-06
3.711474589e-06
3.721102896e-06
3.718329559e-06
3.659560214e-06
4.70517662e-06
4.725750574e-06
4.739142499e-06
4.749954074e-06
4.754315754e-06
4.752701049e-06
4.780485953e-06
4.768812456e-06
4.743378676e-06
4.752468966e-06
4.748990809e-06
4.738025464e-06
4.728723265e-06
4.758190535e-06
4.775282524e-06
4.779793035e-06
4.868546542e-06
5.114769697e-06
6.56058629e-06
)
;
    }
    obstacle
    {
        type            calculated;
        value           nonuniform List<scalar> 10(6.699035403e-24 6.908501237e-24 6.90925317e-24 6.570593176e-24 7.318989305e-24 7.039523207e-24 6.789140038e-24 6.931061297e-24 6.787423018e-24 6.630050683e-24);
    }
    frontAndBack
    {
        type            empty;
    }
    procBoundary0to1
    {
        type            processor;
        value           nonuniform List<scalar> 
21
(
1.457140879e-05
1.312021332e-05
1.235132888e-05
1.158390406e-05
1.07203474e-05
1.006842124e-05
9.159564814e-06
8.236991229e-06
7.504498371e-06
6.761783719e-06
6.352021318e-06
5.913014745e-06
5.605698707e-06
5.317104953e-06
5.265123589e-06
5.070194479e-06
5.021889417e-06
4.990237075e-06
4.921944495e-06
4.893745686e-06
4.840600512e-06
)
;
    }
    procBoundary0to2
    {
        type            processor;
        value           nonuniform List<scalar> 
31
(
3.704936681e-06
4.778103528e-06
4.830158165e-06
4.803281243e-06
4.803122712e-06
4.795393442e-06
4.790039755e-06
4.775907602e-06
4.753441276e-06
4.776599389e-06
4.794664641e-06
4.830911424e-06
4.808738654e-06
4.776582548e-06
4.787239401e-06
4.770258931e-06
4.782176413e-06
4.761661074e-06
4.724261848e-06
4.730352907e-06
4.837138534e-06
4.828774355e-06
4.839454938e-06
4.845773895e-06
4.855055321e-06
4.886763638e-06
4.752402735e-06
4.774592206e-06
4.805964734e-06
4.837138534e-06
4.78065395e-06
)
;
    }
}


// ************************************************************************* //
