/*--------------------------------*- C++ -*----------------------------------*\
| =========                 |                                                 |
| \\      /  F ield         | OpenFOAM: The Open Source CFD Toolbox           |
|  \\    /   O peration     | Version:  2406                                  |
|   \\  /    A nd           | Website:  www.openfoam.com                      |
|    \\/     M anipulation  |                                                 |
\*---------------------------------------------------------------------------*/
FoamFile
{
    version     2.0;
    format      ascii;
    arch        "LSB;label=32;scalar=64";
    class       volScalarField;
    location    "0.007";
    object      rhoNMean;
}
// * * * * * * * * * * * * * * * * * * * * * * * * * * * * * * * * * * * * * //

dimensions      [0 -3 0 0 0 0 0];

internalField   nonuniform List<scalar> 
654
(
7.628104822e+19
9.809093563e+19
9.852237269e+19
9.875445608e+19
9.898653946e+19
9.904009717e+19
9.904307259e+19
9.960840392e+19
9.940607481e+19
9.888537491e+19
9.906985145e+19
9.899844117e+19
9.879016121e+19
9.863543895e+19
9.925135256e+19
9.958757592e+19
9.970956847e+19
1.015394567e+20
1.066274386e+20
1.367447211e+20
7.72450869e+19
9.933466454e+19
1.003046541e+20
9.964410905e+19
9.962030563e+19
9.996545528e+19
9.956674793e+19
9.947153423e+19
9.934359082e+19
9.958460049e+19
9.98404873e+19
1.002481209e+20
1.002659735e+20
1.007569191e+20
1.005664917e+20
1.013282013e+20
1.027147508e+20
1.056276948e+20
1.124920073e+20
1.3002918e+20
7.778066394e+19
1.00742042e+20
1.008551083e+20
1.007450174e+20
1.00185637e+20
1.003641626e+20
1.0086701e+20
1.003373838e+20
1.004325975e+20
9.998033242e+19
1.000368656e+20
1.000428164e+20
9.974824903e+19
1.002868015e+20
1.007360911e+20
1.004623518e+20
1.011496756e+20
1.034913375e+20
1.077789293e+20
1.18767185e+20
7.817342044e+19
9.94150011e+19
1.002868015e+20
1.002629981e+20
9.948343594e+19
9.925432798e+19
9.931383654e+19
9.944475538e+19
9.932573826e+19
9.989999586e+19
9.951616565e+19
9.959352678e+19
1.00081497e+20
9.917399143e+19
9.954889536e+19
9.93941731e+19
9.995950442e+19
1.017031052e+20
1.052111349e+20
1.124860564e+20
7.740576001e+19
9.950426394e+19
9.878718578e+19
9.907877773e+19
9.947748508e+19
9.968278962e+19
9.926325427e+19
9.886157148e+19
9.826648588e+19
9.836765043e+19
9.815639504e+19
9.824565788e+19
9.897761318e+19
9.918886857e+19
9.914423715e+19
1.009413957e+20
1.016078915e+20
1.033455415e+20
1.053896606e+20
1.092458153e+20
7.710524178e+19
9.886157148e+19
1.001796861e+20
9.93941731e+19
9.911745829e+19
9.904604802e+19
9.910258115e+19
9.991189758e+19
9.998628328e+19
1.003106049e+20
1.000963741e+20
9.996545528e+19
9.912936001e+19
9.918291771e+19
1.001410055e+20
9.956674793e+19
9.992379929e+19
1.011288476e+20
1.026433405e+20
1.056812525e+20
7.776876223e+19
9.978097874e+19
1.002272929e+20
9.985536444e+19
1.006557546e+20
1.008283294e+20
1.004950815e+20
9.998330785e+19
1.005843443e+20
1.011199214e+20
1.006319512e+20
1.007926243e+20
1.007747717e+20
1.001350547e+20
1.004177203e+20
1.002570472e+20
1.012151351e+20
1.016465721e+20
1.032800821e+20
1.050683143e+20
7.720640633e+19
9.90222446e+19
9.985238902e+19
1.000130621e+20
9.980180674e+19
9.962625649e+19
1.002987032e+20
1.008283294e+20
1.010782654e+20
1.004058186e+20
1.001677844e+20
9.957864964e+19
1.000844724e+20
1.005783935e+20
1.002927524e+20
1.010574374e+20
1.011347985e+20
1.018548521e+20
1.023190188e+20
1.030956056e+20
7.770032739e+19
1.005813689e+20
1.00742042e+20
1.004058186e+20
1.00060669e+20
9.976312618e+19
1.001053004e+20
1.001707598e+20
9.934954168e+19
9.935251711e+19
1.005307866e+20
1.006349266e+20
1.002034895e+20
1.001945632e+20
9.961435477e+19
1.001201775e+20
1.010068551e+20
1.011586019e+20
1.01590039e+20
1.033842221e+20
7.735220231e+19
9.862651267e+19
9.987321701e+19
9.9935701e+19
1.003611872e+20
1.004028432e+20
1.002183667e+20
1.001112513e+20
1.006914597e+20
1.006706317e+20
1.003760643e+20
1.004980569e+20
1.010842162e+20
1.011288476e+20
1.015364813e+20
1.018489012e+20
1.017507121e+20
1.008313048e+20
1.017090561e+20
1.020333778e+20
7.777768851e+19
9.956079707e+19
9.992082386e+19
9.968278962e+19
9.940012396e+19
9.874255436e+19
9.847179041e+19
9.876040693e+19
9.912043372e+19
9.962328106e+19
9.992677472e+19
1.000368656e+20
1.004058186e+20
1.002034895e+20
9.980478217e+19
9.851344641e+19
9.90966303e+19
9.997140614e+19
1.012627419e+20
1.017536875e+20
7.778959023e+19
1.002481209e+20
1.008848625e+20
1.002957278e+20
1.009056905e+20
1.011467002e+20
1.017120315e+20
1.015394567e+20
1.017536875e+20
1.005932706e+20
1.001796861e+20
9.938227139e+19
9.888835034e+19
9.976907703e+19
1.003968923e+20
1.015007761e+20
1.018994835e+20
1.012240613e+20
1.009860271e+20
1.016614493e+20
7.78401725e+19
9.963518277e+19
1.000576935e+20
1.001201775e+20
9.947450966e+19
9.926920512e+19
9.93197874e+19
9.882289092e+19
9.849559384e+19
9.890025205e+19
9.951616565e+19
9.981370845e+19
1.002748998e+20
1.000636444e+20
9.912936001e+19
9.988511872e+19
1.001886124e+20
1.010187568e+20
1.016287195e+20
1.013073733e+20
7.773305709e+19
1.003849906e+20
1.007747717e+20
1.011675282e+20
1.01444243e+20
1.012865453e+20
1.005278112e+20
1.011050442e+20
1.005307866e+20
1.002659735e+20
9.971551933e+19
9.990297129e+19
9.960542849e+19
9.981965931e+19
1.000844724e+20
9.92245737e+19
9.865626695e+19
9.844501156e+19
9.823078074e+19
9.967088791e+19
7.675116585e+19
9.934954168e+19
9.981073302e+19
9.901331831e+19
9.952211651e+19
9.983751188e+19
1.0045045e+20
1.00471278e+20
1.010574374e+20
1.012865453e+20
1.013103487e+20
1.015156533e+20
1.019232869e+20
1.014174642e+20
1.009830517e+20
1.005218603e+20
1.005635163e+20
1.005992214e+20
1.001410055e+20
9.979585588e+19
7.780446737e+19
9.981668388e+19
1.000963741e+20
1.004296221e+20
9.9935701e+19
1.003790398e+20
1.006974106e+20
1.003790398e+20
1.004385483e+20
1.002005141e+20
9.994462728e+19
9.952211651e+19
9.837062586e+19
9.88526452e+19
9.931383654e+19
1.000338901e+20
1.005010323e+20
1.001945632e+20
1.007569191e+20
1.002391947e+20
7.800382104e+19
9.950128851e+19
9.975122446e+19
9.981668388e+19
9.956079707e+19
9.96381582e+19
9.845691327e+19
9.903414631e+19
9.890917833e+19
9.887644862e+19
9.962625649e+19
9.973039647e+19
1.001826615e+20
1.006468283e+20
9.998330785e+19
9.995355357e+19
9.982858559e+19
9.999223413e+19
9.976907703e+19
9.997438156e+19
7.728971832e+19
9.936144339e+19
9.989106958e+19
1.003076295e+20
9.993272557e+19
9.929003312e+19
1.001469564e+20
1.000130621e+20
9.962030563e+19
9.943582909e+19
9.932573826e+19
9.929598398e+19
9.957864964e+19
9.966493705e+19
9.960245306e+19
9.959947763e+19
1.00102325e+20
9.970956847e+19
1.000785215e+20
1.001082758e+20
7.769735196e+19
9.987916787e+19
1.00471278e+20
9.940905024e+19
9.988511872e+19
1.003701135e+20
1.000130621e+20
1.002451455e+20
1.000487673e+20
9.990892215e+19
1.000547181e+20
1.000041358e+20
9.930491026e+19
9.909365487e+19
9.911150744e+19
9.914423715e+19
9.905497431e+19
9.934359082e+19
9.92989594e+19
9.90758023e+19
7.73403006e+19
9.973634732e+19
1.01277619e+20
1.011824053e+20
1.008134523e+20
1.009384202e+20
1.00742042e+20
1.007063369e+20
1.009205677e+20
1.005813689e+20
1.004980569e+20
1.004950815e+20
1.009860271e+20
1.007301403e+20
1.010633882e+20
1.006825334e+20
1.008610591e+20
1.009384202e+20
1.012954716e+20
1.012627419e+20
7.75634577e+19
9.94150011e+19
9.931383654e+19
9.933466454e+19
9.953104279e+19
9.98077576e+19
9.951319022e+19
9.820995275e+19
9.872767722e+19
9.909067944e+19
9.963220734e+19
9.984346273e+19
9.973039647e+19
1.000457918e+20
1.000963741e+20
1.004474746e+20
1.002213421e+20
9.99892587e+19
9.987619244e+19
9.962923191e+19
7.746526857e+19
9.928110684e+19
9.974527361e+19
9.891215376e+19
9.942095195e+19
9.902522003e+19
1.000755461e+20
1.00679558e+20
1.016197933e+20
1.014978007e+20
1.004980569e+20
9.999223413e+19
9.986726616e+19
1.003641626e+20
1.003254821e+20
1.00102325e+20
1.001558827e+20
1.000904233e+20
1.005010323e+20
1.005069832e+20
2.414970764e+20
2.781925153e+20
2.892581435e+20
2.992373579e+20
3.037481066e+20
3.082453541e+20
3.101788082e+20
3.143194378e+20
3.048876276e+20
3.075197013e+20
1.645961564e+20
1.9778637e+20
2.190120295e+20
2.370249111e+20
2.516161322e+20
2.618907634e+20
2.665952329e+20
2.709187514e+20
2.745687944e+20
2.721061629e+20
1.362592095e+20
1.578929679e+20
1.763176254e+20
1.956180282e+20
2.106000382e+20
2.252405248e+20
2.363439097e+20
2.45979036e+20
2.514861781e+20
2.557308613e+20
1.227924412e+20
1.361528829e+20
1.509728372e+20
1.659689562e+20
1.816913815e+20
1.967890575e+20
2.107598093e+20
2.197410631e+20
2.282393177e+20
2.363235678e+20
1.153842257e+20
1.242561165e+20
1.344224362e+20
1.471387778e+20
1.595332972e+20
1.70192516e+20
1.82423324e+20
1.924839267e+20
2.057915683e+20
2.182716034e+20
1.102841725e+20
1.165323883e+20
1.230306016e+20
1.312198538e+20
1.402332308e+20
1.519616886e+20
1.653641432e+20
1.76290202e+20
1.868877013e+20
1.976330603e+20
1.080506597e+20
1.120496796e+20
1.164370817e+20
1.230530985e+20
1.29166468e+20
1.383125279e+20
1.476417751e+20
1.582431682e+20
1.69679971e+20
1.81181402e+20
1.052617547e+20
1.077864462e+20
1.110242196e+20
1.162154602e+20
1.207336252e+20
1.268429045e+20
1.355891946e+20
1.433320219e+20
1.525259359e+20
1.620222673e+20
1.038523723e+20
1.064906397e+20
1.081815588e+20
1.117708431e+20
1.154074579e+20
1.198807504e+20
1.245921101e+20
1.309703524e+20
1.385904538e+20
1.47247272e+20
1.036403678e+20
1.051076444e+20
1.067859607e+20
1.081279641e+20
1.103422266e+20
1.146003955e+20
1.188351426e+20
1.229957898e+20
1.276113659e+20
1.330099542e+20
1.027445739e+20
1.036404667e+20
1.060261014e+20
1.075761975e+20
1.092524344e+20
1.108163472e+20
1.134082121e+20
1.175518885e+20
1.212469062e+20
1.261346819e+20
1.017562146e+20
1.019658398e+20
1.022964336e+20
1.032474208e+20
1.041565047e+20
1.064139905e+20
1.082832972e+20
1.117755841e+20
1.151319718e+20
1.18779e+20
1.011620046e+20
1.017944689e+20
1.02462937e+20
1.032657115e+20
1.038924983e+20
1.059409843e+20
1.079875087e+20
1.084421338e+20
1.102109641e+20
1.139526283e+20
1.006424438e+20
1.010037555e+20
1.014608904e+20
1.015982176e+20
1.022347867e+20
1.024599072e+20
1.036970263e+20
1.056700097e+20
1.077788877e+20
1.094475902e+20
9.977949659e+19
9.994847079e+19
1.007161684e+20
1.018969648e+20
1.02053667e+20
1.036161448e+20
1.03612961e+20
1.047700107e+20
1.056026539e+20
1.075036801e+20
1.014844903e+20
1.018275405e+20
1.01112749e+20
1.011257109e+20
1.021150631e+20
1.022342253e+20
1.02881275e+20
1.037226227e+20
1.051162378e+20
1.053179734e+20
9.954957549e+19
1.001048087e+20
9.985337932e+19
1.001166785e+20
9.954253952e+19
1.004875029e+20
1.011345694e+20
1.013613007e+20
1.01199648e+20
1.034917789e+20
9.989296315e+19
9.919383638e+19
9.947193737e+19
9.973257578e+19
1.010375495e+20
1.009636005e+20
1.010629568e+20
1.017564218e+20
1.023019787e+20
1.028204774e+20
9.984220217e+19
1.009827108e+20
1.015486836e+20
1.017475915e+20
1.009700138e+20
1.008368473e+20
1.010536169e+20
1.012045056e+20
1.012659766e+20
1.021619028e+20
1.00797715e+20
1.006760466e+20
1.002196867e+20
9.990633654e+19
1.003959543e+20
1.00951235e+20
1.014210166e+20
1.015337738e+20
1.010796234e+20
1.012774385e+20
9.945402415e+19
9.966585803e+19
9.937808953e+19
9.949175015e+19
9.944430473e+19
9.902520326e+19
9.881496915e+19
9.932610951e+19
1.011364771e+20
1.009974644e+20
1.004543273e+20
1.000146134e+20
1.00047129e+20
1.005465084e+20
)
;

boundaryField
{
    flow
    {
        type            calculated;
        value           nonuniform List<scalar> 
42
(
7.628104822e+19
7.72450869e+19
7.778066394e+19
7.817342044e+19
7.740576001e+19
7.710524178e+19
7.776876223e+19
7.720640633e+19
7.770032739e+19
7.735220231e+19
7.777768851e+19
7.778959023e+19
7.78401725e+19
7.773305709e+19
7.675116585e+19
7.780446737e+19
7.800382104e+19
7.728971832e+19
7.769735196e+19
7.73403006e+19
7.75634577e+19
7.746526857e+19
7.628104822e+19
9.809093563e+19
9.852237269e+19
9.875445608e+19
9.898653946e+19
9.904009717e+19
9.904307259e+19
9.960840392e+19
9.940607481e+19
9.888537491e+19
9.906985145e+19
9.899844117e+19
9.879016121e+19
9.863543895e+19
9.925135256e+19
9.958757592e+19
9.970956847e+19
1.015394567e+20
1.066274386e+20
1.367447211e+20
)
;
    }
    obstacle
    {
        type            calculated;
        value           nonuniform List<scalar> 10(139.4903415 143.7903842 144.0659674 136.7249923 152.3517207 146.6661533 141.7327787 144.105397 141.4182712 138.0786726);
    }
    frontAndBack
    {
        type            empty;
    }
    procBoundary0to1
    {
        type            processor;
        value           nonuniform List<scalar> 
21
(
3.035563343e+20
2.733506877e+20
2.573489057e+20
2.414528836e+20
2.232910374e+20
2.099044078e+20
1.909253263e+20
1.717411352e+20
1.565726126e+20
1.409009295e+20
1.324433484e+20
1.234024863e+20
1.168966539e+20
1.108491149e+20
1.097754932e+20
1.055579188e+20
1.04654153e+20
1.040035706e+20
1.026895849e+20
1.020101575e+20
1.009557648e+20
)
;
    }
    procBoundary0to2
    {
        type            processor;
        value           nonuniform List<scalar> 
31
(
7.722723433e+19
9.961435477e+19
1.006884843e+20
1.001350547e+20
1.001291038e+20
9.9956529e+19
9.985833987e+19
9.955484621e+19
9.911448287e+19
9.956972335e+19
9.9956529e+19
1.007182386e+20
1.002659735e+20
9.958757592e+19
9.983751188e+19
9.945963252e+19
9.970956847e+19
9.927515598e+19
9.845096242e+19
9.860270925e+19
1.008441505e+20
1.006853617e+20
1.00879257e+20
1.010132164e+20
1.011901723e+20
1.018182975e+20
9.905688885e+19
9.949148103e+19
1.001682221e+20
1.008441505e+20
9.965941336e+19
)
;
    }
}


// ************************************************************************* //
