/*--------------------------------*- C++ -*----------------------------------*\
| =========                 |                                                 |
| \\      /  F ield         | OpenFOAM: The Open Source CFD Toolbox           |
|  \\    /   O peration     | Version:  2406                                  |
|   \\  /    A nd           | Website:  www.openfoam.com                      |
|    \\/     M anipulation  |                                                 |
\*---------------------------------------------------------------------------*/
FoamFile
{
    version     2.0;
    format      ascii;
    arch        "LSB;label=32;scalar=64";
    class       volScalarField;
    location    "0.007";
    object      rhoN;
}
// * * * * * * * * * * * * * * * * * * * * * * * * * * * * * * * * * * * * * //

dimensions      [0 -3 0 0 0 0 0];

internalField   nonuniform List<scalar> 
654
(
6.248398848e+19
6.248398848e+19
1.041399808e+20
8.331198464e+19
9.372598272e+19
8.331198464e+19
6.248398848e+19
8.331198464e+19
8.331198464e+19
7.289798656e+19
9.372598272e+19
8.331198464e+19
8.331198464e+19
7.289798656e+19
5.20699904e+19
8.331198464e+19
1.24967977e+20
6.248398848e+19
1.666239693e+20
8.331198464e+19
8.331198464e+19
1.35381975e+20
8.331198464e+19
8.331198464e+19
1.24967977e+20
1.145539789e+20
6.248398848e+19
9.372598272e+19
9.372598272e+19
9.372598272e+19
1.24967977e+20
8.331198464e+19
8.331198464e+19
3.124199424e+19
1.35381975e+20
8.331198464e+19
9.372598272e+19
1.145539789e+20
1.562099712e+20
1.145539789e+20
7.289798656e+19
1.041399808e+20
9.372598272e+19
1.457959731e+20
1.145539789e+20
7.289798656e+19
9.372598272e+19
6.248398848e+19
1.145539789e+20
1.457959731e+20
1.457959731e+20
8.331198464e+19
7.289798656e+19
1.145539789e+20
1.457959731e+20
1.145539789e+20
7.289798656e+19
9.372598272e+19
1.35381975e+20
1.35381975e+20
7.289798656e+19
1.145539789e+20
8.331198464e+19
1.145539789e+20
1.35381975e+20
9.372598272e+19
1.145539789e+20
1.041399808e+20
8.331198464e+19
1.041399808e+20
9.372598272e+19
8.331198464e+19
1.35381975e+20
1.24967977e+20
1.041399808e+20
1.041399808e+20
7.289798656e+19
9.372598272e+19
1.770379674e+20
1.562099712e+20
8.331198464e+19
1.145539789e+20
8.331198464e+19
8.331198464e+19
8.331198464e+19
1.041399808e+20
8.331198464e+19
1.666239693e+20
8.331198464e+19
5.20699904e+19
6.248398848e+19
1.457959731e+20
8.331198464e+19
6.248398848e+19
6.248398848e+19
8.331198464e+19
1.041399808e+20
6.248398848e+19
1.24967977e+20
6.248398848e+19
1.041399808e+20
5.20699904e+19
7.289798656e+19
1.35381975e+20
1.24967977e+20
9.372598272e+19
4.165599232e+19
1.24967977e+20
7.289798656e+19
9.372598272e+19
6.248398848e+19
1.35381975e+20
9.372598272e+19
8.331198464e+19
1.041399808e+20
4.165599232e+19
1.041399808e+20
1.041399808e+20
1.24967977e+20
6.248398848e+19
8.331198464e+19
1.24967977e+20
7.289798656e+19
8.331198464e+19
6.248398848e+19
1.041399808e+20
1.041399808e+20
7.289798656e+19
7.289798656e+19
1.562099712e+20
1.874519654e+20
1.874519654e+20
7.289798656e+19
1.041399808e+20
1.24967977e+20
8.331198464e+19
1.35381975e+20
6.248398848e+19
7.289798656e+19
1.041399808e+20
9.372598272e+19
9.372598272e+19
7.289798656e+19
1.145539789e+20
1.562099712e+20
1.041399808e+20
3.124199424e+19
1.041399808e+20
1.145539789e+20
1.24967977e+20
1.041399808e+20
1.24967977e+20
7.289798656e+19
8.331198464e+19
1.041399808e+20
1.145539789e+20
1.35381975e+20
9.372598272e+19
8.331198464e+19
9.372598272e+19
5.20699904e+19
1.24967977e+20
1.457959731e+20
8.331198464e+19
1.35381975e+20
1.145539789e+20
1.666239693e+20
5.20699904e+19
1.145539789e+20
1.24967977e+20
6.248398848e+19
6.248398848e+19
3.124199424e+19
1.041399808e+20
1.874519654e+20
8.331198464e+19
8.331198464e+19
8.331198464e+19
1.041399808e+20
1.35381975e+20
9.372598272e+19
1.041399808e+20
9.372598272e+19
1.041399808e+20
1.145539789e+20
6.248398848e+19
6.248398848e+19
7.289798656e+19
8.331198464e+19
5.20699904e+19
7.289798656e+19
9.372598272e+19
1.145539789e+20
6.248398848e+19
1.145539789e+20
1.24967977e+20
1.24967977e+20
6.248398848e+19
7.289798656e+19
6.248398848e+19
6.248398848e+19
9.372598272e+19
7.289798656e+19
1.145539789e+20
8.331198464e+19
1.041399808e+20
6.248398848e+19
8.331198464e+19
1.145539789e+20
1.24967977e+20
1.145539789e+20
1.24967977e+20
8.331198464e+19
1.24967977e+20
7.289798656e+19
7.289798656e+19
8.331198464e+19
1.35381975e+20
1.24967977e+20
9.372598272e+19
9.372598272e+19
8.331198464e+19
1.041399808e+20
1.145539789e+20
1.35381975e+20
7.289798656e+19
8.331198464e+19
7.289798656e+19
1.041399808e+20
9.372598272e+19
1.041399808e+20
1.24967977e+20
8.331198464e+19
6.248398848e+19
1.041399808e+20
8.331198464e+19
1.666239693e+20
1.041399808e+20
1.041399808e+20
5.20699904e+19
7.289798656e+19
1.562099712e+20
8.331198464e+19
3.124199424e+19
1.145539789e+20
6.248398848e+19
1.041399808e+20
1.457959731e+20
1.666239693e+20
1.145539789e+20
7.289798656e+19
6.248398848e+19
1.770379674e+20
1.35381975e+20
1.041399808e+20
9.372598272e+19
5.20699904e+19
8.331198464e+19
1.041399808e+20
8.331198464e+19
7.289798656e+19
1.041399808e+20
1.041399808e+20
9.372598272e+19
8.331198464e+19
4.165599232e+19
9.372598272e+19
8.331198464e+19
1.457959731e+20
9.372598272e+19
7.289798656e+19
1.24967977e+20
1.457959731e+20
7.289798656e+19
8.331198464e+19
5.20699904e+19
8.331198464e+19
1.35381975e+20
9.372598272e+19
9.372598272e+19
1.041399808e+20
9.372598272e+19
9.372598272e+19
1.457959731e+20
6.248398848e+19
1.24967977e+20
7.289798656e+19
1.145539789e+20
1.24967977e+20
7.289798656e+19
6.248398848e+19
1.24967977e+20
1.145539789e+20
1.874519654e+20
1.24967977e+20
1.35381975e+20
1.145539789e+20
7.289798656e+19
1.24967977e+20
5.20699904e+19
7.289798656e+19
7.289798656e+19
8.331198464e+19
9.372598272e+19
1.35381975e+20
1.145539789e+20
2.082799616e+20
8.331198464e+19
9.372598272e+19
6.248398848e+19
9.372598272e+19
5.20699904e+19
1.145539789e+20
1.041399808e+20
7.289798656e+19
6.248398848e+19
1.666239693e+20
7.289798656e+19
5.20699904e+19
1.145539789e+20
7.289798656e+19
1.24967977e+20
1.24967977e+20
1.041399808e+20
9.372598272e+19
1.35381975e+20
1.041399808e+20
9.372598272e+19
7.289798656e+19
1.041399808e+20
1.457959731e+20
7.289798656e+19
1.35381975e+20
5.20699904e+19
5.20699904e+19
9.372598272e+19
9.372598272e+19
9.372598272e+19
7.289798656e+19
8.331198464e+19
6.248398848e+19
1.041399808e+20
9.372598272e+19
1.35381975e+20
7.289798656e+19
7.289798656e+19
6.248398848e+19
1.145539789e+20
8.331198464e+19
1.041399808e+20
1.041399808e+20
1.041399808e+20
7.289798656e+19
7.289798656e+19
1.24967977e+20
1.24967977e+20
5.20699904e+19
5.20699904e+19
9.372598272e+19
6.248398848e+19
8.331198464e+19
8.331198464e+19
1.35381975e+20
4.165599232e+19
1.35381975e+20
6.248398848e+19
6.248398848e+19
1.24967977e+20
9.372598272e+19
1.35381975e+20
1.145539789e+20
1.145539789e+20
9.372598272e+19
1.666239693e+20
1.041399808e+20
1.35381975e+20
1.24967977e+20
1.145539789e+20
1.24967977e+20
9.372598272e+19
7.289798656e+19
6.248398848e+19
1.24967977e+20
1.562099712e+20
1.041399808e+20
7.289798656e+19
1.041399808e+20
5.20699904e+19
6.248398848e+19
1.24967977e+20
1.145539789e+20
1.24967977e+20
5.20699904e+19
7.289798656e+19
9.372598272e+19
1.041399808e+20
1.457959731e+20
1.145539789e+20
8.331198464e+19
6.248398848e+19
7.289798656e+19
1.041399808e+20
1.457959731e+20
1.041399808e+20
8.331198464e+19
8.331198464e+19
8.331198464e+19
1.145539789e+20
8.331198464e+19
1.562099712e+20
6.248398848e+19
6.248398848e+19
1.562099712e+20
1.457959731e+20
5.20699904e+19
1.145539789e+20
1.041399808e+20
5.20699904e+19
1.041399808e+20
1.35381975e+20
7.289798656e+19
1.041399808e+20
1.041399808e+20
9.372598272e+19
1.562099712e+20
1.041399808e+20
8.331198464e+19
7.289798656e+19
6.248398848e+19
1.457959731e+20
1.457959731e+20
1.35381975e+20
1.145539789e+20
9.372598272e+19
9.372598272e+19
1.562099712e+20
6.248398848e+19
1.457959731e+20
1.041399808e+20
9.372598272e+19
3.135278635e+20
2.841153431e+20
3.178694185e+20
2.8807704e+20
3.438217608e+20
3.570731791e+20
2.615388156e+20
4.060974648e+20
3.095369997e+20
3.006539735e+20
1.254111454e+20
2.420241812e+20
2.119129458e+20
2.240599201e+20
2.900996108e+20
1.839467894e+20
2.288464638e+20
3.182926078e+20
2.763723212e+20
3.340599706e+20
1.254111454e+20
1.683646477e+20
1.907216511e+20
1.707123201e+20
1.504220205e+20
2.164079873e+20
1.852566611e+20
2.963413935e+20
1.989880713e+20
2.449773118e+20
1.254111454e+20
1.473190669e+20
1.483390621e+20
1.387037599e+20
1.826553103e+20
1.839467892e+20
2.070515625e+20
3.073170006e+20
1.768782856e+20
2.561126441e+20
5.225464391e+19
1.683646477e+20
2.013172985e+20
1.280342401e+20
1.289331604e+20
1.7312639e+20
1.525643092e+20
1.756097146e+20
2.432076428e+20
1.447593207e+20
9.405835905e+19
8.418232386e+19
1.589347092e+20
1.066952e+20
1.504220203e+20
1.51485591e+20
1.634617596e+20
1.317072858e+20
2.210978568e+20
2.004359825e+20
1.358620742e+20
9.470511435e+19
9.536082561e+19
2.027208802e+20
1.289331604e+20
1.082039937e+20
1.307694079e+20
1.207316788e+20
1.768782856e+20
1.113533235e+20
1.358620742e+20
1.157506954e+20
1.907216512e+20
1.387037599e+20
1.181887302e+20
1.082039937e+20
1.634617599e+20
1.426828931e+20
1.658233927e+20
2.561126441e+20
1.776657893e+20
1.788874382e+20
1.271477674e+20
9.602568003e+19
1.181887304e+20
1.839467892e+20
6.53847039e+19
1.865853218e+20
1.43713607e+20
1.8930065e+20
7.315650153e+19
1.157506954e+20
1.271477675e+20
8.535616003e+19
9.669987025e+19
7.574279562e+19
1.089745066e+20
4.390242866e+19
1.326587142e+20
1.113533235e+20
6.27055727e+19
6.31367429e+19
1.059564728e+20
6.401712002e+19
1.289331603e+20
1.19024393e+20
1.307694078e+20
1.317072859e+20
9.949403563e+19
1.113533235e+20
7.315650148e+19
1.262734859e+20
8.476517832e+19
4.267807998e+19
1.289331603e+20
2.164079875e+20
8.717960557e+19
9.878046511e+19
1.326587148e+20
5.567666201e+19
1.149602166e+20
9.47051146e+19
7.416953128e+19
1.066952e+20
9.669986985e+19
1.082039935e+20
8.717960508e+19
8.780485658e+19
1.216038208e+20
8.908265883e+19
8.360742998e+19
1.052279042e+20
1.377434137e+20
1.173647196e+20
1.181887304e+20
1.190243928e+20
1.198719566e+20
1.317072858e+20
1.989880704e+20
8.908265819e+19
5.225464419e+19
5.261395256e+19
6.35738837e+19
1.387037605e+20
9.669987098e+19
7.574279594e+19
5.448725337e+19
1.207316795e+20
8.843914303e+19
8.908265883e+19
1.045092877e+20
1.052279051e+20
7.416953148e+19
9.602568036e+19
1.611664505e+20
1.190243936e+20
1.089745067e+20
1.207316778e+20
1.437136064e+20
1.336239882e+20
1.045092877e+20
9.470511396e+19
9.53608249e+19
9.60256797e+19
1.504220205e+20
1.298447921e+20
1.198719574e+20
8.780485781e+19
1.216038217e+20
4.454132941e+19
1.149602165e+20
1.052279051e+20
6.357388413e+19
1.066951997e+20
1.289331595e+20
1.082039934e+20
1.198719566e+20
5.487803575e+19
7.738425015e+19
7.794732648e+19
1.149602172e+20
5.261395256e+19
1.48339062e+20
7.468664028e+19
7.521101025e+19
7.574279541e+19
1.089745067e+20
7.682925005e+19
1.326587136e+20
1.113533243e+20
1.463130028e+20
7.365953358e+19
1.48339062e+20
1.280342396e+20
5.372215018e+19
3.246119826e+19
1.198719574e+20
1.317072858e+20
1.547685003e+20
6.681199412e+19
9.405835892e+19
1.473190662e+20
2.119129457e+19
5.33476002e+19
6.446658021e+19
1.947671882e+20
1.089745067e+20
1.207316795e+20
1.326587145e+20
5.567666177e+19
1.149602165e+20
1.473190662e+20
8.476517826e+19
7.468664028e+19
)
;

boundaryField
{
    flow
    {
        type            zeroGradient;
    }
    obstacle
    {
        type            calculated;
        value           nonuniform List<scalar> 10(230.1662886 1e-300 248.8397203 1e-300 69.08424156 143.844753 257.7081398 166.266186 128.3446244 305.1841852);
    }
    frontAndBack
    {
        type            empty;
    }
    procBoundary0to1
    {
        type            processor;
        value           nonuniform List<scalar> 
21
(
3.589424338e+20
2.804237766e+20
3.252915806e+20
2.467729232e+20
1.682542658e+20
1.233864618e+20
1.906881679e+20
1.682542658e+20
1.458203638e+20
7.851865739e+19
1.233864616e+20
8.973560877e+19
1.121695102e+20
1.570373143e+20
5.608475552e+19
1.121695102e+20
1.121695102e+20
8.973560883e+19
7.851865773e+19
1.682542654e+20
1.346034132e+20
)
;
    }
    procBoundary0to2
    {
        type            processor;
        value           nonuniform List<scalar> 
31
(
7.289798656e+19
7.289798656e+19
1.041399808e+20
1.041399808e+20
9.372598272e+19
1.35381975e+20
6.248398848e+19
9.372598272e+19
1.35381975e+20
1.562099712e+20
1.24967977e+20
6.248398848e+19
9.372598272e+19
6.248398848e+19
1.041399808e+20
1.562099712e+20
1.041399808e+20
1.145539789e+20
9.372598272e+19
6.248398848e+19
1.289331604e+20
6.492239607e+19
8.717960478e+19
9.878046435e+19
6.632935727e+19
1.224886559e+20
7.315650138e+19
1.157506956e+20
9.536082555e+19
1.289331604e+20
1.280342396e+20
)
;
    }
}


// ************************************************************************* //
