/*--------------------------------*- C++ -*----------------------------------*\
| =========                 |                                                 |
| \\      /  F ield         | OpenFOAM: The Open Source CFD Toolbox           |
|  \\    /   O peration     | Version:  2406                                  |
|   \\  /    A nd           | Website:  www.openfoam.com                      |
|    \\/     M anipulation  |                                                 |
\*---------------------------------------------------------------------------*/
FoamFile
{
    version     2.0;
    format      ascii;
    arch        "LSB;label=32;scalar=64";
    class       volScalarField;
    location    "0.007";
    object      translationalT;
}
// * * * * * * * * * * * * * * * * * * * * * * * * * * * * * * * * * * * * * //

dimensions      [1 2 -2 0 0 0 0];

internalField   nonuniform List<scalar> 
654
(
289.7295678
303.8261791
294.3225777
298.1808894
299.1411458
298.4256413
298.7796106
299.4247715
299.7728409
298.5829506
296.7358073
297.5892553
298.02057
302.2617416
311.3429513
326.6966903
359.4603308
451.0063218
695.1803954
1332.090188
289.3459649
303.897624
299.347251
299.606844
300.002821
301.2000025
300.693342
300.7265384
301.9921571
300.5026106
300.134567
301.5012854
309.5213228
316.0531164
319.5464243
339.1324977
385.3183561
487.5522997
739.7487011
1149.124267
291.3612828
309.7312192
301.0730188
301.5663307
299.2524475
299.480929
297.2481432
298.9447579
299.1449878
299.95261
298.7693616
296.9702455
300.1144598
309.5221695
318.3781302
336.2832379
386.9589034
481.9010818
662.0338554
913.4708302
287.1100176
303.7881871
297.1049305
297.4489945
295.4206483
296.3525812
295.4777572
297.1518602
297.8709086
297.9599023
299.8764966
299.7601941
304.5996479
306.9092684
322.9601862
342.4899401
374.4965983
457.3934411
574.7844928
756.7094318
289.5724016
304.9385112
297.4237755
296.6330673
300.201913
301.4944413
301.9686305
301.4332596
301.2032151
299.3635573
299.4150337
301.8438881
303.1453161
304.8867761
309.0009168
329.2617364
358.7776588
421.8751132
499.6011061
622.2572152
288.7137661
304.8507978
299.8359642
301.2570052
299.2433386
295.5605339
296.4659706
297.5696543
297.7774992
301.9579624
300.4360175
299.6257277
301.4859978
302.3327652
314.2802492
328.2340678
353.2160715
411.2643974
454.682581
550.4782257
289.8655128
304.5608185
297.2753613
299.1825291
301.1089273
303.0551641
300.934929
299.1620027
299.759008
301.1516643
302.0215115
303.3916432
303.5914837
306.0277283
311.493431
319.2614382
347.5624203
368.5970169
410.4676062
483.4203009
286.8765396
303.7264208
299.2352478
302.3213928
298.7988574
300.963659
302.1802582
303.3463846
302.5018976
302.4448271
300.3854034
301.9491972
302.6727345
305.5110354
315.9971042
320.9203929
326.2623474
354.8034254
374.4305452
413.6096281
293.2981752
309.5461013
299.5611358
300.1086047
300.6572446
300.4484742
300.8033082
302.194613
300.568741
300.2759989
302.8872788
302.4056029
304.0340903
309.3935747
309.7018873
315.718392
326.3728948
338.3370575
358.1056566
388.529785
291.4798472
304.7440324
299.0110127
297.7388942
298.65102
300.1065822
297.871289
296.6549076
299.2047398
301.5579303
302.5003571
303.6690035
307.7881567
307.3105505
308.2737866
314.4501078
318.2546736
322.4661117
341.8554808
371.5946859
290.1524894
304.3213265
299.5301613
300.3380365
299.8637967
298.7199345
299.4159967
302.9977664
303.6408563
303.183411
302.50883
300.8763763
302.1216036
303.480913
308.6648451
306.7885497
311.9339967
317.5665672
330.1882728
355.7110138
292.0773831
308.3248284
302.0262619
300.1327287
299.1943913
298.2035845
299.1415271
297.3863174
303.4001276
300.9096774
299.6558571
298.9994197
298.9154411
299.8017202
301.5073902
307.168262
313.7331008
319.0057609
321.3396211
339.0235058
291.5806528
308.3243233
299.5972223
301.5837841
301.6063835
301.6157963
302.5904458
304.1987037
302.3574546
301.2014368
301.9410811
300.7048694
303.2035964
303.9756365
304.2387366
305.5849189
306.8135414
310.9765435
319.3606995
325.8040063
290.311162
305.6598622
301.4317712
302.0194466
301.080169
302.832862
301.9053866
300.7606358
299.7919555
299.1436222
302.931963
302.3981208
300.3871934
298.2623739
300.4442583
299.627296
303.2375771
306.5530974
311.9701899
320.8957141
294.0528239
310.6564601
302.165237
299.2857096
301.5592307
298.7407942
298.1115696
296.0917089
298.9422941
299.7648328
297.9163333
299.0335492
298.3439746
298.290275
298.6243646
301.8459327
305.4925797
305.5571325
307.0936988
307.5656589
289.6323395
304.1806884
297.7799311
298.1657133
298.4181755
299.5186656
301.0865626
300.9119935
301.5554268
301.8591243
302.8299321
301.1570604
300.8705614
301.4245564
301.1881359
301.5086557
302.5876036
304.3085301
308.2209922
312.2302892
292.4798048
307.8936869
299.1995023
300.6037496
300.8846643
299.7312693
299.902185
299.7183225
301.0856106
300.4180345
300.4605513
301.2359034
301.4061838
302.6165269
302.4165723
304.722464
304.1388107
305.9033757
305.1312507
311.0100963
289.6384731
303.9573923
300.5141972
299.6393368
300.249432
301.4445033
300.9589652
298.7038876
297.0253766
296.6591295
296.3978197
294.8070508
296.9253888
298.7705959
300.7619447
299.6238354
297.5294779
299.4405465
300.1225421
304.8513877
287.9974732
304.3851362
297.1519099
298.0149301
299.5243662
299.6193153
301.3241362
301.3302099
302.1727809
303.3909136
300.1194024
301.3021329
299.4670119
297.349245
298.2011712
300.6382518
300.5093652
298.8375173
300.46143
298.668336
291.5864464
307.1656537
301.3748675
299.6958002
298.3757145
297.2162841
297.6580644
297.2043003
295.4736951
294.515564
294.6449347
295.3147184
299.4252377
299.5245923
299.8068023
298.9650569
297.8117545
300.2663752
301.9355515
303.8289747
290.5799151
305.4039019
296.4973753
298.2177219
299.8770964
300.2188302
299.3945454
298.2889265
299.6273576
301.610736
302.0623218
303.6896187
301.6808825
300.1053928
299.4420665
301.4561131
302.8418454
302.302051
301.6774742
302.2355201
290.8534116
306.3940211
297.8354808
298.9852792
298.1403317
298.7146091
298.8389027
300.4893263
302.0126995
300.8134397
299.213507
298.6749401
300.5755074
301.4943514
303.1815014
300.0901437
298.8717912
302.3940046
301.978163
302.2343155
1393.774317
1249.993184
1185.908498
1124.295126
1080.355742
1044.363371
1021.632683
984.4830834
977.1936951
948.4541063
1334.658246
1299.998242
1247.619854
1205.239272
1167.514379
1144.428853
1107.987783
1089.604175
1066.6199
1050.835304
1126.917995
1191.314266
1185.276567
1180.043033
1162.528721
1139.178179
1112.028605
1085.342926
1068.272291
1044.151496
930.5590027
1041.967973
1090.091902
1112.766161
1115.633043
1088.606726
1085.518574
1049.548618
1050.108631
1044.097516
763.0235157
880.4124971
948.6897909
1008.015692
1029.561017
1036.468676
1047.344044
1025.760089
1022.934514
1016.11219
654.4402388
760.0836078
832.4170274
891.2298285
928.4994739
959.5506209
985.7713765
995.9290004
1002.992701
990.1266392
543.818568
633.9231428
692.9229871
784.2552512
818.2990376
873.6988854
908.2878901
932.7945175
936.0268133
948.2907376
475.5917684
551.5414875
587.8725788
679.4411648
723.178463
777.955089
815.5029384
853.6165946
887.7726361
893.9198346
436.8571217
491.1914147
513.4732274
584.8011322
623.6024234
682.7434865
738.3112292
776.0384298
810.1819757
833.0936371
394.1743604
422.6091307
462.57503
514.9733956
534.3841412
599.5632371
641.2747571
681.8761827
729.6828208
758.9360221
367.3149365
397.0364291
428.6836246
462.901314
486.8710343
537.2552044
576.6437944
614.7261427
648.5118155
674.8403474
352.0776617
373.841876
392.137031
425.171538
441.4754109
478.8121642
510.1947961
537.140397
579.4295884
607.5996416
340.6114263
354.5981771
376.4888894
381.452164
398.8882704
437.9984367
454.7026615
479.0281212
507.3792619
543.6746899
334.7970287
340.5794176
354.1604839
363.5093059
377.2320258
389.5410029
415.8420976
438.1648957
470.1412231
492.1563861
325.3422125
325.1245587
334.8874607
339.734191
359.89085
370.3982028
385.9228435
410.2944014
431.5592723
446.9035674
310.5503249
317.9335575
325.9013202
334.4480336
345.6642405
357.6411275
364.5319485
383.0497172
400.6038126
414.0867883
313.3161497
317.5929507
320.7510533
319.5081846
324.5767681
341.3946097
351.3576479
359.6765999
366.3356282
387.2134185
309.3388079
310.7550716
311.4630447
315.4171356
319.6249997
326.8078257
333.2551224
340.9402209
351.7786846
362.4404509
302.1172293
310.47854
313.4378835
314.9059935
316.9404008
322.8688557
325.7239922
335.4233219
337.5451301
351.1090332
304.81982
307.2614701
308.7632959
307.891357
310.976157
315.1436065
317.8057201
325.9808266
335.8825429
338.0394967
301.6543418
302.4999415
304.6140171
303.3908702
306.6777294
309.4361081
311.923038
321.8318567
327.5708862
330.9101179
297.7961084
300.9942416
303.1309776
305.2823891
)
;

boundaryField
{
    flow
    {
        type            calculated;
        value           nonuniform List<scalar> 
42
(
289.7295678
289.3459649
291.3612828
287.1100176
289.5724016
288.7137661
289.8655128
286.8765396
293.2981752
291.4798472
290.1524894
292.0773831
291.5806528
290.311162
294.0528239
289.6323395
292.4798048
289.6384731
287.9974732
291.5864464
290.5799151
290.8534116
289.7295678
303.8261791
294.3225777
298.1808894
299.1411458
298.4256413
298.7796106
299.4247715
299.7728409
298.5829506
296.7358073
297.5892553
298.02057
302.2617416
311.3429513
326.6966903
359.4603308
451.0063218
695.1803954
1332.090188
)
;
    }
    obstacle
    {
        type            calculated;
        value           nonuniform List<scalar> 10(1203.434577 1078.494501 1000.576021 970.670484 889.373088 870.2417297 881.9595226 838.5850107 811.561452 821.9797777);
    }
    frontAndBack
    {
        type            empty;
    }
    procBoundary0to1
    {
        type            processor;
        value           nonuniform List<scalar> 
21
(
933.8349733
1024.610356
1029.443908
1024.463362
1005.292601
976.1456081
950.3132914
905.0414389
856.0147277
794.1199086
709.986308
651.2097194
577.2005784
517.0414166
471.3181945
434.2149651
404.5564385
382.4625818
362.8641137
352.4456856
337.429935
)
;
    }
    procBoundary0to2
    {
        type            processor;
        value           nonuniform List<scalar> 
31
(
284.9972825
302.978044
297.1024632
298.7665945
298.6931076
297.7011035
299.3930976
301.6528565
300.4879694
300.1782945
303.1679905
302.2610077
301.3836698
299.7609799
297.9586811
298.4070281
298.6276621
298.5980292
299.6579827
301.4785198
305.5316051
308.1170031
305.2657044
307.2160375
314.125172
320.9310451
302.1246709
305.3115464
302.8900682
305.5316051
303.2592653
)
;
    }
}


// ************************************************************************* //
