/*--------------------------------*- C++ -*----------------------------------*\
| =========                 |                                                 |
| \\      /  F ield         | OpenFOAM: The Open Source CFD Toolbox           |
|  \\    /   O peration     | Version:  2406                                  |
|   \\  /    A nd           | Website:  www.openfoam.com                      |
|    \\/     M anipulation  |                                                 |
\*---------------------------------------------------------------------------*/
FoamFile
{
    version     2.0;
    format      ascii;
    arch        "LSB;label=32;scalar=64";
    class       volVectorField;
    location    "0.007";
    object      UMean;
}
// * * * * * * * * * * * * * * * * * * * * * * * * * * * * * * * * * * * * * //

dimensions      [0 1 -1 0 0 0 0];

internalField   nonuniform List<vector> 
654
(
(1707.482512 -9.576754374 -2.238946582)
(1744.271937 -8.372561109 -3.257350257)
(1738.23199 -9.840164942 -2.679764936)
(1738.228637 -8.665846295 -1.635776958)
(1736.469255 -7.785149443 -2.263088219)
(1738.002052 -8.890299409 -1.189785327)
(1737.27572 -8.239151848 1.42206229)
(1735.587267 -9.228745402 -0.6569522299)
(1734.071495 -7.777717613 1.618194496)
(1732.170159 -7.890570198 1.144015204)
(1734.045766 -5.826254197 -0.1013242737)
(1732.083769 -4.582729669 -1.43587201)
(1731.70715 -4.24219039 -1.399298847)
(1731.8937 -5.257700013 -2.561021119)
(1727.546038 -3.505933299 -1.864555966)
(1723.5567 -6.810794074 -1.199032512)
(1710.290515 -8.992224235 2.186050363)
(1673.222368 -14.97116939 1.591000479)
(1570.064414 -20.56339556 -0.8490899072)
(1179.462573 12.14590067 0.7427624899)
(1709.614813 -1.705078377 -1.002461648)
(1745.719597 -1.773522605 -0.3532593571)
(1733.802052 -0.1988957046 1.275638097)
(1733.135082 -2.496014849 -1.308968645)
(1733.593016 -2.866637487 -1.77383258)
(1732.831412 -4.605518686 -3.105592017)
(1732.394917 -6.333215168 -5.559318557)
(1733.266044 -3.132250524 -3.246324698)
(1734.535355 -2.603577035 -2.014981763)
(1737.069714 -1.293514502 -0.3265601392)
(1738.281238 -3.052342467 0.2670290695)
(1738.033249 -2.71967856 0.8858647285)
(1735.120832 -1.97904637 1.258089888)
(1731.616809 -2.306405435 1.130615406)
(1731.017631 -1.80474278 -0.9829602956)
(1724.719191 -2.900862497 -0.7558314843)
(1706.630054 -0.7631953158 1.37362103)
(1662.9989 3.487063604 -0.4774265652)
(1550.609695 19.50658242 0.1584441704)
(1308.574992 70.98978801 1.42591411)
(1708.070456 -0.3734216818 4.795437983)
(1743.516641 -1.943771842 4.382513624)
(1735.138639 -4.426085436 1.190637659)
(1734.801361 -4.838422487 1.040819685)
(1735.530009 -5.190360694 2.094752616)
(1734.439958 -2.776288206 2.03183133)
(1735.431925 -1.007223873 2.698730523)
(1737.008048 -0.395578929 1.978939344)
(1734.246885 -1.559812183 -0.3879285817)
(1733.471102 -3.315778102 -0.9571407624)
(1731.588602 -3.66974478 -2.18994453)
(1731.212308 -5.227124837 -3.835710069)
(1732.055635 -5.051064245 -3.918265622)
(1727.437237 -3.347514683 -2.943740922)
(1724.47728 -3.27171406 -3.699053997)
(1719.298052 0.815951693 -1.017050534)
(1701.004417 2.408672398 -0.8387842037)
(1666.712458 10.08960743 -0.8672506993)
(1585.966397 27.86050648 2.486947581)
(1447.040761 65.21147007 2.144674911)
(1708.30633 -4.778103167 -1.234531896)
(1741.34247 -3.831335109 -1.884764723)
(1732.79373 -1.784776176 -0.24848402)
(1733.78471 -1.150095249 1.373870932)
(1736.852047 1.350423914 0.250796102)
(1738.314196 -0.6980524023 -0.6401428314)
(1738.863746 -2.701270892 -2.649745251)
(1737.239152 -4.45108265 -2.761785968)
(1737.411158 -3.943466887 -2.100682452)
(1737.704888 -0.3019474529 -1.482704674)
(1737.659126 1.15403123 -0.5419974281)
(1737.293024 3.232773213 -1.741313645)
(1735.917451 4.452111352 -2.810777118)
(1732.888722 3.34211873 0.4490941763)
(1726.142657 2.036196317 0.09493150034)
(1718.078711 0.1682431755 0.3204347184)
(1702.732057 3.51341547 -0.1518342519)
(1672.353977 10.82341511 1.417621794)
(1622.156373 24.21690658 -0.5666901309)
(1533.828432 56.06724978 0.4200249898)
(1708.168093 -2.46073267 0.2974790466)
(1746.300784 -2.305415973 1.852041593)
(1741.676854 -1.440127429 1.557737011)
(1740.041551 -0.6321043584 0.6831491815)
(1738.191094 -0.4419360676 1.187496729)
(1735.666236 -0.3922424363 0.8400356086)
(1734.571278 3.187552166 4.628602627)
(1736.394018 2.483224752 3.610378672)
(1737.748662 1.854097711 2.02160674)
(1738.663876 -0.03494665656 1.898634451)
(1739.839327 -2.176861434 4.085200742)
(1736.252426 -1.772553504 3.544392968)
(1736.206588 -1.854331006 1.796606614)
(1734.097444 -0.8928369695 0.5689966655)
(1732.663794 2.188595229 0.9437537424)
(1725.574299 4.168608872 -0.6733907297)
(1710.910422 6.686318428 -0.7513178025)
(1686.849022 11.02029218 -2.511986786)
(1650.272817 22.39149889 -3.400593307)
(1593.188565 46.16265384 -1.067706711)
(1710.608275 4.988639775 -1.575626906)
(1747.095153 3.366836266 -1.029790562)
(1737.107032 2.383632173 0.2965229937)
(1735.331351 1.916006508 -1.785816096)
(1736.695979 2.981383849 -0.2927019253)
(1736.187792 0.611385572 0.6068526931)
(1738.481196 0.3006235599 -1.58954678)
(1738.544628 -0.2019972044 -1.972437858)
(1736.99159 0.6073095275 -0.1902460653)
(1736.164897 1.671199996 0.0850847052)
(1736.154933 1.979834787 -1.237007327)
(1738.494928 0.2736874305 -0.8218788852)
(1739.041912 -1.14512766 -1.36289078)
(1738.107288 -3.56294727 -1.189357821)
(1734.21016 -1.739567316 0.04909096279)
(1727.477856 -1.070916589 0.05040770792)
(1717.130742 5.309900812 -2.496894864)
(1692.156974 14.16500519 -4.073603423)
(1671.951976 19.37101898 -3.748075656)
(1632.869256 38.214025 -1.918886927)
(1708.772761 0.6447495128 -4.003174396)
(1745.52907 1.695380797 -4.844488078)
(1737.377349 2.201587552 -4.577825782)
(1736.011976 1.903127068 -5.425223424)
(1735.749379 0.6604583153 -5.974225318)
(1735.604372 2.438098232 -5.762334531)
(1736.630104 -0.3178375923 -4.822131709)
(1734.072828 -1.825041869 -5.159565378)
(1733.336238 -0.8823843486 -4.792495777)
(1732.104027 -1.173152725 -3.308558355)
(1731.881166 -0.4489396498 -4.468783999)
(1728.454014 -0.7763889924 -3.046769507)
(1729.368342 2.017953286 -0.5700744525)
(1729.045238 4.046734438 -3.02474692)
(1726.350583 3.308733071 -2.136478089)
(1722.457237 3.88011218 -3.371643859)
(1712.113763 6.902505261 -3.625718563)
(1705.386896 7.417721625 -5.190669274)
(1690.089204 16.43922592 -2.250953882)
(1658.616547 28.8141932 -1.33641643)
(1712.140873 -3.042554704 -5.483376075)
(1747.517603 -1.345576256 -5.872253193)
(1735.222532 -1.798881792 -5.055118408)
(1735.162554 -0.6266816225 -3.686351745)
(1735.115946 0.2054599843 -1.957070286)
(1737.175712 -0.3662537376 -4.657212437)
(1735.225639 2.713277723 -4.643200085)
(1734.793501 2.373409838 -3.224108086)
(1733.573839 1.860415975 -3.672150372)
(1734.238144 0.07705902119 -5.378342795)
(1734.163982 -0.7078326407 -4.974733725)
(1736.346241 2.175533932 -5.352937978)
(1734.193299 3.223282515 -5.678974973)
(1734.05672 1.820065718 -3.93014062)
(1728.551558 3.599230802 -5.223222655)
(1728.171271 2.156051528 -3.726041777)
(1728.056127 0.5021995946 -2.140459903)
(1713.80809 7.00774471 -4.964916492)
(1705.031022 11.56020819 -3.905725944)
(1689.36447 19.20280018 -3.958484454)
(1707.866559 0.2311738117 -2.2314357)
(1744.722125 0.7269492698 -2.926171589)
(1737.480962 0.5617756304 -4.306561887)
(1737.864587 0.8667175091 -4.328772517)
(1736.174169 -0.9874834582 -3.695617479)
(1736.52841 0.2555088309 -2.965266768)
(1735.26107 -1.237891654 -1.876630668)
(1736.665937 1.061244915 -1.617651871)
(1737.610455 1.387467348 -1.885121313)
(1736.807593 3.385993591 0.5139778061)
(1735.340178 3.121601817 0.5247459851)
(1734.91088 2.813566417 -2.407929878)
(1733.103072 -1.745679204 -2.430173406)
(1733.200332 -0.8934074929 -1.847089378)
(1733.085699 -2.631525433 -1.521857679)
(1729.48098 1.079614424 -2.096348844)
(1724.058539 4.881051834 -1.109235622)
(1719.922998 7.621463839 -3.027266213)
(1710.730586 10.58064883 -3.777924748)
(1699.240279 18.19348047 -2.637569309)
(1711.171518 -0.5570557816 3.666105451)
(1748.799687 -3.057292527 2.72108695)
(1738.23709 -3.691838861 3.060166969)
(1738.568961 -3.204182982 2.511666104)
(1736.672768 -1.227043196 0.9403947728)
(1735.767639 -0.1777919341 0.668572247)
(1736.646264 -0.2293336265 0.8267870723)
(1734.761539 0.6842495755 -1.685681356)
(1735.48667 1.912559847 -2.610591803)
(1736.10523 2.897854728 -4.177404405)
(1733.992159 2.362272169 -1.976194008)
(1735.337697 1.903665684 -0.7053696519)
(1734.501328 0.6235953113 1.823235056)
(1733.019269 0.9480993391 -0.1773451988)
(1733.496166 1.420156098 -1.491187847)
(1733.454517 2.015489406 -1.256937874)
(1730.561142 3.176572658 -0.7202124524)
(1731.253381 7.509458295 0.5427903797)
(1720.983962 11.704134 1.193322373)
(1709.43975 16.19589046 -1.318613414)
(1703.224915 4.201097509 -3.513932593)
(1739.834289 4.987874257 -3.308251457)
(1732.448561 2.690973456 -3.987816199)
(1733.730238 1.6624448 -3.700185891)
(1734.865092 1.104822877 -2.417415044)
(1737.456136 -2.391702079 -1.815280236)
(1735.912628 -1.973460066 -0.06379084503)
(1737.988721 -2.938941358 -1.531944457)
(1737.375826 -2.593007366 -0.8769865207)
(1734.873609 -3.173507351 -1.186118326)
(1736.449082 -2.337746304 -2.316494677)
(1736.325799 -2.29229042 -2.297180348)
(1735.180224 1.360447507 -2.671337527)
(1735.024946 3.392443782 -3.706584013)
(1733.725517 5.63286279 -3.809127059)
(1732.429865 4.745340585 -1.346931161)
(1732.401446 3.91492245 -0.8036243259)
(1731.090036 0.01904333674 -1.094935899)
(1725.549588 3.018042029 -1.436998428)
(1718.12035 10.9815441 1.694625454)
(1707.725904 0.2017628506 2.488388593)
(1742.959702 -1.596382012 2.139522276)
(1731.835029 -0.145164903 3.156547972)
(1729.600877 -0.7086029418 2.093935605)
(1731.447514 -2.307324976 1.416796628)
(1730.009255 -1.276151966 0.2322411775)
(1728.740374 1.200839054 -0.3547636255)
(1729.380921 -0.9901650214 0.3629513919)
(1727.31934 -0.3876448728 1.119639046)
(1730.377371 -1.069101987 0.6202377538)
(1731.440852 1.143171291 -0.1406485968)
(1732.588693 2.993673442 -0.9453292426)
(1735.095497 2.022258454 -0.1809459268)
(1736.036613 0.9015515261 0.6589772033)
(1734.549084 -1.342849547 1.470167786)
(1732.520553 -0.7612396355 0.08135574288)
(1730.627085 0.0598092774 1.037708433)
(1725.326461 2.314562218 1.809863577)
(1724.32929 1.885170269 -0.7653836554)
(1718.846037 4.969791713 2.86058936)
(1702.079355 1.454142731 0.1257167437)
(1738.877908 0.8862248763 -2.305378503)
(1732.385251 0.1157497045 -1.030207241)
(1733.304591 1.180323116 -0.344763244)
(1732.909448 1.033908641 -1.202415411)
(1733.807674 1.642245018 -0.7747431434)
(1734.44563 -2.234210339 -0.5265435151)
(1735.385991 -0.9244692897 -2.490553413)
(1735.922167 1.150969157 -0.571399985)
(1736.664198 0.6853056828 0.3213778545)
(1736.055017 0.1392841644 1.204835658)
(1734.862071 -3.905673541 1.008545999)
(1734.226999 -5.996484665 0.612281309)
(1731.577157 -5.051250588 1.109747732)
(1732.76062 -2.569814537 2.059032107)
(1731.134995 -2.808911619 1.650631886)
(1732.898186 -2.288942191 0.6991606895)
(1733.193928 0.4911109379 1.756900481)
(1730.850505 2.675818733 2.605451934)
(1728.412598 7.957893586 0.1726612522)
(1704.476373 -0.1330010884 -0.9794977987)
(1743.681887 -0.6202487311 -1.159101489)
(1735.569466 1.558601187 -1.486811805)
(1734.509388 2.211244438 -2.463455576)
(1736.66453 0.6812769671 -0.4851894508)
(1736.279414 2.616927724 -0.5651296188)
(1738.057111 5.37824198 1.408183413)
(1740.045572 3.48281776 2.366754849)
(1739.35164 0.7669379733 1.689619578)
(1738.283683 -1.157228073 3.180134796)
(1737.25681 -2.422720302 -0.4681287319)
(1736.38858 -1.209083542 1.001422601)
(1737.076178 0.4223460626 2.171677168)
(1738.783329 -1.010380694 2.480730997)
(1738.731655 -1.499055317 1.840830871)
(1737.761754 -1.577507889 -0.1147586423)
(1736.089951 -0.589595336 -1.753719517)
(1732.19551 -0.2204635037 -0.1719770791)
(1730.066144 0.5100868117 -2.141596388)
(1726.885168 0.8473375856 -1.947821036)
(1713.660808 -0.9909219961 3.066731641)
(1750.412423 0.1137798923 3.329356453)
(1739.665442 0.1652513259 5.209636289)
(1740.779773 -1.593524675 5.164223745)
(1739.700756 0.3362024014 3.477841163)
(1738.281771 0.02914523594 0.5336409012)
(1736.591508 -0.2344761537 0.7906774709)
(1735.15472 -0.8242661781 -2.21156951)
(1734.911492 0.4254236502 -1.483439493)
(1734.211959 1.189676731 -0.9093366437)
(1735.465932 1.412005744 -0.3908221648)
(1736.267442 -1.993739137 -0.9036262518)
(1737.299273 0.2221957028 -1.83730069)
(1736.983941 1.339633305 -4.460068437)
(1735.202229 2.063499442 -3.753319222)
(1734.582638 3.568717933 -2.090225355)
(1732.522116 3.02835762 -1.322312151)
(1733.101265 2.770261664 -1.798194947)
(1733.549231 4.667165767 -0.6827218674)
(1733.313779 1.481205135 -1.254954587)
(1707.893486 -3.429125816 2.240232961)
(1744.698092 -5.195599399 1.497125267)
(1736.313544 -4.267500127 0.7846212328)
(1734.166531 -0.6814429603 1.918696759)
(1732.48597 -1.525155292 2.496031641)
(1733.736486 -2.09150061 3.737752172)
(1734.665347 0.2651378454 3.117790562)
(1736.268043 -0.7865853153 3.551788057)
(1736.173434 -2.740812282 2.309529027)
(1735.884738 -0.8114010283 2.090415978)
(1735.315938 0.3282370818 1.916137147)
(1737.219309 4.19945024 1.66710826)
(1737.836139 5.486309306 3.520337979)
(1737.905208 3.172362657 5.333506606)
(1737.442203 1.640763827 5.786068945)
(1739.843003 0.4631924911 3.609766164)
(1736.795278 0.8289167704 1.86667185)
(1737.573279 2.831054887 1.785471111)
(1733.590477 4.167807316 -0.7492697455)
(1732.6053 4.581670878 -1.424323727)
(1705.491767 3.402001644 0.4717832318)
(1744.73971 3.348360638 0.9904561094)
(1735.96799 -0.7273487948 -0.7677536195)
(1736.308354 -0.3633074299 -3.44188591)
(1735.788963 -0.8598873514 -2.767983446)
(1736.438006 -1.590438888 -3.286268579)
(1735.105275 -0.9867680012 -2.907899402)
(1735.999758 0.7392732595 -1.828294618)
(1733.138408 1.647826592 -1.746750869)
(1734.497141 1.620695656 -2.448421575)
(1733.732388 0.4830507902 -0.8694239795)
(1734.211733 1.132260531 -0.9249080369)
(1732.400159 -0.6663393622 -2.518652052)
(1733.300309 0.9283027049 -4.555845727)
(1733.427818 2.036599064 -4.102117066)
(1728.913342 0.3713748109 -2.410747397)
(1729.508854 1.903283658 -2.505325428)
(1731.082396 -0.298523948 -0.5490502351)
(1730.552088 3.131970554 0.3972192756)
(1728.712608 2.581920246 1.664040774)
(1711.718064 -0.4888088097 -0.2500291594)
(1746.707096 -2.044700973 -0.3488075531)
(1737.341891 2.054682281 1.39762612)
(1735.953807 3.232437647 1.658070303)
(1738.366297 4.305984813 3.026374872)
(1738.202064 2.062667811 1.236869327)
(1737.915311 -0.2213173065 2.039114523)
(1739.219384 -0.8884782204 1.616462842)
(1740.316194 -2.393093202 1.695310369)
(1737.991697 -2.628252574 0.4587850263)
(1735.632015 -0.8697855718 -0.4269236765)
(1736.616697 -1.14263864 0.9211227636)
(1731.68373 1.225713052 1.102556016)
(1733.423421 0.9902988997 2.419219768)
(1735.28263 1.919819331 3.416936317)
(1736.523175 5.027851502 3.579755227)
(1738.543237 4.145989938 4.453801112)
(1737.170707 2.275036068 1.7140085)
(1736.726223 2.528572989 3.21318189)
(1736.106418 2.404795847 1.899342692)
(1706.65505 4.078631977 -0.2136826414)
(1743.371809 2.655918792 -1.324943974)
(1735.395097 2.672013122 -2.451663363)
(1733.545374 -0.7056801664 -0.2556726094)
(1733.612576 -2.912697572 -3.904194319)
(1732.701864 1.412583171 -2.925939733)
(1732.704992 2.388958185 -2.002028545)
(1732.567641 2.617917262 -0.3047458362)
(1732.27715 4.352345596 -0.07706901427)
(1735.642086 3.574288255 0.6277331711)
(1733.315078 0.5736544132 0.9867827441)
(1733.554402 0.8596019347 0.0271222811)
(1735.60141 0.90332662 -0.1282021433)
(1736.000658 -0.9808619795 -0.6991607795)
(1734.314042 -0.404192235 -2.053306251)
(1733.397207 -1.499756233 -3.35965333)
(1733.330559 -0.9030008974 -2.539996369)
(1733.828441 0.2033653317 -0.4050886414)
(1734.097983 1.814192047 0.3617972852)
(1734.665056 2.307971799 1.427630293)
(1710.408198 -0.1550490854 -2.684400921)
(1745.36368 0.5352138426 -3.802082324)
(1735.418257 -1.222576073 -4.037298913)
(1735.216095 1.045850832 -3.607741451)
(1736.857754 3.065548404 -2.704290152)
(1735.055943 3.0352689 -1.725685708)
(1735.258396 -0.6206548761 -2.542582829)
(1735.376386 2.385045663 -1.889298028)
(1736.616034 -0.1570985417 -3.041855815)
(1735.437801 2.483580801 -4.871255739)
(1736.481333 2.55669176 -3.866575491)
(1737.680181 1.87955435 -3.40838375)
(1738.310682 3.405027317 -3.522968512)
(1738.526719 4.669415414 -3.320012775)
(1736.76754 1.593044488 -2.419415346)
(1740.348578 1.673578479 -2.552761066)
(1738.00238 1.738696896 -1.288285981)
(1740.515592 -0.9456725075 -2.250974241)
(1736.543343 0.5900927641 -2.85752229)
(1734.202393 -1.732800029 -4.399779958)
(1709.615561 -5.364605239 -0.6095241123)
(1746.94115 -2.44510928 -0.3365523533)
(1738.095528 2.391089859 -0.5033646072)
(1738.903839 0.4541933842 -0.5219441379)
(1737.839386 1.020247816 -2.184072864)
(1737.447811 1.263956607 -1.171921225)
(1740.092314 3.561838742 -0.8632769793)
(1738.849947 2.47229173 -4.088554577)
(1739.770413 2.100685049 -1.61761024)
(1741.033039 0.5204248407 -1.975196861)
(1741.562998 0.5577854607 -2.078871831)
(1740.111036 1.714102817 -3.963233618)
(1738.579826 -1.016407521 -2.280706906)
(1738.30602 0.527613236 -0.9412458234)
(1737.523956 2.746762848 0.9238702016)
(1736.189648 2.066033855 1.308655431)
(1735.598599 0.6968615954 0.7480077602)
(1733.649955 -0.2508371581 0.3347334534)
(1734.649019 -0.2913685827 0.4037650823)
(1734.091622 0.4090608329 -1.272977839)
(1706.855065 3.194231859 2.032320677)
(1746.768499 2.022300875 0.525910639)
(1738.557055 -3.323424638 -1.407140241)
(1740.316986 -0.9826190989 -1.232476188)
(1738.552076 -0.1084611474 -1.446612542)
(1738.517182 2.64349623 -1.737033743)
(1736.219891 1.596626383 -2.74847043)
(1737.881486 2.025752773 0.5293035219)
(1734.794544 2.34473771 1.26081484)
(1732.982021 2.943482221 -0.3655488496)
(1732.377783 3.175403098 3.599611778)
(1731.311539 -0.8967030226 1.64142301)
(1731.562986 -1.214348241 0.6972581051)
(1731.779883 -2.279443195 -1.067804554)
(1732.8399 -3.743968392 -4.146904397)
(1736.278778 -2.071408377 -3.275351792)
(1734.491243 0.3440153253 -3.19190988)
(1734.829499 3.76715813 -4.104265525)
(1736.543554 3.712187007 -3.890356702)
(1736.758122 5.970449322 -3.379719859)
(671.5440175 150.6118757 -2.944902882)
(602.9981509 171.2003628 1.362080065)
(574.7134219 165.614536 0.6964502474)
(533.9609994 152.0035003 3.175964512)
(500.3431337 147.6191859 4.172218277)
(473.0932182 136.4216354 1.970960427)
(444.0132067 127.7266588 0.005989204687)
(416.3007188 122.0894671 -4.287051108)
(406.9315948 115.4594646 -3.773480729)
(388.7420369 113.5408486 0.07691400717)
(1063.299104 160.9731373 -7.049798251)
(947.9742438 221.1417684 -5.716410778)
(899.4524093 243.5578104 2.932328575)
(859.8223462 250.7770538 -3.034972082)
(822.2866459 245.9208689 -7.905042816)
(780.0868153 243.8419088 -7.048455571)
(749.6654266 230.868599 -4.472247884)
(713.7410452 224.2852636 -5.951362151)
(684.3696518 212.4599667 -0.05956252134)
(665.3858997 201.0400403 1.295386885)
(1287.380952 137.7473837 2.806418002)
(1175.379628 199.4621419 -7.098685863)
(1108.759018 245.1098628 -1.136319897)
(1055.192608 271.0266791 -7.55928062)
(1011.14165 283.5795242 -4.62417936)
(978.7079934 296.6279281 -2.032425139)
(947.721938 295.6654518 -5.146341401)
(920.5337435 290.7468898 -1.128784651)
(892.6315456 283.1382682 -3.652003974)
(858.0048896 279.4399821 -3.32200475)
(1431.471863 105.2050954 2.654823101)
(1329.053084 162.3326279 3.514967834)
(1252.962332 207.6972554 5.199740779)
(1193.389197 251.6375111 -2.469123351)
(1144.57171 280.8942408 2.351862819)
(1114.809461 296.6430182 -2.616345299)
(1082.309174 312.0022117 1.196456599)
(1069.729501 322.5117458 -3.985241905)
(1043.978289 327.9120802 -0.3213145223)
(1013.846595 325.3848489 -2.189659562)
(1517.542969 82.14927195 -3.243528569)
(1442.772527 125.9061557 1.865580061)
(1385.906099 170.480382 2.714096658)
(1321.851556 208.1444719 0.1596232924)
(1279.172028 245.2740743 3.593783784)
(1238.865862 281.6939143 4.492003579)
(1196.37202 308.572265 1.042281688)
(1179.280304 324.006903 0.494743325)
(1143.607694 339.2344914 -1.004251484)
(1113.914777 343.2437319 2.284160374)
(1582.404211 61.28804752 -0.5052394165)
(1525.132554 94.59212512 1.584919905)
(1479.682651 132.3620638 7.844780837)
(1430.688632 174.067444 3.739757434)
(1385.453151 212.1843729 0.8799298126)
(1339.792148 242.7625415 -2.446104122)
(1291.981686 280.4354214 -2.871874766)
(1260.677931 300.9097344 1.578304646)
(1234.734114 323.9661867 1.425005053)
(1212.821245 338.1394113 -1.0083829)
(1631.661584 46.38592422 -2.034203962)
(1590.721083 72.1488268 -1.286840855)
(1553.078024 99.26132323 -5.790551493)
(1500.257406 138.2076971 -1.421009867)
(1468.63579 168.4830721 -0.1454993461)
(1427.742876 204.9681774 -7.11553918)
(1390.389865 236.7048554 -5.977346724)
(1352.356121 271.1265479 -4.100274078)
(1323.813828 295.681587 -5.81414545)
(1293.4213 316.2930093 -2.847185745)
(1662.131517 36.65354773 -3.079425381)
(1624.352782 56.24853863 -5.451303268)
(1607.929509 74.89126157 0.1317735199)
(1559.824971 103.3042777 -1.661620228)
(1537.316429 129.9857463 2.192728544)
(1499.493835 164.2053071 2.711757602)
(1465.459938 192.0042385 -0.0524433415)
(1429.755555 223.388523 -1.197315668)
(1390.78241 256.0103935 -2.38997947)
(1361.193582 283.4174447 1.38057897)
(1677.874335 29.9586888 -4.928254701)
(1657.165015 41.05787515 0.02541521343)
(1643.492693 55.33930465 0.1733382718)
(1609.567587 75.0094908 -2.144725397)
(1590.873966 98.67749106 2.080200194)
(1559.307376 123.0626839 5.871804468)
(1528.28547 155.5226549 0.2068765212)
(1498.700439 185.0117152 -2.952197208)
(1470.553528 213.1929419 -3.919631636)
(1436.723153 244.4358089 -4.56377383)
(1700.248159 20.42655922 0.7329819658)
(1686.938266 31.35590646 -1.129888521)
(1672.34964 41.55893042 0.1622379492)
(1649.55642 57.04916449 -0.1297797242)
(1636.149286 72.96941028 -1.515521915)
(1604.079246 98.00464183 1.285500035)
(1582.682542 122.3406404 -3.295176052)
(1559.1228 143.9339574 2.506993688)
(1531.415993 176.2569063 1.782814598)
(1506.020776 201.368235 -1.509865985)
(1711.225139 13.86626897 -0.5430677225)
(1698.42597 24.00922736 0.8341585354)
(1687.020449 31.49234609 -2.869795053)
(1671.004508 45.89331016 0.4810739574)
(1660.901965 56.87921054 0.2596767295)
(1638.076023 74.49799426 -1.597029867)
(1617.510376 96.97110045 3.954774725)
(1589.627597 116.3868561 4.485006529)
(1570.725837 143.6408221 6.791665558)
(1551.485779 167.2764666 3.705052807)
(1717.297802 7.930388801 3.909533692)
(1708.670116 11.96415593 3.81521572)
(1702.383814 18.94423527 2.852588879)
(1687.298788 32.48818053 4.091016572)
(1679.50355 40.31961706 3.402764847)
(1663.953504 54.71815926 3.920235355)
(1648.275744 70.82044137 3.200583213)
(1628.539555 88.89529442 -1.174918745)
(1607.440898 106.9982531 0.3084675349)
(1595.917763 129.0839186 -0.2135293516)
(1719.49113 12.37204139 1.620468757)
(1711.868864 17.48932999 2.496643403)
(1702.776832 22.49029905 2.688333998)
(1700.752598 24.63943944 -0.1992913126)
(1692.125976 30.97452164 -0.8836402541)
(1678.141576 44.52931643 -2.203815482)
(1670.174273 50.01536466 -1.900761257)
(1664.705899 65.23631966 -3.618979534)
(1651.347356 80.23098362 -4.150248706)
(1629.472338 97.65501261 -1.310406339)
(1720.791701 4.351571634 -1.463511032)
(1718.183769 5.686878814 -1.026583267)
(1713.890712 14.0312015 -2.4403036)
(1711.19314 19.20812819 -1.390698176)
(1704.847633 23.2555128 -3.783091956)
(1700.183698 29.01319855 -3.429366096)
(1688.446019 36.40721426 -1.647057315)
(1682.61386 48.14739431 -0.8991653954)
(1667.536185 59.40291484 -3.501456589)
(1657.33656 71.30610799 -1.281140114)
(1727.550998 6.528254736 -1.756881894)
(1724.581278 7.587548629 -2.59631844)
(1725.313097 9.913965794 -0.133195412)
(1720.63139 10.86021317 -0.06580724633)
(1715.387451 17.87680904 1.06814367)
(1714.210331 22.05249994 1.324411218)
(1705.933611 30.62226303 2.058044026)
(1696.809526 36.85096686 -0.1195560764)
(1688.459565 49.9840524 0.7158330579)
(1679.077722 59.55931779 2.27539113)
(1734.042462 3.737717053 -1.850524217)
(1732.598644 5.587088797 -0.9252280003)
(1729.114975 8.382602473 -2.897924647)
(1727.592387 10.30199117 1.20128669)
(1721.538276 13.22586707 -0.4659326442)
(1715.222306 19.43184758 0.07253599662)
(1711.737324 22.8316917 -1.26643383)
(1701.52504 28.97289855 0.205372552)
(1691.436053 33.71173925 1.491545085)
(1685.780709 40.61624802 0.702472105)
(1727.343072 3.913511335 3.424934349)
(1726.828295 -0.1075486851 3.892225757)
(1726.484635 0.7725361544 1.559413192)
(1725.792668 3.536118738 2.700959035)
(1723.748712 6.495387416 1.504839766)
(1717.750874 13.33238968 3.885053209)
(1712.483526 12.37966705 5.747231745)
(1710.420101 21.07610689 5.891612362)
(1710.990019 29.43305548 5.564191378)
(1704.827153 37.63128678 2.508477708)
(1732.694032 3.95417908 1.536168381)
(1730.608579 8.359170236 0.5831657195)
(1729.453171 6.502119351 2.168291698)
(1727.819291 5.797062765 1.250914274)
(1724.583449 5.060087448 1.001739758)
(1722.277094 5.737536104 -3.321675707)
(1720.781964 13.96632084 -4.762269011)
(1720.971469 16.34956135 -3.571280038)
(1714.566187 17.43744116 -4.616191327)
(1709.479121 24.05807442 -2.800062719)
(1733.959808 3.779556322 1.133953227)
(1731.59432 2.268950596 -2.32715137)
(1729.650276 4.356689019 -3.071479407)
(1729.225332 4.576862658 -4.789524429)
(1733.190811 7.155290883 -5.769335112)
(1731.242019 11.43266033 -1.248154253)
(1728.234764 10.91681125 -5.044228175)
(1724.593796 13.80364942 -5.137770776)
(1720.096437 19.59323616 -3.08397095)
(1715.524147 21.33220698 -3.172285118)
(1735.493936 -2.247665309 -4.109428775)
(1734.376703 -1.833772178 -3.6576219)
(1734.421088 0.3128962175 -0.9355014773)
(1734.466197 5.321090093 0.01217666328)
(1732.156215 7.448030914 -0.9614934455)
(1730.77418 7.684380845 -1.449052059)
(1729.220688 11.26825406 -0.7068269069)
(1726.153813 15.19605135 -1.605469707)
(1725.010723 16.60011219 -2.305143622)
(1723.606743 15.59914213 -2.671790482)
(1734.817631 0.4678179065 -0.4184570211)
(1735.11649 5.073209855 0.002048617973)
(1736.427126 5.122539265 -1.713715483)
(1736.818404 4.690606579 -1.510262102)
(1736.642579 4.905877485 0.2171601639)
(1734.026246 5.935278311 0.3973302572)
(1733.018414 5.321852065 1.627856423)
(1727.502846 6.657434836 -1.527953842)
(1724.747102 9.977998728 1.085151801)
(1722.860919 11.81564942 4.663902694)
(1736.721684 3.692523977 -3.576730582)
(1736.595518 6.088871781 -3.322629939)
(1732.272346 5.459514687 -4.434618466)
(1733.32332 6.376321433 -3.974442248)
)
;

boundaryField
{
    flow
    {
        type            calculated;
        value           nonuniform List<vector> 
42
(
(1707.482512 -9.576754374 -2.238946582)
(1709.614813 -1.705078377 -1.002461648)
(1708.070456 -0.3734216818 4.795437983)
(1708.30633 -4.778103167 -1.234531896)
(1708.168093 -2.46073267 0.2974790466)
(1710.608275 4.988639775 -1.575626906)
(1708.772761 0.6447495128 -4.003174396)
(1712.140873 -3.042554704 -5.483376075)
(1707.866559 0.2311738117 -2.2314357)
(1711.171518 -0.5570557816 3.666105451)
(1703.224915 4.201097509 -3.513932593)
(1707.725904 0.2017628506 2.488388593)
(1702.079355 1.454142731 0.1257167437)
(1704.476373 -0.1330010884 -0.9794977987)
(1713.660808 -0.9909219961 3.066731641)
(1707.893486 -3.429125816 2.240232961)
(1705.491767 3.402001644 0.4717832318)
(1711.718064 -0.4888088097 -0.2500291594)
(1706.65505 4.078631977 -0.2136826414)
(1710.408198 -0.1550490854 -2.684400921)
(1709.615561 -5.364605239 -0.6095241123)
(1706.855065 3.194231859 2.032320677)
(1707.482512 -9.576754374 -2.238946582)
(1744.271937 -8.372561109 -3.257350257)
(1738.23199 -9.840164942 -2.679764936)
(1738.228637 -8.665846295 -1.635776958)
(1736.469255 -7.785149443 -2.263088219)
(1738.002052 -8.890299409 -1.189785327)
(1737.27572 -8.239151848 1.42206229)
(1735.587267 -9.228745402 -0.6569522299)
(1734.071495 -7.777717613 1.618194496)
(1732.170159 -7.890570198 1.144015204)
(1734.045766 -5.826254197 -0.1013242737)
(1732.083769 -4.582729669 -1.43587201)
(1731.70715 -4.24219039 -1.399298847)
(1731.8937 -5.257700013 -2.561021119)
(1727.546038 -3.505933299 -1.864555966)
(1723.5567 -6.810794074 -1.199032512)
(1710.290515 -8.992224235 2.186050363)
(1673.222368 -14.97116939 1.591000479)
(1570.064414 -20.56339556 -0.8490899072)
(1179.462573 12.14590067 0.7427624899)
)
;
    }
    obstacle
    {
        type            calculated;
        value           nonuniform List<vector> 10((427.3994569 114.5213393 -1.255442003) (340.7065684 91.29204989 0.8337125442) (318.7268991 85.40261521 2.094214152) (282.6726857 75.74191785 4.329026423) (266.8877867 71.51236688 2.985489558) (248.4871321 66.5819265 20.41098509) (213.3032648 57.15443737 13.79581457) (222.6937349 59.67060653 -7.129940163) (216.9624326 58.13490871 -21.26115129) (206.4897477 55.32876098 0.885339653));
    }
    frontAndBack
    {
        type            empty;
    }
    procBoundary0to1
    {
        type            processor;
        value           nonuniform List<vector> 
21
(
(376.9617131 104.6229073 3.110582199)
(640.4151343 199.6241092 -6.272540846)
(838.2699547 268.2173128 -7.724607384)
(989.8821413 315.6980996 0.1579575375)
(1103.569808 346.1254458 3.187734513)
(1184.599393 350.3619906 -1.373179854)
(1270.386139 337.1415667 -3.930084556)
(1335.027279 308.4121183 -2.160115305)
(1412.153724 275.158487 -0.2193221323)
(1471.784613 232.7968426 1.281753141)
(1526.678079 193.2436377 -0.9894385663)
(1569.083529 152.7084133 2.037475545)
(1616.705059 115.09878 -2.410227455)
(1642.561269 91.78792585 -1.626611795)
(1666.748893 67.28366027 -1.857158801)
(1678.112707 53.4920874 4.111037531)
(1696.651776 44.81622616 2.159936772)
(1702.953097 33.79788335 -2.266992782)
(1707.331 25.43535469 -1.155119326)
(1718.987157 17.40817267 -4.309203888)
(1721.538227 13.53747231 4.793430709)
)
;
    }
    procBoundary0to2
    {
        type            processor;
        value           nonuniform List<vector> 
31
(
(1709.740561 0.7431141532 -0.4330933161)
(1741.90819 1.56261036 -0.003188298816)
(1732.761599 2.851931023 1.241427767)