/*--------------------------------*- C++ -*----------------------------------*\
| =========                 |                                                 |
| \\      /  F ield         | OpenFOAM: The Open Source CFD Toolbox           |
|  \\    /   O peration     | Version:  2406                                  |
|   \\  /    A nd           | Website:  www.openfoam.com                      |
|    \\/     M anipulation  |                                                 |
\*---------------------------------------------------------------------------*/
FoamFile
{
    version     2.0;
    format      ascii;
    arch        "LSB;label=32;scalar=64";
    class       Cloud<dsmcParcel>;
    location    "0.008/lagrangian/dsmc";
    object      coordinates;
}
// * * * * * * * * * * * * * * * * * * * * * * * * * * * * * * * * * * * * * //

6228
(
(0.3265326218 0.0170049345 0.3197287546 0.3367336891) 110 214 1
(0.6850049544 0.06045699463 0.1574975228 0.09704052818) 143 279 2
(0.4991828195 0.08023425892 0.1701743313 0.2504085903) 83 1258 1
(0.1704202881 0.1102462745 0.414789856 0.3045435814) 288 565 2
(0.1642634915 0.4178682542 0.3892487128 0.02861954143) 411 806 2
(0.1997394 0.4001303 0.2260934836 0.1740368164) 197 383 2
(0.4022390545 0.2988804727 0.009465250261 0.2894152225) 525 1030 2
(0.4069621696 0.2965189152 0.166880206 0.1296387093) 353 690 2
(0.8060612847 0.04557053267 0.09696935764 0.05139882497) 82 157 1
(0.4968923452 0.04667421029 0.2048796171 0.2515538274) 410 804 1
(0.4051481475 0.07486054242 0.2225653838 0.2974259262) 173 279 2
(0.3779124496 0.3110437752 0.116002861 0.1950409142) 202 395 2
(0.1896368268 0.4051815866 0.2877365212 0.1174450654) 382 691 1
(0.05055025991 0.2243030287 0.47472487 0.2504218414) 112 216 1
(0.1480076477 0.3144238899 0.4259961762 0.1115722862) 112 219 2
(0.3373222183 0.02290396016 0.3313388909 0.3084349307) 173 336 1
(0.05276755583 0.4555408465 0.4736162221 0.01807537562) 137 265 1
(0.1969206376 0.4015396812 0.3707258867 0.03081379455) 291 512 1
(0.3671137751 0.3134834026 0.002959709836 0.3164431125) 323 574 2
(0.1363690387 0.3791532086 0.4318154806 0.052662272) 52 101 2
(0.4698202199 0.1295853899 0.1355045002 0.2650898901) 263 456 2
(0.5318967225 0.05927913796 0.1747725008 0.2340516387) 233 397 2
(0.482072672 0.258963664 0.1456752554 0.1132884086) 531 1043 1
(0.415300191 0.2923499045 0.2641627592 0.02818714527) 229 449 1
(0.7178339581 0.02085214462 0.1410830209 0.1202308763) 383 751 2
(0.09493587126 0.4525320644 0.1737400953 0.278791969) 197 385 2
(0.2126519809 0.3936740095 0.04716383144 0.3465101781) 291 571 1
(0.6430603735 0.1784698132 0.08785933452 0.09061047873) 111 158 1
(0.297478773 0.3512606135 0.3503132573 0.0009473562008) 143 277 2
(0.1643053761 0.417847312 0.3397423499 0.07810496202) 263 456 1
(0.2239806836 0.2440376544 0.1439720038 0.3880096582) 258 505 1
(0.01970150559 0.4901492472 0.02540795582 0.4647412914) 284 554 2
(0.2133183494 0.3933408253 0.3478262737 0.04551455162) 292 572 2
(0.462093943 0.03914985435 0.2689530285 0.2298031742) 29 53 1
(0.8807927774 0.0596036113 0.02999796886 0.02960564244) 292 572 2
(0.7137528881 0.01310580667 0.1300177493 0.143123556) 262 455 2
(0.7834153289 0.1082923355 0.004648995236 0.1036433403) 109 212 2
(0.3619077664 0.2261625958 0.3190461168 0.09288352099) 82 157 1
(0.6826476047 0.03577812687 0.1586761977 0.1228980708) 232 455 2
(0.3396386759 0.01554734929 0.3301806621 0.3146333128) 352 691 2
(0.2298511588 0.09302280141 0.2920516192 0.3850744206) 442 809 2
(0.002954530533 0.4985227347 0.02982718887 0.4686955459) 232 454 2
(0.5056666369 0.2471666815 0.1302570889 0.1169095926) 83 161 1
(0.5064187103 0.2343880665 0.01240257834 0.2467906448) 260 451 2
(0.05314032014 0.1048626462 0.4734298399 0.3685671938) 618 1214 2
(0.03116905357 0.2579142642 0.4844154732 0.226501209) 231 453 2
(0.6427264246 0.02144030677 0.1571964809 0.1786367877) 653 1223 2
(0.01238984904 0.1303421935 0.4938050755 0.363462882) 351 686 1
(0.3482135488 0.3258932256 0.1190871019 0.2068061237) 293 572 2
(0.3373679916 0.3313160042 0.1631198848 0.1681961194) 172 334 2
(0.00709917493 0.4964504125 0.1252085976 0.371241815) 441 865 2
(0.7028984457 0.1171184677 0.1485507771 0.03143230945) 261 509 1
(0.3881309312 0.1996722833 0.1062622511 0.3059345344) 200 333 2
(0.5259247478 0.2370376261 0.1878085122 0.04922911393) 591 1102 1
(0.2960173675 0.3497257172 0.002265599015 0.3519913162) 229 448 1
(0.8473097612 0.05413881902 0.02220630038 0.0763451194) 533 987 2
(0.7295412052 0.1352293974 0.0737194319 0.06150996552) 410 802 2
(0.09795676939 0.4510216153 0.1598417237 0.2911798916) 170 333 1
(0.1854024648 0.4072987676 0.3654699841 0.04182878346) 380 745 2
(0.03184615085 0.07074897991 0.4840769246 0.4133279447) 622 1222 2
(0.3958983424 0.3020508288 0.05649851453 0.2455523143) 442 809 1
(0.7430589482 0.1158608165 0.01260970943 0.1284705259) 500 923 2
(0.7338385082 0.1330807459 0.1326105497 0.0004701962531) 225 382 1
(0.4507534585 0.2746232708 0.01502150274 0.259601768) 501 983 2
(0.02329641275 0.1577977842 0.3305540094 0.4883517936) 593 1275 1
(0.009357604499 0.09071768224 0.4046035155 0.4953211978) 201 393 1
(0.08703417778 0.3053078217 0.1511750894 0.4564829111) 353 1267 1
(0.4075813911 0.2962093044 0.2448067519 0.05140255251) 263 1264 2
(0.2589847952 0.3705076024 0.1995494917 0.1709581108) 412 809 1
(0.3356833418 0.09840329207 0.3321583291 0.233755037) 344 675 2
(0.5915339898 0.2042330051 0.07002891727 0.1342040878) 381 747 2
(0.8525898805 0.06780865566 0.005896404111 0.07370505977) 260 451 2
(0.1396454342 0.209655289 0.2205219939 0.4301772829) 472 868 2
(0.0432011093 0.4783994453 0.4488737632 0.02952568211) 24 45 2
(0.008650587931 0.290888628 0.495674706 0.204786078) 472 927 2
(0.461657189 0.2691714055 0.2329142307 0.03625717477) 83 104 1
(0.173184742 0.413407629 0.4097368002 0.003670828792) 502 983 2
(0.05093452495 0.244567421 0.2299653165 0.4745327375) 290 568 1
(0.008509887321 0.4957450563 0.3345075883 0.161237468) 320 627 2
(0.4220456111 0.107805629 0.1811715655 0.2889771944) 172 278 2
(0.01135567775 0.4722697854 0.4943221611 0.02205237569) 233 456 2
(0.2304655573 0.3847672213 0.006932291636 0.3778349297) 320 628 1
(0.005388343418 0.4973058283 0.3179781533 0.179327675) 472 924 2
(0.2139021177 0.3930489411 0.2224263355 0.1706226056) 499 977 2
(0.02859278749 0.4857036063 0.3035538565 0.1821497497) 32 59 2
(0.1667114432 0.4166442784 0.03703828432 0.3796059941) 111 158 1
(0.4755115244 0.2622442378 0.2281704489 0.03407378885) 351 686 2
(0.5968134908 0.1360700311 0.2015932546 0.06552322352) 382 750 2
(0.2070116813 0.1421248958 0.2543692636 0.3964941594) 263 456 2
(0.1909203088 0.4045398456 0.1155068905 0.2890329551) 50 97 1
(0.1656863847 0.4171568077 0.3151426221 0.1020141855) 317 621 2
(0.3072214132 0.3017023025 0.04468699087 0.3463892934) 413 751 2
(0.2845948433 0.3577025783 0.1425858116 0.2151167667) 321 629 2
(0.05285637281 0.08409829531 0.3894735183 0.4735718136) 112 160 2
(0.2415080153 0.2941275628 0.3792459924 0.08511842952) 113 218 1
(0.4384491555 0.2651387974 0.01563662488 0.2807754222) 381 689 2
(0.2026359682 0.3638112434 0.3986820159 0.03487077243) 381 745 1
(0.1907798523 0.4046100739 0.1406144019 0.263995672) 322 629 2
(0.8100654596 0.09496727019 0.02321907976 0.07174819043) 352 691 1
(0.5792776179 0.2029247714 0.210361191 0.007436419661) 82 157 1
(0.5510091139 0.129005389 0.09549005402 0.224495443) 499 921 2
(0.6432455572 0.1783772214 0.1543880161 0.02398920528) 232 396 1
(0.8402919992 0.06327851249 0.01657548791 0.07985400041) 142 219 2
(0.3132335615 0.3433832193 0.2017899566 0.1415932626) 350 628 1
(0.7137855054 0.1431072473 0.05031177149 0.09279547584) 168 326 2
(0.5613027826 0.08365891624 0.2193486087 0.1356896925) 320 628 2
(0.4239661282 0.2558083508 0.03220858508 0.2880169359) 262 455 2
(0.2855549554 0.06192827308 0.3572225223 0.2952942492) 52 98 1
(0.4559408061 0.2720295969 0.09859444911 0.1734351478) 503 1272 2
(0.443900455 0.03250681574 0.2780497725 0.2455429567) 201 394 2
(0.3069733345 0.3465133328 0.2859883471 0.06052498568) 381 689 1
(0.7285803382 0.03845106476 0.09725876613 0.1357098309) 652 1222 2
(0.0348128249 0.4825935875 0.4452454708 0.03734811676) 261 512 1
(0.03905553328 0.4804722334 0.01415355686 0.4663186765) 29 55 2
(0.4465182432 0.1293514958 0.1473893826 0.2767408784) 623 1164 2
(0.04550577463 0.4772471127 0.3124384861 0.1648086266) 501 983 2
(0.01980610014 0.4900969499 0.2131961965 0.2769007534) 169 328 2
(0.2826365014 0.3586817493 0.251505498 0.1071762513) 381 747 2
(0.7683073039 0.04750254139 0.115846348 0.06834380665) 650 1304 2
(0.2470861542 0.3764569229 0.1454856001 0.2309713228) 501 983 2
(0.2341565112 0.3829217444 0.277956 0.1049657444) 263 456 1
(0.8495973982 0.0752013009 0.03217105324 0.04303024766) 200 333 1
(0.4122940127 0.09461144397 0.2938529937 0.1992415497) 143 279 2
(0.2565180965 0.295858442 0.07588250977 0.3717409518) 323 1266 1
(0.5518246909 0.1102373992 0.1138502554 0.2240876546) 408 800 1
(0.09191975291 0.08363971726 0.3704004063 0.4540401235) 413 751 2
(0.2351574748 0.3824212626 0.3064691323 0.07595213031) 321 629 2
(0.3941866291 0.3029066855 0.2834691231 0.01943756233) 259 507 2
(0.1426667632 0.2639008487 0.1647657697 0.4286666184) 14 26 1
(0.01199925168 0.4940003742 0.2776870317 0.2163133425) 468 919 1
(0.03108409901 0.2609627243 0.2234952262 0.4844579505) 254 439 2
(0.08068811323 0.4596559434 0.05645969844 0.4031962449) 113 1259 2
(0.1829560559 0.2976167056 0.1109052665 0.4085219721) 172 336 1
(0.0322796055 0.4838601972 0.4140296017 0.06983059551) 349 685 1
(0.01830443481 0.4908477826 0.3467578744 0.1440899082) 348 683 1
(0.1421080834 0.06696421569 0.4289459583 0.3619817426) 293 574 2
(0.3462700301 0.1370104093 0.1898545756 0.326864985) 262 455 2
(0.1079551594 0.4460224203 0.2525360502 0.1934863701) 411 804 2
(0.2741963908 0.2980934785 0.06480832614 0.3629018046) 202 395 1
(0.2005326648 0.3997336676 0.3089491447 0.09078452287) 352 632 1
(0.02081686747 0.2522860102 0.2373055561 0.4895915663) 263 1264 1
(0.1759503179 0.4120248411 0.2581236582 0.1539011829) 323 633 1
(0.5746049287 0.1976833171 0.2126975357 0.0150142186) 233 454 1
(0.3470545907 0.3264727047 0.2451622442 0.08131046042) 293 515 1
(0.571446455 0.04919535259 0.1650814199 0.2142767725) 229 448 1
(0.6839966639 0.1256359679 0.03236570019 0.1580016681) 233 1263 1
(0.2427766629 0.2871106833 0.3786116685 0.09150098527) 263 513 1
(0.6287521926 0.1200260425 0.06559786115 0.1856239037) 379 685 2
(0.189918044 0.2611457132 0.1438952648 0.405040978) 413 1269 1
(0.404156227 0.2979218865 0.1785274981 0.1193943884) 292 514 1
(0.1412855411 0.2568572875 0.1724999419 0.4293572294) 108 210 1
(0.2093454326 0.3799356626 0.01539162108 0.3953272837) 52 100 1
(0.7455965077 0.1272017462 0.03359137937 0.0936103668) 229 448 2
(0.6430483447 0.1784758276 0.1284083763 0.05006745131) 442 865 2
(0.2973393011 0.3513303495 0.1991455302 0.1521848193) 143 277 2
(0.3475287448 0.3262356276 0.2677937308 0.05844189684) 14 6 1
(0.3934442972 0.08616126642 0.3032778514 0.217116585) 232 455 2
(0.232195099 0.3839024505 0.2619077106 0.1219947399) 16 30 1
(0.1377255082 0.4311372459 0.06007505862 0.3710621873) 172 278 1
(0.02097145968 0.0906871046 0.4895142702 0.3988271656) 409 803 2
(0.04407206001 0.1548388793 0.47796397 0.3231250907) 293 574 2
(0.1250438663 0.1622749097 0.2752031571 0.4374780669) 441 865 1
(0.6641752647 0.1679123676 0.002511930607 0.165400437) 501 925 1
(0.3356093585 0.1289829987 0.203212322 0.3321953207) 263 456 2
(0.1466807832 0.3205452808 0.1061143275 0.4266596084) 352 632 2
(0.3619396441 0.319030178 0.2674568431 0.05157333484) 263 513 2
(0.1886144531 0.3785651535 0.4056927734 0.02712761992) 408 798 1
(0.06656315069 0.4667184247 0.3705436128 0.0961748118) 173 336 2
(0.5195038743 0.2402480628 0.152957953 0.08729010982) 409 803 1
(0.06036285236 0.3353831557 0.1344354181 0.4698185738) 468 860 2
(0.2929583859 0.353520807 0.0737745843 0.2797462227) 411 804 2
(0.6593637864 0.01446224425 0.1558558626 0.1703181068) 320 627 1
(0.2211962856 0.1894262992 0.199975558 0.3894018572) 230 392 2
(0.4130642 0.2934679 0.2135314454 0.07993645459) 351 688 2
(0.2744391472 0.3627804264 0.2596334416 0.1031469848) 621 1161 1
(0.4359265638 0.1364967004 0.1455400177 0.2820367181) 108 210 1
(0.7430343692 0.1284828154 0.06266998983 0.06581282558) 232 396 1
(0.1918300073 0.04271575368 0.4040849964 0.3613692427) 137 268 2
(0.767474758 0.001110827535 0.1151517934 0.116262621) 441 807 2
(0.4323028524 0.1944526857 0.2838485738 0.08939588817) 142 278 2
(0.7294817348 0.1352591326 0.002166522674 0.1330926099) 261 511 2
(0.2253761079 0.3873119461 0.1789097318 0.2084022143) 382 691 1
(0.1261265762 0.3360080761 0.1009286358 0.4369367119) 382 749 1
(0.09131008257 0.4543449587 0.06887877261 0.3854661861) 170 333 1
(0.1863283305 0.3932366917 0.01359914307 0.4068358348) 173 279 2
(0.1581927077 0.08163570482 0.3392679413 0.4209036461) 413 751 2
(0.2591411536 0.3704294232 0.2531732633 0.1172561599) 351 688 2
(0.3059838243 0.3470080879 0.2281878838 0.118820204) 560 1041 1
(0.559779725 0.1738919212 0.2201101375 0.04621821627) 80 156 2
(0.04774708307 0.06553705048 0.410589408 0.4761264585) 531 1042 1
(0.7570195456 0.00337719171 0.1181130355 0.1214902272) 411 806 1
(0.18612602 0.40693699 0.05492133428 0.3520156557) 108 211 1
(0.3091871622 0.3151814666 0.03022495233 0.3454064189) 563 1274 1
(0.02449769129 0.4877511544 0.03555157516 0.4521995792) 232 455 1
(0.6785382242 0.1607308879 0.02640796201 0.1343229259) 201 391 2
(0.3468061645 0.3265969178 0.2772449341 0.04935198367) 32 61 1
(0.5547863115 0.2226068443 0.1421466457 0.08046019854) 258 505 2
(0.3749535094 0.3125232453 0.2384636969 0.07405954844) 262 514 1
(0.3647947065 0.008759848587 0.3176026468 0.3088427982) 412 806 1
(0.7058903611 0.1151343855 0.03192043389 0.1470548194) 314 557 2
(0.630663161 0.1846684195 0.02907151312 0.1555969064) 32 59 2
(0.8445995031 0.07770024844 0.0124235817 0.06527666675) 233 454 2
(0.7080908232 0.1459545884 0.04045407127 0.1055005171) 51 99 1
(0.4208265525 0.2895867238 0.2562508214 0.03333590235) 260 451 1
(0.3722693822 0.01256106644 0.3013042425 0.3138653089) 377 681 2
(0.2863311265 0.3044890514 0.0523453854 0.3568344367) 443 1270 1
(0.9588542324 0.008671184351 0.01190169943 0.02057288378) 462 906 1
(0.6381527416 0.01645202127 0.1809236292 0.1644716079) 112 219 2
(0.1229472654 0.05774954197 0.3807768253 0.4385263673) 467 858 2
(0.437001835 0.2814990825 0.02714612014 0.2543529623) 556 1033 1
(0.2911244029 0.09152904229 0.3544377985 0.2629087563) 587 1150 1
(0.1553263177 0.09255317544 0.3297836657 0.4223368412) 503 1272 1
(0.1758465058 0.1642863043 0.4120767471 0.2477904429) 79 154 2
(0.04747951017 0.4762602449 0.01762435511 0.4586358898) 170 274 1
(0.5066776377 0.2430739196 0.003587261535 0.2466611812) 320 569 2
(0.3212222139 0.339388893 0.1803683906 0.1590205024) 501 984 1
(0.08191840158 0.4590407992 0.3211997235 0.1378410758) 443 1270 2
(0.8736422066 0.05764769263 0.06317889671 0.005531204074) 442 868 2
(0.04125611641 0.4793719418 0.476364007 0.003007934784) 142 219 1
(0.1931677343 0.1587594814 0.2446566515 0.4034161329) 323 1266 1
(0.5619185968 0.02408088773 0.1949598138 0.2190407016) 143 220 2
(0.2267120421 0.3866439789 0.2479929853 0.1386509937) 30 55 2
(0.2903388113 0.3548305944 0.2223727906 0.1324578038) 173 279 1
(0.3922930427 0.09107977689 0.3038534786 0.2127737018) 83 159 1
(0.2524124372 0.3737937814 0.360941201 0.01285258037) 233 397 1
(0.08934430147 0.4553278493 0.269213732 0.1861141172) 49 94 2
(0.357078993 0.3031387062 0.01832179729 0.3214605035) 51 56 2
(0.2175773117 0.3912113441 0.2696431381 0.121568206) 201 394 1
(0.4874802481 0.256259876 0.130358358 0.125901518) 592 1104 1
(0.07823848384 0.2765731433 0.1843076148 0.4608807581) 32 1256 1
(0.07677921837 0.4616103908 0.08622118638 0.3753892044) 53 100 2
(0.2692906211 0.3653546894 0.0878395995 0.2775150899) 226 442 2
(0.08972700951 0.4413027466 0.01383374863 0.4551364952) 260 451 2
(0.08987755005 0.2948340803 0.455061225 0.1602271446) 498 978 2
(0.2179675102 0.3910162449 0.108886315 0.2821299299) 263 515 1
(0.5156321553 0.2421839223 0.2195565635 0.02262735878) 379 741 2
(0.1355111621 0.2194859284 0.432244419 0.2127584905) 563 1105 2
(0.6528521291 0.1735739354 0.1625248699 0.01104906557) 112 216 2
(0.821286583 0.08935670848 0.04166527321 0.04769143527) 471 925 1
(0.1477601688 0.2016892105 0.2244307051 0.4261199156) 170 274 2
(0.634258369 0.005004367258 0.1778664483 0.1828708155) 172 278 2
(0.09383572578 0.07019481346 0.3828873236 0.4530821371) 408 800 1
(0.2881125879 0.04936664083 0.3559437061 0.3065770652) 203 395 1
(0.0862246282 0.4568876859 0.3605540891 0.09633359679) 263 515 1
(0.09821253411 0.4508937329 0.1086429974 0.3422507356) 233 454 2
(0.3057565431 0.3471217285 0.344939562 0.002182166447) 411 807 1
(0.2054070999 0.39729645 0.0679583756 0.3293380744) 46 88 2
(0.3248462245 0.3375768878 0.124555834 0.2130210537) 411 806 2
(0.4012090864 0.1342749447 0.1651205121 0.2993954568) 533 987 2
(0.4394935787 0.03382928462 0.2802532107 0.246423926) 200 389 1
(0.2987792756 0.3017448774 0.04886548479 0.3506103622) 83 1258 1
(0.3259073458 0.2039023622 0.3370463271 0.1331439649) 292 573 2
(0.4906126294 0.2546936853 0.1435634373 0.111130248) 229 390 1
(0.001106392563 0.4994468037 0.03088952333 0.4685572804) 166 266 1
(0.5001374825 0.055118872 0.1948123867 0.2499312587) 323 574 2
(0.636773672 0.001222542104 0.181613164 0.1803906219) 473 928 2
(0.1695056512 0.4152471744 0.2295935102 0.1856536642) 202 395 2
(0.3048353191 0.3475823404 0.1302990748 0.2172832656) 323 574 1
(0.3556833568 0.004609773868 0.3221583216 0.3175485478) 80 156 2
(0.3111715019 0.344414249 0.3183011325 0.02611311651) 346 676 2
(0.6900140095 0.1040437061 0.0509492892 0.1549929953) 233 1263 1
(0.7419459747 0.1290270127 0.01289161141 0.1161354013) 142 275 2
(0.754999773 0.1225001135 0.01921746054 0.103282653) 32 30 1
(0.7444431217 0.02178936354 0.1277784391 0.1059890756) 233 454 1
(0.588326812 0.1889987201 0.205836594 0.01683787385) 292 573 2
(0.5534810289 0.2232594855 0.01737108634 0.2058883992) 260 509 2
(0.3191741022 0.3404129489 0.2460692834 0.09434366551) 531 1040 2
(0.04714073774 0.3589575018 0.4764296311 0.1174721293) 192 376 2
(0.9063517029 0.01156548519 0.04682414856 0.03525866337) 378 739 1
(0.05659320437 0.2815915265 0.1901118714 0.4717033978) 383 1268 1
(0.03340257652 0.2933423124 0.4832987117 0.1899563994) 473 928 2
(0.3826649853 0.3086675073 0.1597216865 0.1489458208) 263 1264 2
(0.1211464899 0.439426755 0.3521757227 0.08725103234) 379 744 1
(0.4293797646 0.2853101177 0.2521733497 0.03313676802) 413 810 1
(0.3216853893 0.3391573053 0.05846335575 0.2806939496) 413 751 1
(0.3424965757 0.3287517122 0.04194828883 0.2868034233) 111 216 2
(0.407174752 0.2850871981 0.296412624 0.01132542594) 563 1105 2
(0.1669307175 0.4165346413 0.0890819066 0.3274527347) 202 396 1
(0.04247624867 0.4787618757 0.2496423491 0.2291195266) 381 745 2
(0.266819067 0.1840280033 0.1825624632 0.3665904665) 321 571 2
(0.09351400498 0.3309820173 0.1222609802 0.4532429975) 262 513 1
(0.1213949026 0.4393025487 0.3585826049 0.08071994378) 380 746 1
(0.09911502097 0.4504424895 0.2059390509 0.2445034387) 292 573 1
(0.5150583897 0.2186966641 0.02377414108 0.2424708051) 142 277 1
(0.3873709556 0.3063145222 0.1728807133 0.1334338089) 113 218 2
(0.1719024112 0.4140487944 0.07746316989 0.3365856245) 54 1257 2
(0.371900894 0.314049553 0.2317555024 0.08229405061) 473 869 1
(0.2743549587 0.1754855923 0.3628225207 0.1873369283) 471 925 2
(0.09483586587 0.4525820671 0.4129598815 0.0396221856) 320 569 1
(0.154118294 0.422940853 0.1850270149 0.2379138382) 353 690 2
(0.3237788866 0.1967679748 0.3381105567 0.1413425819) 380 743 1
(0.227070395 0.1974355562 0.1890292462 0.3864648025) 499 979 1
(0.3336651155 0.3331674423 0.05915180872 0.2740156336) 322 632 1
(0.009320447563 0.1974796586 0.2978601177 0.4953397762) 440 805 2
(0.7733767393 0.0368243098 0.1133116304 0.07648732057) 350 687 2
(0.07215037422 0.09928611144 0.3646387014 0.4639248129) 14 26 1
(0.06423038131 0.396707238 0.07117757132 0.4678848093) 653 1223 2
(0.1462204967 0.4268897516 0.08774841003 0.3391413416) 142 278 1
(0.5002947398 0.1097116564 0.2498526301 0.1401409737) 233 454 1
(0.3997364614 0.3001317693 0.2771807278 0.02295104154) 653 1223 1
(0.1572901574 0.4213549213 0.2865526505 0.1348022708) 263 513 2
(0.5494377837 0.2252811081 0.2109547952 0.01432631291) 500 981 2
(0.3331138835 0.3334430583 0.09840561387 0.2350374444) 533 987 1
(0.8259005805 0.02398802329 0.08704970977 0.06306168648) 256 499 1
(0.3098894283 0.252072284 0.3450552859 0.09298300186) 203 395 1
(0.2600804904 0.3699597548 0.2249999518 0.1449598031) 618 1213 2
(0.2673533629 0.3663233186 0.1446632658 0.2216600528) 438 860 1
(0.2424933654 0.3787533173 0.3717497055 0.007003611799) 229 390 1
(0.4499159728 0.2074884109 0.06755360265 0.2750420136) 348 682 1
(0.3428881836 0.3285559082 0.2243625597 0.1041933485) 319 625 2
(0.2206856258 0.3896571871 0.08916671723 0.3004904699) 529 980 1
(0.1068650844 0.1238333442 0.3227341136 0.4465674578) 443 810 2
(0.7740240016 0.05988108126 0.05310691795 0.1129879992) 501 983 1
(0.06786996521 0.2828517772 0.4660650174 0.1832132402) 496 971 1
(0.1746307662 0.4126846169 0.3644003208 0.0482842961) 171 334 2
(0.294671441 0.3526642795 0.1128286202 0.2398356593) 230 450 2
(0.06983982221 0.3650098805 0.1000702084 0.4650800889) 320 569 2
(0.05853007976 0.2797145059 0.1910204542 0.4707349601) 291 512 2
(0.297505112 0.1655494678 0.351247444 0.1856979761) 292 570 1
(0.02418938313 0.3088948307 0.4879053084 0.1790104777) 226 443 2
(0.1272835818 0.2308113925 0.4363582091 0.2055468166) 259 508 2
(0.07379302126 0.4240568402 0.03904664914 0.4631034894) 499 921 2
(0.2644065388 0.2870875143 0.08070921631 0.3677967306) 260 509 1
(0.3996831036 0.3001584482 0.1984830258 0.1016754224) 383 692 1
(0.06630071334 0.3069636114 0.4668496433 0.159886032) 501 981 1
(0.04760652327 0.4325560131 0.04364072523 0.4761967384) 558 1095 1
(0.3202644568 0.3398677716 0.03569602167 0.3041717499) 194 380 1
(0.09933185056 0.04845415653 0.4018799182 0.4503340747) 140 273 1
(0.2516733503 0.2319267531 0.3741633248 0.1422365717) 143 279 2
(0.2500592148 0.3749703926 0.2298283967 0.1451419959) 323 574 1
(0.3283464662 0.3358267669 0.1261124854 0.2097142815) 500 981 2
(0.004201811099 0.3498923273 0.4978990945 0.1480067672) 292 573 2
(0.2379894378 0.3641437875 0.01686149356 0.3810052811) 381 689 2
(0.1501834768 0.4249082616 0.1330417731 0.2918664885) 232 396 1
(0.04306140737 0.08843718708 0.4784692963 0.3900321092) 500 982 2
(0.0164404175 0.08946852608 0.4023112652 0.4917797912) 53 60 2
(0.4632626595 0.2683686703 0.1903129028 0.07805576748) 563 1103 2
(0.09950256124 0.18842077 0.4502487194 0.2618279494) 11 21 2
(0.5860237487 0.1139723144 0.09301581121 0.2069881256) 501 925 2
(0.1174005863 0.4412997068 0.246557636 0.1947420709) 473 869 1
(0.1228897429 0.4385551286 0.009928854193 0.4286262744) 592 1104 1
(0.09331809039 0.4533409548 0.429364747 0.02397620777) 143 277 2
(0.7191358286 0.1374890098 0.1404320857 0.002943075873) 289 564 1
(0.2187787623 0.2695593577 0.1210512611 0.3906106188) 499 921 2
(0.03390374883 0.01281429059 0.4830481256 0.470233835) 32 61 2
(0.3037633426 0.3117254011 0.3481183287 0.03639292758) 622 1219 1
(0.3536416604 0.3231791698 0.2933468866 0.02983228317) 28 53 2
(0.0824210039 0.458789498 0.1476704913 0.3111190067) 200 392 1
(0.715074345 0.01277029598 0.1424628275 0.1296925315) 201 391 1
(0.03176458375 0.4841177081 0.1376560644 0.3464616437) 349 682 2
(0.07899882935 0.4570296137 0.4605005853 0.003470971581) 50 94 1
(0.5952830969 0.2023584516 0.04388916357 0.158469288) 202 396 1
(0.5068375604 0.2465812198 0.08072846736 0.1658527524) 527 1034 2
(0.2810034473 0.2979838768 0.06151439955 0.3594982764) 16 1255 1
(0.6627594665 0.1686202667 0.06843260116 0.1001876656) 470 923 1
(0.3163669828 0.3418165086 0.3202763282 0.02154018035) 80 156 1
(0.656992897 0.1715035515 0.05104854744 0.120455004) 320 569 1
(0.02518726034 0.4620991135 0.4874063698 0.02530725634) 75 143 1
(0.2731914249 0.04289739966 0.3634042876 0.3205068879) 411 804 1
(0.2736718674 0.3631640663 0.2628489169 0.1003151494) 592 1163 1
(0.5907424359 0.204628782 0.04239674424 0.1622320378) 351 689 1
(0.1831385303 0.4084307349 0.03731430244 0.3711164324) 16 9 1
(0.2647693215 0.3676153392 0.207783909 0.1598314302) 409 800 2
(0.09401141657 0.3105378723 0.4529942917 0.1424564194) 202 396 2
(0.1213834437 0.2601178522 0.4393082782 0.179190426) 108 211 2
(0.245720184 0.377139908 0.2897156742 0.08742423379) 79 97 1
(0.2631227979 0.368438601 0.2456833242 0.1227552768) 290 510 1
(0.2531732034 0.3734133983 0.2053817396 0.1680316587) 260 510 1
(0.1609554792 0.4195222604 0.1322363706 0.2872858898) 202 337 1
(0.02005696333 0.4853658578 0.004605660495 0.4899715183) 653 1223 2
(0.1627904186 0.304220736 0.4186047907 0.1143840547) 110 215 2
(0.6508294477 0.1745852762 0.1114212195 0.0631640567) 143 279 1
(0.1074090858 0.4462954571 0.4315791545 0.01471630257) 408 742 1
(0.7462294718 0.1268852641 0.009427873483 0.1174573906) 473 928 1
(0.6331293717 0.1834353141 0.004183355658 0.1792519585) 351 630 1
(0.06186516113 0.04259380452 0.4264736149 0.4690674194) 622 1221 1
(0.004615896467 0.3267135727 0.1709784791 0.4976920518) 262 455 2
(0.3481432004 0.3259283998 0.1772569989 0.1486714009) 258 503 2
(0.5999579043 0.2000210478 0.06050447033 0.1395165775) 587 1153 1
(0.02056506419 0.1703309152 0.4897174679 0.3193865527) 441 866 2
(0.2459623898 0.3770188051 0.3584131488 0.01860565631) 52 100 2
(0.5394385885 0.2302807057 0.1703050855 0.05997562026) 22 42 1
(0.5929859675 0.2035070162 0.1119446242 0.09156239206) 198 329 1
(0.2276424661 0.3861787669 0.1383566914 0.2478220756) 82 103 1
(0.05307096977 0.4734645151 0.3590535898 0.1144109253) 620 1218 1
(0.1749556517 0.4125221742 0.07661485093 0.3359073232) 50 96 2
(0.05079207188 0.4746039641 0.1013697277 0.3732342364) 231 453 1
(0.1718539658 0.1836722072 0.2304008099 0.4140730171) 618 1155 2
(0.0003529910964 0.4220805655 0.4998235045 0.07774293896) 201 394 2
(0.1401914456 0.4299042772 0.2989290402 0.130975237) 288 564 2
(0.3972903741 0.05650217857 0.2448526344 0.301354813) 82 159 1
(0.005361366421 0.07598961088 0.4213297059 0.4973193168) 467 916 1
(0.3583209067 0.2570853664 0.06375418022 0.3208395466) 349 684 1
(0.05018759147 0.4749062043 0.2895300018 0.1853762025) 51 96 2
(0.3144643757 0.2376660894 0.3427678122 0.1051017227) 140 271 1
(0.5699094237 0.2150452881 0.05423831894 0.1608069692) 503 987 1
(0.5691471265 0.181102723 0.03432371374 0.2154264367) 377 739 1
(0.1702568442 0.4148715779 0.3894936441 0.02537793377) 15 28 2
(0.04740207937 0.4190325841 0.4762989603 0.05726637619) 233 456 2
(0.4374440619 0.281277969 0.2272522649 0.05402570418) 383 751 1
(0.1780405466 0.4109797267 0.222676638 0.1883030887) 409 800 2
(0.4434646124 0.2782676938 0.07714242798 0.2011252658) 229 448 2
(0.05469908844 0.4726504558 0.1739839951 0.2986664607) 197 386 1
(0.1391002106 0.3818026535 0.04864724119 0.4304498947) 439 803 2
(0.3888813557 0.3055593221 0.05998534151 0.2455739806) 530 1040 2
(0.05792665204 0.471036674 0.299039079 0.171997595) 261 511 2
(0.734174474 0.1084934975 0.132912763 0.02441926552) 50 94 1
(0.6488613783 0.1755693109 0.04125676087 0.13431255) 473 926 2
(0.403516667 0.2982416665 0.02783646057 0.270405206) 110 215 1
(0.8461333532 0.0769333234 0.06461540985 0.01231791356) 82 159 2
(0.3326336598 0.3193319014 0.3336831701 0.01435126867) 113 218 1
(0.8569977512 0.07150112442 0.01269381417 0.05880731025) 443 867 2
(0.3494948169 0.1562083001 0.3252525915 0.1690442914) 406 797 2
(0.5071930399 0.2464034801 0.003989575765 0.2424139043) 383 692 1
(0.6971344762 0.1514327619 0.009144266206 0.1422884957) 50 94 2
(0.3699613302 0.3150193349 0.09832882563 0.2166905093) 229 449 1
(0.03717218766 0.16534902 0.3160648862 0.4814139062) 649 1249 1
(0.03961404992 0.1829744602 0.2972185148 0.480192975) 622 1163 2
(0.4493738755 0.2068290796 0.06848398263 0.2753130622) 381 689 2
(0.2197766605 0.3901116698 0.2243344975 0.1657771723) 653 1277 2
(0.121693858 0.1479699691 0.2911831019 0.439153071) 380 687 2
(0.4025142628 0.2834977516 0.01524511699 0.2987428686) 530 1040 1
(0.3563812643 0.3218093679 0.1684016534 0.1534077144) 28 53 2
(0.4191276202 0.2904361899 0.1182181363 0.1722180536) 434 852 1
(0.3817847184 0.2670287981 0.3091076408 0.04207884264) 233 456 2
(0.000713302964 0.4996433485 0.05876050747 0.440882841) 349 626 1
(0.1665922528 0.1257330364 0.2909708372 0.4167038736) 285 558 1
(0.230832037 0.3845839815 0.3630232571 0.02156072434) 257 503 2
(0.2195923514 0.08235765003 0.3902038243 0.3078461743) 26 50 2
(0.407868026 0.296065987 0.2274567409 0.06860924613) 32 59 2
(0.1288164757 0.0007559961392 0.434835766 0.4355917622) 202 337 2
(0.5336355931 0.08118258727 0.2331822035 0.1519996162) 318 624 2
(0.1273556866 0.4363221567 0.1625309033 0.2737912534) 411 804 2
(0.2499467272 0.2131378867 0.3750266364 0.1618887497) 351 689 2
(0.02673057492 0.3752864079 0.4866347125 0.1113483047) 383 749 1
(0.6540876763 0.1729561619 0.02540004331 0.1475561186) 231 450 2
(0.7904145292 0.1047927354 0.05622631173 0.04856642365) 142 275 2
(0.1198412617 0.4400793692 0.2645057287 0.1755736405) 320 628 1
(0.01145696345 0.04100155178 0.4532699665 0.4942715183) 106 206 1
(0.2321053984 0.3839473008 0.01241881618 0.3715284846) 350 686 2
(0.345364252 0.07370055865 0.2536173154 0.327317874) 138 211 2
(0.2728394276 0.168856722 0.3635802862 0.1947235641) 502 983 1
(0.2049200347 0.208650994 0.3975399826 0.1888889886) 171 335 2
(0.8514502751 0.07427486247 0.05299543006 0.02127943241) 50 96 2
(0.08759566212 0.4562021689 0.1396668817 0.3165352872) 318 565 1
(0.2539843926 0.3730078037 0.21441665 0.1585911537) 503 928 1
(0.1125115502 0.2506277301 0.1931164948 0.4437442249) 496 915 2
(0.03868096064 0.0740547231 0.4066047966 0.4806595197) 561 1101 1
(0.5066414981 0.0756898709 0.17098938 0.2466792509) 291 512 2
(0.4328244377 0.2574994131 0.2835877812 0.02608836808) 113 218 1
(0.02277141163 0.4886142942 0.02163292644 0.4669813677) 562 1104 1