/*--------------------------------*- C++ -*----------------------------------*\
| =========                 |                                                 |
| \\      /  F ield         | OpenFOAM: The Open Source CFD Toolbox           |
|  \\    /   O peration     | Version:  2406                                  |
|   \\  /    A nd           | Website:  www.openfoam.com                      |
|    \\/     M anipulation  |                                                 |
\*---------------------------------------------------------------------------*/
FoamFile
{
    version     2.0;
    format      ascii;
    arch        "LSB;label=32;scalar=64";
    class       scalarField;
    location    "0.008/lagrangian/dsmc";
    object      Ei;
}
// * * * * * * * * * * * * * * * * * * * * * * * * * * * * * * * * * * * * * //


6228
(
2.92655461e-21
6.089797737e-21
1.198057921e-20
4.340973283e-21
7.334268264e-21
9.513766066e-22
1.034928693e-20
7.035252219e-21
3.379526953e-21
1.053976556e-20
9.292133881e-21
1.15246099e-21
1.120770896e-20
5.164641037e-21
4.851411638e-20
6.063139346e-21
4.348843583e-21
3.044054373e-21
3.796076628e-21
1.61284245e-20
4.359154791e-22
8.763695503e-21
1.790966307e-20
2.743615384e-20
6.851341581e-22
3.315705603e-21
1.859612086e-20
2.471733328e-20
1.203307952e-20
7.886964873e-21
9.152779196e-21
3.647963691e-22
4.869557017e-21
3.211637486e-20
3.627720367e-21
1.336043433e-20
2.96006238e-21
2.078336782e-20
5.5574096e-22
2.114735095e-21
8.611372967e-21
1.620647792e-20
1.69203788e-20
3.445555142e-21
2.401012759e-21
1.805334746e-21
1.462165488e-20
6.618925381e-21
3.776368755e-21
1.495586412e-20
1.134288086e-20
8.489613334e-21
7.356581352e-22
4.527468705e-22
2.942916175e-21
5.601513916e-21
6.121982742e-21
8.416988132e-21
2.327934173e-21
9.561980751e-21
3.694670761e-22
2.560496304e-21
9.887445896e-21
9.260252337e-21
9.871910827e-21
4.163648032e-22
2.277605357e-21
7.241458748e-21
1.55299185e-21
3.271193888e-22
5.32426842e-21
2.885439585e-20
1.037740634e-21
8.441180657e-22
8.55088951e-21
1.735941476e-21
1.660334742e-22
1.436583532e-21
6.01516261e-21
2.048906263e-21
2.897532846e-21
1.452379389e-21
5.46235998e-21
8.508512138e-22
5.94912892e-21
4.752299384e-20
1.374366224e-20
6.491060121e-21
2.017913057e-20
1.420490577e-21
3.97106919e-20
2.117156103e-21
1.416950863e-20
5.237491464e-21
1.922412455e-20
3.850377409e-23
3.178750624e-21
2.166280247e-20
7.588579677e-22
9.100237905e-21
1.328104915e-20
3.222819056e-21
1.504789643e-20
1.180031102e-20
2.28499903e-21
1.042968067e-20
2.145447278e-22
1.330932386e-20
2.459347969e-22
1.696623678e-21
2.150168651e-22
5.257845244e-21
1.737791468e-20
6.552309871e-21
3.602068006e-22
7.381223094e-21
5.694023193e-21
2.565386185e-21
2.755112291e-21
5.582421988e-21
1.542769793e-20
1.088406908e-20
2.308317455e-21
1.676411054e-21
3.13030125e-21
6.816117452e-21
9.88588078e-22
1.231677271e-21
7.277315482e-21
7.446293313e-21
1.122687582e-21
9.444944721e-21
3.758870045e-21
2.907814007e-21
7.926754686e-21
1.403452744e-21
1.089898716e-20
3.636961572e-21
7.176698925e-21
3.756448362e-22
6.042773282e-21
3.067471872e-21
1.152639929e-21
8.143357632e-22
1.30257943e-20
4.827788377e-21
2.90613279e-21
9.507407721e-21
2.720432737e-21
3.54430898e-21
1.47221241e-20
2.401151902e-20
4.247046179e-21
2.307150566e-21
4.952446683e-21
5.330742347e-22
1.645228412e-21
7.058082336e-21
6.658332029e-21
5.083927056e-21
7.457434918e-22
1.496614988e-20
8.837670828e-21
6.193721206e-21
5.92981819e-22
8.162340442e-23
1.636325442e-21
1.922708789e-21
8.173518771e-21
2.896222905e-21
7.0682101e-22
1.861857498e-21
9.501911806e-21
1.308086142e-20
4.951952323e-22
2.662057602e-21
5.181152407e-21
8.654903796e-21
2.115799649e-21
5.381953498e-21
5.222585914e-21
8.653847428e-21
9.389943929e-21
4.697477761e-22
1.042692645e-20
2.751517142e-22
5.313864474e-21
1.492978884e-20
1.290607647e-20
5.602660016e-21
1.04329744e-22
3.606096168e-20
4.175104414e-21
1.768204391e-21
1.055057446e-21
9.71749796e-22
1.121642595e-20
1.045784763e-20
7.731755664e-21
1.347576719e-21
1.486102442e-21
9.367508834e-21
7.993297675e-22
8.57388772e-21
2.035921063e-20
7.304267981e-21
2.19746352e-21
1.291512638e-20
4.776899842e-21
1.048753389e-21
5.409039517e-21
3.095620822e-21
4.501852851e-21
5.015994299e-22
3.992205093e-21
3.793287438e-21
3.927347259e-21
6.057525084e-21
3.71019495e-21
7.202241703e-22
2.139589269e-21
2.543922115e-20
2.179284237e-21
8.185618653e-21
6.876823233e-21
3.403494159e-21
1.875624641e-20
2.925409471e-20
6.263905543e-21
3.514218847e-21
1.648406465e-20
3.43946257e-22
1.794991517e-21
9.429219338e-21
4.760190949e-21
1.12136603e-21
1.007770786e-21
6.008724586e-21
5.91650364e-21
6.233005718e-21
7.258696218e-22
6.305268894e-21
6.701872292e-22
1.05824052e-20
2.684641757e-20
8.212326544e-21
9.153163202e-21
5.076380505e-21
4.19320437e-21
6.324282884e-21
1.324311218e-20
7.624771585e-21
1.381071461e-21
1.242275792e-20
6.978506197e-21
3.595521406e-21
3.886242688e-22
6.036151537e-21
1.987641865e-20
3.95748384e-21
3.023341375e-21
2.444250194e-20
1.25000379e-20
6.615854857e-22
4.920294074e-21
2.819102583e-20
4.741570029e-21
3.849508904e-21
3.952563605e-22
9.742304743e-22
1.411032799e-20
7.163180017e-21
2.184925296e-21
3.120114254e-21
1.243359471e-20
4.037314026e-20
3.556055959e-21
2.053455892e-21
1.483499027e-21
1.823365156e-21
7.547104746e-22
8.386800815e-22
8.408876795e-21
7.60671436e-22
1.153358124e-20
1.644010761e-21
1.490098649e-21
7.034876462e-22
4.208855754e-21
1.790963148e-22
8.045304494e-21
1.465280325e-21
3.975821623e-21
1.216166336e-20
1.052327937e-21
6.839857374e-21
8.764986195e-21
4.458609726e-21
4.399167098e-21
7.232626523e-23
8.150789464e-21
8.435960204e-22
6.729894309e-22
1.572487322e-20
4.627412101e-21
6.194967563e-21
5.184576538e-21
4.38868052e-21
5.109406225e-21
1.059080295e-20
1.676345927e-21
1.181056789e-22
1.858276172e-21
9.872941219e-21
5.695778359e-21
1.417860457e-20
4.747625395e-21
7.260347546e-22
2.04641362e-21
3.61848528e-21
2.715167978e-21
6.258099436e-22
1.685683424e-20
1.364238479e-20
1.481730515e-21
9.145300937e-22
3.744870202e-22
8.305798205e-21
1.584090531e-20
3.455098555e-21
9.304181306e-22
4.650272401e-22
5.457763145e-22
2.376192179e-21
4.962610344e-22
1.490325712e-21
2.785072265e-21
6.369601383e-22
1.153916435e-20
3.7871188e-21
7.570441309e-22
6.030067307e-21
2.814934209e-21
2.656686944e-21
9.205359684e-21
5.227115325e-21
2.050121732e-20
5.234602954e-21
1.419966015e-22
5.801446369e-21
6.369829846e-21
2.121461325e-22
5.152128266e-21
4.141235275e-21
3.010974104e-21
1.821772908e-22
6.141404527e-22
1.606742984e-22
6.091771928e-21
1.610022655e-21
4.589725487e-21
1.101845493e-21
1.127676122e-21
1.772152284e-20
1.014010047e-20
9.86479278e-22
5.7106987e-21
5.628097035e-21
2.383503334e-21
1.807010407e-22
6.798739017e-21
5.649075263e-22
7.860867464e-21
1.602552509e-21
9.615323232e-22
1.190296258e-21
8.361125851e-22
1.640856509e-21
8.123302863e-21
2.63850676e-21
9.813671249e-22
7.33524331e-21
1.233082479e-21
9.597337862e-22
3.907191605e-21
9.626179055e-22
8.354242249e-21
8.264714104e-22
4.280880663e-21
1.120721455e-22
4.776378672e-22
4.140249436e-21
3.335441648e-21
5.052992837e-21
1.023196656e-20
9.419069448e-22
1.983078046e-20
1.217536327e-20
7.731698742e-21
6.003733262e-22
6.794392306e-21
1.273629173e-21
1.777377815e-20
4.710407809e-21
8.160254979e-22
4.208019307e-21
2.073445228e-21
2.771167356e-21
1.647339808e-20
5.271434025e-21
6.654163267e-21
5.92751161e-21
3.936401105e-21
4.990553684e-21
1.836928908e-21
1.016393968e-20
5.625152188e-21
6.273220601e-21
2.214609853e-22
1.817379975e-21
3.02569879e-21
5.942162807e-22
5.214739513e-21
5.132508373e-21
2.497802991e-21
5.995573285e-22
4.621710474e-21
1.775921847e-20
2.623976877e-21
5.284869896e-20
1.291457044e-20
3.149096748e-21
8.631984154e-21
4.168115293e-21
1.053910488e-20
3.594765776e-21
3.863279979e-21
5.298982737e-23
9.864257408e-21
4.077928828e-21
3.407128981e-21
2.821022486e-21
1.926184886e-20
1.000926843e-20
6.862204483e-22
6.205982813e-23
4.313836654e-22
7.956972227e-23
1.007894185e-20
2.859282832e-21
4.035520887e-22
3.289267126e-21
1.152957232e-21
2.842090782e-24
4.124153598e-21
1.060802179e-20
3.063591638e-21
7.334194834e-22
4.414400278e-21
3.651379865e-21
4.192784021e-21
4.37603992e-21
2.619117017e-21
1.300694091e-21
2.091810429e-21
9.875100697e-21
3.154007321e-22
4.695918089e-21
1.08942915e-21
1.557370201e-21
2.620155773e-21
1.482815061e-21
3.648290535e-21
4.301214113e-21
1.248159242e-20
1.216482514e-21
5.076278306e-22
1.67722239e-21
3.900100661e-21
3.076022109e-21
2.910674434e-21
7.001106427e-21
7.031968688e-22
3.732554199e-21
1.874459634e-21
1.074866673e-21
1.956116669e-21
6.110599971e-22
1.299598289e-20
6.71463042e-21
2.181830445e-21
3.317734985e-21
6.026993367e-22
2.00401247e-22
9.312251979e-23
1.433979199e-20
3.420107035e-21
8.390800029e-22
8.851458333e-22
7.005015092e-22
1.218236486e-20
1.969028884e-21
5.113006044e-21
4.99800127e-21
7.780342903e-21
2.008591512e-21
1.183189201e-20
3.245686703e-21
2.196010453e-22
8.816895608e-22
1.412231385e-20
1.197154078e-21
1.256900173e-20
6.348657063e-22
2.217699042e-21
6.595908579e-21
5.726493058e-21
1.59414043e-21
2.453106157e-22
3.210262657e-21
1.214132475e-20
3.963111611e-21
1.074164369e-20
3.696837932e-20
5.440695228e-21
1.078015244e-20
1.091942342e-20
2.139196499e-20
1.38056951e-21
1.106871317e-20
2.767153998e-21
1.996892038e-21
1.269709837e-20
3.016337159e-21
3.686585986e-21
4.599541027e-21
8.084926488e-21
1.527999401e-20
7.448021967e-21
8.589470059e-21
3.736601708e-22
2.942160576e-21
3.382477209e-23
1.151477996e-20
9.706580551e-21
3.902703869e-21
1.66225956e-20
5.807653544e-21
6.24242509e-21
1.361954224e-21
3.993305811e-22
9.79782069e-22
7.720516155e-23
2.705299401e-21
2.060193995e-21
2.275386281e-20
2.137678262e-20
8.912159863e-21
2.739178735e-21
1.603942356e-20
3.029573145e-22
1.182705375e-20
5.236256834e-21
3.448382081e-22
1.383510766e-21
1.655684315e-22
1.041014718e-21
1.151098996e-21
3.441546431e-21
4.566198576e-22
1.705177914e-20
2.027445607e-22
4.937119149e-21
1.786692555e-21
9.76646726e-22
9.780987182e-22
3.104761808e-21
7.188866824e-22
8.921049594e-21
3.700571549e-21
6.875829626e-21
6.778711389e-22
6.490588236e-22
4.295439615e-21
8.115023117e-22
1.691243961e-20
1.647646364e-21
1.309751736e-20
5.02538325e-21
5.391760398e-21
1.665639201e-20
2.657495352e-21
8.253207367e-22
3.988760596e-22
5.314896185e-21
9.135909303e-22
5.047818595e-22
4.254436116e-21
1.754476431e-22
1.458158303e-20
8.610049954e-21
1.191234245e-21
3.882107388e-21
2.970011076e-21
3.461531003e-21
7.331885356e-21
4.505257575e-21
3.33337665e-21
6.278586622e-22
5.89154988e-21
2.605491286e-22
6.830155733e-21
1.488470952e-20
5.604767741e-21
9.727688267e-21
9.935470086e-21
8.207085748e-21
6.657114821e-21
7.208806106e-21
3.268385986e-21
2.951496668e-21
1.261899227e-21
2.88205425e-21
5.139096233e-22
5.419307848e-23
6.631765813e-21
1.800146435e-21
1.092375736e-21
7.426705093e-22
2.383145142e-21
2.163866126e-21
7.184979141e-21
1.296977323e-20
5.333181452e-21
4.65035027e-21
9.991291741e-21
9.61065316e-21
1.337197097e-20
2.666885282e-21
3.914690065e-21
3.219248907e-21
4.473090497e-21
4.149958411e-21
6.070342997e-22
2.825382796e-21
8.728536763e-22
3.995302412e-22
9.053515171e-21
1.440664292e-20
4.941995737e-21
3.281282604e-21
9.216917965e-21
8.794443745e-21
4.605358003e-21
3.225875283e-22
7.064561456e-22
9.781542997e-22
1.951306834e-21
8.123801909e-21
5.390301155e-22
1.488529638e-22
5.35561819e-22
2.020793921e-21
7.419312898e-23
3.359717781e-21
1.141200348e-21
7.391155986e-21
1.394951577e-21
5.067904155e-21
3.66310651e-22
2.40207761e-21
3.401600249e-21
1.117824956e-20
1.144802566e-20
3.152964771e-21
6.577623275e-21
6.910135761e-21
3.162533181e-21
6.691174375e-21
5.326692812e-21
1.114932004e-20
1.465476677e-22
1.367086643e-21
3.370468059e-21
1.332536415e-22
3.217675963e-21
2.809466229e-21
7.625004468e-21
3.204998718e-21
6.944423004e-21
1.703879638e-21
2.768286068e-21
8.049477742e-21
5.157349733e-21
9.523162216e-21
6.07832811e-21
5.02084791e-21
6.430026035e-21
1.479864783e-20
2.574153449e-21
2.885130723e-21
3.712845014e-22
1.145282864e-21
1.458526338e-21
2.234679011e-21
1.577832375e-20
6.226724099e-22
1.043085507e-21
2.358178496e-21
6.546511528e-21
2.412801818e-21
5.878654618e-21
3.242003412e-20
1.199200444e-21
1.859871371e-21
3.53609524e-21
1.164605015e-20
1.216507044e-21
4.605123362e-21
2.735017458e-20
8.963257224e-21
1.377241831e-21
3.327042128e-21
6.574656522e-22
7.677351047e-21
5.084189575e-21
7.834468202e-21
3.760335113e-21
7.95108323e-21
5.109195453e-21
8.295636669e-22
1.724641655e-22
8.530785273e-21
4.5749875e-21
6.182183102e-21
3.341701949e-21
2.709592449e-21
6.374227852e-21
6.132570376e-21
8.720063781e-21
2.057412272e-21
4.34753133e-21
4.340340605e-22
3.445571579e-21
3.293660889e-21
4.93915828e-21
6.797827479e-21
7.054977292e-21
6.189478973e-21
7.000966011e-21
1.632142278e-20
8.835303368e-21
3.383180569e-25
4.165038862e-22
1.458350837e-21
5.531247718e-21
6.232408012e-21
1.507052593e-21
6.441347337e-21
3.414963867e-21
5.371004497e-21
1.23604383e-20
9.578921986e-22
5.438457641e-21
8.810845834e-22
6.910016111e-21
1.127325519e-20
3.20842064e-21
1.714696433e-20
1.078878745e-21
5.098731707e-21
6.578375988e-22
8.768032416e-21
4.422647964e-21
3.035836791e-21
1.607180612e-21
1.097570346e-21
3.129246971e-21
2.113172507e-21
8.93268271e-22
6.192397816e-22
9.097112019e-22
1.288846959e-22
8.839830238e-22
5.553930279e-21
6.994928609e-22
8.544870078e-22
2.964549164e-21
5.05796929e-21
2.747034177e-22
8.757650567e-22
8.473369423e-22
7.18991031e-21
7.326663499e-21
1.664360879e-21
2.369368261e-23
2.885830668e-22
1.658902813e-21
1.215437267e-20
7.396807062e-22
1.059805959e-20
1.203090773e-20
3.063134288e-21
7.047727622e-21
3.056912796e-21
3.950891535e-21
2.059902943e-21
5.992847888e-22
3.693448889e-21
3.377240743e-21
3.51958976e-21
1.28814683e-20
5.380421152e-21
3.084449238e-21
5.184007983e-22
6.557076608e-21
2.627486243e-21
2.477618458e-22
7.228232806e-21
7.800053297e-21
1.982219448e-21
1.324251473e-21
4.428336244e-21
7.35832801e-21
4.540153473e-21
5.696700462e-22
4.808354723e-21
3.423745699e-21
2.517859344e-21
9.804252425e-21
9.30574736e-22
3.272229714e-21
2.525249779e-21
5.373021303e-22
6.462800337e-21
2.998954221e-21
4.287101698e-21
1.542007549e-20
4.368523848e-22
6.59150475e-21
7.456667089e-21
9.418357317e-21
7.479238826e-21
2.081667753e-21
1.496580359e-20
2.761532824e-22
5.355927167e-21
1.197426004e-21
1.637431051e-21
8.282240093e-21
3.446411501e-21
5.880976763e-21
5.106045659e-21
4.484405256e-21
2.484367458e-21
8.264949074e-22
2.049855928e-21
7.246620645e-22
1.430953819e-21
4.046832891e-21
5.799539157e-21
3.241552825e-21
6.714295479e-21
4.998012053e-21
2.910655779e-21
9.059087701e-22
3.180841553e-21
1.166602738e-22
1.518482427e-21
4.938244989e-21
1.049754197e-21
3.530063063e-21
6.896216241e-21
5.521434473e-21
1.010484871e-20
9.276647902e-23
2.020275391e-21
2.385882375e-20
9.671269127e-22
1.186745939e-20
2.479552367e-21
4.575662121e-21
1.433782065e-21
1.910643731e-21
6.290794178e-22
2.23507708e-20
1.147898288e-21
3.671508434e-21
6.235976156e-21
1.824326979e-21
3.340127096e-21
1.384225691e-22
7.711642833e-22
1.418754387e-21
1.580640509e-21
1.21999373e-20
2.130896525e-21
2.47881765e-21
2.326321813e-21
7.306033091e-22
1.231679711e-21
3.815836967e-22
6.721435119e-22
5.772492354e-21
3.512447036e-21
5.275003937e-21
7.366386184e-22
4.593515932e-21
1.180720359e-21
1.218561845e-21
2.804521037e-21
4.184917976e-21
1.433758979e-21
1.739888766e-20
3.622230139e-21
1.839718453e-20
1.775047442e-21
1.427194516e-22
1.229212228e-21
9.753145914e-22
2.833164976e-21
2.00025165e-21
1.70585294e-21
5.371414452e-21
2.366362791e-21
7.936498058e-21
4.40709756e-21
5.378239377e-21
6.529391035e-21
9.776638546e-21
1.045617207e-23
7.649158053e-21
2.025776365e-21
2.869563965e-21
8.728838357e-21
7.833621092e-21
2.404079445e-21
3.281141002e-21
7.740103376e-21
7.500994596e-22
3.518865606e-21
3.976267664e-21
3.606576379e-21
2.074390626e-20
8.671149793e-21
1.309578741e-21
5.033519971e-21
6.185700716e-21
4.33207174e-21
2.059897971e-21
1.189361728e-20
2.707981555e-21
2.606515811e-22
1.233456601e-20
1.011562977e-21
3.47163076e-22
1.714025246e-21
8.715261055e-21
9.15841162e-22
6.891566738e-21
6.993343557e-21
1.742427001e-21
5.244813244e-21
1.3276296e-21
4.530528504e-22
3.08467869e-21
2.968612029e-21
1.49459075e-21
1.053385963e-20
1.747155526e-21
1.172945381e-22
3.323114959e-21
3.562448957e-21
7.849526263e-22
8.062335936e-22
2.860179517e-21
1.039904614e-21
3.321988277e-21
8.179287604e-21
4.448630634e-21
2.03038995e-21
2.322356344e-20
1.789279859e-21
1.557674975e-21
2.357712715e-21
7.86747285e-21
1.083564015e-21
5.340075088e-22
6.96046192e-21
1.774857608e-21
2.343759878e-20
4.150089274e-21
6.425734529e-21
9.58345822e-21
1.127498998e-20
5.234528857e-21
5.620423022e-21
2.48980389e-21
8.313156257e-22
6.423333063e-21
2.203735304e-22
3.12394514e-21
2.363909971e-21
2.142125412e-20
6.656262644e-21
5.978561051e-23
7.988581261e-21
2.615917347e-20
4.183160393e-21
5.266009353e-21
1.135574222e-21
2.470382155e-21
1.453663315e-20
1.902658104e-21
3.25286347e-21
5.383833575e-21
5.07602138e-21
1.975842559e-21
1.144199201e-20
1.002291471e-21
1.000199829e-21
3.653672924e-21
9.853183321e-21
1.306714032e-20
7.06889521e-22
1.153417986e-20
2.310893743e-21
1.745137258e-20
1.81292592e-20
1.192714381e-21
5.139108363e-21
1.020556187e-21
1.919994204e-21
2.79341058e-21
2.754551392e-21
1.686285413e-21
2.263257765e-22
1.151046082e-23
3.384905062e-21
1.593100397e-20
5.655125866e-21
5.650444546e-21
1.534986916e-21
8.959485024e-22
2.380191393e-21
8.936589629e-22
7.593732919e-21
2.699102903e-21
3.580282615e-21
9.178288999e-21
1.227867406e-20
2.222865911e-22
9.495752274e-22
5.401488879e-21
6.358003546e-21
1.078070742e-20
1.116663202e-20
2.592362515e-21
1.345308998e-22
3.524966535e-22
4.276362918e-21
2.843962717e-21
4.005729362e-21
2.024149518e-21
1.976322074e-21
4.56781773e-21
1.087646913e-20
2.228261701e-20
6.299010009e-22
9.801454638e-22
4.789547906e-21
7.402907822e-21
2.201628974e-21
7.859479587e-21
8.089401883e-21
7.467819258e-21
1.39040073e-21
6.098985587e-21
6.175742537e-22
9.705271704e-21
2.972885075e-21
5.900961441e-22
4.128711733e-21
1.673838219e-20
7.51681302e-21
2.127823784e-21
1.14912317e-23
2.737582955e-21
1.128290689e-21
8.782027517e-21
2.934196987e-21
1.671490707e-20
8.222427376e-21
3.00608676e-21
3.493979456e-21
6.86021093e-21
1.070162115e-20
1.08805748e-20
5.318710142e-21
3.680080079e-21
3.424074204e-21
2.424322541e-21
3.913196705e-23
5.40512567e-21
1.168323741e-22
6.986182036e-21
1.078650255e-20
1.181864793e-20
3.905511737e-23
4.220738628e-21
3.77564195e-21
9.6351623e-21
1.644865509e-21
1.989941805e-21
1.179425853e-20
9.492099141e-22
3.644980211e-21
1.995638049e-20
3.893411657e-21
5.082621113e-21
1.807765161e-20
6.213818537e-21
4.09338222e-21
1.070369866e-21
7.291857665e-21
5.779135612e-21
2.878416106e-21
4.08137885e-21
2.697970607e-20
3.257506377e-21
2.110367043e-21
4.712138e-21
1.063498948e-20
1.150706134e-20
1.690344786e-20
3.041370637e-21
3.128844241e-20
9.994804736e-21
1.497305797e-20
1.567879765e-21
2.71960621e-21
7.609691478e-21
1.606195814e-20
3.003176367e-21
4.307911308e-21
1.136514994e-21
1.600963251e-22
7.938241759e-21
3.392761162e-22
1.739140879e-21
1.41808735e-20
1.330962922e-21
5.831463361e-21
1.07214702e-21
3.865722692e-21
2.806945471e-21
2.939856175e-22
1.810509561e-20
3.658219187e-22
1.378571583e-21
7.501787344e-23
4.670525002e-21
4.46719538e-21
3.374885874e-21
8.306260214e-21
1.119006719e-21
2.942856777e-21
1.089201017e-20
5.552069479e-21
6.448630096e-21
5.352580682e-21
8.566467588e-21
6.838910881e-21
9.952864113e-22
5.047817455e-21
5.784829147e-22
2.789729328e-21
1.644151277e-21
9.177834312e-21
2.505073139e-22
7.553793617e-21
1.125259013e-20
2.779343531e-21
8.370344336e-21
2.05250288e-20
2.090213059e-20
1.094681322e-21
3.311243181e-21
1.665847577e-20
1.745012602e-22
2.65802001e-21
2.138771886e-21
6.864487964e-21
5.480271567e-21
8.610715727e-21
3.751660358e-21
2.332575723e-20
5.552555019e-21
6.180033582e-21
3.001148735e-21
4.99627273e-21
9.178032703e-21
1.086751097e-20
1.813776458e-21
1.053026412e-20
9.254858671e-22
1.581096678e-21
1.795255057e-21
4.558164892e-21
1.300463532e-22
5.414254392e-21
8.503011185e-22
9.350951571e-21
1.572035159e-21
2.637658953e-21
1.226663945e-20
1.454692844e-21
1.345855929e-20
1.801811166e-20
4.632775778e-21
1.047915753e-20
5.105277696e-21
1.929455183e-21
2.754520372e-20
8.07470967e-21
2.003425798e-20
2.423404676e-23
4.113902678e-21
1.172909814e-23
9.434713868e-23
1.200263608e-21
3.132242756e-21
1.236996923e-20
9.686361555e-21
3.056485134e-21
3.900953397e-21
2.168539771e-21
5.155945715e-21
7.037326125e-21
2.307023404e-20
8.677794725e-21
1.455459153e-21
7.552415882e-21
5.649935098e-21
3.356469773e-21
4.813164741e-21
6.821660598e-21
4.055672039e-21
1.618443584e-21
1.735495261e-22
5.643521894e-22
4.547648488e-22
2.179183351e-20
3.945433995e-22
1.656833842e-20
3.841133619e-21
2.186672262e-21
2.975688408e-21
1.306934033e-21
7.624342607e-22
4.965942786e-22
1.202916994e-23
1.625098141e-21
5.673511898e-21
4.349805354e-21
2.206472531e-22
2.357895144e-21
2.82716638e-21
3.448800931e-21
7.454412853e-23
3.138995095e-21
7.138464832e-21
2.61629105e-21
5.668896272e-21
8.452083255e-22
5.927204069e-21
1.100470884e-20
5.02266414e-21
2.18627094e-21
1.135741955e-20
1.199186799e-20
4.75137528e-21
1.469580756e-21
1.886136403e-20
1.04499261e-21
3.056451846e-21
3.69949172e-21
1.402350322e-21
8.672566716e-23
1.886895438e-20
4.793781813e-21
3.173578533e-21
2.025079719e-20
7.518685539e-22
1.912830012e-21
1.143197713e-21
4.959297347e-21
3.124168687e-22
1.539847486e-20
3.795201387e-21
1.549478607e-21
1.706725595e-21
5.455107506e-21
6.113864501e-21
3.871414318e-21
7.282910164e-21
8.830870411e-21
1.546277352e-20
4.22119574e-21
1.060578808e-21
2.551865398e-21
9.333559409e-22
8.884129639e-23
1.126126875e-21
4.268700857e-21
4.511869045e-21
7.16218276e-22
3.210670247e-21
1.499231184e-21
5.788777881e-22
1.766030674e-20
3.430563937e-22
3.160549466e-21
1.502952795e-20
2.833011468e-21
2.474251529e-22
5.184387864e-21
4.388544662e-22
1.829772068e-21
2.399412713e-21
3.529872278e-22
2.673741804e-22
1.025534832e-20
2.108638953e-21
7.589437355e-21
3.979925037e-21
5.996835119e-21
3.416483404e-21
9.530672159e-21
2.800855948e-21
2.502156931e-21
1.824285974e-20
4.295970992e-21
1.550895525e-21
2.693594445e-21
8.733712374e-21
1.917851248e-21
1.599534311e-20
5.898185557e-22
2.520925779e-21
1.536598363e-21
2.916546698e-21
2.435916538e-21
3.922881571e-21
1.287262811e-20
1.61436331e-22
5.331956979e-21
4.2053776e-21
2.28881305e-20
6.289135655e-21
1.945374089e-20
1.538290876e-21
3.058994965e-21
7.435185357e-21
3.943586157e-21
1.541886036e-21
5.722763268e-21
6.391121114e-21
2.550212966e-21
1.510440459e-21
1.061251942e-22
8.282671373e-21
9.134418303e-21
2.659505756e-22
2.889373163e-21
5.980873151e-21
9.797716613e-21
2.110317358e-21
5.359139744e-21
1.158444526e-20
5.055026012e-21
7.317105318e-21
7.715275223e-21
1.406402537e-22
5.368853535e-21
7.799804341e-21
1.418911726e-20
2.428902575e-21
6.242612064e-22
7.263330419e-21
3.397670756e-21
9.690335388e-21
5.871258378e-21
1.155873759e-21
1.418815764e-21
7.879890076e-21
1.401821219e-22
1.598278551e-21
2.86856764e-22
6.053427509e-21
1.983688175e-22
1.132340335e-21
3.805705227e-21
1.594050174e-21
9.114100855e-21
1.072893075e-20
3.842731747e-21
3.616198803e-22
1.561768502e-20
7.787521925e-22
1.429265815e-20
4.013783681e-21
1.42759585e-21
3.956844454e-21
1.164179085e-20
7.702445464e-23
2.100556205e-21
6.244465266e-21
2.772104398e-21
2.219783425e-20
3.068300431e-21
3.117095226e-20
7.484013539e-21
1.47263867e-21
1.86332323e-21
3.315269386e-22
9.940271502e-22
1.248447845e-21
5.625430513e-21
1.039549863e-21
7.78092994e-21
8.293714751e-21
6.374613253e-21
2.933654439e-21
2.185175597e-21
1.253738851e-20
1.09296873e-20
6.628267878e-21
3.016441497e-21
1.554476241e-20
3.836420084e-22
9.064374234e-22
5.950324512e-21
8.1879736e-21
6.033846901e-22
5.833498804e-21
3.108125787e-21
5.585952049e-22
2.523283052e-21
3.435253349e-21
1.291438734e-20
7.681296913e-21
2.521702052e-21
2.037517436e-21
4.393055338e-21
1.690382658e-21
2.139739032e-21
5.311493645e-21
9.762027858e-22
6.568074565e-21
4.881540404e-21
4.512725566e-22
1.708338279e-21
2.111877162e-21
4.207923526e-22
3.899871802e-22
9.746425424e-21
4.100029409e-21
1.191661784e-21
7.066661481e-22
6.850737411e-22
7.101720724e-22
2.941433789e-21
1.651843094e-20
1.438521401e-21
1.3416473e-21
1.585149717e-22
2.852548814e-21
8.515938114e-22
3.214816544e-21
1.818587891e-21
8.586753624e-21
1.395736205e-22
8.942190933e-22
2.880282035e-21
9.816416044e-22
9.709255763e-22
5.197436223e-22
6.018839055e-21
4.360380368e-22
4.21549944e-21
1.11144253e-21
1.29739974e-20
7.254250068e-21
6.880265012e-22
1.638313325e-21
3.364215728e-22
4.636638533e-22
5.549385014e-21
1.074996768e-20
7.529940518e-23
2.231770108e-22
1.395466129e-21
1.078587378e-20
1.261907257e-20
8.235340603e-22
1.477191881e-20
2.406397191e-21
3.594263672e-21
1.217465881e-21
1.349301973e-20
2.046485557e-21
7.475810863e-21
2.148714997e-20
4.290467447e-21
1.801525218e-21
4.019589787e-21
1.566661752e-20
2.804629528e-20
1.228158321e-20
4.227429689e-21
7.218632709e-21
6.435246151e-22
1.142083649e-20
2.392205308e-21
6.756015827e-21
1.372567299e-21
3.986808292e-22
2.190316371e-21
1.233591142e-21
8.422413659e-22
4.023159098e-21
1.157414698e-22
1.631395259e-20
4.546823444e-21
1.615300559e-21
6.066536928e-21
4.842357724e-21
1.061031798e-20
6.86693075e-22
1.553531469e-21
1.517485725e-21
1.034175617e-21
3.551315882e-22
1.491259029e-21
3.133026791e-21
2.220617114e-21
2.052700273e-21
1.402465464e-21
2.095033481e-21
1.183499174e-20
3.400140528e-22
9.586306397e-21
1.071894711e-21
2.293658976e-20
1.218793207e-21
3.717950956e-21
2.74673031e-21
3.933505727e-21
4.754330032e-21
6.177527163e-21
9.172117179e-22
3.679185582e-21
4.820438631e-21
8.393115672e-21
2.628110605e-23
3.817547155e-21
1.684440471e-20
6.248901584e-21
7.162105334e-23
1.946303458e-22
5.696521076e-21
2.46304841e-22
9.914431232e-21
5.119790563e-21
1.975220737e-21
3.619316644e-22
3.857175901e-21
8.215071362e-22
7.355173228e-22
2.949170197e-21
5.50209375e-21
3.718945246e-21
1.143126089e-20
2.722530729e-20
1.282356304e-22
1.936522848e-21
1.077616058e-20
1.217149846e-21
4.171981074e-21
3.454553913e-21
1.013360097e-20
3.104244835e-21
8.184480332e-21
3.629875145e-21
5.660077636e-21
7.31506473e-21
4.155335231e-21
6.796267256e-23
5.558075113e-22
9.787723948e-21
1.145430627e-21
3.238819193e-21
1.553561208e-21
1.609501123e-20
4.125917644e-21
6.924540583e-21
1.091538315e-20
5.984174807e-21
2.257693344e-21
4.79600401e-21
5.896295846e-21
1.517710143e-21
1.778526076e-21
7.553907281e-22
9.720523815e-21
3.442257614e-21
4.581231136e-23
5.606622503e-21
1.394444868e-20
4.678417175e-22
6.288172044e-21
4.98280578e-21
8.096338966e-23
3.091426774e-21
4.298918994e-21
2.765878755e-21
2.030011895e-21
5.792357239e-21
1.347408939e-20
3.045959598e-22
8.927627184e-21
6.988391673e-21
5.019984683e-21
1.456427568e-21
6.346009885e-21
4.07046475e-21
1.689521828e-21
1.116304874e-22
1.390104918e-22
5.696999576e-21
3.822869795e-21
8.686279294e-21
3.201054247e-23
9.938326495e-21
1.59192411e-20
4.910845926e-22
1.374185098e-21
4.206157066e-21
1.115661587e-21
7.460304374e-21
2.597576003e-22
1.137330432e-21
6.830802761e-21
1.342064533e-21
3.496038133e-21
4.023249423e-21
2.970113975e-21
3.324768082e-23
6.865166959e-21
7.723945682e-21
3.281819829e-20
3.284401574e-21
7.721690628e-21
1.080821655e-20
3.246105953e-21
2.138234842e-21
2.826917467e-21
3.196410478e-21
9.695655857e-22
1.422328217e-20
1.057968154e-21
2.649371963e-21
1.647738969e-21
5.040707579e-21
2.975232397e-22
2.913859409e-21
2.6957873e-23
5.394559787e-21
2.895330208e-21
8.979420181e-22
1.197721154e-21
2.468831994e-21
1.397208535e-20
7.108964494e-21
4.093411333e-21
1.826876942e-21
6.275561708e-21
4.257486058e-23
3.03792036e-21
2.231977254e-21
2.184108658e-21
6.466712178e-21
2.544260326e-21
3.40564179e-21
4.671050271e-21
4.103515716e-23
6.792196231e-21
6.468684146e-21
2.260193901e-21
4.48326046e-22
5.824007854e-21
1.270182588e-20
3.656768576e-21
2.502890752e-21
4.212937197e-22
6.542234741e-21
1.199226039e-20
7.034666556e-21
6.91996003e-21
5.845504034e-22
4.245406661e-22
4.783800365e-21
9.322778818e-22
1.469169278e-20
2.618249304e-21
1.004210383e-20
7.287724943e-22
1.985825076e-23
4.756751668e-22
1.268521761e-20
1.46332327e-20
2.198777971e-21
5.884068228e-21
1.338956351e-20
1.708109796e-23
2.962925306e-21
8.257930701e-21
7.088898676e-21
1.921931756e-21
8.717865156e-22
4.987143677e-21
6.02941365e-21
5.567398655e-21
3.401842901e-21
2.272331319e-21
5.415389824e-21
5.017423766e-21
5.693401677e-21
1.045751201e-20
2.065967574e-20
4.200746036e-21
3.427997385e-22
1.151415443e-20
6.01680379e-21
1.692815782e-20
1.106061814e-20
8.107249153e-22
2.325907239e-21
2.804084448e-21
8.697043109e-22
2.031304215e-21
2.155600671e-21
9.339855532e-22
7.161470713e-21
7.521332876e-21
1.387205937e-22
4.573861781e-21
2.373468144e-22
4.470610112e-21
8.645614027e-21
1.103674306e-20
8.713645176e-21
3.253068893e-21
1.875686562e-21
3.686715347e-21
1.452996321e-21
2.263790504e-21
1.04515906e-21
4.960400893e-22
7.235740608e-21
6.170723728e-22
3.02519946e-21
8.914530609e-22
3.77738174e-21
1.584447982e-21
7.925999115e-21
2.419968452e-21
1.226378712e-20
2.20359239e-21
4.239072866e-21
7.565735955e-21
6.397963144e-21
9.721787721e-22
5.950332117e-21
3.417484853e-21
3.779353086e-22
7.249549924e-22
2.368841051e-21
3.485589931e-21
1.391967077e-21
2.1116471e-21
5.85843883e-23
1.597350336e-20
1.576177299e-21
1.36904369e-21
3.545398504e-21
1.031323791e-21
2.828801756e-21
5.993522586e-21
2.965917301e-21
5.4404839e-21
3.062195758e-21
4.368065411e-22
1.218196694e-20
5.974773941e-21
2.593491066e-21
1.124305048e-21
1.615107755e-20
3.297416815e-21
1.21814596e-20
1.738550232e-21
3.530973906e-22
1.562634689e-21
1.747323577e-21
1.506197347e-22
1.984152673e-21
1.039085698e-20
1.229649173e-21
3.643242938e-22
6.597145859e-21
1.02631574e-22
8.46970269e-22
5.280405652e-21
8.88400037e-21
3.215152478e-22
1.440042868e-21
8.277165198e-22
4.217606065e-21
2.677822553e-21
7.27686836e-21
7.693518878e-22
1.749710602e-21
5.396191809e-21