/*--------------------------------*- C++ -*----------------------------------*\
| =========                 |                                                 |
| \\      /  F ield         | OpenFOAM: The Open Source CFD Toolbox           |
|  \\    /   O peration     | Version:  2406                                  |
|   \\  /    A nd           | Website:  www.openfoam.com                      |
|    \\/     M anipulation  |                                                 |
\*---------------------------------------------------------------------------*/
FoamFile
{
    version     2.0;
    format      ascii;
    arch        "LSB;label=32;scalar=64";
    class       labelField;
    location    "0.008/lagrangian/dsmc";
    object      origId;
}
// * * * * * * * * * * * * * * * * * * * * * * * * * * * * * * * * * * * * * //


6228
(
340643
339348
341766
399136
342557
342477
342454
342726
397906
343663
399044
341498
398521
397682
342643
397714
343797
400884
342392
343900
399745
342592
342956
343011
343767
342559
401158
341320
342290
341770
342822
342829
343336
396526
342654
342657
343540
343608
344128
342958
343574
401653
394031
397802
341903
342920
342963
343353
343431
343808
344244
343112
343563
343582
343749
345096
400859
399443
343121
343368
343643
343882
344063
344175
344529
344602
344773
398014
400852
342175
342668
342749
343084
343626
343998
344159
344414
344588
400569
401684
342131
342310
342578
342950
342983
342988
343275
343386
343476
343715
343892
343899
344060
344223
344228
344263
344292
344342
344582
344656
40562
399423
400674
342460
342681
343077
343277
343286
343383
343444
343592
343633
343639
343711
344016
344033
344061
344115
344158
344200
344402
344505
344673
344126
347452
347544
401069
348423
342384
342772
342847
342904
343027
343261
343455
343575
343638
343720
343885
343994
344131
344145
344160
344251
344256
344319
344409
344454
344658
343868
401065
343007
343066
343364
343439
343535
343623
343699
343717
343743
343794
343822
343973
344142
344473
344503
344524
344710
401999
344877
346038
342358
342485
343464
343468
343612
343801
343811
343961
344004
344023
344088
344138
344318
344501
344599
344660
344707
344766
344772
344806
401482
401366
401255
401670
401657
343426
343792
343958
343969
344049
344065
344087
344259
344269
344300
344435
344479
344483
344603
344612
344619
344657
344712
344735
344736
344857
344969
345036
345205
345284
345387
345564
399730
400237
398410
343714
400965
40609
401856
401685
343069
343557
343645
343725
343839
343981
344057
344162
344248
344271
344315
344332
344338
344339
344417
344432
344594
344711
344759
344844
344868
344885
344937
345047
345083
345095
345201
345211
345235
345488
401893
399236
343869
343085
343701
342442
343206
343542
343572
343580
343890
344081
344089
344240
344243
344264
344330
344423
344426
344436
344506
344511
344595
344671
344695
402001
344964
345040
345050
345169
345218
345226
345289
345314
400972
345435
345472
346066
346585
401889
402300
349035
401994
402293
350265
399116
345187
342163
343105
343433
343636
344018
344099
344250
344290
344356
344397
344411
344482
344663
344677
344689
344700
344799
345073
345112
345121
345125
345207
345245
345394
345641
347188
347989
401574
349395
402096
350448
40635
40636
401166
341328
342933
343432
343541
343798
344046
344058
344252
344406
344516
344592
344601
344616
344662
344672
344679
344776
344890
344895
344939
345053
345163
345224
345295
345372
345383
345392
345504
345633
346076
346219
349126
349302
349483
402703
402609
349916
399209
401784
342914
343543
343881
343933
343972
344085
344321
344335
344336
344344
344364
344379
344400
344502
344514
344574
344576
344696
344764
344802
344833
344854
344858
344886
345028
345048
345062
345139
345209
345243
345244
345416
345464
345629
345885
346839
347361
349034
349036
349222
349829
400356
343354
343533
343906
344347
344485
344553
344704
344751
344778
344916
344966
345035
345041
345148
345231
345238
345321
345323
345334
401492
345362
345477
345505
345559
345669
345671
345700
345833
345866
345929
345973
344825
401892
402094
345618
402199
349915
344659
350625
40670
343629
343752
344174
344257
344360
344430
344457
344493
344504
344540
344567
344630
344752
344760
344768
344784
344795
344798
344860
344942
345015
345030
345045
345056
401384
345118
345120
345138
345150
345151
345159
345213
345219
345239
345278
345317
345378
345428
345466
402526
345532
345576
345747
345788
346069
346175
346234
402607
346324
345107
401759
348249
399556
348770
345701
349221
345530
349998
401981
398457
402411
343384
343997
344272
344326
344346
344365
344408
344410
344416
344420
344448
344451
344475
344562
344610
344675
344765
344780
344867
344931
344984
345017
345025
345049
345058
345072
345075
345087
345091
345137
345147
345220
345276
345318
345454
345462
345554
345556
345574
345585
402095
345658
345691
345754
345795
345823
402821
345985
346082
346230
401483
346364
346415
346582
398471
348674
348769
401985
344831
40680
40681
400338
399618
402517
343988
344084
344220
344253
344376
344392
344490
344581
344586
344767
344810
344829
344901
344959
344978
345057
345115
345145
345152
345236
345305
345329
345333
345343
345385
345418
345473
345587
345595
345639
345649
345666
345668
345680
345689
345725
345756
345768
345786
345816
345836
345842
345859
345886
345917
345927
345990
346000
402819
402715
346586
346756
402192
402603
349394
402930
350355
350446
401184
40696
402258
400051
403008
343370
343780
343897
344100
344140
344275
344460
344461
344614
344623
344668
344761
344769
344837
344839
344936
344962
344990
345022
345066
345068
345070
345094
345134
345221
345229
345254
345292
345306
345315
345324
345375
345376
345391
345397
345413
345415
345460
345475
345483
345485
345499
345540
345578
345579
345738
402307
345818
345865
345939
345969
346032
346167
346338
346708
346946
402277
402693
401481
403018
403003
398195
342032
344024
344083
344241
344491
344888
344938
345021
345034
345077
345089
345131
345216
345222
345253
345285
345300
345312
345322
345341
345388
345395
345414
345432
345438
345453
345474
345478
345538
345592
345657
345773
345798
345826
345851
345942
345953
346014
346060
346062
346083
346198
346206
346228
346271
346276
346549
403126
403013
403843
402816
348420
348676
349127
349393
350264
401873
40706
342123
398015
344555
344113
344565
344572
344578
344583
344584
344720
344787
344807
344855
344889
344955
345055
345081
345232
345234
345304
345339
345350
345365
345407
345417
345458
345468
345492
345497
345503
345514
345601
345644
345655
345661
345734
345739
345763
345769
345804
345814
345845
345913
345918
345984
346023
346026
346080
346103
346124
346171
346258
346320
346337
346344
346357
346472
346555
346904
347538
348419
402513
346316
345197
350263
402194
350977
351059
40716
40718
400523
344558
344474
402399
344067
344166
344324
344585
344718
344749
344848
344859
344926
344932
344935
344951
344954
344961
344974
345054
345140
345155
345161
345249
345267
345296
345403
345437
345537
345544
345631
345690
345713
345719
345749
345821
345864
402612
345884
345919
345937
403022
345964
345978
345982
346003
346006
346009
346050
346052
346092
346218
346286
346306
346325
346365
346427
346508
346732
346924
347184
402297
348248
403006
402520
348768
349828
349914
403116
350354
350537
350712
402928
40729
400673
401074
401308
401984
344114
344226
344510
344626
344786
344796
344856
344940
344967
344968
345060
345067
345215
345274
345481
345558
345577
345604
345638
345679
345726
345745
345757
345811
345903
345920
345921
345922
345941
345965
346029
346075
346102
346120
346121
346212
346253
346263
346295
346342
346352
346358
346414
346492
346523
346527
346534
346536
346577
346659
346738
346786
346820
346824
346984
347629
403213
347987
403629
403735
403941
404242
350444
350798
398692
401083
402272
342649
403214
343184
344014
344587
344674
344683
344762
344832
345090
345223
345251
345308
345326
345363
345368
345386
345404
345406
345409
345425
345467
345510
401682
345551
345571
345572
345584
345591
345599
345606
345652
345659
345664
345720
345723
345730
345758
345759
345805
345809
345892
345897
345995
346022
402202
346057
346065
346084
346145
346262
346266
346299
346317
346346
346437
346466
346473
403431
346639
346657
403630
346677
346725
346740
346747
346783
346829
403432
346907
346928
346952
347011
347250
403414
403319
403608
349481
349913
402611
350082
402705
346144
351407
40737
403522
401386
343762
343880
343908
344167
344196
344664
344680
344699
344745
344862
344879
344943
344977
345024
345143
345189
345250
402524
345379
345463
345471
345480
345482
345623
345626
345665
345771
345799
345806
345844
345854
345966
345989
345997
345999
346004
346089
346100
346101
346139
346169
346172
346178
346188
346195
346205
346240
346280
346281
346309
346353
346425
346448
346478
346526
404156
346601
346656
346965
347013
347114
347260
403323
401890
403220
403119
345277
402925
344249
344569
344604
344963
344976
345026
345165
345233
345316
345319
345373
345398
345401
345498
345541
345557
345581
345589
345647
345656
345724
345743
345746
345761
345796
345808
345832
345899
345915
345930
345979
346005
346013
346025
346070
346098
346110
346149
346150
402408
346237
346283
346301
346377
346420
346435
346463
346477
346531
346573
402407
346645
346682
346712
346865
346882
346910
346948
346953
346989
347149
347155
347450
403745
404247
346850
349123
349736
349826
402406
346422
350976
402917
351233
351672
40760
40761
399949
400858
343551
345192
344865
344952
344953
345011
345032
345194
345217
345266
345279
345297
345302
345402
345506
345511
345549
345568
402718
345628
345646
345687
345717
345722
345752
345764
345789
345790
345835
345839
345840
345843
345908
345986
345993
346027
346054
346063
346079
346081
346106
346125
346166
346193
346321
346371
346378
346453
346459
346491
346522
346529
346543
346558
346561
346612
346662
346698
346707
346721
346800
347049
347181
347500
403620
343864
403839
349031
349479
350443
404027
351058
402413
351766
40770
40771
40772
399540
344246
346248
345116
345153
345158
345162
345307
345552
345583
345617
345648
345651
345653
345741
345800
345893
345936
345962
345970
345977
346015
346055
346077
346194
346202
346257
346327
346345
346354
346366
346387
346429
346464
346470
346542
346552
402415
346617
346798
346806
346878
346950
346972
347143
347160
345533
347448
403520
348671
404038
345890
350081
350174
351316
40784
396641
402152
343785
402395
346941
341454
344615
344965
345043
345051
345291
345469
345489
345547
345597
345740
345819
345846
345849
345882
345935
345971
345976
346095
346108
346148
346170
346199
346201
346296
346300
346334
346349
346355
346362
346441
346442
346481
346512
346515
346520
346533
346556
346600
346633
346654
346667
346684
346702
346709
401477
346862
346871
346883
346983
347019
347043
347044
347171
403842
347433
347463
403325
403939
348945
349124
349220
349391
399091
349480
403622
345875
404248
404665
351577
40793
40794
40795
392322
400328
399613
402283
400633
343844
344429
344691
345064
345142
345240
345330
345377
345567
345590
345643
345704
345715
345716
345735
345737
345813
345975
345983
345987
346056
346074
346085
346182
346184
346242
346254
346267
346290
346304
346326
346328
346339
346363
346452
346460
346507
346553
346569
346608
346610
346642
346655
346700
346731
346741
346782
346905
346914
347064
347081
347087
347090
347115
347255
347539
403019
347765
348247
348326
404553
403324
403331
403829
349647
404250
350620
404043
404443
403523
40805
40806
40807
40808
398366
342216
398576
401285
401170
401476
344661
400778
341978
342739
403117
403224
343896
344418
344948
345122
345382
345512
345794
345810
345812
345878
345931
346068
346088
346104
346111
346112
346151
346164
346190
346265
346273
346284
346340
346386
346392
346426
346545
346550
346563
346603
346636
346643
346647
346651
346663
346691
346699
346711
346880
346911
346955
347003
347004
347035
347067
347129
347157
347211
347222
347299
347331
347410
347710
403413
403118
404251
350621
402904
351852
352121
40819
40820
395894
397774
343774
403017
345136
402919
403201
404229
345023
345124
345632
345640
345670
345727
345766
345797
345807
345820
345837
345887
345896
345923
345924
345968
345972
346128
346197
346250
346287
346297
346385
346388
346417
346455
346465
346535
346540
346567
346574
346609
346618
346620
346637
346703
346755
346789
346792
346811
346869
346870
346884
346990
347005
347027
347047
347073
347076
347128
347139
347170
347246
347254
347313
347328
347485
347562
347846
347877
404252
404352
349478
404550
405375
402810
351851
40824
40825
400559
399909
402700
345298
402773
405060
343867
344424
344985
345166
345311
345393
345410
345479
345500
345582
345676
345688
345906
346007
346064
346073
346078
346086
346087
346141
346158
346179
346200
346260
346282
346330
346376
346430
346447
346457
346458
346484
346541
346548
346605
346629
346649
346658
346660
346716
346720
346729
346836
346852
346868
346895
346897
346923
346998
347001
347054
347065
347089
347141
347154
347293
347316
347353
347375
347383
404664
404350
404858
350351
350352
404035
351406
345967
40827
40828
40829
396733
400129
398928
401324
344481
402499
403225
344328
345177
345765
345824
345901
346016
346094
346113
346114
346154
346162
346180
346251
346259
346291
346305
346369
346370
346393
346517
346554
346559
346560
346572
346615
346619
346624
346630
346631
346634
346665
346690
346745
346772
346778
346781
346809
346815
346818
346863
346872
346881
346889
346986
346988
347055
347062
347112
347123
347137
347167
347203
347224
347232
347274
347330
347344
347373
347674
347799
347808
403931
404531
403831
351765
404640
352119
40838
404727
345622
345204
345208
345338
345721
345831
345834
345852
345867
345938
345958
345988
403128
346255
346268
346279
346285
346347
346374
346394
346451
346469
346530
346606
346622
346689
346735
346775
346776
346779
346784
346788
346790
346874
346996
347050
347056
347121
347153
347205
347245
347252
347263
347317
347322
347409
347466
403740
347714
348857
349121
405357
350080
403832
404151
351405
351671
40844
40845
40846
40847
40848
399342
401172
402397
342587
402391
342987
345369
401345
345384
397501
344843
345071
345299
345509
345570
345711
345742
345905
345910
345996
346002
346091
346105
346211
346241
346272
346289
346332
346367
346486
346546
403945
346650
346717
346718
346777
346810
346814
346825
346827
346899
346964
346970
346979
346985
347040
347071
347083
347093
347127
347133
347140
347146
347151
347237
347333
347339
347407
347413
347441
347453
347487
347561
347607
347657
346674
347908
348043
348327
348581
404150
405051
405058
349734
350881
352202
40852
394446
397010
402100
400645
345452
347638
344320
344530
344850
345637
345858
403333
345994
346020
346152
346249
346256
346261
346292
346390
346432
346439
346445
346462
346539
346547
403529
346710
346752
346802
346847
346879
346891
346960
346981
347036
347070
347136
347156
347213
347215
347301
347388
347411
347412
347426
347436
347464
347484
347654
347885
347969
348040
348506
348586
348672
348946
404253
349823
349824
350079
404448
345888
351139
352468
40856
40858
40859
398041
399349
400632
401155
401368
343859
345364
348016
345706
345008
345301
345420
345894
345933
346017
346049
346072
346093
346097
346208
346274
346275
346319
346348
346361
346418
346450
346623
346640
346644
346706
346728
346764
346771
346817
346867
346886
346967
346973
346992
346995
347061
347068
347078
347122
347135
347161
347174
347244
347296
347399
347468
347483
347488
347512
347549
347566
405279
347748
347768
347787
347837
347884
347893
347936
348067
348108
348160
348943
403616
350172
351315
347912
346607
40863
40864
40866
398268
399633
400153
400832
400568
343358
344304
343162
403110
400958
401880
403209
404054
403723
403104
403928
403000
345389
346107
346157
346176
346277
346318
346449
346479
346571
346614
346635
346641
346652
346693
346722
346724
346750
346796
346819
346968
346974
347048
347059
347063
347069
347085
347108
347116
347130
403840
347230
347305
347306
347336
347347
347390
347422
347489
347490
347535
347536
347711
347771
347773
347855
347930
347942
347983
348005
348124
348181
404964
348546
404761
350173
405261
351763
405663
403626
40876
40877
398826
398705
399010
399686
402791
400969
401818
402582
345111
402099
345561
404347
346246
346168
405161
345237
345400
345507
345672
345991
346174
346235
346252
346351
346373
346380
346434
346444
346446
346621
346687
346864
346885
346894
346908
346915
346962
347000
347051
347079
347096
347120
347145
347164
347216
347228
347229
347233
347298
347320
347325
347327
347382
347404
347506
347581
347591
347594
347595
347608
347652
347659
347660
347666
347686
347739
347830
347839
347840
347905
347961
348036
348227
404040
348274
403940
348665
405159
405677
403737
352200
402483
40887
40888
40889
40891
400229
343956
400528
401882
343959
400607
402186
402805
402922
404460
343544
344407
405573
405782
405666
345117
345230
345828
345926
346061
346196
346270
346343
346475
346510
346544
346695
346812
346831
346858
346893
346901
346919
346938
346951
347030
347045
347052
347074
347075
347084
347086
347098
347104
347159
347256
347270
347292
347324
347329
347389
347402
347495
347504
347516
347563
347570
347578
347593
347597
347604
347615
347680
347698
347704
347755
347756
347792
347925
347971
348023
348059
348070
348101
348135
348183
348312
348376
348719
405483
349390
350534
351850
352201
352805
40894
40895
40896
40898
40899
40900
40901
390477
399741
402708
344311
344777
346599
344127
401786
405146
347822
343784
345645
345803
345909
346247
346341
346359
346454
346488
346557
346604
346628
346832
346866
346976
347039
347053
347105
347201
347271
347294
347300
347303
347417
347418
347478
347479
347481
347486
347511
347527
347571
347617
347679
347745
347747
347750
347757
347769
347770
347778
347781
347836
347841
347947
347974
347982
347998
348026
348054
348061
348119
348137
348156
348193
348216
348245
348279
348396
348453
349029
404749
404463
352117
40911
40912
40913
40914
40915
40916
40920
397856
400857
396639
400765
401764
401853
403424
345470
400659
345210
345465
345575
346011
346159
346177
346350
346360
346382
346518
346519
346525
403632
346704
346736
346737
346830
346876
346896
346900
346975
346994
347033
347150
347231
347236
347290
347416
347419
347424
347427
347499
347522
347553
347568
347574
347582
347583
347587
347690
347697
347699
347743
347791
347878
347928
348009
348039
348099
348391
348477
348612
348644
349118
404136
349911
350258
346598
347291
351576
348087
351762
40927
40928
40929
40930
386902
345546
344842
404841
344265
345419
345534
345801
346187
346411
346627
346714
346739
346762
346963
346977
347032
347037
347111
347113
347131
347227
347235
347238
347258
347315
347323
347342
347377
347394
347401
347414
347528
347602
347616
347651
347753
347804
347852
347865
347873
347929
347934
347972
348041
348050
405054
348164
348224
348275
348358
348360
348370
348387
348426
348437
348444
348458
348561
348643
348650
348664
348709
406597
349218
349255
349301
349387
349392
404957
350078
350171
405565
405680
351670
351849
40933
40934
40935
396754
396999
398793
400015
401569
400242
401152
402308
401953
402608
403846
345020
346236
347204
404045
405576
344770
346053
346067
346269
346416
346538
346723
346791
346822
346833
346860
346925
346969
347007
347132
347197
347234
347251
347272
347310
347312
347348
347351
347386
347405
347421
347443
347471
347508
347519
347573
347596
347609
347610
347611
347667
347678
347682
347691
347694
347713
347754
347767
347796
347826
347828
347833
347847
347856
347876
347931
347950
347962
348010
348019
348028
348031
348038
348060
405582
405895
348189
348204
348221
348263
348307
348382
348390
348452
348481
348488
348540
348626
348750
348763
349027
349039
405683
349447
404446
406691
351312
352118
352551
352988
353073
394475
396747
399879
400353
400428
400866
402084
345447
347107
347302
346945
401777
346528
346632
346794
346826
346875
346890
346903
347009
347066
347162
347163
347166
347202
347220
347240
347243
347261
347343
347434
347469
347518
347537
347567
347603
347606
347640
347675
347737
347741
347784
347793
347798
347823
347860
347879
347922
347941
347949
347975
348021
348052
348074
348075
348148
348185
348195
348210
348269
348271
348352
348451
348463
348474
348518
348542
348634
348786
348813
348921
348976
349195
349217
406495
406195
405667
404742
350168
405675
402714
351313
406470
352116
40941
40942
40943
40944
40945
40946
40947
393938
397955
398551
343883
399315
403235
401078
401590
401680
401888
346683
346936
343692
403943
403746
406182
345160
346165
346431
346625
346626
346892
346959
347034
347042
347217
347226
347368
347384
347400
347406
347425
347456
347460
347477
347498
347501
347510
347586
347601
347662
347672
347759
347766
347777
347782
347831
347844
347857
347867
347870
347940
347954
347956
348112
348128
348131
348209
348267
348273
348287
348293
348322
348405
348747
348819
348932
348972
405676
405367
350169
350259
351314
351575
351666
351668
351669
351848
348344
405262
348446
352803
40956
40957
40958
40959
40960
40961
40962
40964
397357
401280
346146
401926
344499
346433
341450
394362
406592
401460
345817
346051
346099
346192
346421
346733
346742
346793
346913
346982
346993
347025
347058
347119
347126
347242
347297
347332
347372
347376
347395
347397
347415
347432
347507
347585
347592
347665
347670
347681
347760
347772
347779
347832
347880
347943
347944
348015
348018
348055
348064
348068
405796
348090
348142
348152
348174
348176
348184
348186
348214
348276
348366
348375
348448
348478
348555
348562
348723
348732
348753
405477
348905
349017
349115
406595
349565
406596
406087
352115
407506
347910
353161
353162
353429
40972
390421
388730
398203
340987
398664
342908
399449
402503
402390
402178
344758
402463
346323
344124
401376
401870
403933
403719
345787
405458
346597
344570
404954
344255
404652
346264
346368
346692
346734
346949
346957
347158
347219
347225
347334
347492
347513
347515
347517
347569
347572
347642
347664
347668
347731
347746
347776
347780
347802
347863
347889
347902
347911
347927
347935
347945
347967
347970
348003
348011
348025
348035
348110
348113
348115
348120
348123
348187
348199
348202
348270
348310
348318
347634
348431
348442
348455
348465
348496
348497
405370
348528
348553
348554
348730
348742
348818
348841
348878
348988
349044
349093
349173
349586
349596
349733
349912
405369
405685
351667
352374
406200
407114
353690
40976
40978
388326
399123
399180
398874
399702
400249
398915
400352
400917
399120
401666
400460
400750
401977
401727
402054
345712
404116
344913
398111
343483
404847
344924
344557
345358
398575
346513
346551
346696
346797
346804
346888
346980
347038
347060
347144
347241
347354
347403
347420
347475
347502
347577
347605
347650
347685
347693
347696
347834
347853
347864
347938
348002
348004
348046
348104
348114
348121
348139
348233
348235
348281
348316
348319
348385
348408
348459
348476
348567
348623
348649
348707
348740
348812
348853
348887
348979
406499
349048
349098
349821
350170
350439
405881
40981
40982
40983
398263
398273
398380
399621
398265
400271
401638
344313
401757
402813
344405
342984
401358
402933
403410
403418
403624
405053
405137
343347
343517
344361
346480
346694
346805
347091
347124
347138
347314
347321
347340
347345
347379
347589
347590
347676
347677
347761
347775
347789
347824
347825
347835
347946
347963
348001
348017
348037
348133
348150
348154
348179
348212
348229
348266
348285
348305
348355
348372
348378
348413
348436
348501
348512
348535
348601
348608
348683
348746
348764
348805
348822
405366
405990
348904
348924
348926
348936
349075
349078
349099
349495
349707
350262
350617
350878
351137
351230
405424
353526
346329
40990
40991
40992
40993
40994
40995
40996
40997
398100
398704
400421
400756
398932
401972
401586
401668
401581
402156
347554
404349
405478
406377
404047
345662
345848
346803
346857
346906
346956
347041
347206
347247
347248
347311
347393
347408
347473
347565
347588
347689
347727
347738
347763
347785
347803
347859
347891
347918
347937
347952
347955
348013
348044
348045
348057
348091
348105
348109
348129
348141
348203
348257
348283
348393
348403
348428
348438
348492
348577
348579
348606
348610
348617
348708
348810
348811
348830
348864
348865
348874
348901
348907
348942
405897
348978
348981
348985
348992
348993
349091
349095
349113
349150
349158
349260
350026
350349
406998
407523
352113
352114
404254
406698
352894
353342
41001
41002
397571
398068
393543
400461
400639
401468
400425
399467
400947
401470
403204
401842
345635
402515
346514
346155
402894
405374
344401
400119
346336
346381
346898
347249
347289
347326
404760
347509
347669
347749
347762
347869
347913
347915
347933
347953
347968
348033
402296
348158
348162
348188
348192
348280
348286
348342
348361
348395
348456
348502
348565
348593
348619
348651
348694
348735
348757
348765
348795
348808
348846
348915
348940
348990
349064
349165
349198
349267
405794
349569
349785
349910
406588
350710
406093
348171
352722
407110
353428
353870
344476
41006
41007
398573
399025
400462
401157
403165
401151
399397
400334
401654
401891
400355
401387
401963
402601
402338
403514
401836
400895
343351
344478
404163
403934
347641
397166
400214
406880
407327
346715
347209
347223
347494
347576
347649
347658
347786
347849
347858
347861
347951
348007
348030
348034
348048
348053
348058
348143
348145
348168
348198
348282
348290
348291
348304
405898
348350
348363
348364
348374
348384
348389
348392
348400
348450
348475
348526
348543
348551
348625
348636
348705
348739
348787
348788
348793
348800
348809
348817
348837
348843
348984
348987
348998
349081
349094
349136
349138
349155
349239
349269
349342
349349
349359
350797
406296
405056
406491
351760
351847
353160
348262
404139
41008
41009
41010
41011
41012
41013
41014
41016
391695
400054
389548
400742
400558
401136
399785
402971
402073
401866
404125
403491
403106
402198
346613
404950
397565
346278
346611
346912
346978
346991
346999
347148
347265
347439
347575
347671
347684
347695
347843
347948
348020
348049
348056
348155
348200
348208
348246
348288
348296
405057
348398
406198
348464
348469
348473
348483
348536
348568
348570
348616
348627
348629
348641
348728
348799
348844
348875
348941
349002
349003
349021
349071
349117
349201
349232
349406
405158
406801
352466
405780
406901
406070
347057
354037
41021
41022
41023
41025
41026
41027
41028
392614
399758
399579
399766
397427
401454
402089
400459
400818
402289
345129
401474
342499
404339
393830
405041
402709
404558
405669
406792
407104
343518
403217
347147
347218
347491
347503
347584
347655
347742
347854
347958
347977
348012
348027
348047
348122
348149
348206
348242
348255
348284
348336
348354
348369
348397
348443
348447
348479
348498
348499
348517
348538
348594
348605
348609
348633
348637
348655
348662
348689
348690
348724
348749
348797
348839
348855
348893
348995
349084
349174
349182
349196
349216
349415
349423
349464
349537
349542
349608
349633
349670
349701
349774
349985
407008
350115
350530
351311
406887
352025
407421
348600
404824
41036
41037
41038
41039
41040
41042
399471
399074
400124
401084
400957
401874
402067
402907
346506
401583
403124
402287
343713
404438
346423
402380
346770
344484
343437
345963
404937
342307
347109
405039
346853
405896
404722
407820
347643
404055
346424
347142
347259
347430
347688
347788
405061
347907
347916
348024
348127
348130
348144
348159
348201
348232
348237
348302
348317
348335
348341
348359
348371
348373
348468
348529
348552
348621
348701
348714
348754
348900
348916
348925
348986
349005
349007
349112
349170
349265
349278
349345
349346
349363
349438
349442
349475
349511
349566
406701
349771
349779
350165
350969
351229
406298
351665
351937
408132
406177
406091
354393
404812
41044
41045
41046
41047
41048
41050
41051
394750
392840
397412
385965
398459
399603
398339
401052
399628
401651
401558
400360
401267
340898
343519
399798
401070
400231
344564
401085
400800
403433
402369
344920
403293
399967
403085
344398
403210
405059
403127
346243
342476
346143
346686
346787
346971
347308
347465
347648
347848
347850
347914
347959
348014
348086
348117
348218
348238
348244
348299
348339
348365
348379
348402
348414
348417
348432
348500
348539
348541
348557
348574
348645
348659
348702
348703
348712
348716
348738
348801
348802
348803
348856
348883
348885
348895
348961
348974
349013
349016
349025
349069
406599
349142
349159
349229
349343
349356
349379
349381
349400
349407
349435
406402
349705
349732
350286
350474
350529
350708
407930
350877
407105
352893
406579
353072
405013
407524
353427
348523
354308
41054
41055
41056
41057
396992
398914
399851
401243
401896
400046
401105
401380
401745
402379
398249
404532
405877
347286
405894
401382
403511
403517
407915
401360
345619
345822
347350
347497
347624
347862
347886
347923
347964
348132
348197
348240
348278
348301
348303
348357
348388
348440
348449
348487
348490
348493
348513
348530
348531
348537
348558
348564
348681
348717
348727
348729
348794
348814
348815
348825
348835
348911
348912
349010
349052
349059
349077
349100
349114
349181
349185
349187
349209
349243
349277
349283
349333
349337
406907
349518
349539
349673
349683
349684
349695
349878
350054
350114
350122
350336
350437
407821
408441
405979
351936
352290
353071
349046
353523
408228
405126
406802
354566
41061
41062
41063
41064
41065
41066
41067
41068
41069
41070
41071
392942
398773
398507
399358
399622
397552
400067
398586
399531
401169
399285
400509
400948
400718
402921
399134
399415
401753
403748
403724
402188
404548
345108
406264
346071
399636
407220
349137
403223
343790
405482
406891
347599
347683
347734
347795
347838
347842
347868
347960
348006
348084
348118
348125
348215
348219
348231
348261
348368
348383
348412
348472
348480
348522
348563
348566
348614
348618
348628
348632
348638
348652
348654
348657
348725
348733
348791
348806
348831
348836
348852
348854
348891
348906
348910
348928
348933
348975
348977
348980
349053
349060
349066
349068
349072
349079
349082
349247
349249
349270
349286
349317
349327
349335
349362
349365
349374
349453
349465
406807
349513
349522
349613
349714
349793
406090
350275
350401
351227
347818
351758
352289
353426
406885
407215
353689
407826
354124
41077
41079
41080
41081
41082
41083
41084
41085
397036
395588
398227
397091
399425
400322
399719
401490
343793
401591
402172
401865