/*--------------------------------*- C++ -*----------------------------------*\
| =========                 |                                                 |
| \\      /  F ield         | OpenFOAM: The Open Source CFD Toolbox           |
|  \\    /   O peration     | Version:  2406                                  |
|   \\  /    A nd           | Website:  www.openfoam.com                      |
|    \\/     M anipulation  |                                                 |
\*---------------------------------------------------------------------------*/
FoamFile
{
    version     2.0;
    format      ascii;
    arch        "LSB;label=32;scalar=64";
    class       Cloud<dsmcParcel>;
    location    "0.008/lagrangian/dsmc";
    object      positions;
}
// * * * * * * * * * * * * * * * * * * * * * * * * * * * * * * * * * * * * * //

6228
(
(0.2806940331 0.1978295427 0) 110
(0.3017253999 0.2049817965 0) 143
(0.3028951629 0.1942446009 0) 83
(0.2652096596 0.2308297925 -4.33680869e-19) 288
(0.2889332029 0.2525424927 5.421010862e-20) 411
(0.252219889 0.2086232147 -4.33680869e-19) 197
(0.2423052564 0.2718562405 0) 525
(0.2987281204 0.2413421508 -1.084202172e-19) 353
(0.292626373 0.1922601814 2.710505431e-20) 82
(0.2800439829 0.2533451346 2.168404345e-19) 410
(0.3026835535 0.2080799943 0) 173
(0.2957379404 0.2133820293 -1.084202172e-19) 202
(0.292473958 0.2451168443 2.168404345e-19) 382
(0.2897523005 0.1985504134 0) 112
(0.2942193141 0.2000665237 5.421010862e-20) 112
(0.2984632038 0.2109381037 -2.168404345e-19) 173
(0.251660749 0.1983567469 -4.607859233e-19) 137
(0.2855140562 0.227913547 -5.421010862e-20) 291
(0.3010103831 0.235203234 -2.168404345e-19) 323
(0.2861504952 0.1879560268 1.084202172e-19) 52
(0.3020197673 0.2246122809 -2.168404345e-19) 263
(0.3023186225 0.2193356662 0) 233
(0.2846371572 0.2762804303 -1.626303259e-19) 531
(0.2684947132 0.2189989231 0) 229
(0.3019019163 0.2487330094 0) 383
(0.2587177629 0.2090056517 2.168404345e-19) 197
(0.2853893776 0.2323470321 6.505213035e-19) 291
(0.2850558166 0.1955767541 2.168404345e-19) 111
(0.2983116358 0.2017904375 -8.470329473e-21) 143
(0.300393869 0.2236221111 1.084202172e-19) 263
(0.2658453686 0.2236137317 4.33680869e-19) 258
(0.2286749553 0.2252462451 2.168404345e-19) 284
(0.2963660078 0.2308151956 -5.421010862e-20) 292
(0.2760779208 0.1798127236 3.252606517e-19) 29
(0.2938190214 0.2306895724 -2.439454888e-19) 292
(0.2943565553 0.224580662 1.084202172e-19) 262
(0.2713307232 0.1942881968 5.421010862e-20) 109
(0.2909367492 0.1922701419 0) 82
(0.2943024855 0.2207111695 3.252606517e-19) 232
(0.2957655168 0.2438726112 0) 352
(0.2955940873 0.2564769333 -2.168404345e-19) 442
(0.2971687259 0.2175322976 0) 232
(0.2999944521 0.1942955693 2.168404345e-19) 83
(0.2782215956 0.2225195593 0) 260
(0.2656981819 0.2941273539 -4.33680869e-19) 618
(0.2874757583 0.2218730608 1.084202172e-19) 231
(0.3021840382 0.2962865372 0) 653
(0.2819871334 0.2431235551 0) 351
(0.2985046354 0.2305889406 -2.168404345e-19) 293
(0.2908433963 0.2074896439 1.084202172e-19) 172
(0.2895329109 0.2562320488 -2.168404345e-19) 441
(0.2846139643 0.2246648307 -2.710505431e-20) 261
(0.2789374865 0.2109903613 2.168404345e-19) 200
(0.2853718223 0.2847037616 -8.131516294e-20) 591
(0.2731904869 0.217798253 -2.168404345e-19) 229
(0.3011542038 0.2749099871 -1.626303259e-19) 533
(0.277095357 0.2516101597 -3.794707604e-19) 410
(0.2769114428 0.2094031917 -4.33680869e-19) 170
(0.2812325505 0.2464123419 5.421010862e-19) 380
(0.2965193724 0.2943981716 4.33680869e-19) 622
(0.2914965729 0.2567168698 0) 442
(0.2782218133 0.2682766788 1.084202172e-19) 500
(0.2400223802 0.213779616 5.522654816e-19) 225
(0.2878400137 0.2679114258 0) 501
(0.304711103 0.2881571822 0) 593
(0.2895242932 0.2160611211 -4.33680869e-19) 201
(0.3044678853 0.243490403 0) 353
(0.3032447058 0.2258927169 8.131516294e-20) 263
(0.2918479162 0.2549233639 -2.168404345e-19) 412
(0.2341893826 0.2396901999 0) 344
(0.287302823 0.2462871407 0) 381
(0.278170028 0.2234903929 -1.626303259e-19) 260
(0.2950495598 0.2617216581 0) 472
(0.2436751661 0.1736715383 -1.626303259e-19) 24
(0.2949304193 0.2668300154 4.33680869e-19) 472
(0.3007109916 0.191553449 3.252606517e-19) 83
(0.2902188197 0.26716427 -1.355252716e-19) 502
(0.2817456466 0.2311321427 4.33680869e-19) 290
(0.2819075284 0.2345620957 1.084202172e-19) 320
(0.2947480557 0.2072334149 0) 172
(0.301157972 0.2232121263 5.014435048e-19) 233
(0.2780758507 0.2373407469 -4.33680869e-19) 320
(0.289580498 0.2620907809 1.084202172e-19) 472
(0.2675137481 0.2673351913 -2.168404345e-19) 499
(0.2972887695 0.179893968 -3.252606517e-19) 32
(0.2828564349 0.1939664126 2.168404345e-19) 111
(0.2837489396 0.239927607 -5.421010862e-20) 351
(0.2938657919 0.2485651164 2.168404345e-19) 382
(0.3029270702 0.2239767765 0) 263
(0.2696287495 0.1855804288 2.168404345e-19) 50
(0.2584478073 0.2330715683 5.421010862e-20) 317
(0.301328699 0.2515090445 -6.505213035e-19) 413
(0.2884740422 0.234776594 -3.252606517e-19) 321
(0.2963374787 0.195362885 -4.33680869e-19) 112
(0.298098718 0.1986612718 3.794707604e-19) 113
(0.2858666069 0.2453739931 2.168404345e-19) 381
(0.2827108672 0.2469368077 1.897353802e-19) 381
(0.290285754 0.2353304166 -2.168404345e-19) 322
(0.2931883267 0.2423981054 2.710505431e-19) 352
(0.2917636553 0.1919030438 6.776263578e-21) 82
(0.2712344942 0.2674686198 2.168404345e-19) 499
(0.2931834352 0.2187394776 2.846030703e-19) 232
(0.2934913842 0.2027137886 5.421010862e-20) 142
(0.2770492582 0.2387974958 0) 350
(0.2617954914 0.204895983 -3.794707604e-19) 168
(0.2791607279 0.2364882355 -1.084202172e-19) 320
(0.2936129466 0.223708964 0) 262
(0.2830263074 0.186773296 -2.168404345e-19) 52
(0.3030601706 0.2689690017 -1.084202172e-19) 503
(0.2876184615 0.2151603888 0) 201
(0.2852870183 0.2449679641 4.33680869e-19) 381
(0.294106845 0.2964864275 -2.168404345e-19) 652
(0.2823570275 0.2269914046 -2.710505431e-19) 261
(0.2817909738 0.1767176123 0) 29
(0.3021104678 0.2902718187 -4.33680869e-19) 623
(0.2893863589 0.2684954776 0) 501
(0.2667753484 0.2045183381 0) 169
(0.2884815149 0.2465124335 -5.421010862e-20) 381
(0.2786463619 0.2978345563 -2.168404345e-19) 650
(0.288617168 0.2680992528 -3.252606517e-19) 501
(0.300188777 0.2237944016 1.084202172e-19) 263
(0.2777972242 0.2121687734 -3.794707604e-19) 200
(0.3025057836 0.20581841 5.421010862e-19) 143
(0.3038211498 0.2375691656 2.168404345e-19) 323
(0.2645944313 0.2519662737 0) 408
(0.3038119078 0.2510684192 0) 413
(0.2886626855 0.2355649255 -3.794707604e-19) 321
(0.2728159026 0.2233114569 -1.626303259e-19) 259
(0.2890156118 0.1757269933 -4.33680869e-19) 14
(0.260773957 0.2654466938 -4.33680869e-19) 468
(0.2341128641 0.2170479928 0) 254
(0.3044921014 0.1967839042 -2.168404345e-19) 113
(0.296481866 0.2096308638 0) 172
(0.2673549105 0.2428175805 -4.33680869e-19) 349
(0.2602476016 0.242380759 2.168404345e-19) 348
(0.3037474609 0.2340270207 4.33680869e-19) 293
(0.294814664 0.2236066463 4.33680869e-19) 262
(0.2823506827 0.2509097522 -3.252606517e-19) 411
(0.296133706 0.2148547018 0) 202
(0.2926770476 0.2396211665 1.626303259e-19) 352
(0.3047205647 0.2276020175 0) 263
(0.2990220577 0.2390513105 -2.168404345e-19) 323
(0.2993658484 0.220410596 2.710505431e-20) 233
(0.3003683629 0.2296087116 0) 293
(0.2721395326 0.2186181012 1.084202172e-19) 229
(0.3021899298 0.2207788454 -1.084202172e-19) 233
(0.2981035441 0.2262124576 -5.421010862e-20) 263
(0.2710062727 0.2449421381 -2.168404345e-19) 379
(0.3040752897 0.2543492178 4.33680869e-19) 413
(0.2924578479 0.229086718 0) 292
(0.2661609041 0.1952199593 -2.168404345e-19) 108
(0.2887611791 0.1859894112 0) 52
(0.2714750285 0.2170887393 0) 229
(0.2920062483 0.2577065411 -8.131516294e-20) 442
(0.2983111052 0.2026231994 -1.084202172e-19) 143
(0.2853026561 0.1724274308 5.421010862e-20) 14
(0.2950221243 0.2215790048 -1.084202172e-19) 232
(0.2989928908 0.1784265426 0) 16
(0.2905416996 0.2059675697 -2.168404345e-19) 172
(0.2735489435 0.2545998012 -2.168404345e-19) 409
(0.3034519527 0.2342720708 2.168404345e-19) 293
(0.2890828573 0.2598038761 -2.168404345e-19) 441
(0.2844857946 0.2682891614 1.084202172e-19) 501
(0.3025364942 0.2242927487 -2.168404345e-19) 263
(0.2941777322 0.2395827154 0) 352
(0.2985568507 0.2242758553 -2.168404345e-19) 263
(0.2597975558 0.2511990429 -2.168404345e-19) 408
(0.2974332122 0.2070835826 2.710505431e-19) 173
(0.2693415 0.2529565076 5.963111949e-19) 409
(0.263914057 0.2600484342 0) 468
(0.2830544715 0.2519529203 2.168404345e-19) 411
(0.2794240325 0.2361501035 0) 320
(0.2796525418 0.2162231852 2.168404345e-19) 230
(0.2879838285 0.2410613495 0) 351
(0.2849624275 0.2895842643 1.626303259e-19) 621
(0.2650366577 0.1949266012 2.168404345e-19) 108
(0.2928641549 0.2189835532 0) 232
(0.2580225597 0.2013278451 2.168404345e-19) 137
(0.2866230032 0.2575035902 -1.084202172e-19) 441
(0.294048665 0.2047894315 -2.168404345e-19) 142
(0.2867764416 0.2239439747 1.084202172e-19) 261
(0.2917806553 0.2451693073 1.084202172e-19) 382
(0.2966987191 0.2481873365 0) 382
(0.2776046187 0.2094962195 -2.168404345e-19) 170
(0.3010925241 0.2072988295 2.168404345e-19) 173
(0.3035742867 0.2512358068 2.168404345e-19) 413
(0.2885711685 0.2408951517 0) 351
(0.2772228306 0.2782905666 2.168404345e-19) 560
(0.278478964 0.1913659344 8.131516294e-20) 80
(0.2893778065 0.2772560936 0) 531
(0.2866713627 0.2532295848 -1.084202172e-19) 411
(0.2624704482 0.1961138456 0) 108
(0.3036201694 0.2810335178 -2.168404345e-19) 563
(0.2930989535 0.2224196745 2.168404345e-19) 232
(0.2845212933 0.2131437501 3.252606517e-19) 201
(0.2988753437 0.1835928828 0) 32
(0.2645831308 0.222217302 5.421010862e-20) 258
(0.2915507108 0.2268516002 -4.878909776e-19) 262
(0.2909477315 0.2545335955 -2.168404345e-19) 412
(0.2326493839 0.2307990828 1.084202172e-19) 314
(0.299579099 0.1817360251 1.084202172e-19) 32
(0.3003929319 0.2203591959 -3.252606517e-19) 233
(0.2778176683 0.185224784 -1.084202172e-19) 51
(0.2778735606 0.2222456817 1.897353802e-19) 260
(0.2575638543 0.2433312364 2.168404345e-19) 377
(0.303707386 0.2592941159 -4.33680869e-19) 443
(0.2173216242 0.2607842073 0) 462
(0.2946195365 0.1987583457 1.084202172e-19) 112
(0.2581708311 0.259961852 -2.168404345e-19) 467
(0.2457094054 0.2778600487 0) 556
(0.2525675542 0.2870086602 -4.33680869e-19) 587
(0.3042072886 0.2717579475 -2.168404345e-19) 503
(0.2723971611 0.1916694803 -2.168404345e-19) 79
(0.2746349215 0.2039088064 0) 170
(0.2781544214 0.2337874266 -2.168404345e-19) 320
(0.2843737289 0.27112756 2.168404345e-19) 501
(0.3044874067 0.2582952236 -2.168404345e-19) 443
(0.2934070315 0.2588404492 -1.897353802e-19) 442
(0.2933468379 0.2004850946 2.524158183e-19) 142
(0.3040628892 0.2385089957 0) 323
(0.3024722724 0.203011962 -3.252606517e-19) 143
(0.2828024573 0.1780883929 0) 30
(0.2999789554 0.2074572039 -1.084202172e-19) 173
(0.2986723177 0.1939363687 2.168404345e-19) 83
(0.3008905714 0.2184258579 2.032879073e-20) 233
(0.2663590936 0.1817641324 -1.084202172e-19) 49
(0.2782675588 0.182651236 2.168404345e-19) 51
(0.2836940567 0.2153981675 0) 201
(0.2924077756 0.2847253429 -2.168404345e-19) 592
(0.3045014489 0.1836111109 -2.168404345e-19) 32
(0.2898520792 0.1855742186 0) 53
(0.2504325084 0.2139610064 0) 226
(0.2782348972 0.2213463777 -4.33680869e-19) 260
(0.2641104232 0.2710881178 -1.084202172e-19) 498
(0.3001589979 0.2280412484 0) 263
(0.2686616201 0.2445926451 1.490777987e-19) 379
(0.3026104187 0.283209759 -1.084202172e-19) 563
(0.2920435433 0.196538245 2.032879073e-20) 112
(0.2854277449 0.2641782172 2.710505431e-20) 471
(0.2798393123 0.2047841112 -4.33680869e-19) 170
(0.294721628 0.2078176865 1.084202172e-19) 172
(0.2663419559 0.2536029059 6.505213035e-19) 408
(0.298276006 0.2164091071 2.168404345e-19) 203
(0.2982420682 0.2282355406 1.084202172e-19) 263
(0.2975536092 0.2195533091 0) 233
(0.2831197863 0.2543183844 -1.6093626e-19) 411
(0.243056269 0.1776953609 -2.168404345e-19) 46
(0.2883204509 0.2514822724 2.168404345e-19) 411
(0.3022458469 0.2737233893 -2.168404345e-19) 533
(0.2759919434 0.2138016815 -4.33680869e-19) 200
(0.3036598849 0.1936823616 -4.33680869e-19) 83
(0.2943826484 0.2327619565 0) 292
(0.2696603917 0.2159910252 -5.421010862e-20) 229
(0.2440795874 0.2002986258 4.33680869e-19) 166
(0.3024715142 0.2356854236 0) 323
(0.3023608127 0.2654066342 0) 473
(0.2965331908 0.2135163173 1.084202172e-19) 202
(0.2993324997 0.2348975967 -1.084202172e-19) 323
(0.2805476747 0.1922044689 0) 80
(0.2450238367 0.2366168194 5.421010862e-20) 346
(0.3021669681 0.2208780485 0) 233
(0.2923824691 0.2029536639 -2.710505431e-19) 142
(0.3001985236 0.1813110033 1.084202172e-19) 32
(0.3000119281 0.2209745559 0) 233
(0.2934948592 0.2319643679 -2.710505431e-20) 292
(0.2798280547 0.2229003353 1.084202172e-19) 260
(0.2831542012 0.2734046973 -2.168404345e-19) 531
(0.2180648849 0.2092688769 0) 192
(0.262528081 0.2456599928 2.439454888e-19) 378
(0.3045840454 0.2491707729 -8.67361738e-19) 383
(0.3024372703 0.267064087 -3.252606517e-19) 473
(0.3033397846 0.2253689018 -3.252606517e-19) 263
(0.2678257306 0.2483022914 -2.710505431e-19) 379
(0.2990659011 0.2548495793 5.421010862e-20) 413
(0.2988492107 0.2513992184 -2.168404345e-19) 413
(0.2882531006 0.1953774807 2.168404345e-19) 111
(0.301073893 0.2824340078 -2.507217524e-19) 563
(0.2926902183 0.2164478236 -2.168404345e-19) 202
(0.282101588 0.2453015289 1.084202172e-19) 381
(0.2871395777 0.2338268546 0) 321
(0.296823164 0.2262661343 0) 262
(0.2753969025 0.2487611383 3.252606517e-19) 380
(0.291800164 0.2331819929 2.168404345e-19) 292
(0.2952146112 0.2034883293 -2.168404345e-19) 142
(0.2986535937 0.1973086483 2.168404345e-19) 113
(0.3041440357 0.186179103 -2.168404345e-19) 54
(0.3003607211 0.2626039602 0) 473
(0.2871759154 0.2657760267 3.252606517e-19) 471
(0.2778275336 0.2326003901 1.355252716e-19) 320
(0.2977662797 0.2411745224 2.168404345e-19) 353
(0.2755517358 0.2470858818 2.168404345e-19) 380
(0.2734535678 0.2698952137 -2.168404345e-19) 499
(0.2929173092 0.2381605227 0) 322
(0.2803996405 0.2550528408 4.33680869e-19) 440
(0.2787083863 0.24149019 -2.168404345e-19) 350
(0.2892846884 0.1768789056 2.168404345e-19) 14
(0.3015319934 0.2946959942 0) 653
(0.2927005008 0.2054276137 -4.33680869e-19) 142
(0.2990831658 0.2210724958 -4.33680869e-19) 233
(0.3008127503 0.2956110985 -1.355252716e-20) 653
(0.2977783458 0.2241002489 0) 263
(0.2798434827 0.2689798872 3.117081246e-19) 500
(0.2991970457 0.2734345639 -2.168404345e-19) 533
(0.2469820981 0.2214552522 -5.421010862e-20) 256
(0.298358847 0.2152409608 -1.084202172e-19) 203
(0.2657076244 0.290591635 -3.252606517e-19) 618
(0.2617861559 0.2590082714 -5.421010862e-19) 438
(0.2704552506 0.2153652466 -2.371692252e-19) 229
(0.2649832791 0.2402740036 0) 348
(0.273011642 0.2341915742 -3.794707604e-19) 319
(0.268219005 0.2721112593 0) 529
(0.3034486023 0.2565547744 0) 443
(0.2866064771 0.2696047377 1.084202172e-19) 501
(0.2440982079 0.2688181492 0) 496
(0.2888936434 0.2079126617 -4.065758147e-19) 171
(0.2808156074 0.21718026 0) 230
(0.2788921334 0.2326155173 0) 320
(0.2872052362 0.2276743046 -4.33680869e-19) 291
(0.2906917522 0.2316233582 -4.33680869e-19) 292
(0.2490139256 0.2182824319 0) 226
(0.2720755414 0.2258312947 2.168404345e-19) 259
(0.2708071149 0.2660942482 -4.33680869e-19) 499
(0.2809310907 0.2246082884 2.168404345e-19) 260
(0.3002128709 0.246206338 -3.252606517e-19) 383
(0.282192221 0.27004399 -2.168404345e-19) 501
(0.2665183503 0.2802480095 0) 558
(0.2321362496 0.2098735748 0) 194
(0.2815609745 0.2040118586 0) 140
(0.3020723551 0.2062094568 2.168404345e-19) 143
(0.2998825399 0.2347916213 -1.084202172e-19) 323
(0.2806871119 0.2679145768 0) 500
(0.294497787 0.2336615051 2.168404345e-19) 292
(0.2858771036 0.2448148246 6.505213035e-19) 381
(0.2911450978 0.2171701555 -4.33680869e-19) 232
(0.2811017971 0.2717937581 2.168404345e-19) 500
(0.2964355156 0.1842460674 0) 53
(0.2989422925 0.2797103823 -3.252606517e-19) 563
(0.264884567 0.1737510602 -2.168404345e-19) 11
(0.2864553799 0.2681500514 -2.168404345e-19) 501
(0.2995053715 0.261866039 1.084202172e-19) 473
(0.2901031481 0.2836700549 0) 592
(0.2975349903 0.201263877 1.219727444e-19) 143
(0.2694358094 0.2288277862 -2.913793339e-19) 289
(0.2714311639 0.2665316671 -2.168404345e-19) 499
(0.3045729814 0.1852523338 0) 32
(0.2907155594 0.2918734936 5.421010862e-20) 622
(0.27297061 0.1778950394 8.131516294e-20) 28
(0.2770042769 0.2151013517 2.168404345e-19) 200
(0.2846602839 0.2140341176 0) 201
(0.2668208421 0.2392307968 0) 349
(0.2670005354 0.1829354024 1.202786785e-19) 50
(0.2930320784 0.2152967446 5.421010862e-19) 202
(0.2571461116 0.2730454284 2.168404345e-19) 527
(0.3037277159 0.1773640324 0) 16
(0.2776047326 0.2642896333 -1.084202172e-19) 470
(0.2756876752 0.1916967199 5.421010862e-20) 80
(0.277208355 0.2341350349 0) 320
(0.2363158249 0.1847685682 2.168404345e-19) 75
(0.2829792741 0.254161094 4.33680869e-19) 411
(0.2913654886 0.2881461933 -5.421010862e-20) 592
(0.2854235089 0.2424698424 1.084202172e-19) 351
(0.2981610103 0.1739400476 -6.505213035e-19) 16
(0.2677072623 0.2503058756 -1.084202172e-19) 409
(0.2944549674 0.2168269453 -1.084202172e-19) 202
(0.2642547455 0.1965147702 0) 108
(0.2698424271 0.1868508541 0) 79
(0.2771930918 0.2273805423 -2.168404345e-19) 290
(0.2765635354 0.2258705585 2.168404345e-19) 260
(0.2911799389 0.2116540027 -2.168404345e-19) 202
(0.3010249766 0.294571479 -4.33680869e-19) 653
(0.2790006704 0.1981822836 1.084202172e-19) 110
(0.3001371234 0.2048946318 1.084202172e-19) 143
(0.2627772551 0.2486506754 -1.76182853e-19) 408
(0.3009137488 0.265048357 0) 473
(0.2843804262 0.2402231553 0) 351
(0.2969439314 0.2940832796 -4.33680869e-19) 622
(0.294672829 0.2226478454 0) 262
(0.2604044593 0.2212773213 0) 258
(0.2548055973 0.2866768537 1.084202172e-19) 587
(0.2881836062 0.2609558118 -2.168404345e-19) 441
(0.288621456 0.1857811883 -6.776263578e-20) 52
(0.2234893583 0.1723222322 1.084202172e-19) 22
(0.2621889454 0.2098029023 -5.421010862e-20) 198
(0.2914802627 0.189680932 2.168404345e-19) 82
(0.2753937065 0.2941952096 1.084202172e-19) 620
(0.273652422 0.1819269914 6.505213035e-19) 50
(0.2849772679 0.221583941 0) 231
(0.2646446836 0.2890387022 -2.168404345e-19) 618
(0.2863423991 0.2162709696 0) 201
(0.2661650788 0.227788779 2.168404345e-19) 288
(0.295663997 0.1937201377 -2.168404345e-19) 82
(0.2590595432 0.2649586564 0) 467
(0.2729527554 0.2408095879 4.33680869e-19) 349
(0.2745109261 0.1823074918 1.084202172e-19) 51
(0.275516301 0.2016432905 -2.710505431e-19) 140
(0.3005733354 0.2710046663 2.168404345e-19) 503
(0.2569083633 0.2452969761 -2.168404345e-19) 377
(0.2965303244 0.1758036579 3.930232875e-19) 15
(0.3014260896 0.2231384355 5.421010862e-20) 233
(0.2992557521 0.2493422754 0) 383
(0.2673773199 0.2502020001 0) 409
(0.2726278727 0.216591924 1.084202172e-19) 229
(0.2539439357 0.2128581719 0) 197
(0.2708798993 0.2549120086 0) 439
(0.2804561259 0.2733261451 -2.168404345e-19) 530
(0.2893389633 0.2239593869 1.084202172e-19) 261
(0.269493021 0.1833973674 -2.981555974e-19) 50
(0.2996483266 0.264069916 0) 473
(0.2779155659 0.1973729674 0) 110
(0.2939512768 0.1920795908 3.794707604e-19) 82
(0.2984453681 0.1983143554 -2.100641709e-19) 113
(0.3004400959 0.258774319 5.421010862e-20) 443
(0.2489361781 0.2523197331 -3.252606517e-19) 406
(0.2991398082 0.2464292373 0) 383
(0.2693521097 0.1831862533 0) 50
(0.2697586261 0.2192463986 1.084202172e-19) 229
(0.2741781621 0.2989580099 0) 649
(0.2956345731 0.2890703809 -4.33680869e-19) 622
(0.2862692404 0.2454314765 0) 381
(0.3039613519 0.296363228 1.084202172e-19) 653
(0.2803481155 0.2441227521 -2.168404345e-19) 380
(0.2804041061 0.2747881269 -2.168404345e-19) 530
(0.2729601565 0.1771937998 1.084202172e-19) 28
(0.2315068919 0.2571101384 0) 434
(0.3013083841 0.222210555 2.710505431e-19) 233
(0.2671504687 0.2371872855 -2.168404345e-19) 349
(0.2432043671 0.2283215085 -4.33680869e-19) 285
(0.2581992377 0.221975407 1.490777987e-19) 257
(0.2576145585 0.1781037711 0) 26
(0.2987315664 0.1805210031 -1.626303259e-19) 32
(0.2966826942 0.2121548442 0) 202
(0.2640452231 0.235425174 -1.084202172e-19) 318
(0.2824244862 0.2514190058 0) 411
(0.2869821419 0.2435260724 -4.33680869e-19) 351
(0.2972816855 0.2482818401 -3.252606517e-19) 383
(0.2844282785 0.21873444 0) 231
(0.2925668505 0.2027343239 0) 142
(0.2761137772 0.2375079597 -3.252606517e-19) 320
(0.2514162854 0.1950431491 4.33680869e-19) 106
(0.2810543438 0.2389336445 0) 350
(0.2648206134 0.1979223355 -2.168404345e-19) 138
(0.2905979204 0.2705392277 0) 502
(0.287188145 0.2102084036 0) 171
(0.2710711224 0.1833540675 -4.878909776e-19) 50
(0.2604775064 0.2311897774 2.168404345e-19) 318
(0.2997800342 0.2677452711 0) 503
(0.2491209233 0.265341358 0) 496
(0.2894124011 0.2827962852 0) 561
(0.2870499992 0.2289123336 4.33680869e-19) 291
(0.2988265028 0.198426251 2.303929617e-19) 113
(0.2932050237 0.2833292857 4.33680869e-19) 562
(0.2859280131 0.2340132552 4.33680869e-19) 321
(0.2818921482 0.2281445469 -2.168404345e-19) 290
(0.2830758352 0.1994990685 -2.168404345e-19) 141
(0.300230923 0.2261526827 -8.131516294e-20) 263
(0.2999731969 0.2188312451 3.252606517e-19) 233
(0.2449154121 0.1842410445 -1.626303259e-19) 76
(0.297998738 0.2060019218 -1.219727444e-19) 143
(0.2931570057 0.2166486504 -4.33680869e-19) 202
(0.2980656416 0.2868763066 -4.33680869e-19) 593
(0.2521464346 0.1828973838 0) 48
(0.2858121641 0.2599302908 -1.084202172e-19) 441
(0.2972513415 0.2620415591 -1.626303259e-19) 473
(0.2910675241 0.1858600182 6.505213035e-19) 53
(0.2848925936 0.2395891969 1.626303259e-19) 351
(0.2896754267 0.2005518226 -2.168404345e-19) 142
(0.2703558867 0.2166722727 2.710505431e-19) 229
(0.2847782682 0.2420682566 -1.965116438e-19) 351
(0.2872093254 0.2109726819 -4.33680869e-19) 201
(0.2835872854 0.2574767621 2.168404345e-19) 441
(0.2853837727 0.1886728674 0) 81
(0.2667514282 0.2467813864 1.084202172e-19) 379
(0.2465312815 0.258695496 2.168404345e-19) 436
(0.3015461586 0.2686725615 2.168404345e-19) 503
(0.2986320466 0.2772738818 5.692061406e-19) 533
(0.2633910214 0.2208123647 0) 258
(0.2643476008 0.2183389308 -1.084202172e-19) 228
(0.2883960632 0.2336212651 4.33680869e-19) 321
(0.2507351694 0.2174429591 -2.168404345e-19) 226
(0.2915311848 0.2582099839 5.421010862e-19) 442
(0.2450464431 0.2581578098 -2.710505431e-19) 436
(0.2742273831 0.1718238055 4.33680869e-19) 12
(0.2599020574 0.2401021231 -5.421010862e-20) 348
(0.2708713568 0.2430881661 -2.981555974e-19) 349
(0.2573908911 0.2157744492 -4.878909776e-19) 227
(0.2574836891 0.197255618 2.168404345e-19) 137
(0.3043852368 0.2212706274 0) 233
(0.2829184803 0.2000561686 -2.168404345e-19) 141
(0.2879144932 0.227194222 -2.168404345e-19) 261
(0.2683238457 0.2238980654 1.084202172e-19) 259
(0.2797573477 0.2038457613 -2.168404345e-19) 140
(0.2837988133 0.2112256621 -2.168404345e-19) 201
(0.2567686703 0.1909552288 0) 107
(0.2481725985 0.2261564501 1.084202172e-19) 286
(0.241046167 0.1805091061 -3.252606517e-19) 46
(0.2843824301 0.2609550736 0) 471
(0.2424860344 0.2498281815 -1.084202172e-19) 405
(0.2942930943 0.2368385122 -1.084202172e-19) 322
(0.3007856107 0.215213968 1.084202172e-19) 203
(0.2927240204 0.212829464 3.252606517e-19) 202
(0.3024589049 0.2647403407 2.168404345e-19) 473
(0.2906105485 0.2461389008 0) 382
(0.2365884045 0.1927619706 -2.168404345e-19) 105
(0.252261195 0.1857588639 0) 77
(0.2801675054 0.2593968217 0) 440
(0.2807163943 0.2810330297 4.33680869e-19) 560
(0.291848002 0.2140356588 -2.168404345e-19) 202
(0.2937574674 0.2375080428 0) 322
(0.2919915672 0.2802886442 1.084202172e-19) 562
(0.229746356 0.1865584045 3.252606517e-19) 74
(0.2931311506 0.2814474084 -4.33680869e-19) 562
(0.2719145024 0.2130223477 -2.168404345e-19) 199
(0.2779236398 0.2059467351 -1.490777987e-19) 170
(0.284302723 0.2349296681 -5.421010862e-20) 321
(0.2641560331 0.2512862724 1.986292261e-19) 408
(0.2125575527 0.2355651289 1.084202172e-19) 341
(0.2915052321 0.2950794055 -2.168404345e-19) 652
(0.276146068 0.2001895821 5.421010862e-20) 140
(0.2640604533 0.2804393485 -1.084202172e-19) 558
(0.2715743983 0.1974313168 1.084202172e-19) 109
(0.2725113311 0.2568453604 5.421010862e-20) 439
(0.2123189364 0.2652871509 5.421010862e-19) 491
(0.2533554592 0.2160877226 -1.084202172e-19) 227
(0.2996312631 0.1881158722 3.252606517e-19) 54
(0.2624836497 0.2820699497 0) 558
(0.2976992357 0.246172524 -1.084202172e-19) 383
(0.2660573156 0.2113924197 2.168404345e-19) 198
(0.2750448928 0.220027576 -2.168404345e-19) 230
(0.2788259952 0.2183585204 -5.421010862e-20) 230
(0.2906664759 0.2789903482 -5.421010862e-20) 562
(0.2754557537 0.2043892442 2.168404345e-19) 170
(0.2534171439 0.2799912276 -2.439454888e-19) 557
(0.2960806798 0.2573719779 3.252606517e-19) 442
(0.2875695188 0.2185091097 0) 231
(0.2562904506 0.2146395127 0) 227
(0.2683464762 0.2147357251 0) 229
(0.258883348 0.2125883815 -4.33680869e-19) 197
(0.2838646681 0.2067598538 3.252606517e-19) 171
(0.2852481207 0.2617370025 -1.626303259e-19) 471
(0.284282537 0.1835016765 0) 52
(0.2939988589 0.215058545 2.710505431e-19) 202
(0.2855427131 0.2946883871 1.626303259e-19) 651
(0.2684840539 0.2338382116 2.168404345e-19) 319
(0.2939907184 0.2149717131 -5.421010862e-20) 202
(0.2765027577 0.2684509595 0) 500
(0.2758756205 0.1974920715 -1.084202172e-19) 110
(0.2892365157 0.2110834431 4.33680869e-19) 201
(0.2991495058 0.2063505866 2.168404345e-19) 143
(0.2590558019 0.2703527675 -4.33680869e-19) 497
(0.2543679477 0.273911629 -3.252606517e-19) 527
(0.2934962782 0.2246339656 0) 262
(0.3009159337 0.2802611502 2.100641709e-19) 563
(0.2604463811 0.1985733828 1.084202172e-19) 138
(0.2972198525 0.2119789078 -2.57498016e-19) 203
(0.2780670026 0.2239992922 -1.016439537e-19) 260
(0.2773190465 0.2231529005 0) 260
(0.1987418388 0.2569601377 0) 460
(0.2747856646 0.2102155873 0) 200
(0.3008138735 0.2166194407 -4.33680869e-19) 203
(0.2883283294 0.2169730166 -4.33680869e-19) 231
(0.2633092406 0.2246848327 7.318364664e-19) 258
(0.2597407158 0.2368614078 -4.33680869e-19) 348
(0.2726557227 0.2350219723 0) 319
(0.2623265006 0.2659913298 3.252606517e-19) 498
(0.2759415391 0.169866769 -3.252606517e-19) 2
(0.2969422373 0.2595459365 4.33680869e-19) 442
(0.2688652616 0.2325149116 -1.084202172e-19) 319
(0.2885733814 0.2462891162 -1.084202172e-19) 381
(0.2562049276 0.2033619752 -1.084202172e-19) 167
(0.2819881219 0.2098257918 -2.168404345e-19) 171
(0.2569083554 0.1926963871 1.626303259e-19) 107
(0.2722014024 0.2660071415 4.33680869e-19) 499
(0.2384015924 0.2490781629 0) 405
(0.2830347594 0.2156930687 -1.084202172e-19) 201
(0.2499827828 0.2104415114 4.33680869e-19) 196
(0.2978485835 0.2533682329 -2.710505431e-19) 413
(0.2986684034 0.1919817336 2.168404345e-19) 83
(0.2659591355 0.2593679711 0) 438
(0.2743732255 0.1770131183 0) 29
(0.2839337646 0.2263943419 -2.710505431e-19) 261
(0.2822080361 0.2751277868 5.963111949e-19) 531
(0.2734265522 0.203266412 -2.168404345e-19) 139
(0.2846979557 0.2166934601 2.168404345e-19) 231
(0.2869501755 0.2916826226 0) 621
(0.2815376451 0.2957295633 -2.168404345e-19) 650
(0.2900944891 0.2527310423 -2.168404345e-19) 412
(0.2552589121 0.2419048418 0) 347
(0.3000966419 0.2085855999 2.168404345e-19) 173
(0.2529838871 0.1985601615 8.131516294e-20) 137
(0.2261391065 0.2477189709 0) 403
(0.2629182621 0.1864409955 -4.33680869e-19) 78
(0.2274976606 0.2891462618 4.33680869e-19) 613
(0.2703796484 0.2810391608 -1.084202172e-19) 559
(0.2916138065 0.2180002965 -1.084202172e-19) 232
(0.2691995496 0.2429568833 -2.168404345e-19) 349
(0.2725221406 0.2604307267 -4.33680869e-19) 469
(0.2693590608 0.2472411902 -2.168404345e-19) 379
(0.3009706952 0.2031504804 6.945670167e-20) 143
(0.2889613575 0.290770155 1.084202172e-19) 621
(0.2776384806 0.2160024938 3.252606517e-19) 230
(0.2872696946 0.2024397352 -1.084202172e-19) 141
(0.2719003693 0.2402701823 -1.219727444e-19) 349
(0.2555445964 0.2594190697 1.084202172e-19) 437
(0.2640404598 0.2770178275 1.084202172e-19) 528
(0.2639265375 0.2400096681 -1.084202172e-19) 348
(0.2650274673 0.2366082179 0) 318
(0.2439232318 0.1914348474 0) 106
(0.2778114056 0.2870135685 2.168404345e-19) 590
(0.2906041458 0.1876529135 4.33680869e-19) 53
(0.2876227418 0.2545475162 6.505213035e-19) 411
(0.2593679593 0.2579142538 2.168404345e-19) 438
(0.3004623834 0.2724557901 0) 503
(0.2905830019 0.1867771628 1.626303259e-19) 53
(0.2548863765 0.2628940357 5.421010862e-20) 467
(0.2497439532 0.2250434835 2.168404345e-19) 286
(0.2421812027 0.1945489704 -4.33680869e-19) 135
(0.2670036744 0.2598885185 3.930232875e-19) 439
(0.2814685448 0.2385796212 2.168404345e-19) 350
(0.2869383995 0.2444877164 -2.168404345e-19) 381
(0.2853679503 0.2812943905 -5.421010862e-20) 561
(0.2835490997 0.2855960466 -2.168404345e-19) 591
(0.2893997092 0.2999319146 0) 651
(0.2863942466 0.2410609375 -2.168404345e-19) 351
(0.2577955445 0.2171975253 0) 227
(0.3027426108 0.2138782006 -2.168404345e-19) 203
(0.2923125691 0.2687128271 2.168404345e-19) 502
(0.2894224999 0.1905096923 2.168404345e-19) 81
(0.2708118812 0.1874466016 -4.33680869e-19) 79
(0.2631545622 0.2674638426 2.168404345e-19) 498
(0.283915813 0.2281318987 -4.33680869e-19) 291
(0.2970977222 0.2490803699 0) 382
(0.2909454385 0.2001248776 2.168404345e-19) 142
(0.3008864965 0.2100357352 5.421010862e-20) 173
(0.2912526387 0.2317088583 0) 292
(0.2712552667 0.2188155208 5.421010862e-20) 229
(0.2791721539 0.1903724105 0) 80
(0.2990483917 0.1865656181 -1.084202172e-19) 54
(0.2695046328 0.1795689536 1.084202172e-19) 28
(0.2315615806 0.2420761842 -4.33680869e-19) 374
(0.2549778132 0.2857843016 -8.131516294e-20) 587
(0.2645654617 0.2332460025 -2.168404345e-19) 318
(0.2655996235 0.2266718597 -2.168404345e-19) 288
(0.3037045561 0.2555667751 0) 413
(0.2724880168 0.2258164795 2.168404345e-19) 259
(0.2813341106 0.2971828437 1.355252716e-19) 650
(0.2815267462 0.2835106452 4.33680869e-19) 590
(0.2753431256 0.2035584431 1.084202172e-19) 140
(0.2514722558 0.274782249 -2.168404345e-19) 527
(0.2953781932 0.2184843262 4.33680869e-19) 232
(0.3028887498 0.1769834811 -2.168404345e-19) 16
(0.2870848755 0.1965080557 -2.168404345e-19) 111
(0.2317678956 0.2150402689 -1.084202172e-19) 224
(0.2764262251 0.1755850095 4.33680869e-19) 13
(0.2745445883 0.2747059191 2.710505431e-20) 530