/*--------------------------------*- C++ -*----------------------------------*\
| =========                 |                                                 |
| \\      /  F ield         | OpenFOAM: The Open Source CFD Toolbox           |
|  \\    /   O peration     | Version:  2406                                  |
|   \\  /    A nd           | Website:  www.openfoam.com                      |
|    \\/     M anipulation  |                                                 |
\*---------------------------------------------------------------------------*/
FoamFile
{
    version     2.0;
    format      ascii;
    arch        "LSB;label=32;scalar=64";
    class       vectorField;
    location    "0.008/lagrangian/dsmc";
    object      U;
}
// * * * * * * * * * * * * * * * * * * * * * * * * * * * * * * * * * * * * * //


6228
(
(1283.252461 386.6664135 569.4131978)
(1240.803644 256.7469207 13.82629757)
(1079.975952 -227.1772784 587.2070517)
(995.1652288 900.3871475 -279.3583364)
(629.8203855 696.2903232 594.3623624)
(2017.965258 -172.5387012 357.273229)
(1361.512274 804.0305294 -618.6728565)
(986.3649194 530.0422711 -7.950998352)
(1057.528682 1201.739089 8.215830389)
(1531.744575 -363.3985747 127.9129359)
(847.4773399 965.103308 -887.6904122)
(1563.772089 315.4847193 650.9486971)
(1119.046615 570.0985425 357.9336168)
(940.2861629 337.0825536 283.4424168)
(929.8833728 631.1238874 -496.3767261)
(1207.530856 209.935187 144.7885835)
(1479.274618 595.4515129 66.73114766)
(970.136201 232.7531891 -159.9856674)
(1446.231371 484.1486274 -117.0948331)
(1314.436056 160.1182319 210.2809222)
(801.8661395 367.8117401 -454.9441433)
(859.8910552 516.1691143 -334.1039874)
(2021.32733 -336.306832 37.53882345)
(895.4797184 967.1746114 -134.5179406)
(1368.866941 -273.9920102 -192.5105688)
(693.4779815 81.49317431 119.1461388)
(1511.604543 555.2040735 -336.8448877)
(1546.67656 -58.26449419 33.64449864)
(1452.727301 -171.8648927 -201.5224736)
(1557.869403 573.1152582 730.2417579)
(1107.945304 207.6674509 181.4721086)
(1706.712975 445.9742434 -716.7718248)
(1115.525362 520.773356 -7.481805817)
(970.5775247 279.5734558 389.4762106)
(1555.209297 -42.99869251 -35.36874192)
(1521.523448 19.7883229 -258.5335275)
(347.5841284 33.27309666 890.7293509)
(1079.967581 28.80574373 371.5173561)
(1132.242211 1277.8355 53.83802334)
(755.2832513 315.657221 444.4579249)
(1225.218714 -167.8175349 239.9612119)
(808.9106388 343.3588555 270.2759411)
(1466.281264 462.4574331 51.94786528)
(896.1543191 1010.406383 -344.4041201)
(1120.843826 257.5003074 568.3473073)
(1064.43145 587.2813634 -25.16526935)
(1371.895094 636.5954285 -129.2466149)
(1640.83529 85.0003828 38.67827412)
(1148.830192 783.8211582 -195.9205435)
(1641.486962 431.962741 142.320016)
(781.0023281 580.1503682 498.3167461)
(925.8226403 486.6259533 770.1840425)
(1430.648476 1046.694471 241.4734419)
(1328.927197 164.1907822 -545.4800032)
(1131.139292 55.84491754 328.2155659)
(1218.066964 374.4851282 -214.3919999)
(1353.076939 1137.842448 -47.19623711)
(1377.053253 -321.9108531 362.9460859)
(1076.666816 -295.1762153 146.5325904)
(1598.841594 159.5253959 65.84329004)
(1365.439615 -99.7147496 -367.4969844)
(1088.100808 415.0422119 204.5416652)
(1874.986855 -341.9806389 82.71581896)
(1392.72174 -140.7217164 -134.1225062)
(1381.942861 -114.0331202 -202.4758123)
(1696.822359 -143.8112741 14.14656227)
(1119.006056 25.95943107 463.7190312)
(1356.420098 372.3761 -737.408334)
(1072.176375 740.7933753 -254.1791408)
(1844.087128 -318.9681524 486.4551107)
(1313.653428 -328.6986152 94.57688078)
(1510.707363 261.5607156 -153.7776876)
(1632.961812 -16.88001806 -352.6359713)
(1052.448636 -306.1617989 -345.9719676)
(1746.502434 671.4200807 -4.955759356)
(1841.455987 354.0235303 -375.9032801)
(1606.470115 294.2420878 -159.7183519)
(1439.464005 448.0609949 160.9333483)
(949.1187351 182.9511609 -225.8593211)
(1470.811092 579.0880033 224.0608819)
(1059.707625 1440.221855 -811.0199034)
(1475.68436 453.4923158 80.76409377)
(1444.290963 52.7426169 -78.21345199)
(1371.79583 523.9199145 -248.8713854)
(606.6268926 88.56058499 716.6533287)
(817.0900795 549.9265461 -58.155987)
(1606.088283 81.32697091 498.9136318)
(1301.074632 -112.5158967 -492.8492696)
(1114.364523 67.05296895 -464.1617971)
(537.6266551 564.2802283 148.4512432)
(1289.887619 -268.0307404 -499.058634)
(1887.848066 110.6422492 263.0289636)
(1229.773489 451.3171813 28.56238947)
(2047.796392 682.3655062 -365.5839388)
(1578.408251 -382.8217308 -353.5087652)
(1356.43222 -28.80721966 539.847263)
(1169.300582 -56.88068123 545.3760574)
(1470.436597 432.8831682 190.8494276)
(1322.130496 -391.9263658 301.4156442)
(826.8014825 397.910056 112.893083)
(1357.522918 -201.7116225 149.0569403)
(1185.152577 270.5159319 798.3337256)
(1751.475932 658.9125495 -102.7998701)
(1135.960671 341.9473038 -160.3939733)
(1684.693591 482.2375041 588.2526068)
(2093.007088 422.1834912 256.2248431)
(1497.696471 136.6759933 -465.5767796)
(1547.943504 -372.6907104 -436.8757344)
(1280.576777 320.2466155 205.9301071)
(1807.158915 -475.1513477 -215.6668137)
(1494.625138 190.760432 342.4970733)
(1464.752743 289.0576512 -321.7047996)
(1135.279608 91.85068737 539.0540337)
(1025.841593 95.54702181 -988.4157389)
(1608.409585 -24.89285295 80.35745301)
(1876.043249 -84.88670539 178.0995379)
(1158.204903 668.399307 -475.6086294)
(1467.520312 -33.49048199 -158.2130491)
(1538.269614 362.4839486 -185.6712595)
(2301.941855 576.3848772 -170.4637236)
(1005.810467 560.1991582 310.9921524)
(1383.306053 861.6912393 260.207073)
(1446.600125 364.8859179 -148.8695956)
(1896.540194 864.0965811 -3.732816218)
(1144.050149 -153.1799142 -59.88242962)
(1692.237078 277.4197773 108.0874092)
(809.8831009 1049.765224 11.14966257)
(1216.053962 -400.5928961 -82.94890103)
(2018.282196 -149.7062586 -126.6967696)
(1992.601856 264.8278608 -289.9492867)
(748.238355 511.9940158 131.2781249)
(1955.422091 -509.9108876 -1284.458178)
(838.1291884 -207.3059314 421.2319705)
(1538.853676 303.9455669 278.606527)
(879.5667521 -133.5763314 -793.138239)
(1633.886266 -124.1013672 26.04640466)
(1234.783996 1286.703624 359.8523859)
(731.3227919 989.7742811 258.6319561)
(1337.959291 275.0703105 249.9722829)
(1825.110353 -182.6356004 367.8297097)
(1281.743971 645.3256729 28.22034462)
(1713.932925 969.6641335 -489.3387883)
(1087.340885 102.1731267 -673.5053905)
(1660.453439 -51.04500781 105.9770584)
(655.1264568 1104.212412 641.4231518)
(1446.740104 321.0194332 857.0479602)
(1722.955599 277.7324086 24.97290518)
(1234.781069 -126.8239591 -284.5768904)
(1905.410545 342.2546101 188.3068445)
(1136.169443 1144.217729 -122.8263977)
(500.1144417 11.05344308 -261.0882179)
(1346.614109 -141.3081234 -225.8940021)
(1986.680869 88.6984004 -501.8459218)
(1444.889805 680.0484752 -938.9406676)
(1577.48924 648.3623434 -86.16091471)
(747.1228516 -85.20388323 -668.9029513)
(1335.673981 194.5527967 412.9352825)
(2056.610173 951.0605202 -865.3385531)
(2124.714841 640.8431121 176.492944)
(1729.663871 471.9876004 41.94610337)
(1996.5291 81.99476143 -191.5357882)
(1857.70898 -366.4213908 -47.67207632)
(1674.464515 233.283255 311.5840783)
(595.5717332 598.6205299 363.2787306)
(1438.045574 799.7811741 -313.7047662)
(1650.572241 -257.095336 197.7776715)
(1873.45955 133.736242 361.4683221)
(2278.580602 746.196695 46.58847815)
(1665.406163 887.3141511 407.8944975)
(1747.366195 167.8827914 -647.7010075)
(2077.887699 310.1732232 199.5153369)
(1656.53873 -185.238934 161.9126319)
(1779.961675 239.9412117 426.8089616)
(1449.745609 314.0951237 -100.9700664)
(834.9290303 1348.268024 1452.776737)
(895.5693102 310.3582766 25.02635175)
(1626.82656 -544.163937 -133.5220627)
(1100.394664 -246.1936599 600.7879499)
(1826.136728 -511.255826 -465.2721403)
(989.3093933 -86.01728474 48.84981374)
(1306.76892 -60.6606169 421.0418376)
(1540.543623 -251.4029248 -360.5491979)
(1636.34825 32.64219962 -127.2161702)
(2068.669731 323.957338 -372.2641757)
(1386.606073 210.1993369 5.836613563)
(970.8101641 176.1115558 -205.8482992)
(1479.985249 943.6480776 671.8245078)
(1780.056779 30.39227484 359.369683)
(926.2680042 40.38708187 120.1038083)
(1096.333128 173.2437515 -66.46785613)
(1725.502747 238.2619774 -201.4823651)
(1563.423686 239.0364709 471.9769737)
(934.5625695 146.3394675 497.4815114)
(1377.54404 307.7263852 -23.98503668)
(629.4629868 673.4351398 -860.2453156)
(1077.238691 81.71283886 -299.2898194)
(1055.766091 279.6174034 3.919643094)
(1423.593305 600.0194796 238.7433629)
(1511.921497 695.3977476 169.5681912)
(1138.618598 271.0147778 18.13189229)
(1578.293261 -325.8955322 285.6112869)
(1830.18081 8.547531847 42.97959229)
(2058.275026 276.7731003 938.2898443)
(1126.031525 -212.9164596 70.38790343)
(1586.607057 -529.9921491 51.30850862)
(1582.663557 -108.2716857 170.7006131)
(947.3386962 -191.0582674 -350.8780161)
(1300.763264 -41.23183798 250.5661807)
(1140.612925 13.9647832 -95.01941701)
(1597.13488 152.6595492 -83.355081)
(1550.370923 705.5277034 524.0675136)
(2000.858148 871.8240108 741.0645548)
(1705.203733 588.8504813 711.4648231)
(1642.842245 133.7108334 -647.9086613)
(1051.028281 123.7946447 70.44027429)
(2263.765234 -181.1918184 664.5977325)
(1986.51562 500.6893964 41.44916058)
(1381.929827 7.117061597 0.3346492786)
(1228.314782 899.355486 -580.4197738)
(1722.208854 312.3771088 -91.57214732)
(1550.067066 289.3658621 3.271640668)
(786.1044312 1078.655637 423.7616962)
(1549.934011 -268.6622793 -318.1029728)
(1142.157801 429.2301638 -265.243359)
(2151.481444 1000.643258 457.0368102)
(1515.929821 1606.809395 771.4745578)
(1553.396698 719.7227809 -179.8055124)
(950.486388 -8.817401321 -236.4978849)
(1640.4471 -104.0285531 -100.2372334)
(1005.662476 -332.9064053 1588.831629)
(2594.763746 310.655169 -414.1140826)
(1422.133311 -81.47428122 237.2845885)
(1321.971084 79.44601647 474.1418358)
(869.3806786 407.4844555 157.5110408)
(947.4841744 -155.7782524 -570.3782856)
(767.656459 276.2774678 332.6465475)
(1390.779655 253.9312951 -209.456868)
(1121.409881 -287.4943175 60.67203135)
(1586.569721 588.1927055 -47.40497074)
(1144.968522 660.9823087 -783.9260544)
(1103.11116 -96.07491931 641.5421423)
(1354.441104 593.0276739 -219.0918297)
(1685.715679 14.80285757 487.4486492)
(1599.701839 470.1043075 253.5050992)
(985.7231455 87.80938325 -427.8935997)
(1464.670208 588.8140215 784.7040319)
(1268.270688 -17.11990372 339.4221929)
(1554.522776 25.94815038 -1073.528363)
(1368.498744 629.807394 -893.5291325)
(1308.023427 970.7923348 98.18705264)
(1444.022799 978.8336497 -335.7791949)
(1312.413169 1026.270467 -31.6363815)
(1655.185759 -7.855418865 168.3937638)
(1387.52179 463.9324202 -498.5861035)
(1822.362143 539.6189629 1.404299851)
(1206.944403 477.0630578 -589.6591744)
(880.8429784 479.5183713 756.066625)
(2049.167856 314.7552585 -130.7650146)
(1117.118896 487.9802588 28.9193307)
(1424.993446 -324.2367107 2.280523925)
(1471.737042 -154.5985319 -295.0619424)
(1177.538743 1267.046259 -311.5014564)
(74.53122179 930.5411478 280.0672031)
(1819.530694 213.4964657 101.7099039)
(1476.081098 630.9885581 93.40068221)
(1000.154887 861.4290918 -773.1994928)
(1538.068827 393.8017896 338.5027904)
(1101.085697 441.6873528 -272.5487136)
(1671.170482 37.21151254 -369.6850411)
(1558.743506 -275.3565457 -338.8335718)
(2141.620938 -276.4033306 -575.7958109)
(1714.351096 -423.6002251 52.46686781)
(1309.907213 125.710983 -253.6205349)
(1160.83507 246.3925557 -412.7672811)
(2189.922591 814.5328344 -70.85038523)
(1739.469865 1141.148817 248.1796444)
(2035.176298 611.6504669 60.18701053)
(1337.039288 156.7040516 -40.36034467)
(1573.612668 -162.9487627 -28.08481542)
(1782.445083 -360.2271366 200.3128202)
(2330.753934 146.7386759 -43.50427197)
(1441.461079 269.8235506 272.0198298)
(1061.900241 346.2908185 78.61526947)
(816.4797239 140.1065619 214.7180419)
(1576.602548 119.2583336 -236.6693151)
(1196.865298 446.8307307 526.9788044)
(1757.696198 -8.893471442 281.3023715)
(1589.822268 10.70418528 24.56642069)
(1330.730442 -86.44897793 -352.3867855)
(1294.377849 -125.2717367 1120.186567)
(1554.991506 -44.15449988 -36.33458246)
(1438.233014 -17.98924333 -286.0247332)
(889.0051505 530.7355381 -138.0113993)
(1287.85129 383.8012476 409.266602)
(1364.381305 -90.93614901 -253.9402389)
(1513.423357 1.304180721 364.2395912)
(1479.430727 447.6236095 575.2236271)
(1994.339239 881.7547856 -249.8414478)
(1541.792466 40.25160818 235.517036)
(1882.192034 246.177208 -103.3700297)
(1727.033142 910.7946812 -351.0068094)
(1535.51047 561.9964631 -55.61668711)
(1489.086226 79.23377368 -246.4335379)
(1099.721903 106.893228 -123.1278502)
(1533.413069 265.4240207 -194.3850253)
(1324.488742 -3.601027877 -158.1592934)
(1794.048478 580.1150324 -169.9702863)
(1568.142782 676.2983659 -294.706064)
(1485.652854 494.8347631 -724.8460853)
(1483.609291 -110.0316506 95.77829108)
(1322.79827 361.1597626 -98.50542977)
(1545.399781 -22.02872495 63.21407015)
(1697.682732 -333.9776527 -250.9804363)
(1954.949192 7.461309786 388.7954688)
(1515.627909 691.6657121 508.4023809)
(1662.127634 202.6810528 447.0478459)
(1446.203025 -234.1627052 -91.37657981)
(1810.080282 27.06930421 -264.3757882)
(1354.619461 217.8131942 -219.064181)
(1045.99304 347.3745644 -559.7606175)
(1457.207068 -174.9573728 -188.6310544)
(1704.069604 -386.8412483 900.2465518)
(1716.326287 -239.5434332 320.4815723)
(1852.112967 -119.4336949 338.7718684)
(1720.966815 -235.2813347 103.0537555)
(1103.908168 -199.0220073 -7.367332366)
(1544.591781 252.8254329 -132.6038315)
(1961.080566 -9.007744827 -94.49384425)
(1802.813361 -133.4347927 -154.4677269)
(1953.450883 160.9255155 334.1522634)
(1260.273732 163.8362942 -349.0594513)
(1692.528714 173.5069292 734.6082795)
(1769.296461 -192.7303017 412.4592268)
(907.5040339 -7.695972933 -577.8990086)
(989.2220193 -18.97329883 217.5830068)
(1523.511304 328.2092437 314.9495019)
(1727.123333 293.7763519 -116.0644886)
(2013.144736 357.439841 -438.4280339)
(1529.878267 -213.5074327 198.1169156)
(1668.013058 -329.2871881 -188.0606631)
(2067.954438 -322.7308125 -577.0258717)
(2088.400682 499.0721277 -445.9265997)
(1841.167859 237.1522522 26.49440608)
(1049.378133 409.8616756 -65.94290144)
(1199.36263 -16.45015105 493.2406279)
(1571.73945 256.1869518 -211.1318353)
(1190.56327 155.6863449 426.6574716)
(1481.108292 584.9806879 289.3336576)
(1724.920233 270.5425096 194.8815858)
(1646.980526 209.0882387 117.3930633)
(2678.11127 837.5520391 483.4519835)
(1638.846208 -481.3314483 127.6032825)
(1452.626865 197.0411201 470.2817457)
(741.5800243 -108.4042797 837.0903867)
(2007.007285 92.71312861 101.1846908)
(1769.96178 183.7433711 209.1987255)
(1512.054066 327.7596279 165.2594593)
(1246.895198 -61.27556601 13.6385532)
(1474.112166 -317.3508374 -4.894485115)
(2005.949157 243.3249192 -93.98255474)
(1439.649261 -49.64239739 244.810703)
(1915.611886 -85.07338567 162.3231707)
(1337.848961 -47.85854064 30.84769786)
(1210.02624 203.4724825 273.3406148)
(1644.096835 1459.861401 -368.7211429)
(834.5199806 216.9462067 -194.1386282)
(1371.855052 383.1574828 -162.3019358)
(1052.795512 368.1299226 -231.6145946)
(1655.561789 108.6577485 -117.2684724)
(1444.927797 214.1736746 -23.79599311)
(1757.04776 738.8473283 475.3268949)
(1135.647026 705.9957094 640.9570141)
(1513.016194 610.0374519 156.6652201)
(1806.417093 250.1528802 180.0196991)
(1746.168892 -612.73347 116.8860286)
(1794.487822 31.35557435 -252.5692332)
(930.43587 222.4047313 -194.8855662)
(1555.071258 740.3995093 126.3960021)
(1418.62673 288.3720346 58.28830602)
(1070.046331 1327.557523 455.9134902)
(1376.027115 357.5173554 -347.6975328)
(1540.321326 24.70614922 -367.020305)
(1922.617838 496.9880654 -138.9224499)
(1758.636238 125.3979352 574.6802431)
(1340.202972 432.2707037 4.4658473)
(2021.816994 17.80540729 46.92835041)
(1824.893126 -36.17981788 29.84306091)
(829.1272813 32.23274587 -181.1412284)
(1482.848248 237.4220586 781.2964593)
(678.151269 -383.4069148 406.0165404)
(437.7423793 1037.127525 392.8770475)
(1740.20137 522.0545079 -0.1717225734)
(1634.89232 417.4813344 -578.269938)
(2065.376009 67.73303114 985.4337946)
(1481.625744 74.83404988 -770.5610298)
(1934.478895 182.2138333 68.66717224)
(357.93032 622.4693266 796.0619208)
(1460.139394 815.9117711 535.8039918)
(1578.96918 695.1661025 148.5234672)
(1676.387993 900.3972921 -473.6124489)
(1120.158263 626.4795687 -539.0662888)
(1453.358526 -98.29283466 292.333068)
(1307.2569 171.8010635 -728.6205824)
(1665.632062 -84.72121419 -455.9223967)
(1629.617965 193.1748243 -134.7991058)
(1832.130765 416.1785061 -4.778383661)
(1225.824491 81.08473592 -469.6606033)
(1527.595558 -18.92940284 -238.574956)
(1671.075355 1410.495791 -510.2236354)
(1723.081206 4.038524979 -186.4960874)
(1386.37652 379.9071775 -47.0749924)
(1748.820846 126.6583474 -20.62371863)
(1228.651554 -3.955575737 196.8531744)
(2079.241532 638.2838878 -496.6096308)
(834.2943066 -273.9535029 562.591162)
(1230.193909 844.5947653 1055.27664)
(1932.309817 405.8794649 -317.9331938)
(1683.024675 -18.27542933 49.46678645)
(1390.049218 4.161000645 6.882449677)
(1850.08872 168.7003296 -447.6012303)
(1449.802136 -327.1829369 -255.7395422)
(1898.769491 241.2875641 -416.2597528)
(1690.904806 -72.67862216 522.5899734)
(942.1138049 985.8022879 -175.9415832)
(2065.57125 -140.4662028 36.70191371)
(1826.061892 184.7580063 83.28412994)
(1829.464501 -326.9382236 593.922653)
(1442.548423 267.1924143 264.5542367)
(1320.576479 -221.1817003 169.7392318)
(632.7147685 614.5028653 464.9176276)
(2016.147557 636.5490944 -612.3211854)
(1422.85099 -342.7478442 162.1790213)
(1598.412191 501.9606892 231.6562239)
(1354.416802 459.1834437 -355.7699109)
(2049.2824 556.1652021 -320.6341029)
(2078.369548 -253.5852927 165.8313541)
(1196.032673 303.0836065 353.567438)
(1105.378746 -14.13250618 -137.0992536)
(664.7331108 986.7351907 582.7165972)
(2181.187343 572.8528061 289.1666037)
(1400.965379 -182.1797752 276.0502238)
(1241.950624 516.6598448 386.8600718)
(985.7016733 546.5271815 -889.3732656)
(2278.290477 -380.0983809 -272.3703039)
(1092.532083 371.9581993 -157.559119)
(1507.12784 241.8408003 63.57164659)
(1353.084084 131.2777868 308.8071902)
(1790.141172 253.7365982 -368.6213932)
(1598.607244 185.0659248 -27.23290042)
(1009.26874 941.3277068 247.8128233)
(1588.25218 76.55967851 391.4373956)
(1546.71322 -138.3710511 -172.5676002)
(1104.370426 217.524107 -52.89278018)
(1723.597263 884.1620804 314.0944726)
(1462.250424 1014.752241 -375.2066762)
(940.8100192 1334.631808 -504.9317939)
(1956.495987 -272.1990716 421.3885688)
(1373.020723 146.3501291 -658.9062023)
(958.7361846 563.7876313 -988.3493549)
(1569.130965 243.5351876 -504.1442023)
(2251.62369 375.4228902 645.4086083)
(927.7603993 1102.834286 224.1648161)
(2082.115793 -327.9657409 -458.7078359)
(1950.666214 -59.17558023 404.030718)
(1522.399363 -82.88766506 242.3093735)
(1492.133715 365.2263175 -219.9305621)
(1379.817984 -125.0325397 740.8897293)
(2406.940392 180.7618737 179.8524982)
(1951.351207 -96.84619263 162.2448306)
(1031.908042 387.90738 -287.3067184)
(2448.601337 -126.8652822 -52.81307098)
(1254.315652 -175.1911122 157.7873764)
(1344.174043 -260.5565219 151.4887101)
(1828.14494 552.8075741 721.5136556)
(1957.173569 -375.1680636 95.51846283)
(1195.896336 237.0439559 31.15551607)
(1501.340991 131.9653737 414.0780269)
(870.2612139 569.3619387 -732.5517549)
(1393.433146 18.56085996 452.6445992)
(1708.314105 26.8317076 522.7816628)
(2012.245301 -114.0842375 -592.6458679)
(1987.504541 492.6573369 510.5729534)
(1712.712758 501.565525 488.9211099)
(1666.650694 596.7321077 -7.732968993)
(2139.566694 331.974205 -302.4966548)
(1835.719072 139.2898569 -364.6796009)
(242.3008428 460.1045717 175.2186894)
(1509.794678 494.4599704 725.8787486)
(1735.477773 858.9760592 -326.9727279)
(1327.230109 416.5352998 -234.9316869)
(1330.882994 -222.7016068 522.2068226)
(1650.093552 86.54542536 123.9378545)
(1557.036391 584.3321102 1069.753224)
(1323.763289 79.95984414 7.89842632)
(571.4594167 1429.770865 396.5092569)
(1934.000016 313.9636821 68.81372962)
(1286.264471 -156.861791 -683.7873117)
(1348.385641 258.4427508 -367.180406)
(1506.456133 -364.0162231 479.4248005)
(1057.613987 90.7148882 -493.7589493)
(2374.403914 296.2303543 150.0892802)
(1987.366886 71.70917123 -37.30540278)
(1294.473183 371.021779 -6.759719746)
(1160.380349 -212.1751532 115.7256705)
(1473.107092 98.81307642 270.2774004)
(1973.615271 146.0597222 -20.59602592)
(1629.137757 211.2229046 158.3887183)
(1214.50201 181.8038598 -278.0618737)
(2044.112566 279.6673124 -201.9209801)
(2187.211418 326.5678829 207.2063437)
(2239.829676 -216.4468359 27.27031548)
(696.2856014 770.0464525 -774.030687)
(1533.237401 738.075524 -30.20770002)
(1840.000231 251.2125742 614.2495094)
(1856.597002 478.2241946 268.4740549)
(1549.7868 108.124736 684.0701247)
(1764.873106 158.5686285 612.0276369)
(1581.559142 -23.38737677 -377.0547187)
(2091.70855 255.1007698 -102.3719924)
(-121.0033473 555.6291714 -583.8666414)
(2011.495104 -322.0073706 -236.7994917)
(761.430174 1047.343085 -213.9648593)
(1513.359854 -565.1179829 -176.5636853)
(1895.387439 166.4874901 280.9995638)
(1962.500104 353.192458 11.82090126)
(1411.875624 1027.18909 179.3677422)
(1693.992884 -672.3657191 162.2079256)
(1456.251315 615.9234723 710.7055076)
(1610.38278 340.0903441 -75.30244064)
(1897.621563 -237.0494548 -76.1628198)
(1361.199593 116.6653554 -293.4050308)
(968.189922 441.8546048 391.206763)
(711.7234508 339.769552 456.0210702)
(1667.763603 308.7617725 291.6732406)
(1525.918822 -265.0320913 314.4629906)
(1893.860922 -642.037183 78.41930457)
(1592.398031 236.1762481 -485.0934864)
(765.1708917 538.0166202 -203.2559937)
(1903.879307 -154.4709069 -281.6191284)
(1802.973936 953.3264732 -755.8497068)
(1968.402459 132.9638869 -472.3969805)
(1819.260342 146.7206732 -92.28021027)
(1811.155856 35.10448792 -263.4638415)
(1452.293058 -430.3187561 -528.0587686)
(1989.791395 -352.0257262 203.9220816)
(1301.827192 766.966758 13.41757744)
(1241.478963 367.9790683 662.4494255)
(2382.817323 43.5308683 -439.0842703)
(1407.624906 -121.9199654 143.1061283)
(1211.693932 -13.57120456 324.1658121)
(1033.220375 410.1022495 87.85086567)
(1749.657335 495.4650242 -210.1528322)
(1335.951706 594.3161648 444.8075859)
(2303.84775 -372.8719172 746.9331582)
(1727.175789 -282.686175 458.4871219)
(1190.800622 645.5309243 186.157297)
(1439.923504 122.1736404 -61.9673331)
(1030.334923 -24.59938495 -256.3124149)
(1552.798122 853.9663994 328.7452611)
(1643.314383 9.213088801 -260.1488729)
(1429.878191 -5.410056109 628.6471071)
(1707.642513 468.7177071 -155.1421206)
(2148.406865 -196.8494877 354.5274174)
(1588.369207 -279.6233663 162.2502145)
(1615.705604 -452.0887081 251.2927962)
(1225.108638 503.7702655 228.5374039)
(1981.152571 -127.1286786 -84.36535544)
(1750.290528 -210.7572905 47.57100849)
(1337.036122 -500.5026973 450.0838201)
(1751.991031 176.2962705 -423.5590552)
(916.965484 412.4568871 1141.611981)
(1792.900271 220.2831444 -916.6242553)
(1401.647003 126.2632683 -444.3565755)
(1216.672402 308.6453713 405.0602069)
(1370.55205 -140.8773911 -109.4227702)
(1575.566053 -314.8639102 -560.3279323)
(2073.694258 -163.1243825 154.748389)
(1472.616481 308.9668812 365.2529778)
(2164.349344 -317.8863004 -46.51918131)
(2374.448162 206.3638195 -89.16075742)
(1668.050704 565.3743516 480.2759152)
(1631.479757 153.2008966 248.3301318)
(1496.628359 542.9684865 65.29795701)
(1478.220072 283.1281209 -189.7167952)
(1632.427962 283.2953914 322.9584872)
(1308.707594 901.9543052 -1064.160515)
(1691.952556 -157.7457846 419.7823391)
(630.2009751 541.7549255 145.0443344)
(1174.026589 -594.7883977 -26.86852097)
(1793.690293 1011.675465 1075.076097)
(1428.696943 70.12449765 -414.7565005)
(1095.315346 176.2500832 -211.8976748)
(1758.263293 283.4663033 -182.7880269)
(1844.194751 402.0341755 318.1913831)
(1063.762037 646.3885962 -152.3150121)
(1785.200918 -268.6598343 -100.3595561)
(1801.814013 -95.66055625 -499.3356811)
(2068.18261 -68.44928865 22.50998706)
(1925.354071 653.8272086 -429.9070498)
(574.8504704 269.7693909 545.0244588)
(2000.170566 -214.4725028 114.800713)
(1656.109633 197.3038612 -550.9563681)
(1489.446331 -285.8236042 417.023234)
(2199.428267 239.3356605 -223.7183154)
(1290.936153 381.8282816 451.443061)
(1641.627318 -357.7967624 370.6074585)
(1351.148028 223.6489348 50.86840967)
(1575.803334 308.4653417 461.1282645)
(1399.202633 -139.037141 -303.9878055)
(1757.136901 -248.0475789 212.570066)
(1319.005546 186.3338511 39.66942737)
(1947.239813 85.64971889 -54.3130095)
(1232.28606 601.0731265 691.0966742)
(1383.122253 -131.8033738 110.6934295)
(1639.104768 -95.86557127 -350.3536601)
(1704.887891 -273.0868701 -220.3630958)
(1144.290266 77.14581055 393.923378)
(1757.69202 -123.6485873 -149.743179)
(1710.935107 286.4551013 -326.0629754)
(1505.781158 -111.1530045 112.5124703)
(1521.416401 333.6957721 189.1399192)
(1667.892879 33.19970993 -106.3706738)
(1794.03589 16.42769228 80.37418477)
(1479.824489 -85.75113408 42.61838533)
(983.3826549 494.4267074 -1291.876666)
(1708.817828 -341.1343347 -1.059970012)
(1033.779582 -143.7269809 78.58602558)
(1962.954049 876.2803924 -104.6216921)
(1379.50142 -51.12409698 -19.97264356)
(1680.690967 -343.585627 -6.912133348)
(1776.078099 -409.8680276 -128.1330494)
(2229.955477 546.487692 -223.1006787)
(2242.316367 -96.07771185 421.5366169)
(1792.915765 -73.30893766 249.8205667)
(1411.724529 504.2184334 346.1752587)
(704.282485 311.9799442 483.6663721)
(1829.165151 179.2271403 -250.2803761)
(1696.611803 49.15520372 -964.9218266)
(1596.490594 219.4878998 273.2701595)
(1315.8318 83.9882686 362.7438481)
(1465.503109 535.5415797 -385.4013397)
(1904.479995 899.6414801 804.6153631)
(1699.719254 -194.3652529 453.0576883)
(1646.79131 415.9382886 399.9799606)
(1704.599723 -27.37494652 -137.5461238)
(1660.528654 -107.3278339 -191.8418495)
(1919.899696 -244.9011823 362.3027498)
(816.9168325 77.0548209 357.8286935)
(919.0230991 858.5331763 1107.877522)
(1811.090404 316.9100685 318.9951715)
(1441.074795 -180.0877516 131.8972517)
(1816.819684 -142.5220453 228.436782)
(1717.890229 83.16910529 606.4460183)
(1303.250002 421.9824428 -128.7275608)
(1048.904638 160.4758159 171.3549552)
(1616.738267 218.8587657 299.2507457)
(1038.195484 -331.7906045 -499.2072686)
(1337.177778 -129.1759209 -473.9765984)
(1595.592873 -409.8465095 -79.67425403)
(1910.583459 207.4584626 241.5062302)
(1687.999524 -262.1542745 93.26282086)
(1767.544582 1173.180382 -91.58588656)
(1895.161809 250.584671 18.52592799)
(1275.562192 -331.6881534 134.3736494)
(1271.332245 -637.1769723 -33.41047796)
(1149.144457 207.6265083 -145.4247606)
(1579.76735 -249.7689901 80.5069619)
(1457.05369 -53.92783645 301.8127979)
(1213.160148 -202.3494048 -59.92471734)
(1706.105608 -95.53843993 175.2404407)
(1827.335966 167.4376403 -244.6941779)
(1746.596438 398.8110981 74.14133327)
(1659.379443 -82.98443573 -145.5414221)
(2021.48667 355.7330517 -373.9747352)
(961.2657525 829.9595201 -148.7657237)
(2186.466947 -275.6113282 -82.64637151)
(1192.118497 450.5404136 -78.61680331)
(1679.513258 163.4697 -300.8482234)
(1097.675093 74.69744485 -451.6484862)
(1296.724851 -327.49293 -146.877969)
(1499.894054 663.6199932 -32.58590924)
(1186.075156 208.8651549 171.8171599)
(1407.214841 299.8781275 45.87686329)
(1484.312132 655.0885397 -171.7777486)
(1624.38688 -376.5192739 -150.8477864)
(1022.65561 1688.357845 403.1760953)
(1773.994664 27.52333654 117.6473158)
(1797.410624 -630.1921401 68.37897875)
(178.0281625 222.3388413 -847.6088426)
(1585.037748 -246.068238 -435.8653531)
(1841.993039 1059.411317 -137.1336087)
(1927.263833 54.98750814 860.2854725)
(1374.153923 -46.37588087 282.2492789)
(1181.913914 759.0578032 150.3035116)
(1319.754657 -428.5974025 236.9314722)
(1586.1488 228.481925 82.24508192)
(2599.55273 291.0974793 68.44771465)
(761.7833387 690.7260864 -862.2424241)
(1212.855086 236.2223447 -184.7024985)
(2029.186202 126.6695325 -35.63624758)
(1730.193349 -668.0340067 403.3795018)
(1704.981141 -249.7043799 -652.7151841)
(1751.980817 -307.4430953 197.0929434)
(1407.92828 -142.3062358 68.29745218)
(1806.226464 0.3339911442 -285.6634447)
(1248.65444 -807.3715896 278.460267)
(1641.065514 -370.5394512 243.9100065)
(1671.756673 -17.93925236 -580.003023)
(1134.388579 -103.4119012 -96.64149707)
(1140.295873 216.5803953 -268.0236638)
(1785.621368 -134.6717269 548.6846373)
(1547.991387 -390.6072518 -213.5099413)
(1916.075083 -48.93698557 551.8455718)
(459.3472098 453.1988761 624.3357735)
(1624.622269 84.94085964 209.0679311)
(1559.843483 -318.0856532 -250.3299915)
(1676.119098 -379.4166791 773.531892)
(1544.860279 -406.4931081 -630.419921)
(2217.986551 208.8556924 -134.4960201)
(2095.307175 363.1717894 81.47299642)
(1312.964494 505.3577259 -234.2618491)
(1472.781857 314.5866233 -446.5152396)
(1492.74321 448.1502741 91.47335845)
(1730.571838 102.6120815 -436.2446971)
(1568.631179 305.6309626 637.2622006)
(1589.992989 175.861288 171.528452)
(1409.207034 162.3383106 -281.6053612)
(1728.955962 383.8962161 -66.11195637)
(1501.074973 654.55444 -47.890014)
(1969.694533 31.90158564 -427.5047148)
(581.9168332 259.5853137 -223.1126746)
(1655.003895 509.7664918 168.9323664)
(1984.548001 294.4557265 -112.4881131)
(1709.244294 1275.196085 514.6419056)
(1380.500945 782.6911785 -313.3400601)
(919.6732799 -294.709948 534.9701127)
(1897.579946 -118.8505266 -69.75886927)
(1517.583061 319.3682025 558.5711139)
(1498.212546 328.1437988 29.60172059)
(1973.688518 268.0689078 435.8723725)
(1517.015807 615.8392663 -131.6253522)
(1578.553682 0.9865823369 288.096573)
(1922.723336 -520.7841191 161.9836486)
(1129.150455 1089.703726 -750.0591827)
(1723.257476 -135.4322034 79.95054112)
(1493.898479 352.4901677 -100.1745669)
(1306.270779 254.4070222 -74.98093858)
(1221.572791 307.4983515 -143.2649168)
(1781.242986 340.8579962 386.3651808)
(1906.477956 159.3758133 -85.04879612)
(1788.720424 -406.6680697 -105.3367206)
(1173.748201 1035.424589 -402.5592188)
(1586.553177 201.4758824 773.3032416)
(2000.977552 302.2134402 -433.7634572)
(2000.705867 80.46401048 175.8756227)
(1579.329942 -286.4897805 -785.8008674)
(2005.290421 441.9393708 -149.3805898)