/*--------------------------------*- C++ -*----------------------------------*\
| =========                 |                                                 |
| \\      /  F ield         | OpenFOAM: The Open Source CFD Toolbox           |
|  \\    /   O peration     | Version:  2406                                  |
|   \\  /    A nd           | Website:  www.openfoam.com                      |
|    \\/     M anipulation  |                                                 |
\*---------------------------------------------------------------------------*/
FoamFile
{
    version     2.0;
    format      ascii;
    arch        "LSB;label=32;scalar=64";
    class       volScalarField;
    location    "0.002";
    object      dsmcSigmaTcRMax;
}
// * * * * * * * * * * * * * * * * * * * * * * * * * * * * * * * * * * * * * //

dimensions      [0 3 -1 0 0 0 0];

internalField   nonuniform List<scalar> 
546
(
8.54301468e-16
8.492796512e-16
8.266550711e-16
8.352150974e-16
8.322584879e-16
8.121913165e-16
8.413191158e-16
7.980745666e-16
8.608055242e-16
8.061204497e-16
8.210413411e-16
8.12043955e-16
8.33718195e-16
8.067589119e-16
8.256145273e-16
8.310150953e-16
8.525204679e-16
7.895470888e-16
8.441068847e-16
8.02451021e-16
8.63217294e-16
7.747155508e-16
8.299169088e-16
8.335941403e-16
8.254540068e-16
8.520406946e-16
8.163373367e-16
8.379525782e-16
7.985274055e-16
7.966012827e-16
8.442621287e-16
8.450472186e-16
8.498064826e-16
8.559567804e-16
8.166083243e-16
8.467556637e-16
8.949216749e-16
8.325177531e-16
8.646447912e-16
8.154639136e-16
8.606811187e-16
8.404774896e-16
8.442426458e-16
8.254533877e-16
7.929968442e-16
8.356790767e-16
8.235916971e-16
8.398446898e-16
8.639327092e-16
7.831920688e-16
8.532494333e-16
8.609353969e-16
8.181589698e-16
8.501205921e-16
8.135511598e-16
8.304825063e-16
8.023496301e-16
7.825848552e-16
7.936358245e-16
7.737417115e-16
8.348217189e-16
8.644285188e-16
8.55385706e-16
8.646922545e-16
8.60075276e-16
7.947495985e-16
8.304191595e-16
9.195298302e-16
8.723398922e-16
8.366805363e-16
8.286913929e-16
8.771631714e-16
8.479329378e-16
8.43170837e-16
8.638174022e-16
9.528494011e-16
8.115053849e-16
8.601257825e-16
7.990091735e-16
8.288932752e-16
8.247609388e-16
8.277486753e-16
8.233061151e-16
8.295344209e-16
7.858453705e-16
8.467927528e-16
8.143428881e-16
8.558780009e-16
8.017419531e-16
7.548058668e-16
8.127837483e-16
8.860393188e-16
8.766887428e-16
8.416570919e-16
8.355423413e-16
8.999787222e-16
8.548284278e-16
8.248107652e-16
8.575612395e-16
9.043598206e-16
8.732982416e-16
8.275670685e-16
8.550315742e-16
8.401439716e-16
8.285402293e-16
8.090167441e-16
8.252361182e-16
8.050504063e-16
8.235577692e-16
8.484135848e-16
8.180701565e-16
7.997594977e-16
8.358055109e-16
8.629514406e-16
8.441474844e-16
8.248344296e-16
8.038822199e-16
8.068910051e-16
7.955603529e-16
7.474919287e-16
8.242168805e-16
8.728732961e-16
8.682219913e-16
8.491419209e-16
8.101265556e-16
8.377898314e-16
8.43677779e-16
8.43677779e-16
8.344874169e-16
8.133896842e-16
8.327066577e-16
8.186709228e-16
9.12142075e-16
8.518999353e-16
7.971404954e-16
8.658007736e-16
8.683258547e-16
8.039773517e-16
8.676610885e-16
8.259505274e-16
8.295694409e-16
8.033783028e-16
8.489664414e-16
8.194097704e-16
8.513212303e-16
9.016023559e-16
8.083985065e-16
8.008554223e-16
7.652672703e-16
7.69723514e-16
8.322180879e-16
7.968950356e-16
8.403139876e-16
8.114377254e-16
8.236434606e-16
8.345641248e-16
8.504591401e-16
8.06967636e-16
8.242682095e-16
8.969567486e-16
8.625225153e-16
8.307762925e-16
8.339204059e-16
8.545697894e-16
7.85969434e-16
8.38473873e-16
8.558343119e-16
8.695600595e-16
8.346585875e-16
8.334589475e-16
8.286309571e-16
8.235997028e-16
8.181727196e-16
8.3720888e-16
8.063577872e-16
8.421952315e-16
8.571506473e-16
8.021472492e-16
7.559649408e-16
7.805877607e-16
8.343970979e-16
8.06956716e-16
8.672829389e-16
8.174969877e-16
8.258961891e-16
8.607546083e-16
8.636840009e-16
7.898082212e-16
8.329294779e-16
8.065427542e-16
7.905849543e-16
8.394137462e-16
8.048397661e-16
7.955574742e-16
8.115653935e-16
9.036212813e-16
8.933592332e-16
8.037167266e-16
8.173572104e-16
8.364215485e-16
7.805099652e-16
8.207197613e-16
8.314237029e-16
8.612433594e-16
8.884322559e-16
8.139899358e-16
8.362054318e-16
7.875198044e-16
7.853290285e-16
7.612523157e-16
8.389381493e-16
8.540857128e-16
7.958357638e-16
8.203426212e-16
7.754568161e-16
8.342979782e-16
7.76945812e-16
8.316324985e-16
8.152679089e-16
8.829887113e-16
8.113635777e-16
7.869744615e-16
8.284155757e-16
7.810618638e-16
8.078104698e-16
8.913155547e-16
8.27372703e-16
7.923793867e-16
7.708940582e-16
8.237348174e-16
8.142536258e-16
8.323300413e-16
7.696514212e-16
8.386532705e-16
8.060153743e-16
7.663983245e-16
7.516209072e-16
7.967736751e-16
7.98163869e-16
7.352850876e-16
8.111939212e-16
7.855092995e-16
7.809847326e-16
8.201947192e-16
8.081830179e-16
8.3432835e-16
8.005947693e-16
8.472596394e-16
8.57948673e-16
7.881915873e-16
7.829914191e-16
7.911950145e-16
8.23205906e-16
8.63181513e-16
8.207114667e-16
8.205690177e-16
8.495964127e-16
8.215271428e-16
8.106539767e-16
8.447776694e-16
8.171962705e-16
8.608888127e-16
8.184531431e-16
8.098170747e-16
8.536880336e-16
7.507276804e-16
8.351256009e-16
7.800801036e-16
8.280320271e-16
7.953376186e-16
8.121631546e-16
8.037542443e-16
7.788870572e-16
7.802650501e-16
8.104791277e-16
8.190858296e-16
7.783491283e-16
7.968774948e-16
7.879926509e-16
7.615859786e-16
8.178238073e-16
7.937367788e-16
7.920921584e-16
8.296794438e-16
8.99991334e-16
8.023386672e-16
8.253970787e-16
8.24492793e-16
8.049274022e-16
8.168772418e-16
7.950782706e-16
7.883205786e-16
7.882564245e-16
9.00023708e-16
7.718740691e-16
8.101363861e-16
8.287846582e-16
7.818035858e-16
7.711092103e-16
7.939948893e-16
7.50498036e-16
7.854874599e-16
8.398221774e-16
8.053426715e-16
8.039057669e-16
7.963723956e-16
7.852022541e-16
7.993332209e-16
8.547694799e-16
8.879881674e-16
7.758217943e-16
7.905956581e-16
7.826541433e-16
7.94138373e-16
8.226140801e-16
8.193838215e-16
7.970910527e-16
8.10092868e-16
7.902425836e-16
7.848032078e-16
8.003407188e-16
7.76339613e-16
8.307706182e-16
8.411294351e-16
7.946946974e-16
8.150773908e-16
8.122566127e-16
8.243898434e-16
7.779876499e-16
7.415907072e-16
7.526168605e-16
7.941526122e-16
7.680791261e-16
7.824604763e-16
7.776891436e-16
7.692221002e-16
7.878968443e-16
7.591930634e-16
8.158225465e-16
7.69098652e-16
8.186059388e-16
7.559103259e-16
8.367451255e-16
7.804279445e-16
7.829066984e-16
8.879012993e-16
8.024975505e-16
8.303209824e-16
7.69773543e-16
8.547177957e-16
8.03778677e-16
7.645628787e-16
8.090011953e-16
8.150510052e-16
8.242968433e-16
8.333137985e-16
8.031844802e-16
7.807042893e-16
7.550948604e-16
7.445250799e-16
7.826106632e-16
7.787836586e-16
7.973020118e-16
7.55904145e-16
7.502785347e-16
8.143804079e-16
8.146588537e-16
7.738984327e-16
7.79099381e-16
7.712553887e-16
7.798966098e-16
7.447091558e-16
7.870257321e-16
7.624822633e-16
7.521841391e-16
8.390219185e-16
7.980528292e-16
8.095011073e-16
8.055322448e-16
8.122353726e-16
8.178800642e-16
7.91895741e-16
7.879340217e-16
7.651246754e-16
8.161421791e-16
7.908281634e-16
8.270474068e-16
7.73836806e-16
7.887629688e-16
7.674860721e-16
7.510818402e-16
7.82270154e-16
7.858329014e-16
7.887905248e-16
7.784567839e-16
8.115283998e-16
7.514517755e-16
7.842167125e-16
7.611280792e-16
7.932450986e-16
7.599623808e-16
7.865592053e-16
8.193325835e-16
7.910163906e-16
8.159760727e-16
7.751799781e-16
7.796464968e-16
8.144200388e-16
7.757931159e-16
7.617947386e-16
7.94789368e-16
7.566384298e-16
8.706406143e-16
8.441118383e-16
7.905735386e-16
7.685607152e-16
7.633939167e-16
7.652352843e-16
8.061846301e-16
8.04620013e-16
7.367926725e-16
7.41739061e-16
7.358808577e-16
7.429481115e-16
7.243239408e-16
7.787252794e-16
7.869813371e-16
7.606093205e-16
7.748843396e-16
7.640985145e-16
7.523958134e-16
7.796974854e-16
7.391956749e-16
7.506663726e-16
8.188021881e-16
7.691863651e-16
8.917997802e-16
7.857964745e-16
7.990742258e-16
7.607036103e-16
8.171167358e-16
7.920010011e-16
8.196276598e-16
7.789336373e-16
7.926524494e-16
7.852977501e-16
7.56377927e-16
8.01602802e-16
8.360534905e-16
7.681826634e-16
7.385003536e-16
7.968550212e-16
6.973950171e-16
7.845702219e-16
8.031026231e-16
7.264906484e-16
7.555559071e-16
7.731041246e-16
7.531749921e-16
7.703559603e-16
8.132210024e-16
7.731560005e-16
7.626499948e-16
7.250337853e-16
7.60045518e-16
7.364536227e-16
7.692207643e-16
7.753089235e-16
7.682058877e-16
7.569702183e-16
7.563026699e-16
7.525053916e-16
7.703113901e-16
7.452839128e-16
8.021609494e-16
7.861651072e-16
7.806183599e-16
8.550175374e-16
7.782082636e-16
6.943071999e-16
6.970360722e-16
7.146075774e-16
7.795768964e-16
7.104968861e-16
7.184343174e-16
7.743032856e-16
7.701093601e-16
7.562689376e-16
7.489598143e-16
7.403401824e-16
7.968822813e-16
7.926146897e-16
7.430483071e-16
7.755258517e-16
7.469467411e-16
8.076329616e-16
7.566838365e-16
8.00797763e-16
7.567959894e-16
7.634846041e-16
8.479082261e-16
7.632829173e-16
8.263047111e-16
7.797976353e-16
6.934174671e-16
6.886476279e-16
7.729199113e-16
7.111860998e-16
8.198368015e-16
7.358608196e-16
6.8502421e-16
7.614487447e-16
7.249479836e-16
7.563611164e-16
7.260433969e-16
7.387330469e-16
7.46011407e-16
7.552722279e-16
7.299449645e-16
7.78392521e-16
7.260764185e-16
7.916027984e-16
7.383477438e-16
7.607753432e-16
6.58123582e-16
7.127282697e-16
7.439853854e-16
7.218331277e-16
7.014983813e-16
7.312058437e-16
7.516604833e-16
7.955951648e-16
7.313310547e-16
7.476516988e-16
7.173704806e-16
7.585163218e-16
7.487583433e-16
7.028569844e-16
6.930268517e-16
6.862707241e-16
6.659481866e-16
7.618253115e-16
7.884482978e-16
7.14807086e-16
6.850848941e-16
6.966554078e-16
)
;

boundaryField
{
    flow
    {
        type            zeroGradient;
    }
    obstacle
    {
        type            zeroGradient;
    }
    frontAndBack
    {
        type            empty;
    }
    procBoundary1to0
    {
        type            processor;
        value           nonuniform List<scalar> 
21
(
8.861870315e-16
8.48577127e-16
8.178424391e-16
8.616015149e-16
8.436669506e-16
8.015774699e-16
8.175119747e-16
7.79613904e-16
7.855843253e-16
8.181151707e-16
7.885171468e-16
7.722123727e-16
7.19051554e-16
7.418016973e-16
7.77492275e-16
7.121637669e-16
6.550539977e-16
6.95855734e-16
7.400506274e-16
7.129952622e-16
7.494816948e-16
)
;
    }
    procBoundary1to3
    {
        type            processor;
        value           nonuniform List<scalar> 
36
(
7.980335999e-16
7.764202088e-16
7.586741795e-16
8.185395861e-16
7.980335999e-16
7.535697644e-16
7.464374148e-16
7.40410441e-16
8.40417898e-16
7.788348036e-16
7.834647386e-16
7.764202088e-16
8.169040204e-16
8.053215001e-16
8.211519486e-16
7.301020917e-16
7.168260656e-16
7.464374148e-16
7.378939604e-16
7.177626811e-16
7.811862649e-16
6.98463776e-16
7.731761726e-16
7.682004693e-16
8.053215001e-16
7.254783891e-16
6.499257812e-16
6.992722844e-16
7.473423118e-16
7.017822869e-16
8.236928249e-16
6.768001755e-16
7.177626811e-16
6.791524088e-16
6.499257812e-16
6.847267215e-16
)
;
    }
}


// ************************************************************************* //
