/*--------------------------------*- C++ -*----------------------------------*\
| =========                 |                                                 |
| \\      /  F ield         | OpenFOAM: The Open Source CFD Toolbox           |
|  \\    /   O peration     | Version:  2406                                  |
|   \\  /    A nd           | Website:  www.openfoam.com                      |
|    \\/     M anipulation  |                                                 |
\*---------------------------------------------------------------------------*/
FoamFile
{
    version     2.0;
    format      ascii;
    arch        "LSB;label=32;scalar=64";
    class       volScalarField;
    location    "0.002";
    object      dsmcRhoNMean;
}
// * * * * * * * * * * * * * * * * * * * * * * * * * * * * * * * * * * * * * //

dimensions      [0 -3 0 0 0 0 0];

internalField   nonuniform List<scalar> 
546
(
27.422
26.961
26.166
26.043
25.376
24.722
25.316
24.397
25.438
25.01
24.327
23.639
22.404
22.911
22.846
21.979
21.294
21.137
21.076
20.962
19.816
20.36
20.623
20.342
19.528
18.389
17.882
16.989
15.663
12.774
24.409
23.759
23.408
23.365
22.48
22.541
22.828
22.496
21.885
21.856
21.334
20.935
20.738
20.876
20.767
20.409
19.991
19.604
19.324
18.949
17.774
18.239
18.323
17.462
17.211
17.274
16.726
15.447
14.243
11.731
22.736
23.015
22.046
21.602
21.117
21.231
21.143
20.645
20.96
20.686
21.041
20.139
20.249
19.822
19.184
18.986
18.916
18.456
18.545
17.999
17.593
17.328
17.949
16.837
16.4
16.077
15.553
15.159
13.411
11.947
20.655
21.308
21.67
20.911
21.145
20.848
20.322
20.493
20.27
19.884
19.851
19.909
19.699
19.878
18.504
18.489
18.121
18.203
18.294
17.725
17.039
16.389
16.428
16.31
16.395
15.441
15.048
14.204
13.491
12.303
20.135
20.392
20.699
20.764
20.733
20.445
20.14
20.264
20.467
20.003
19.651
19.471
19.554
19.263
18.783
18.557
18.294
18.365
17.464
17.604
16.881
16.437
15.86
15.992
15.612
15.492
15.682
14.606
13.575
12.282
18.123
18.824
19.421
19.501
19.362
19.874
19.645
19.592
19.938
19.557
19.092
19.151
18.928
18.846
19.117
19.046
18.204
18.272
17.929
17.508
17.191
16.387
16.08
16.221
16.128
15.343
14.971
14.822
13.965
12.661
16.457
17.65
17.995
18.775
18.74
19.569
19.32
19.162
19.122
19.359
19.329
19.047
19.095
19.17
18.769
18.068
18.08
17.655
17.649
17.022
17
16.508
16.455
16.297
16.24
15.819
14.939
14.735
13.938
13.091
15.25
15.794
16.661
17.432
17.716
18.113
18.741
19.063
18.998
18.891
19.043
18.82
18.759
18.661
19.206
18.884
18.238
17.872
17.59
17.708
17.465
16.939
16.641
16.313
15.977
15.764
15.364
14.642
14.428
13.636
13.868
14.546
15.092
15.601
16.679
17.156
17.415
18.001
18.274
18.341
18.475
18.781
18.758
18.745
18.546
18.76
18.449
18.346
18.253
17.804
17.242
16.839
16.778
16.491
16.225
15.723
15.602
15.015
14.214
13.587
12.172
12.844
13.657
14.258
14.941
15.484
16.173
16.706
17.438
17.824
17.887
17.942
18.376
18.59
18.444
18.414
18.398
18.068
17.829
17.653
17.793
17.415
17.092
16.29
16.492
16.328
15.684
15.367
14.517
13.876
11.455
11.984
12.505
13.04
13.72
14.248
14.861
15.715
16.335
17.072
17.599
17.675
17.605
17.986
18.195
17.914
18.02
18.164
17.813
17.969
17.924
17.66
17.264
16.98
15.981
15.965
16.034
16.032
15.428
14.502
10.921
11.3
11.749
12.052
12.538
13.193
13.914
14.377
14.956
15.256
15.575
16.353
17.067
17.051
17.054
17.567
17.595
17.83
18.074
17.935
17.497
17.424
17.312
17.047
17.071
16.783
16.151
15.455
15.171
15.096
10.38
10.576
11.049
11.242
11.684
12.245
12.79
13.002
13.59
14.082
14.807
15.475
15.987
16.483
16.993
17.092
17.377
17.355
17.52
17.535
17.542
17.628
17.29
17.197
16.786
16.386
16.312
15.792
15.835
15.147
9.729
9.939
10.091
10.547
10.768
11.064
11.487
12.115
12.617
13.318
14.008
14.395
15.013
15.59
15.908
16.338
16.785
17.128
16.965
16.921
17.042
17.085
17.374
17.413
16.9
16.525
16.389
16.107
15.573
15.373
9.71
9.934
10.077
10.096
10.345
10.692
11.065
11.542
11.909
12.192
12.469
12.857
13.609
14.384
15.023
15.651
16.112
16.247
16.624
16.95
17.141
17.239
17.219
17.105
17.163
16.953
16.521
16.473
15.978
15.482
9.388
9.299
9.37
9.495
9.775
9.899
10.186
10.433
10.851
11.179
11.758
12.419
12.714
13.296
13.952
14.416
14.867
15.413
15.755
16.264
16.351
16.605
16.699
17.108
17.033
16.8
16.682
16.544
16.332
9.252
9.315
9.365
9.527
9.506
9.637
9.903
10.224
10.305
10.634
11.025
11.245
11.549
12.029
12.501
12.909
13.695
14.439
15.021
15.023
15.306
15.968
16.193
16.316
16.381
9.431
9.429
9.566
9.431
9.558
9.554
9.534
9.623
9.931
10.096
10.163
10.499
10.827
11.109
11.619
12.159
12.606
13.172
13.543
9.204
9.2
9.235
9.233
9.243
9.276
9.353
9.458
9.539
9.414
9.825
9.933
10.064
10.518
9.275
9.18
9.132
9.178
9.173
9.114
9.091
9.11
8.941
)
;

boundaryField
{
    flow
    {
        type            calculated;
        value           nonuniform List<scalar> 
15
(
12.774
11.731
11.947
12.303
12.282
12.661
13.091
13.636
13.587
13.876
14.502
15.096
15.147
15.373
15.482
)
;
    }
    obstacle
    {
        type            calculated;
        value           nonuniform List<scalar> 
30
(
27.422
26.961
26.166
26.043
25.376
24.722
25.316
24.397
25.438
25.01
24.327
23.639
22.404
22.911
22.846
21.979
21.294
21.137
21.076
20.962
19.816
20.36
20.623
20.342
19.528
18.389
17.882
16.989
15.663
12.774
)
;
    }
    frontAndBack
    {
        type            empty;
    }
    procBoundary1to0
    {
        type            processor;
        value           nonuniform List<scalar> 
21
(
27.884
23.689
22.924
20.904
19.696
17.436
16.027
14.337
13.08
11.684
11.113
10.452
10.368
9.625
9.45
9.447
9.284
9.359
9.177
9.265
9.051
)
;
    }
    procBoundary1to3
    {
        type            processor;
        value           nonuniform List<scalar> 
36
(
15.89
16.332
16.564
16.406
15.89
16.325
14.252
14.884
15.281
15.842
16.081
16.332
16.448
10.816
11.489
11.813
12.254
14.252
12.925
9.225
9.506
9.464
9.773
9.899
10.816
10.073
8.966
8.908
8.825
8.912
8.975
8.908
9.225
9.065
8.966
9.15
)
;
    }
}


// ************************************************************************* //
