/*--------------------------------*- C++ -*----------------------------------*\
| =========                 |                                                 |
| \\      /  F ield         | OpenFOAM: The Open Source CFD Toolbox           |
|  \\    /   O peration     | Version:  2406                                  |
|   \\  /    A nd           | Website:  www.openfoam.com                      |
|    \\/     M anipulation  |                                                 |
\*---------------------------------------------------------------------------*/
FoamFile
{
    version     2.0;
    format      ascii;
    arch        "LSB;label=32;scalar=64";
    class       volVectorField;
    location    "0.002";
    object      fD;
}
// * * * * * * * * * * * * * * * * * * * * * * * * * * * * * * * * * * * * * //

dimensions      [1 -1 -2 0 0 0 0];

internalField   uniform (0 0 0);

boundaryField
{
    flow
    {
        type            zeroGradient;
    }
    obstacle
    {
        type            calculated;
        value           nonuniform List<vector> 
30
(
(5.312342254 -1.706504836 -0.7065680134)
(6.201083558 -4.645388861 -1.606555146)
(0.07998012733 -2.307243137 2.18786453)
(3.971021751 -5.842050603 -1.881668798)
(3.137109227 -4.458556031 -1.08306698)
(0.4175788679 -1.446263421 -0.3051210363)
(0 0 0)
(0 0 0)
(12.0087293 -6.929261215 7.304081576)
(-1.326279544 -2.120808457 1.778423759)
(5.200303045 -4.451530937 0.5508499922)
(5.747627502 -7.101585346 -0.7906183478)
(4.144697181 -1.992714574 -0.512670979)
(0.0226322028 -4.002404123 0.6893306825)
(0 0 0)
(5.36386807 -3.537609045 -0.7222333242)
(0 0 0)
(0.9332828315 -3.932502615 1.411790413)
(0.3773873177 -3.094701589 -1.753966606)
(2.510410943 -1.517493317 0.1642293248)
(0 0 0)
(3.443649483 -5.022670514 -0.5426395408)
(0 0 0)
(0 0 0)
(0 0 0)
(0 0 0)
(1.588182486 -2.232389741 -0.457570965)
(1.221960446 -1.589642085 0.7757778833)
(1.833529814 -0.7254896534 0.01157797724)
(2.649735594 -1.752241803 -0.3294714292)
)
;
    }
    frontAndBack
    {
        type            empty;
    }
    procBoundary1to0
    {
        type            processor;
        value           uniform (0 0 0);
    }
    procBoundary1to3
    {
        type            processor;
        value           uniform (0 0 0);
    }
}


// ************************************************************************* //
