/*--------------------------------*- C++ -*----------------------------------*\
| =========                 |                                                 |
| \\      /  F ield         | OpenFOAM: The Open Source CFD Toolbox           |
|  \\    /   O peration     | Version:  2406                                  |
|   \\  /    A nd           | Website:  www.openfoam.com                      |
|    \\/     M anipulation  |                                                 |
\*---------------------------------------------------------------------------*/
FoamFile
{
    version     2.0;
    format      ascii;
    arch        "LSB;label=32;scalar=64";
    class       volVectorField;
    location    "0.002";
    object      fDMean;
}
// * * * * * * * * * * * * * * * * * * * * * * * * * * * * * * * * * * * * * //

dimensions      [1 -1 -2 0 0 0 0];

internalField   uniform (0 0 0);

boundaryField
{
    flow
    {
        type            calculated;
        value           uniform (0 0 0);
    }
    obstacle
    {
        type            calculated;
        value           nonuniform List<vector> 
30
(
(2.423514252 -2.719961072 -0.03183283666)
(2.461300229 -2.727937956 -0.01167828271)
(2.175143043 -2.621602214 0.008765775985)
(2.236531043 -2.594296429 0.09564993549)
(2.173919043 -2.625667088 -0.01458009097)
(2.083350456 -2.47035191 0.02708451166)
(2.08911453 -2.593111537 0.02921210773)
(2.099859436 -2.634814959 -0.01579007025)
(1.950533798 -2.617896807 -0.04819084058)
(1.93219625 -2.570228422 0.070905584)
(2.003267968 -2.487934197 -0.02963202517)
(1.928839288 -2.530758246 -0.05286974252)
(1.894977756 -2.385233566 -0.03946082789)
(1.816638724 -2.450329317 0.02648053322)
(1.857304221 -2.489612037 -0.03360435109)
(1.786999636 -2.421335238 -0.06876154503)
(1.785900076 -2.405728035 -0.06191969383)
(1.649996739 -2.220901514 0.02939210685)
(1.667873656 -2.312611348 -0.03891558484)
(1.738346523 -2.366335024 0.03542753749)
(1.703254818 -2.243700793 -0.05307809616)
(1.616434024 -2.273931688 0.00566653639)
(1.716005505 -2.320519814 0.01627192003)
(1.767004837 -2.394921225 0.03812280471)
(1.613914091 -2.189569955 0.05956658565)
(1.652099939 -2.172622955 -0.007296059989)
(1.595374106 -1.981562888 -0.02632816478)
(1.595060284 -1.920918605 -0.002759998451)
(1.548713707 -1.817445506 -0.04226883268)
(1.665124829 -1.64234968 0.0141470635)
)
;
    }
    frontAndBack
    {
        type            empty;
    }
    procBoundary1to0
    {
        type            processor;
        value           uniform (0 0 0);
    }
    procBoundary1to3
    {
        type            processor;
        value           uniform (0 0 0);
    }
}


// ************************************************************************* //
