/*--------------------------------*- C++ -*----------------------------------*\
| =========                 |                                                 |
| \\      /  F ield         | OpenFOAM: The Open Source CFD Toolbox           |
|  \\    /   O peration     | Version:  2406                                  |
|   \\  /    A nd           | Website:  www.openfoam.com                      |
|    \\/     M anipulation  |                                                 |
\*---------------------------------------------------------------------------*/
FoamFile
{
    version     2.0;
    format      ascii;
    arch        "LSB;label=32;scalar=64";
    class       volScalarField;
    location    "0.002";
    object      iDofMean;
}
// * * * * * * * * * * * * * * * * * * * * * * * * * * * * * * * * * * * * * //

dimensions      [0 -3 0 0 0 0 0];

internalField   nonuniform List<scalar> 
546
(
6.151824637e+20
6.09306472e+20
5.957386605e+20
5.973820151e+20
5.864775297e+20
5.757098453e+20
5.940624835e+20
5.76920511e+20
6.062209702e+20
6.006983702e+20
5.88915292e+20
5.768223261e+20
5.510802094e+20
5.681168051e+20
5.711321526e+20
5.539826812e+20
5.411738257e+20
5.41681622e+20
5.446789754e+20
5.463460042e+20
5.209129758e+20
5.398500189e+20
5.516021488e+20
5.488828808e+20
5.316055237e+20
5.050912814e+20
4.956132037e+20
4.751658559e+20
4.421190801e+20
3.639276569e+20
5.47589117e+20
5.369427124e+20
5.329454469e+20
5.359532612e+20
5.195466137e+20
5.249201372e+20
5.35679348e+20
5.319672016e+20
5.215483109e+20
5.249445649e+20
5.164598528e+20
5.108412115e+20
5.101009362e+20
5.176555547e+20
5.191587763e+20
5.144106893e+20
5.080588875e+20
5.023951606e+20
4.994010492e+20
4.93879899e+20
4.67233914e+20
4.836112231e+20
4.900841866e+20
4.711725919e+20
4.685304521e+20
4.744655393e+20
4.635737867e+20
4.320376115e+20
4.020367782e+20
3.342128811e+20
5.100571984e+20
5.201286471e+20
5.019358904e+20
4.955130473e+20
4.880456338e+20
4.944137095e+20
4.961393222e+20
4.881962516e+20
4.995043457e+20
4.968431222e+20
5.093668208e+20
4.914177768e+20
4.980728063e+20
4.915198508e+20
4.795850134e+20
4.785438457e+20
4.807384281e+20
4.729751624e+20
4.792689125e+20
4.691194417e+20
4.624758768e+20
4.59455851e+20
4.80080831e+20
4.543083799e+20
4.464528159e+20
4.415874996e+20
4.310632009e+20
4.239825304e+20
3.785519366e+20
3.403666604e+20
4.633722481e+20
4.815512146e+20
4.933752493e+20
4.796626858e+20
4.886927556e+20
4.854946548e+20
4.768738264e+20
4.846018786e+20
4.830607385e+20
4.775804235e+20
4.805589453e+20
4.858054775e+20
4.845442348e+20
4.929084655e+20
4.625855446e+20
4.660169158e+20
4.605339953e+20
4.664914868e+20
4.727821773e+20
4.619780046e+20
4.479126061e+20
4.345580534e+20
4.393987345e+20
4.40088476e+20
4.463167022e+20
4.241184662e+20
4.170667429e+20
3.972721072e+20
3.808100948e+20
3.505089988e+20
4.51706619e+20
4.608500266e+20
4.712678485e+20
4.762907558e+20
4.791708159e+20
4.761098534e+20
4.726030344e+20
4.79186672e+20
4.877555074e+20
4.804386041e+20
4.757172855e+20
4.751177089e+20
4.809776118e+20
4.776585054e+20
4.695603267e+20
4.677308619e+20
4.649306836e+20
4.706430901e+20
4.513320187e+20
4.588243039e+20
4.437591813e+20
4.358307835e+20
4.242064724e+20
4.315079653e+20
4.250013033e+20
4.255192842e+20
4.346385322e+20
4.085156581e+20
3.831811605e+20
3.499107166e+20
4.065696086e+20
4.254139326e+20
4.421707763e+20
4.473196899e+20
4.47484944e+20
4.62812777e+20
4.609874186e+20
4.632957598e+20
4.751487422e+20
4.697264301e+20
4.621848459e+20
4.673092922e+20
4.65579637e+20
4.673182878e+20
4.779100654e+20
4.800561511e+20
4.626433889e+20
4.68259762e+20
4.633492764e+20
4.563221953e+20
4.519083051e+20
4.345050237e+20
4.300908018e+20
4.376870126e+20
4.390482295e+20
4.214266969e+20
4.149326313e+20
4.145569679e+20
3.941896786e+20
3.607083164e+20
3.691947271e+20
3.988820601e+20
4.097040888e+20
4.306664872e+20
4.331095881e+20
4.557101356e+20
4.533610042e+20
4.531274678e+20
4.557023898e+20
4.649708016e+20
4.679222135e+20
4.647715578e+20
4.69687404e+20
4.753524139e+20
4.692103372e+20
4.554055724e+20
4.594920057e+20
4.524477943e+20
4.561130797e+20
4.436552696e+20
4.468873968e+20
4.377133676e+20
4.40120903e+20
4.397377038e+20
4.420971841e+20
4.345010088e+20
4.14045727e+20
4.121236623e+20
3.934275539e+20
3.729589019e+20
3.421170072e+20
3.569372953e+20
3.793320274e+20
3.998603577e+20
4.094434078e+20
4.218037549e+20
4.397742536e+20
4.50786396e+20
4.527473072e+20
4.537302243e+20
4.609986392e+20
4.59232462e+20
4.614226763e+20
4.627309022e+20
4.801349974e+20
4.759729276e+20
4.635074771e+20
4.580088893e+20
4.545883056e+20
4.615349208e+20
4.591110746e+20
4.491414228e+20
4.450958301e+20
4.401694238e+20
4.349375977e+20
4.329903143e+20
4.258249171e+20
4.095225388e+20
4.072587672e+20
3.884857912e+20
3.111133547e+20
3.287330567e+20
3.436095642e+20
3.578603393e+20
3.854767783e+20
3.99517762e+20
4.086584828e+20
4.256730794e+20
4.354934354e+20
4.405201439e+20
4.472483247e+20
4.58280812e+20
4.613980796e+20
4.648138243e+20
4.636355122e+20
4.728474922e+20
4.688699115e+20
4.701561746e+20
4.717225911e+20
4.640370302e+20
4.532489673e+20
4.464899077e+20
4.487601647e+20
4.449723514e+20
4.416888354e+20
4.318641697e+20
4.324212753e+20
4.199549908e+20
4.012181949e+20
3.870897986e+20
2.730654565e+20
2.902686221e+20
3.109379686e+20
3.270542092e+20
3.453089837e+20
3.60581314e+20
3.795138462e+20
3.950499681e+20
4.155704564e+20
4.281026673e+20
4.330138475e+20
4.378081208e+20
4.520018693e+20
4.609703377e+20
4.6108559e+20
4.641265348e+20
4.675737819e+20
4.630318196e+20
4.607649196e+20
4.601014245e+20
4.677333764e+20
4.617626746e+20
4.57158704e+20
4.395488208e+20
4.489573089e+20
4.484817251e+20
4.346939637e+20
4.298000895e+20
4.097709678e+20
3.953233235e+20
2.569803487e+20
2.708330084e+20
2.8470962e+20
2.991153653e+20
3.170898372e+20
3.317981512e+20
3.487266001e+20
3.716156032e+20
3.892845178e+20
4.100408857e+20
4.260418534e+20
4.312929737e+20
4.330372754e+20
4.459931412e+20
4.548607882e+20
4.515239896e+20
4.579671384e+20
4.654920247e+20
4.603514225e+20
4.683375306e+20
4.711770381e+20
4.682589091e+20
4.617591777e+20
4.581669108e+20
4.350464886e+20
4.385111919e+20
4.443944833e+20
4.483994947e+20
4.354857441e+20
4.131578943e+20
2.450006458e+20
2.55374918e+20
2.674972696e+20
2.764523312e+20
2.89772039e+20
3.07229996e+20
3.265043978e+20
3.399756568e+20
3.564211327e+20
3.664236059e+20
3.770442622e+20
3.990344585e+20
4.198038727e+20
4.228082425e+20
4.26336676e+20
4.427778232e+20
4.471660339e+20
4.569325516e+20
4.67096593e+20
4.674513669e+20
4.599522744e+20
4.620013077e+20
4.630430229e+20
4.599747544e+20
4.647192752e+20
4.609792294e+20
4.476372272e+20
4.322613642e+20
4.282314081e+20
4.300807791e+20
2.328639032e+20
2.39012841e+20
2.515599039e+20
2.578723123e+20
2.700348145e+20
2.851535912e+20
3.001287416e+20
3.074607746e+20
3.238675602e+20
3.382260867e+20
3.584522827e+20
3.776101113e+20
3.932386746e+20
4.087237265e+20
4.248117237e+20
4.308054018e+20
4.416256953e+20
4.447596429e+20
4.52779258e+20
4.570259151e+20
4.611352193e+20
4.674104219e+20
4.624545981e+20
4.640221652e+20
4.569607883e+20
4.500748091e+20
4.520994604e+20
4.416869274e+20
4.469741182e+20
4.315337548e+20
2.18259433e+20
2.246169293e+20
2.297484831e+20
2.419301955e+20
2.488646767e+20
2.576512299e+20
2.69552682e+20
2.864857142e+20
3.006796915e+20
3.198760846e+20
3.391098518e+20
3.512567104e+20
3.692808045e+20
3.865802855e+20
3.976875714e+20
4.118007671e+20
4.265803818e+20
4.389422703e+20
4.384360794e+20
4.410228368e+20
4.479914648e+20
4.530126497e+20
4.647013411e+20
4.698504369e+20
4.600641798e+20
4.538927307e+20
4.542335738e+20
4.504971679e+20
4.395786513e+20
4.37972435e+20
2.178331904e+20
2.245039331e+20
2.294297375e+20
2.315850262e+20
2.390885122e+20
2.489883379e+20
2.596500782e+20
2.729358761e+20
2.83807121e+20
2.928314479e+20
3.018532821e+20
3.137275138e+20
3.34746054e+20
3.566754888e+20
3.755632658e+20
3.9448487e+20
4.094765035e+20
4.163647317e+20
4.296234273e+20
4.417786861e+20
4.505939305e+20
4.570959985e+20
4.605555654e+20
4.615397532e+20
4.672237625e+20
4.656486252e+20
4.578920581e+20
4.607338371e+20
4.510105795e+20
4.410778142e+20
2.106094724e+20
2.101532156e+20
2.133329984e+20
2.177991109e+20
2.259149531e+20
2.305214699e+20
2.390235623e+20
2.467111415e+20
2.585935926e+20
2.685008843e+20
2.846411792e+20
3.030397397e+20
3.127313761e+20
3.296966977e+20
3.487890995e+20
3.633565833e+20
3.778356025e+20
3.949916668e+20
4.071653658e+20
4.238990295e+20
4.29826814e+20
4.402853446e+20
4.466471564e+20
4.616207015e+20
4.636848032e+20
4.614461609e+20
4.623542912e+20
4.627196382e+20
4.610029238e+20
2.075584617e+20
2.105148099e+20
2.132191616e+20
2.185331364e+20
2.196979584e+20
2.244201828e+20
2.323827117e+20
2.41768875e+20
2.455816912e+20
2.554108957e+20
2.668965002e+20
2.743926183e+20
2.840754043e+20
2.982793003e+20
3.125152332e+20
3.253725095e+20
3.480499451e+20
3.700307971e+20
3.881961892e+20
3.915540499e+20
4.02356376e+20
4.233951378e+20
4.331132009e+20
4.402503758e+20
4.459355894e+20
2.115741317e+20
2.130911587e+20
2.177954587e+20
2.163310585e+20
2.208997567e+20
2.224873345e+20
2.237238016e+20
2.27556917e+20
2.366687815e+20
2.424890336e+20
2.460289423e+20
2.561892465e+20
2.663160795e+20
2.754663519e+20
2.904659246e+20
3.064686967e+20
3.203736844e+20
3.375611621e+20
3.499994002e+20
2.064816359e+20
2.079158617e+20
2.102593655e+20
2.117892776e+20
2.136196328e+20
2.160134498e+20
2.194764721e+20
2.236551288e+20
2.273269063e+20
2.261085343e+20
2.378465391e+20
2.423781108e+20
2.475482593e+20
2.608115122e+20
2.080744415e+20
2.074638692e+20
2.079142947e+20
2.105276714e+20
2.120018291e+20
2.122409008e+20
2.133284104e+20
2.154259081e+20
2.005815196e+20
)
;

boundaryField
{
    flow
    {
        type            calculated;
        value           nonuniform List<scalar> 
15
(
3.639276569e+20
3.342128811e+20
3.403666604e+20
3.505089988e+20
3.499107166e+20
3.607083164e+20
3.729589019e+20
3.884857912e+20
3.870897986e+20
3.953233235e+20
4.131578943e+20
4.300807791e+20
4.315337548e+20
4.37972435e+20
4.410778142e+20
)
;
    }
    obstacle
    {
        type            calculated;
        value           nonuniform List<scalar> 
30
(
277.0367197
267.3001388
258.7684159
257.5346659
262.6404885
261.1587727
259.7265205
242.834987
269.7630931
255.4219825
268.7924343
256.8102541
249.1112195
259.452833
263.6739198
244.4509517
237.4228968
237.1612138
231.9839667
236.7336953
234.3240548
232.3363624
259.1768041
229.3507578
231.2926063
212.04372
204.7694332
220.098957
177.234909
171.6616892
)
;
    }
    frontAndBack
    {
        type            empty;
    }
    procBoundary1to0
    {
        type            processor;
        value           nonuniform List<scalar> 
21
(
6.209952147e+20
5.275697763e+20
5.105327178e+20
4.65545975e+20
4.386430124e+20
3.883113101e+20
3.569319433e+20
3.192945199e+20
2.913002944e+20
2.602104464e+20
2.474938969e+20
2.327729885e+20
2.309022517e+20
2.143551463e+20
2.104577815e+20
2.103909695e+20
2.067608511e+20
2.08431151e+20
2.043778915e+20
2.063377085e+20
2.015717863e+20
)
;
    }
    procBoundary1to3
    {
        type            processor;
        value           nonuniform List<scalar> 
36
(
4.527016192e+20
4.485915971e+20
4.590838357e+20
4.58859912e+20
4.527016192e+20
4.60805335e+20
3.714589841e+20
3.91263057e+20
4.05179184e+20
4.237250286e+20
4.339094283e+20
4.485915971e+20
4.477595047e+20
2.703915496e+20
2.895812814e+20
3.002200805e+20
3.140354171e+20
3.714589841e+20
3.34028077e+20
2.198438737e+20
2.283182205e+20
2.291073414e+20
2.384739028e+20
2.434896898e+20
2.703915496e+20
2.497769883e+20
2.026275684e+20
2.028143398e+20
2.024304533e+20
2.05969725e+20
2.090039593e+20
2.09034154e+20
2.198438737e+20
2.143617845e+20
2.026275684e+20
2.052702037e+20
)
;
    }
}


// ************************************************************************* //
