/*--------------------------------*- C++ -*----------------------------------*\
| =========                 |                                                 |
| \\      /  F ield         | OpenFOAM: The Open Source CFD Toolbox           |
|  \\    /   O peration     | Version:  2406                                  |
|   \\  /    A nd           | Website:  www.openfoam.com                      |
|    \\/     M anipulation  |                                                 |
\*---------------------------------------------------------------------------*/
FoamFile
{
    version     2.0;
    format      ascii;
    arch        "LSB;label=32;scalar=64";
    class       volScalarField;
    location    "0.002";
    object      iDof;
}
// * * * * * * * * * * * * * * * * * * * * * * * * * * * * * * * * * * * * * //

dimensions      [0 -3 0 0 0 0 0];

internalField   nonuniform List<scalar> 
546
(
6.505831612e+20
8.361833561e+20
7.057975416e+20
9.175317976e+20
4.622300833e+20
6.520457758e+20
4.693178097e+20
4.729438136e+20
6.434454829e+20
6.965314968e+20
6.536240755e+20
9.760519923e+20
5.165454561e+20
5.703237099e+20
3.999875008e+20
7.057425303e+20
6.099451403e+20
4.612891705e+20
6.719326893e+20
8.340364533e+20
3.94312406e+20
6.893958983e+20
4.814449245e+20
5.666375232e+20
4.900091882e+20
6.042747398e+20
8.037570131e+20
4.475044849e+20
4.798585431e+20
4.27345769e+20
5.832814553e+20
5.197896538e+20
3.415149395e+20
5.046424887e+20
6.702336208e+20
6.753331254e+20
5.866472621e+20
4.492966229e+20
3.574697127e+20
4.563482217e+20
6.536240755e+20
7.56440294e+20
4.673506504e+20
6.695104415e+20
4.749851568e+20
4.284865362e+20
5.591163786e+20
8.713239879e+20
7.494633836e+20
4.952091446e+20
5.520373688e+20
4.242436301e+20
3.477102236e+20
6.475857408e+20
6.261228516e+20
5.49340673e+20
4.711679046e+20
5.03442546e+20
4.5163157e+20
4.843252048e+20
5.384136507e+20
5.875883043e+20
5.691915658e+20
5.046424887e+20
6.702336213e+20
4.657469827e+20
5.397154808e+20
6.148269577e+20
4.76626284e+20
3.842932396e+20
6.53624075e+20
5.612298956e+20
8.855064954e+20
2.975601962e+20
4.749851571e+20
3.780763555e+20
4.828732361e+20
6.150522268e+20
4.134970396e+20
6.515909797e+20
6.571873428e+20
5.833349909e+20
4.546979847e+20
5.666375232e+20
4.900091882e+20
3.570714372e+20
1.385787954e+20
3.356283637e+20
3.951776238e+20
4.273457694e+20
2.01905119e+20
4.51991003e+20
6.374945537e+20
5.04642489e+20
5.084530917e+20
3.49310237e+20
3.285224668e+20
4.729438136e+20
5.957828546e+20
3.602749121e+20
5.567908791e+20
6.588350943e+20
3.443636371e+20
3.967469286e+20
4.999843759e+20
4.536916266e+20
5.591163786e+20
5.637978745e+20
4.651841692e+20
3.909545878e+20
5.257498751e+20
3.977284032e+20
4.012041038e+20
7.015512186e+20
4.627864555e+20
4.944066053e+20
3.603048683e+20
4.195354554e+20
3.104967047e+20
3.988560499e+20
3.365085317e+20
3.841923525e+20
4.781209149e+20
7.340254375e+20
5.546761e+20
4.890343322e+20
6.805108241e+20
6.384741484e+20
5.719515404e+20
3.842932393e+20
4.357493837e+20
4.636246967e+20
4.427532481e+20
5.455270269e+20
3.499890632e+20
4.032814459e+20
2.795581895e+20
5.381706993e+20
3.101227797e+20
4.170182266e+20
6.308998491e+20
3.977284026e+20
3.477102233e+20
3.777583488e+20
4.90009189e+20
5.21873638e+20
4.711679026e+20
4.195354561e+20
4.516315704e+20
3.133868981e+20
3.365085322e+20
3.163937025e+20
4.325855903e+20
4.358276042e+20
4.391185795e+20
4.890343322e+20
4.693178097e+20
3.783550509e+20
4.051323411e+20
5.524215315e+20
4.115410842e+20
4.880259958e+20
5.411428579e+20
3.47153562e+20
4.49985938e+20
4.78896717e+20
5.337019978e+20
4.35661994e+20
3.101227797e+20
3.388273097e+20
5.257498751e+20
4.507588578e+20
3.209632849e+20
4.587065664e+20
4.900091848e+20
4.39472538e+20
5.820309436e+20
4.475044857e+20
3.104967035e+20
3.988560485e+20
4.486780422e+20
4.293914528e+20
2.276766262e+20
4.128893086e+20
4.16007075e+20
4.65746983e+20
5.631813716e+20
6.384741484e+20
4.051323411e+20
6.965314968e+20
4.35749384e+20
4.636246967e+20
3.6896104e+20
3.967469286e+20
4.749851568e+20
4.284865359e+20
4.574588552e+20
4.612891701e+20
7.236198217e+20
5.994637058e+20
3.68024915e+20
4.507588593e+20
4.546979854e+20
4.587065696e+20
5.989001262e+20
7.690769483e+20
4.157363883e+20
5.314115768e+20
3.951776263e+20
2.564074644e+20
4.03810238e+20
1.581968512e+20
5.919592289e+20
3.670127193e+20
4.622300833e+20
3.49310237e+20
4.927837002e+20
5.20238195e+20
5.481202266e+20
4.56348222e+20
5.567908787e+20
5.368285953e+20
4.181558451e+20
3.719502456e+20
4.749851583e+20
6.553323511e+20
4.828732353e+20
4.356619918e+20
6.460891212e+20
5.473364207e+20
3.680249095e+20
7.689415704e+20
2.94216341e+20
2.968101307e+20
5.444546507e+20
4.669395676e+20
3.603048635e+20
5.034425419e+20
3.104967035e+20
3.41876613e+20
4.486780426e+20
2.485950518e+20
2.95979614e+20
3.67012719e+20
3.697840669e+20
5.588963796e+20
4.693178097e+20
4.492966229e+20
3.098070844e+20
5.76439859e+20
3.631244855e+20
5.61229896e+20
3.93558443e+20
3.471535631e+20
6.249804704e+20
6.049221649e+20
5.337019969e+20
6.40679405e+20
3.876534743e+20
5.994636988e+20
6.046123564e+20
3.712131782e+20
2.942163435e+20
7.555166963e+20
4.627864531e+20
6.866758407e+20
4.434521475e+20
4.475044857e+20
6.774473532e+20
3.988560521e+20
2.692068253e+20
4.51991003e+20
3.870502648e+20
4.817041937e+20
4.16007075e+20
2.794481896e+20
2.815906854e+20
3.783550515e+20
5.957828541e+20
3.842932381e+20
4.115410862e+20
6.588350943e+20
3.935584409e+20
6.44713759e+20
3.999874995e+20
4.032814465e+20
3.558013342e+20
4.356619954e+20
4.393406042e+20
4.691455073e+20
6.046123564e+20
6.628806698e+20
5.88432687e+20
5.396547831e+20
4.627864571e+20
5.493406725e+20
4.434521436e+20
4.475044857e+20
3.669506496e+20
4.55835484e+20
3.140746296e+20
3.389932515e+20
2.959796129e+20
4.12889308e+20
1.617805292e+20
3.493102378e+20
3.754542495e+20
3.783550526e+20
2.859757706e+20
5.043848758e+20
3.389161854e+20
5.856311949e+20
4.427532494e+20
4.215436117e+20
4.749851594e+20
5.797170794e+20
3.049725672e+20
4.869163438e+20
5.168712991e+20
5.473364207e+20
6.308998501e+20
4.507588593e+20
3.744571645e+20
5.126720439e+20
5.989001157e+20
4.944066053e+20
4.434521475e+20
4.754735161e+20
5.080855195e+20
4.558354923e+20
4.486780438e+19
2.259955026e+20
3.415149412e+20
5.275807848e+20
4.853415871e+20
3.725975848e+20
2.815906837e+20
3.547078565e+20
3.098070825e+20
4.323298969e+20
4.35749388e+20
2.440129998e+20
5.165454577e+20
2.231701474e+20
3.999874995e+20
4.032814465e+20
3.558013342e+20
5.12543524e+20
6.202455589e+20
5.734000597e+20
4.468873901e+20
5.568197579e+20
3.744571581e+20
4.856893048e+20
5.989001262e+20
4.669395758e+20
3.880206291e+20
1.678141821e+20
6.492203801e+20
8.546915325e+20
2.467729225e+20
2.033959502e+20
2.276766258e+20
1.605680649e+20
2.311150415e+20
3.493102383e+20
3.519883599e+20
4.256494342e+20
3.336383991e+20
3.362565839e+20
2.904995875e+20
3.416181944e+20
3.935584409e+20
3.471535626e+20
5.499828118e+20
5.293068943e+20
5.337019969e+20
4.356619954e+20
4.393406042e+20
3.388273108e+20
5.783248675e+20
5.037893133e+20
4.814449258e+20
4.856893048e+20
4.627864531e+20
2.746703339e+20
5.820309385e+20
5.314115768e+20
6.774473532e+20
3.703663307e+20
2.019051184e+20
3.389932527e+20
2.049089632e+20
2.752595379e+20
3.235610581e+20
2.328734905e+20
1.877271225e+20
1.18235953e+20
4.527949702e+20
1.681282919e+20
4.599576803e+20
4.880259958e+20
3.443636357e+20
4.959336569e+20
2.249929685e+20
4.788967178e+20
2.541438081e+20
1.793902319e+20
2.325920846e+20
5.473364207e+20
2.891624289e+20
7.159111234e+20
5.081918661e+20
5.396547831e+20
7.622365109e+20
4.120055044e+20
6.097466974e+20
3.356283613e+20
3.669506496e+20
5.697943602e+20
1.570373155e+20
2.259955035e+20
2.73211953e+20
1.146914749e+20
1.617805302e+20
2.561608414e+20
2.111930144e+20
4.729438158e+20
2.383131422e+20
3.602749113e+20
1.69458094e+20
2.440129998e+20
4.181558467e+20
3.223568795e+20
3.749882838e+20
5.293068986e+20
6.607739009e+20
4.100348192e+20
5.168713033e+20
4.952091466e+20
4.468873938e+20
6.098502214e+20
4.012041048e+20
4.317238265e+20
4.627864571e+20
4.394725419e+20
3.880206291e+20
2.796903036e+20
5.080855195e+20
5.128149242e+20
1.794712164e+20
2.711946002e+20
3.187472762e+20
2.752595399e+20
2.311150415e+20
1.397240953e+20
3.050565786e+20
3.31060671e+20
3.098070872e+20
1.921466208e+20
3.147078865e+20
2.684142956e+20
3.197662332e+20
3.719502456e+20
3.249898433e+20
4.536916273e+20
5.082876202e+20
5.637978764e+20
6.977762537e+20
3.388273108e+20
5.257498795e+20
6.098502214e+20
4.546979854e+20
8.364649138e+20
6.261228483e+20
6.592088013e+20
4.434521436e+20
5.034425464e+20
5.64539461e+20
1.570373143e+20
1.355973011e+20
1.82141302e+20
2.293829499e+20
1.155575207e+20
1.862987924e+20
1.642612322e+20
3.074134756e+20
1.906505123e+20
3.122382589e+20
3.389161907e+20
4.148220996e+20
2.459740275e+20
2.231701474e+20
2.749914059e+20
3.780763531e+20
3.812157121e+20
4.612891716e+20
4.910277341e+20
3.127636689e+20
4.731748836e+20
4.507588516e+20
5.349388018e+20
4.587065696e+20
7.622365242e+20
2.019051199e+20
2.033959516e+20
2.504442866e+20
2.52321243e+20
2.542265456e+20
3.725975875e+20
1.173294533e+20
3.074134802e+20
3.098070848e+20
3.602749113e+20
2.178746906e+20
2.928155975e+20
3.443636385e+20
1.983734643e+20
3.999875027e+20
3.780763592e+20
3.049725697e+20
3.587804638e+20
3.359663444e+20
2.019051199e+20
2.033959516e+20
1.366059765e+20
1.376297699e+20
2.080035373e+20
1.164367452e+20
1.407953419e+20
3.310606685e+20
2.14481828e+20
2.88219929e+20
2.178746923e+20
2.928155975e+20
4.181558434e+20
2.727635134e+20
2.019051184e+20
2.033959502e+20
3.415149387e+20
2.752595399e+20
2.311150432e+20
2.794481907e+20
3.285224668e+20
1.418831447e+20
2.019051199e+20
)
;

boundaryField
{
    flow
    {
        type            zeroGradient;
    }
    obstacle
    {
        type            calculated;
        value           nonuniform List<scalar> 
30
(
414.7296764
512.1853009
111.8629
354.4600062
193.7430695
140.8140409
1e-300
1e-300
960.6568475
125.6879131
468.0560295
310.012355
381.4623332
445.6119467
1e-300
501.6019074
1e-300
224.7365286
398.2717339
239.3237889
1e-300
725.4648707
1e-300
1e-300
1e-300
1e-300
722.4581483
141.1451092
223.891436
96.01871659
)
;
    }
    frontAndBack
    {
        type            empty;
    }
    procBoundary1to0
    {
        type            processor;
        value           nonuniform List<scalar> 
21
(
6.235786118e+20
5.34495953e+20
6.235786118e+20
6.235786118e+20
4.231426297e+20
3.117893061e+20
4.231426294e+20
3.340599706e+20
3.340599706e+20
2.449773118e+20
2.895186412e+20
2.004359832e+20
2.672479765e+20
2.004359809e+20
3.563306353e+20
8.908265883e+19
3.117893059e+20
1.336239882e+20
2.449773135e+20
8.908265883e+19
2.227066471e+20
)
;
    }
    procBoundary1to3
    {
        type            processor;
        value           nonuniform List<scalar> 
36
(
7.122429502e+20
5.218736435e+20
4.711679067e+20
3.076593339e+20
7.122429502e+20
3.104967035e+20
3.648909471e+20
4.205999001e+20
4.772740863e+20
3.477102242e+20
4.317238265e+20
5.218736435e+20
4.08340988e+20
3.749882808e+20
2.52050902e+20
1.524862848e+20
3.075261144e+20
3.648909471e+20
2.584356495e+20
3.336383991e+20
3.842932387e+20
1.452497938e+20
1.464077987e+20
4.181558467e+20
3.749882808e+20
2.975601965e+20
1.581968524e+20
1.82141302e+20
2.752595399e+20
1.61780529e+20
1.630114445e+20
2.815906879e+20
3.336383991e+20
1.655303355e+20
1.581968524e+20
2.467729225e+20
)
;
    }
}


// ************************************************************************* //
