/*--------------------------------*- C++ -*----------------------------------*\
| =========                 |                                                 |
| \\      /  F ield         | OpenFOAM: The Open Source CFD Toolbox           |
|  \\    /   O peration     | Version:  2406                                  |
|   \\  /    A nd           | Website:  www.openfoam.com                      |
|    \\/     M anipulation  |                                                 |
\*---------------------------------------------------------------------------*/
FoamFile
{
    version     2.0;
    format      ascii;
    arch        "LSB;label=32;scalar=64";
    class       volScalarField;
    location    "0.002";
    object      internalE;
}
// * * * * * * * * * * * * * * * * * * * * * * * * * * * * * * * * * * * * * //

dimensions      [1 -1 -2 0 0 0 0];

internalField   nonuniform List<scalar> 
546
(
3.844453368
4.501943716
2.591679863
4.526400303
2.894829611
3.658709642
2.809389982
1.762262963
2.133347355
4.145127782
2.96182093
4.037793485
3.060960755
2.764599156
2.168147991
5.014859128
2.282999573
2.177077675
2.844012605
3.412392542
1.9146646
3.153954983
1.690264365
2.55787886
3.007229975
2.666381935
3.677282582
1.428366035
1.505566949
2.146758007
2.569011658
2.290716724
3.370061231
3.425315982
3.12027944
3.629363644
2.937323477
2.714356126
2.367493994
2.925638469
3.261986756
2.841359989
2.215614201
3.013823383
3.057331868
3.217318286
2.108165177
5.317827361
3.467191373
2.200782039
3.717019419
1.903334801
1.450401868
4.872046038
3.404800614
3.716604453
2.016488283
3.930789364
2.492326778
2.384732748
2.098073815
2.460377503
3.989037401
2.380685232
4.856891183
1.545849235
4.504655951
4.585243808
2.280866419
1.934287276
4.276625122
3.156354529
6.140255068
2.33206306
2.331002465
1.376318333
1.9126799
3.138680833
2.4591547
3.553641203
3.412388403
3.111835454
1.366825374
2.569299649
2.330030024
2.395146286
0.4850245724
1.543035592
2.001399907
1.884004663
0.9556863585
2.273547382
2.376614812
2.658178963
4.181910885
1.353952922
1.91752909
2.278487149
4.083215274
3.140044951
2.562333231
4.757658829
2.78462367
2.059778255
1.960726587
4.369408787
3.338117106
2.868810567
2.759815716
2.539278556
3.485376112
1.694980592
2.105690298
3.337759033
2.899412008
2.509868156
1.985565321
1.434380616
0.517949819
2.126463564
2.132168304
1.81917755
1.45163766
3.392935808
3.497625206
3.542093393
3.585851104
3.038276261
2.986137987
1.376591379
2.437083446
3.484218439
1.581626851
3.375383901
1.938091029
1.894154923
1.546888951
2.892081056
1.000225508
3.192601872
4.008922744
2.866673381
1.653335758
1.231759811
2.316575927
3.191162831
1.452757561
2.712752176
2.631221091
1.382757897
2.155857437
1.857031104
1.747381713
1.97557459
1.794618447
3.033439799
1.98886807
1.912784554
3.41278048
3.340499658
3.046534549
2.881488104
3.343157787
2.860541554
2.243554027
1.976555676
3.293988413
3.006019483
1.826265875
1.897344074
3.565777411
1.848830283
1.38906734
2.041742088
2.329628333
3.369956627
2.899945593
3.193152726
1.056783516
2.079632135
2.266648704
1.513646357
0.8938312649
1.948158268
1.576248452
2.839510524
1.605408464
2.965203592
1.474545049
2.963582329
1.53867231
3.126345427
2.67640978
1.584737453
2.262820281
1.60436412
3.126609323
3.317065728
3.999704994
4.821437464
1.510310453
1.771509649
2.684604817
2.129706898
5.039834002
4.675573267
3.971176509
3.089787019
2.284896504
1.513902004
1.60877219
1.120759587
2.553931363
1.407162993
2.678850668
1.182195731
3.310947522
2.298223854
2.808683142
1.404492781
2.924385545
2.96400863
2.297674604
1.981283147
2.604432602
3.849676276
2.187498464
2.221054045
4.231294259
3.187181368
2.179316462
5.704540877
2.25609826
1.476606168
3.185372688
3.102513152
1.447059619
2.970653213
1.503058465
2.115378037
1.131631235
1.089797255
1.44097355
2.009739623
1.233625896
3.005682839
3.26153796
2.232362868
1.749997885
2.414718548
1.38593555
2.629303826
2.450065772
1.626766584
4.284865065
2.509867153
1.788752379
4.65904396
1.96172977
3.654700429
2.968839094
1.690931155
1.918019946
3.37082254
1.58351658
2.647048282
2.041032978
1.297206223
3.213553278
3.010006272
0.5839371393
0.9601276476
0.7619753599
1.914611825
1.304958058
1.491343784
1.487279085
1.122913996
2.794018493
1.644687228
2.670957982
3.423133844
1.555319025
2.464252461
1.513074465
1.122504212
1.269399819
2.377994924
1.717766171
2.972466855
3.054416989
5.280855908
3.873573504
3.040345683
2.366298228
3.104149383
1.965601143
1.718418913
2.307205441
2.536174589
0.7351115661
1.394912292
0.9042147989
1.34568643
0.346377557
0.668848023
0.9312493756
1.236089737
0.6853735268
2.651364178
2.381091299
2.196682583
1.83061013
3.028588484
1.044116582
2.741873784
1.379510123
2.682716293
2.586753079
2.930489402
2.598570479
2.53086588
3.005706335
2.074336958
2.904160178
3.25932373
1.127435894
1.303413145
1.773641385
2.171147759
0.05607639845
0.3070626452
0.9261243393
2.234130359
2.112969381
1.90916067
1.013431984
1.708055963
1.07425829
2.244381739
1.980933729
1.247566291
3.539790015
1.191332269
1.344699529
1.235524704
1.084589029
3.307048348
2.685633688
4.205673829
2.417725886
4.681023027
1.861871543
2.303155001
3.33483667
2.252227295
1.551530942
1.221542888
6.411809677
4.065317262
0.8930483083
1.122790199
0.4450544763
0.8007825907
0.9605444882
1.375809923
1.028887901
1.934101401
1.587295687
0.9954922652
0.9264288948
1.443082598
2.55535042
1.876838189
1.39238354
2.310433928
2.676423912
1.723934863
2.038079428
2.419337171
2.582385201
2.016169297
2.289306435
2.130612342
2.837743054
0.9163905037
3.196061697
3.435490994
4.414857712
1.702539092
0.519544068
1.178116708
0.2967308989
1.335442701
0.8196584605
0.750835954
0.3751204158
0.181841247
1.213625369
0.6458492514
1.621641616
2.003133554
1.138152479
1.387643939
1.585274693
1.387579776
0.6761631988
1.294935011
1.084691547
2.787292217
2.295027689
3.508666821
2.28744785
2.099518381
3.947690279
2.097995675
3.859098035
1.607477051
2.241811761
2.761391548
0.2223654342
0.3926453694
0.6874094592
0.1345137627
0.1809891589
0.674935564
0.7147820227
1.64873026
0.5518056535
0.7413100825
1.141711209
0.9305763511
1.08478031
1.210323073
1.599998808
3.043244201
1.796000554
1.101862788
2.151192024
1.869538958
2.207420693
2.771712542
2.36638352
2.018500729
2.897991371
1.569625502
2.054737324
1.175530341
2.062817201
2.395728684
0.5957446588
0.429425939
0.7457288776
0.658978352
0.6510750065
0.3674129884
0.7344607935
0.9523878565
0.5561489342
0.7768420142
1.353096029
0.6389043514
1.106818025
1.48330699
0.8347180505
1.43474088
1.949301705
2.847057974
3.041483398
1.280214165
2.476151332
3.235407697
2.235362976
3.727187062
3.060961704
3.766477832
1.078085215
3.7512009
3.184619903
0.2566816812
0.2438626595
0.2313735879
0.5154919166
0.191340715
0.7611410944
0.3399025744
1.209661916
0.6329333418
0.7036146977
0.6843713778
1.886195886
1.585153026
0.5333572476
0.7371079239
1.344898364
0.9017262212
1.453067184
2.056668099
0.8773693951
2.33695005
2.029694562
3.028576885
1.78051125
3.287217788
0.3927463387
0.3384591001
0.7855790754
0.38132904
0.4479716946
1.14199771
0.1624149287
0.628321278
0.6004149897
0.8131737905
0.5599095399
0.9143204416
0.9468221842
0.4731912624
2.222440581
1.308082291
0.7188973798
1.797015961
1.45046767
0.4922446227
1.101924515
0.1864052806
0.3503388587
0.5422870706
0.6019063616
0.2231102819
0.7546889648
0.6257994116
1.006874202
0.6664582059
1.319823621
0.8111388754
0.4541428414
0.1940475238
0.5247291257
0.8087191227
0.545003246
0.6610613633
0.7524140897
0.4881514328
0.5234623313
0.5829707654
)
;

boundaryField
{
    flow
    {
        type            zeroGradient;
    }
    obstacle
    {
        type            calculated;
        value           nonuniform List<scalar> 
30
(
9.244238078e-19
1.670214546e-18
1.157994914e-19
1.215592553e-18
7.249523344e-19
8.719434068e-20
0
0
3.292596388e-18
3.437882789e-19
1.952219863e-18
1.238246033e-18
2.138997574e-18
2.61695454e-18
0
3.923918115e-18
0
2.019677824e-19
1.21477065e-18
3.382832414e-19
0
2.161346186e-18
0
0
0
0
8.105338746e-19
2.893593241e-19
9.331677834e-19
2.605352515e-19
)
;
    }
    frontAndBack
    {
        type            empty;
    }
    procBoundary1to0
    {
        type            processor;
        value           nonuniform List<scalar> 
21
(
3.1688754
1.857230353
3.403211764
3.021722717
2.551443802
1.058034328
2.077012375
1.056313685
0.8046999254
0.7551112681
0.3879613693
0.8310350559
0.6828393865
0.5027597188
1.207437037
0.04796287177
0.5964817773
0.4016615095
0.4550841409
0.3277742811
0.441770145
)
;
    }
    procBoundary1to3
    {
        type            processor;
        value           nonuniform List<scalar> 
36
(
3.769671796
2.245524284
1.25296001
0.9341819636
3.769671796
1.048360588
1.5878965
1.23325227
1.486193573
1.40378351
1.258876904
2.245524284
2.716068733
1.59849538
0.9084525964
0.4269491765
0.7695398471
1.5878965
0.7782686918
0.6468398732
0.8139322104
0.3555416251
0.1852990617
1.059104103
1.59849538
0.6376287443
0.5157639667
0.2925601762
0.8072435711
0.4699916051
0.1765818002
0.4622510244
0.6468398732
0.3109733124
0.5157639667
0.7416401058
)
;
    }
}


// ************************************************************************* //
