/*--------------------------------*- C++ -*----------------------------------*\
| =========                 |                                                 |
| \\      /  F ield         | OpenFOAM: The Open Source CFD Toolbox           |
|  \\    /   O peration     | Version:  2406                                  |
|   \\  /    A nd           | Website:  www.openfoam.com                      |
|    \\/     M anipulation  |                                                 |
\*---------------------------------------------------------------------------*/
FoamFile
{
    version     2.0;
    format      ascii;
    arch        "LSB;label=32;scalar=64";
    class       volScalarField;
    location    "0.002";
    object      internalT;
}
// * * * * * * * * * * * * * * * * * * * * * * * * * * * * * * * * * * * * * //

dimensions      [1 2 -2 0 0 0 0];

internalField   nonuniform List<scalar> 
546
(
691.6537367
690.7751022
705.8676947
705.35695
714.7379653
693.0178626
727.5949848
701.4530102
691.3970092
679.2561997
678.4865775
685.8039976
675.8719293
688.0311787
693.6792084
703.0037017
679.1448498
674.2074812
692.6337629
686.1105781
679.6048674
679.8638229
660.3574495
689.6284773
674.0345088
678.843794
668.1833103
675.8150737
671.4877787
671.2927384
747.7511856
760.9371034
749.3844968
758.5517691
764.1209076
774.2527718
768.6764639
761.5542296
755.9049553
765.1641765
753.3276917
759.5616806
753.5522059
771.1827064
768.3455955
761.1879015
760.1986961
736.6352245
739.3676834
717.113727
727.4662507
741.7814994
743.1439033
752.9068539
748.9306675
751.5819763
736.6042286
736.5511992
735.2054928
750.6468916
765.3888024
763.3899704
763.9171495
771.6482714
790.5625073
795.049629
792.9101027
794.9820333
797.5724742
811.0320943
793.7318551
786.4115047
782.7344431
790.2604029
793.2804427
813.998223
818.8525079
787.4948776
785.7829434
787.5203919
796.5105642
804.118513
768.021851
787.3360108
776.8324218
743.0623877
767.4809633
756.8453906
756.5470371
760.948202
722.6666221
759.5900271
757.8622109
769.901717
775.1994359
782.2211693
782.8681242
770.1950514
790.8019144
802.5081846
821.3059481
831.833573
814.9628156
795.5530367
791.2267289
796.5530444
801.3180357
788.3226156
803.4494797
807.2567581
823.473312
793.6649635
784.3756379
796.4277327
811.4884624
779.1358614
792.1819527
775.4174916
755.6445787
754.165368
661.5450942
697.8864709
714.1585832
720.4313704
741.8671454
743.8345133
750.000606
772.6260229
773.4227826
782.8547093
815.4872697
792.018572
796.4706504
786.6218557
808.0337367
790.9593579
794.7287555
794.5149838
814.7672174
806.9898322
813.046125
799.0173383
784.775145
788.5811099
789.6672546
793.5514217
785.8081932
786.2897753
781.3516493
762.3223009
619.357963
640.5939629
672.6031996
684.8919195
694.1655126
723.0787577
726.1809038
756.8511369
758.6708379
779.4064254
774.008322
770.0360119
777.6695313
784.5522912
783.490796
778.1636668
817.7117806
798.5346549
781.7025454
779.2174524
798.0111725
795.4911371
804.9157381
806.6659057
798.1892421
808.7225572
791.6484149
786.7108724
770.8999716
769.8065934
584.9823823
603.2735587
640.4245412
657.6426528
689.4811453
696.4068763
690.4093583
700.053289
720.8268495
732.9044377
753.2674336
784.3110281
768.4928304
768.326626
778.4977943
798.141406
794.2688846
789.4939972
788.4116796
781.7527966
811.5070738
796.135117
795.525753
798.5496801
804.7398856
802.7815567
785.8962252
793.2803596
790.3533306
780.5935779
541.0175722
565.5329773
587.3329455
609.6813993
621.9674339
651.4852273
674.9761583
678.8756948
673.9026612
690.6368975
707.6358916
706.147446
725.700243
749.9529203
762.1465496
759.8061268
771.2012302
794.8094145
798.0230832
797.0210499
783.1179755
765.7921544
760.1087643
779.1421095
793.7079902
773.8499761
776.6595778
771.4990683
776.5085903
778.2088117
494.1528804
520.5544999
531.5193239
551.6027958
577.7468761
595.2829074
618.6582987
641.8714526
652.388736
658.4994153
670.6904928
689.1569405
699.3035641
724.6902394
740.2782411
739.9039903
751.1882335
748.3409618
741.5663386
772.9333791
793.4052628
781.1924115
770.4803296
759.2537633
754.84318
767.6128537
774.2308391
780.0495908
782.2646883
770.891061
439.2074899
460.8829988
501.4437623
519.8980491
537.8439689
558.8602638
580.1613742
611.5963185
631.0052829
631.9594345
641.9534142
650.2109759
656.5062533
672.6547927
685.7110929
708.314823
718.4860393
721.4962827
743.9534895
743.2321292
736.5099516
764.1223926
765.2110992
774.3262188
750.8649013
748.9341277
746.6211887
761.7026861
751.5621622
749.9425036
410.0554349
426.1196461
454.1552221
477.3353158
493.309578
510.5268108
533.4989535
553.9711577
574.5585438
601.2915377
613.6654266
633.080089
648.0064864
648.2033589
672.044701
679.6799353
689.6278489
714.4237745
708.2306418
713.4962095
735.4140765
725.9552116
735.4754417
747.5556427
749.8747032
746.5406915
742.2748358
744.067601
751.4537985
747.1871778
384.8935895
410.1906949
425.1685443
435.834446
448.4699611
461.5017181
493.1438625
510.3092458
523.2065056
549.1066314
571.7679331
589.4636404
612.4367297
623.9673834
637.313717
643.6358556
645.5674529
670.9229095
685.5022819
700.4514309
707.58309
707.6000501
715.5580902
722.089321
738.7800655
743.871994
750.5581801
748.6365749
752.0223569
735.5804027
352.8211438
366.7314877
397.6329207
413.2284695
424.6030764
442.3853466
456.1041414
482.2573771
499.0120226
506.9215954
528.0867005
557.6659959
588.1737897
594.686383
608.9589505
620.8374463
642.7464283
644.1293505
657.3323455
666.4421176
679.9112252
700.9239612
707.4296388
713.6252522
708.1150191
707.9852337
715.254213
722.4801285
732.4901003
733.1246299
338.6883673
345.7639481
359.1681216
382.3042702
395.1757406
419.2078988
430.3550184
445.4200168
453.8294904
469.0718086
481.5918672
499.6047115
513.6039026
544.3203218
573.8307574
584.7627769
602.0935465
608.6976882
631.3890322
636.5010586
639.8639984
642.2306686
680.2874281
679.8486434
686.8807512
687.8861106
700.7831717
699.0289126
707.3311555
695.4237936
329.6226398
334.3951066
344.137266
355.8769843
376.3464099
381.245742
395.5086572
399.9076192
422.3310207
433.857433
459.3008992
474.1941628
484.4134423
504.0513081
516.408923
539.4529591
563.1142709
578.8867478
587.3579538
615.7096869
631.8180656
645.8665863
648.7347387
652.3937017
659.8309745
666.7272256
674.3588192
687.4091324
674.6589032
688.3909811
335.9907547
343.3645747
338.4286379
348.979882
353.1653373
361.5703623
374.0746224
401.8788418
404.3884883
421.8034081
438.0483351
448.6640572
464.6126548
470.1152613
493.5950715
519.6678464
541.1032302
559.0017768
583.3415417
587.3207883
600.0134134
613.8926329
614.4961114
632.2076536
644.4004139
650.8960532
651.1060482
665.2015962
662.424261
318.9645836
319.2879016
325.6819894
329.9088348
336.3479481
343.2580355
359.0356724
361.6388654
367.8807305
376.8050616
393.623239
410.5154092
434.0311931
454.4309328
467.6340965
486.7543646
508.9480272
526.4370479
531.4413997
552.011098
564.125619
565.2872867
593.5583998
598.8403004
609.9287001
314.332204
316.9702491
322.9420627
331.3785689
336.9929669
338.9662787
341.8507056
355.8133931
363.7207672
370.3605272
388.2574785
397.8228355
411.0600758
422.8085773
443.7599289
440.6345443
454.9985184
478.7293542
496.9519012
314.16886
313.820831
317.1871974
319.9410171
331.0268802
335.3024253
338.9604613
344.3590318
353.6893433
366.0621867
365.8378171
377.6593079
385.0102371
414.5804233
310.8979002
316.4397399
316.6156178
318.7720771
322.83443
326.9688578
333.8759055
336.5662471
306.9760402
)
;

boundaryField
{
    flow
    {
        type            calculated;
        value           nonuniform List<scalar> 
15
(
671.2927384
750.6468916
760.948202
754.165368
762.3223009
769.8065934
780.5935779
778.2088117
770.891061
749.9425036
747.1871778
735.5804027
733.1246299
695.4237936
688.3909811
)
;
    }
    obstacle
    {
        type            calculated;
        value           nonuniform List<scalar> 
30
(
643.988407
602.7576724
624.4260813
613.1520096
631.3012705
637.0858434
615.0347651
627.5441771
601.7899605
576.1633343
618.6860313
633.2514797
583.0945716
585.9255584
645.9312713
653.6898799
608.5720332
594.4799615
608.1109411
581.1480573
607.103634
572.0169694
582.2951413
648.5080143
657.8359528
608.4723928
623.3332623
607.5130256
610.9574919
609.8204409
)
;
    }
    frontAndBack
    {
        type            empty;
    }
    procBoundary1to0
    {
        type            processor;
        value           nonuniform List<scalar> 
21
(
715.2724001
765.9048388
750.6566089
708.7468686
644.111883
600.8926177
558.1784139
511.734848
474.6160844
425.2530743
393.7178866
361.3850351
343.7310975
331.8224824
326.0743042
327.4573363
317.1547662
312.9906452
306.1213575
311.4747413
308.2387692
)
;
    }
    procBoundary1to3
    {
        type            processor;
        value           nonuniform List<scalar> 
36
(
668.840422
625.2161761
641.2424552
653.8571801
668.840422
650.4571248
516.6710621
533.6228625
548.6280329
554.0793966
570.491055
625.2161761
591.1190115
421.8512075
429.9859096
443.6430775
451.1836935
516.6710621
469.89965
340.1426809
340.6837474
343.7166046
351.125646
359.773042
421.8512075
370.8785956
304.9967765
311.5270553
307.2604859
307.5018065
309.9656269
315.8253865
340.1426809
320.3743555
304.9967765
302.9782057
)
;
    }
}


// ************************************************************************* //
