/*--------------------------------*- C++ -*----------------------------------*\
| =========                 |                                                 |
| \\      /  F ield         | OpenFOAM: The Open Source CFD Toolbox           |
|  \\    /   O peration     | Version:  2406                                  |
|   \\  /    A nd           | Website:  www.openfoam.com                      |
|    \\/     M anipulation  |                                                 |
\*---------------------------------------------------------------------------*/
FoamFile
{
    version     2.0;
    format      ascii;
    arch        "LSB;label=32;scalar=64";
    class       volScalarField;
    location    "0.002";
    object      internalEMean;
}
// * * * * * * * * * * * * * * * * * * * * * * * * * * * * * * * * * * * * * //

dimensions      [1 -1 -2 0 0 0 0];

internalField   nonuniform List<scalar> 
546
(
2.937286277
2.905534714
2.902904123
2.908805582
2.893688846
2.7542394
2.983839267
2.793625359
2.893423826
2.816719926
2.758339341
2.730836352
2.57118204
2.698356685
2.73494684
2.68848366
2.537188865
2.521106952
2.604341138
2.587709307
2.443854006
2.533661863
2.514540485
2.613054538
2.473575771
2.366973118
2.286083522
2.216800964
2.049420009
1.686477736
2.826607585
2.820527347
2.757027272
2.806504514
2.740565605
2.805624879
2.842510572
2.796657565
2.721543856
2.772819976
2.685802667
2.678567373
2.653524291
2.755825803
2.753660582
2.703058613
2.66621259
2.554768373
2.548962911
2.444910626
2.3463933
2.476429507
2.51418488
2.448921544
2.422328502
2.461697208
2.357255618
2.196737172
2.040460203
1.731858783
2.694974045
2.741011296
2.646964471
2.639539002
2.663484951
2.713553232
2.715696308
2.679201365
2.750192097
2.78170406
2.790988611
2.667806478
2.691292351
2.681420253
2.626309789
2.689049481
2.717491061
2.571222584
2.599773178
2.550344457
2.542928952
2.55045373
2.545315038
2.469246601
2.394178415
2.26514314
2.283821531
2.215178534
1.977037963
1.787951403
2.311647542
2.525081141
2.581197364
2.549322768
2.615188216
2.62160719
2.577185615
2.576555008
2.637078479
2.645754773
2.724615579
2.789667567
2.725993562
2.707004741
2.526658859
2.562536055
2.547535317
2.538641118
2.622245035
2.574462616
2.546222876
2.380886065
2.379230396
2.419579924
2.500224983
2.281150704
2.280783729
2.12655818
1.986459088
1.824817172
2.062858834
2.220230159
2.323357675
2.368745321
2.453974802
2.444764871
2.44687465
2.555804693
2.604190464
2.596406373
2.678056402
2.597707122
2.644528429
2.593803821
2.619235156
2.553899463
2.550707961
2.581352893
2.538535802
2.556042547
2.490669701
2.403962601
2.298138148
2.349031215
2.316797057
2.331030319
2.357753399
2.217404565
2.066827747
1.841405644
1.738322049
1.881257101
2.053064372
2.114918612
2.14434699
2.310173219
2.310933767
2.420596465
2.488493876
2.527333655
2.469533566
2.484099884
2.499439695
2.530977437
2.584840073
2.578793636
2.611561254
2.581274613
2.500366185
2.454617724
2.489504388
2.386073124
2.389814408
2.437311082
2.419199599
2.352746861
2.267584805
2.251401614
2.097765216
1.916864364
1.490911546
1.661163563
1.811306166
1.955170573
2.061454692
2.190813156
2.160749557
2.189803225
2.267596942
2.352483763
2.433192427
2.51641037
2.491737769
2.521245807
2.521613724
2.509179806
2.51941152
2.465874157
2.482442383
2.394245553
2.503479378
2.40563754
2.417017752
2.424092824
2.4559916
2.407918464
2.24629666
2.25687681
2.146543342
2.009738503
1.277731604
1.393488743
1.53800404
1.682925524
1.75798486
1.897005611
2.049140961
2.112587292
2.106234145
2.163221987
2.251972576
2.238626157
2.311584661
2.395609936
2.526128581
2.496540665
2.467618739
2.512988559
2.504305542
2.539381548
2.481981632
2.374365781
2.33551611
2.367500883
2.383094725
2.313068832
2.283049745
2.181056
2.183083305
2.087011705
1.061288814
1.181308108
1.260775915
1.362679209
1.537409032
1.64177299
1.745279401
1.886157034
1.961289342
2.002510342
2.070734762
2.180235515
2.227384155
2.325332437
2.369328505
2.4151831
2.431390649
2.428819625
2.414850698
2.475986674
2.482478533
2.407815824
2.386873792
2.332241836
2.301583624
2.288458355
2.311165899
2.261406113
2.166645942
2.059957866
0.8279232971
0.9235159083
1.076340276
1.173793046
1.282087842
1.391105443
1.519952577
1.667901868
1.810219597
1.867629551
1.918928971
1.965131924
2.048484582
2.140517698
2.182610934
2.26942759
2.319113941
2.306208329
2.366348981
2.36065029
2.378102569
2.435764819
2.414915034
2.349549968
2.327128965
2.31868618
2.240461688
2.259985175
2.125982543
2.046604891
0.7274381742
0.7966852068
0.8926065214
0.9856344885
1.079830207
1.169354302
1.284317053
1.421132908
1.544027462
1.702024692
1.804835078
1.88488405
1.937127632
1.995689896
2.110232281
2.118550791
2.180231996
2.295734943
2.250700999
2.306769675
2.39204672
2.346656257
2.344430234
2.364399433
2.252049709
2.259892435
2.277125665
2.303197129
2.259070729
2.131076635
0.6509708006
0.7231321094
0.7851164578
0.8317549796
0.8971053307
0.9787922882
1.111517409
1.197663626
1.287330868
1.388972779
1.488215188
1.623756955
1.774848431
1.821205424
1.875683519
1.967341223
1.992801475
2.116305308
2.210391521
2.260310292
2.246693443
2.256756289
2.287282686
2.292865185
2.37006063
2.367190272
2.319338627
2.233937725
2.223119819
2.183905217
0.5671662478
0.6050942638
0.6905217378
0.7356115689
0.7915101667
0.8708295951
0.94498563
1.023580959
1.115660508
1.183590568
1.306743
1.453688585
1.596671204
1.677920752
1.785821772
1.846344111
1.959510557
1.977661974
2.054589802
2.102600988
2.164382958
2.261636996
2.258426467
2.285927948
2.233759139
2.199695201
2.232276641
2.202896301
2.260152468
2.183967563
0.5103015703
0.5361370197
0.5696446693
0.6384881286
0.6789020742
0.7456161025
0.8008001218
0.8808993754
0.9419989333
1.035797135
1.127387338
1.211447942
1.309298439
1.452606064
1.575358653
1.662342363
1.773039669
1.844432047
1.910983427
1.93782168
1.978841533
2.008422007
2.182327737
2.205085695
2.181490713
2.155377622
2.197437325
2.173906223
2.146411475
2.102567394
0.4956723427
0.5182478022
0.5450483309
0.5689367384
0.6211551476
0.6552961396
0.708921346
0.7534837759
0.8274273494
0.8770378951
0.9570768235
1.02698101
1.119399875
1.241085246
1.338845448
1.46905323
1.591765625
1.663876717
1.741985
1.877735198
1.965309613
2.037998397
2.062541951
2.078607427
2.128194041
2.143187247
2.131610025
2.186346582
2.100509194
2.096061336
0.4884935447
0.4981327868
0.4984008164
0.5246988297
0.5507780834
0.5753840334
0.6172378678
0.6844433468
0.7218885365
0.7818247351
0.8607427345
0.9385868497
1.00303501
1.069972335
1.188467528
1.303504339
1.411356105
1.524244804
1.639635587
1.718665649
1.780360973
1.865865149
1.894686296
2.01464545
2.062681982
2.073415195
2.078165946
2.124833065
2.108111179
0.4570213707
0.4640007884
0.4793730064
0.4976967975
0.5101153655
0.5317851749
0.5759635733
0.6035720066
0.623672547
0.6643695966
0.7252324219
0.7775986338
0.8511540651
0.9357171794
1.008860137
1.093312498
1.2228371
1.344738744
1.424164817
1.492083511
1.566896507
1.652223086
1.774673555
1.819970533
1.877607473
0.4590976255
0.4662700643
0.485542261
0.4948765726
0.5138894196
0.5206134575
0.5279615224
0.5589409567
0.5942410848
0.6199696049
0.6594162282
0.7035649672
0.7557119477
0.8040183267
0.8898091683
0.9322196745
1.006283658
1.115568218
1.200702066
0.4478145189
0.4504255237
0.4603886417
0.4677647508
0.4881553202
0.5000012488
0.5135593189
0.5316721862
0.5550427292
0.5713805149
0.6006742781
0.6318983052
0.6579391896
0.7464301091
0.4465706002
0.4531970701
0.4544334427
0.463279476
0.4724687135
0.4790590755
0.4916854737
0.5005207585
0.425058787
)
;

boundaryField
{
    flow
    {
        type            calculated;
        value           nonuniform List<scalar> 
15
(
1.686477736
1.731858783
1.787951403
1.824817172
1.841405644
1.916864364
2.009738503
2.087011705
2.059957866
2.046604891
2.131076635
2.183905217
2.183967563
2.102567394
2.096061336
)
;
    }
    obstacle
    {
        type            calculated;
        value           nonuniform List<scalar> 
30
(
1.231598035e-18
1.112232376e-18
1.115439201e-18
1.090077697e-18
1.144595258e-18
1.14856658e-18
1.102730951e-18
1.051984073e-18
1.120678583e-18
1.015915275e-18
1.147997528e-18
1.122644299e-18
1.002734339e-18
1.049432383e-18
1.175728613e-18
1.103105616e-18
9.974432405e-19
9.732725757e-19
9.738552034e-19
9.497306833e-19
9.820493396e-19
9.174442854e-19
1.041820499e-18
1.026760442e-18
1.050347381e-18
8.906762969e-19
8.811280605e-19
9.23054152e-19
7.475045886e-19
7.226515876e-19
)
;
    }
    frontAndBack
    {
        type            empty;
    }
    procBoundary1to0
    {
        type            processor;
        value           nonuniform List<scalar> 
21
(
3.066290677
2.789384108
2.645565348
2.27775669
1.950410958
1.610758791
1.375346274
1.127950546
0.9544143865
0.7638811466
0.6726718299
0.5807060472
0.5478991093
0.4910133771
0.4737346661
0.4755929642
0.4526819263
0.4503473232
0.4318979537
0.4436648664
0.4289143809
)
;
    }
    procBoundary1to3
    {
        type            processor;
        value           nonuniform List<scalar> 
36
(
2.090201531
1.936131906
2.032206665
2.071174146
2.090201531
2.069139518
1.324886291
1.441308254
1.534541796
1.620726452
1.708840498
1.936131906
1.827146382
0.7874192231
0.8595641842
0.9194477362
0.9781053347
1.324886291
1.083531887
0.516213193
0.5369645169
0.5436171134
0.5780388285
0.6047317855
0.7874192231
0.6394959465
0.4266260633
0.4361622048
0.4293744145
0.4372246736
0.4472204466
0.4557407776
0.516213193
0.4740877251
0.4266260633
0.4293296716
)
;
    }
}


// ************************************************************************* //
