/*--------------------------------*- C++ -*----------------------------------*\
| =========                 |                                                 |
| \\      /  F ield         | OpenFOAM: The Open Source CFD Toolbox           |
|  \\    /   O peration     | Version:  2406                                  |
|   \\  /    A nd           | Website:  www.openfoam.com                      |
|    \\/     M anipulation  |                                                 |
\*---------------------------------------------------------------------------*/
FoamFile
{
    version     2.0;
    format      ascii;
    arch        "LSB;label=32;scalar=64";
    class       volScalarField;
    location    "0.002";
    object      linearKE;
}
// * * * * * * * * * * * * * * * * * * * * * * * * * * * * * * * * * * * * * //

dimensions      [1 -1 -2 0 0 0 0];

internalField   nonuniform List<scalar> 
546
(
7.631024068
7.639728071
8.224787441
12.51015856
4.375763127
6.61488271
3.806154297
4.002375048
5.608714993
7.222535258
8.376138136
7.040366372
4.613543149
4.351259573
3.447503482
5.798999876
4.373474464
3.45938489
5.731559643
6.982192111
3.353105173
4.710704085
2.497605141
6.873906733
2.826065716
5.726718121
5.163041116
5.071252122
4.69498302
4.226744451
8.330553218
9.236975262
5.5754446
7.922419505
11.2099124
8.998060381
9.532522126
5.853142032
3.291575618
6.090451041
9.861801276
9.347823982
6.07813586
6.827601929
6.920717187
7.673868108
6.826806963
8.240067514
6.588235802
6.098335715
4.549129467
4.227143467
2.948930386
6.811012969
5.984529137
4.610238915
7.39909551
5.969923285
6.144397236
6.095652598
10.26790788
10.78495606
9.240348171
7.273622194
12.8406188
9.132864869
10.80708804
9.684154165
7.678877294
6.080656466
12.9325008
7.975040361
13.04958157
2.534185215
4.047113056
3.279507308
6.596893528
8.175139748
4.926189315
8.942773836
8.802224714
7.968840684
6.670088491
8.285854651
6.192144077
5.127393944
2.660099468
4.533774373
3.518059319
5.666618232
4.65731389
9.45224413
16.26949803
10.29342354
11.41140438
12.03529832
6.082903511
6.776613346
9.97683283
5.33709633
11.38433706
12.12613198
5.85748067
4.871817746
6.083447986
9.580840095
10.37672858
8.136025299
5.055264916
6.49748462
8.104704308
5.209521846
5.619557418
12.46559317
8.068339215
5.573203156
6.291801093
8.005569874
3.753108199
5.649048045
7.294638807
8.853577582
13.98054455
23.10936953
11.73363662
10.70077874
19.6997421
15.81403365
13.91527538
5.26718205
6.088356163
10.41646357
11.43733116
11.11601162
6.284375266
10.15909387
5.388857505
9.670255629
7.765439882
5.065795349
9.985357842
5.959444666
4.8205161
5.025164722
7.838862765
6.653926434
9.912438881
5.92718506
9.390442089
5.236395665
7.260299229
7.795518377
13.4217754
9.868010793
9.472423789
14.09472116
12.65647711
10.93821024
8.097481892
12.36185738
7.961998519
8.966767156
11.20713254
6.844427478
9.129178349
10.70004269
8.579231821
10.7423693
4.487744279
6.977198988
9.855587398
9.653413072
6.986317504
7.763951825
9.376772007
10.64024221
12.31265197
7.868424976
5.664915157
7.199083839
10.39927305
12.57528735
7.176083625
8.793230866
13.47033267
14.10274009
14.97776017
15.83878851
7.510497503
16.80304033
9.480646234
9.634038044
10.26646948
7.056389206
10.87436359
9.44677622
11.69593667
11.74602867
15.44433871
16.42641941
8.110370068
11.8804804
12.00963957
9.540471117
13.04006706
15.24129155
8.854826625
12.90039544
6.246549784
6.85042234
16.51820076
4.81358541
18.17450453
12.23521819
12.16913873
9.98569526
13.33950903
12.6237078
12.53105718
10.38365032
11.63069249
13.4377776
10.86677907
9.279977876
14.49447957
16.68017113
9.53294361
11.70065869
13.62167036
11.84584728
8.050344274
17.78547636
6.6072803
8.0087375
10.50166445
8.726441136
10.54827703
11.8861849
6.494964571
5.527760136
15.37102086
8.529575492
9.824189655
8.873080596
9.066283549
15.13358358
14.54571076
14.65379971
11.2151257
15.82597181
11.97208473
11.32368403
11.66880766
11.16760657
13.00626073
15.34281867
15.27307629
16.38476917
8.952888983
17.66151088
13.76298789
10.81113641
6.31634517
15.40697961
10.39381577
13.86079785
12.86408455
10.28949415
15.1564877
8.868052166
9.165776732
16.11301511
11.23289587
18.02124677
13.8746436
6.580135071
6.751382918
11.26224622
19.87977278
8.717208058
12.01537226
20.47075709
9.818872324
17.85411268
13.09503537
10.41542167
10.7961389
12.46763674
10.08332022
10.16672337
15.23632458
19.21822966
14.49025065
15.06122326
12.44472453
11.14748827
13.14546323
9.379869695
10.69144516
10.01644663
9.303080644
10.76140435
10.91103246
14.08762813
3.546884638
10.50800481
12.99516055
9.793359478
10.08066804
14.58053418
10.67786893
18.78566756
10.53846495
13.72129163
14.46682473
18.96206158
7.664652098
18.41907305
15.61507162
11.95345858
16.89641715
11.82620016
12.68382068
13.38270007
14.67418441
14.47940845
12.79015378
10.69659212
9.887583239
11.57137098
2.134117467
7.302824827
12.73051627
18.14399605
14.00070841
12.52365781
8.263016915
12.01472442
9.485808634
13.82572262
11.39031234
8.78328352
16.68509374
3.786509227
12.18191368
9.491610519
12.18436112
13.12923509
18.23381855
12.60070022
16.06150953
13.52193933
10.62413098
12.94816162
13.0753649
12.18912664
11.24693199
4.157622993
16.48074417
20.32034502
10.50929279
6.848408046
7.879391462
5.205178323
8.440289182
13.67269476
13.17671814
13.07060872
10.52147523
11.53977643
8.635024727
11.23495951
11.58737415
10.25519457
18.03729617
18.87183709
15.68317728
12.22485122
13.26221156
13.47286871
17.5692963
14.94565228
13.01348869
16.02094908
15.30682293
8.618860314
13.60563751
16.8640775
19.69930072
10.91030382
8.242641804
12.59890609
6.583126073
8.039771156
14.64330045
7.070586106
6.477243147
4.440964392
18.00348012
6.340666677
14.56152936
15.53792411
12.65548122
19.73609184
4.661982805
17.60615025
9.049844636
6.924679717
6.961823857
20.51186409
8.383434877
26.92534655
16.66787043
12.69662583
24.08787038
9.643661105
17.65894227
8.142454087
7.558721514
15.7358394
7.105349608
9.533189476
11.40028918
3.469013858
6.928566394
9.378442128
7.001724466
17.58329242
8.898480498
10.91442498
5.797718156
10.41795798
13.38044714
9.972221098
10.81951368
18.20752644
21.49956998
13.08360051
17.03524254
11.48385486
14.72836409
19.86653843
12.3290799
12.67934896
13.89466845
14.46793497
11.68995414
11.22238129
15.35859744
16.48452383
7.522424696
9.524476584
14.50346176
10.0845482
9.6005598
4.719524141
12.27059338
11.12410525
12.48053828
9.221688136
12.99924636
11.36922588
11.18596445
12.68112616
12.36811236
16.25750774
17.56489702
19.8356969
24.31528202
9.122634003
15.95149522
15.54311211
12.33804995
26.06871421
15.57939715
17.96018002
11.80293742
14.58492271
13.53619869
4.858132076
5.553607681
6.379563428
8.639649892
4.195499251
7.719861047
6.065493324
8.007040356
8.322456462
10.49926118
15.50394928
13.89848872
8.992782364
8.498313707
10.50303861
15.34518726
12.09586954
14.4797106
14.55998038
9.531338479
16.51264981
13.95566747
14.19106179
18.21575248
23.34869372
7.825368582
7.271277792
9.207314154
10.78345569
8.69406093
13.83708257
4.809332795
14.79887303
10.61275905
13.22218236
9.341769996
10.58293709
10.96852176
6.932386725
12.43307133
12.87980689
11.88585541
12.28126408
11.47582099
9.218495678
7.120446202
5.91033118
6.211619207
7.397552965
4.406495338
4.815442908
12.63758685
8.287482367
8.586191809
6.411845511
11.5544306
13.513478
11.30506735
7.546755213
8.530582531
13.80605044
11.53249514
7.872481697
7.675164222
12.76168307
6.487293156
8.342283699
)
;

boundaryField
{
    flow
    {
        type            zeroGradient;
    }
    obstacle
    {
        type            calculated;
        value           nonuniform List<scalar> 
30
(
3.680853884e-18
3.873754917e-18
1.022122894e-18
2.362043244e-18
3.221362283e-18
3.218082104e-19
0
0
1.180059652e-17
1.31854433e-18
3.728739755e-18
2.63829969e-18
3.430179398e-18
1.916340496e-18
0
4.671047662e-18
0
1.278675788e-18
1.815198081e-18
1.480966983e-18
0
4.949660406e-18
0
0
0
0
5.308362803e-18
9.262638325e-19
6.939877507e-19
9.765083777e-19
)
;
    }
    frontAndBack
    {
        type            empty;
    }
    procBoundary1to0
    {
        type            processor;
        value           nonuniform List<scalar> 
21
(
7.586812908
7.558047105
14.34166335
12.28062544
9.787132557
6.888278809
15.94682921
10.66216931
11.5569228
10.15741101
11.4352682
7.860564341
9.049126459
7.339293964
13.07131624
2.477375779
10.2331908
5.171511289
10.36994035
3.849211575
9.236767314
)
;
    }
    procBoundary1to3
    {
        type            processor;
        value           nonuniform List<scalar> 
36
(
23.05375317
17.24602903
17.49408952
8.908186909
23.05375317
9.443166489
14.62588138
13.69839734
15.75435376
9.073601043
14.05013853
17.24602903
14.09241259
16.10156179
12.19184566
5.551920806
10.06879701
14.62588138
9.373476246
13.89706376
12.56292454
5.258891411
5.31206055
15.77266918
16.10156179
11.13055866
5.41456446
6.756819973
11.72140004
6.096792751
7.485383025
11.58627964
13.89706376
7.52149196
5.41456446
8.637339126
)
;
    }
}


// ************************************************************************* //
