/*--------------------------------*- C++ -*----------------------------------*\
| =========                 |                                                 |
| \\      /  F ield         | OpenFOAM: The Open Source CFD Toolbox           |
|  \\    /   O peration     | Version:  2406                                  |
|   \\  /    A nd           | Website:  www.openfoam.com                      |
|    \\/     M anipulation  |                                                 |
\*---------------------------------------------------------------------------*/
FoamFile
{
    version     2.0;
    format      ascii;
    arch        "LSB;label=32;scalar=64";
    class       volScalarField;
    location    "0.002";
    object      linearKEMean;
}
// * * * * * * * * * * * * * * * * * * * * * * * * * * * * * * * * * * * * * //

dimensions      [1 -1 -2 0 0 0 0];

internalField   nonuniform List<scalar> 
546
(
7.098237542
6.75129941
6.562000973
6.448323271
6.25781384
6.165411352
6.220645647
5.939949378
5.993120047
5.908697823
5.758572698
5.588240158
5.321437646
5.492149616
5.38396969
5.210968387
5.023198912
4.943316589
4.968465712
5.043115208
4.96689618
5.017006101
5.06526458
5.107016251
4.878429707
4.68281623
4.501816676
4.3589262
4.190392372
3.741386834
8.838864417
8.541484506
8.212635524
7.990122721
7.671707676
7.583951607
7.385114285
7.25849177
7.042450976
7.060780207
6.736251561
6.550601645
6.50488159
6.442050218
6.280452246
6.155875377
6.06287171
5.96272581
5.896340969
5.866206386
5.661019892
5.76059015
5.715746052
5.532381813
5.416262773
5.427984388
5.268950495
4.936841138
4.794140348
4.364957965
10.22035928
10.20159328
9.724449848
9.353450057
9.066760122
8.752327143
8.656623935
8.395882064
8.239198188
8.134049826
8.231646588
7.80911117
7.69291818
7.325238274
7.157721713
7.150298742
7.105484319
6.95226538
6.892638264
6.703745088
6.572298578
6.493276626
6.564431303
6.307936692
6.117760012
5.93380357
5.84389933
5.781311034
5.454632445
5.118674848
11.17312703
11.21848538
11.17186403
10.71705807
10.67455424
10.33814831
9.99726119
9.8986352
9.513385073
9.233985091
8.995128701
8.787806383
8.723050967
8.745368622
8.405687597
8.083174484
7.917019538
7.826732098
7.723964112
7.53969639
7.437437799
7.068695312
7.014450433
7.065246402
6.996142657
6.656026795
6.356116191
6.31455596
6.102615353
5.913049642
12.12510486
11.96243383
12.08639375
11.94730517
11.71306177
11.32808367
11.04714489
10.84824822
10.69764415
10.4817426
10.34104289
10.2121706
10.04037759
9.700606921
9.302644437
9.179100579
8.997836121
8.91154107
8.561690919
8.396598934
8.118645765
7.893491766
7.833663377
7.816858754
7.662182155
7.44990598
7.466653846
7.07041994
6.824013199
6.347674432
11.71602688
12.05403574
12.21541973
12.14417205
11.93298691
11.98602206
11.80407762
11.62640667
11.66875049
11.48687934
11.16078715
11.11615036
10.83798908
10.69306049
10.57535761
10.42909255
10.01584097
9.912973543
9.672182104
9.414972276
9.161536176
8.81133231
8.632639945
8.509455075
8.431378552
8.156794152
7.967111462
7.907741576
7.684968024
7.363033799
11.34630051
11.96729567
12.16152989
12.43644097
12.46295861
12.86883666
12.61720616
12.43713686
12.41249729
12.30272594
12.07239936
11.77679069
11.83405246
11.71982641
11.35081307
10.96782933
10.82069231
10.51548144
10.45529093
10.00527378
9.937709764
9.637940452
9.513066072
9.431745347
9.408025136
9.196414045
8.872404951
8.793396711
8.43367193
8.143896555
11.00304048
11.30154899
11.83098963
12.40319008
12.48803454
12.54867139
12.9494479
12.98589948
12.83172176
12.80794235
12.75731764
12.55150066
12.39138655
12.18182601
12.40151875
12.22955082
11.77052899
11.47181313
11.26777042
11.31929945
11.03402446
10.82493961
10.6131384
10.31220459
10.09270859
9.847547893
9.547709829
9.421545125
9.239482156
8.879962905
10.58167603
11.04487415
11.33426929
11.53946014
12.22585751
12.52325432
12.62191061
12.97649881
13.03087599
13.1110024
13.14347951
13.19014887
13.03780344
12.96788714
12.7330174
12.70283515
12.49480881
12.39315815
12.3091477
11.91611747
11.6112469
11.34566942
11.13089476
11.11289807
10.86739196
10.61852567
10.38238792
10.12410663
9.738966611
9.560947304
9.602617716
9.957205218
10.52789182
11.0065598
11.37195917
11.73071909
12.21086076
12.533893
12.95312161
13.1752778
13.26111137
13.35053301
13.34850598
13.42007608
13.37846817
13.35470749
13.27086179
12.91937665
12.75182681
12.65370591
12.51024158
12.22962355
12.12564763
11.65201523
11.77210063
11.61395106
11.13631677
10.97498711
10.56087147
10.20522609
9.172873745
9.54139072
9.930902061
10.37861063
10.89521596
11.38335546
11.71940333
12.28982393
12.67505804
13.08410268
13.48427276
13.64839623
13.74865499
13.93417368
13.85931322
13.69749502
13.6980108
13.76671033
13.42167734
13.53773553
13.44677077
13.32000899
12.90860514
12.58903503
12.02995669
12.0160433
11.93306866
11.90565549
11.62008041
11.11791318
8.923418679
9.250716715
9.599542935
9.850214522
10.28011803
10.67823544
11.22066739
11.52743374
12.06191696
12.27147539
12.6379287
13.07592998
13.44191939
13.50701901
13.53826109
13.87892699
13.96667217
13.93392757
14.21390709
14.02040805
13.72301144
13.51787214
13.51560173
13.40045898
13.26598317
13.1098328
12.71571389
12.24728792
11.96371646
11.87794207
8.800222306
8.947430126
9.271033697
9.431336682
9.800533127
10.25861165
10.60616624
10.81168548
11.26159912
11.73034082
12.13545823
12.65688873
13.01283008
13.42974171
13.76233971
13.90454366
14.04857216
14.22829722
14.15992606
14.34933629
14.36977546
14.3059335
14.05038815
13.83375097
13.61229827
13.31523109
13.20335022
12.83803042
12.92437514
12.5540737
8.289034648
8.469715289
8.60153072
8.959696502
9.197188428
9.42565587
9.752573137
10.17910509
10.56132763
11.0691281
11.64791391
12.05919618
12.54931263
12.95067064
13.15072959
13.63549647
13.97047644
14.1474919
14.22242098
14.19374136
14.33058891
14.3632624
14.48464143
14.31004208
14.04133243
13.79351782
13.84517861
13.62417803
13.22429637
13.03420391
8.392395568
8.529689726
8.684148212
8.79286662
8.999961336
9.279750091
9.562221873
9.998113078
10.27198767
10.53876582
10.79404992
11.04635952
11.60813641
12.16798521
12.86126674
13.25861575
13.63491215
13.88038442
14.09143808
14.42891379
14.57957698
14.84289718
14.83078557
14.73854827
14.71128251
14.56388043
14.27252188
14.06235015
13.93523922
13.60006085
8.043423304
8.033490019
8.216961937
8.23633936
8.590157108
8.652922957
8.87063248
9.093234661
9.431309305
9.796520024
10.28221126
10.91551186
11.22719875
11.66587788
12.09968348
12.4772475
12.79800924
13.23987394
13.46046486
13.91773746
14.17838564
14.34808109
14.50094858
14.82578488
14.93903274
14.82591901
14.66341025
14.66191437
14.34202711
8.060913547
8.160838912
8.243752469
8.397720266
8.376541603
8.588297741
8.854510085
9.131466929
9.311136335
9.515726065
9.874163978
10.09203907
10.39727131
10.8445305
11.18904795
11.53951838
12.13519322
12.7972892
13.42784132
13.49047531
13.6480948
14.1514149
14.35344437
14.51654499
14.71301402
8.237851895
8.232471875
8.364349883
8.311654715
8.481251176
8.539211827
8.617796531
8.699630384
8.936604028
9.132174486
9.140506857
9.398872426
9.762603899
10.07205883
10.53248247
10.99120421
11.52151675
11.93838327
12.25080085
7.976909547
8.038193996
8.172854752
8.183207805
8.159380226
8.209864968
8.318721034
8.451577511
8.590900088
8.50928249
8.925757918
9.071405769
9.217983844
9.658796619
8.134245316
8.075753792
8.073282727
8.108011832
8.195542169
8.214426271
8.237392086
8.264363651
7.796808617
)
;

boundaryField
{
    flow
    {
        type            calculated;
        value           nonuniform List<scalar> 
15
(
3.741386834
4.364957965
5.118674848
5.913049642
6.347674432
7.363033799
8.143896555
8.879962905
9.560947304
10.20522609
11.11791318
11.87794207
12.5540737
13.03420391
13.60006085
)
;
    }
    obstacle
    {
        type            calculated;
        value           nonuniform List<scalar> 
30
(
2.418500949e-18
2.403904087e-18
2.181353675e-18
2.296472233e-18
2.123859398e-18
2.139445668e-18
2.200292363e-18
2.120189773e-18
2.0956248e-18
2.005161494e-18
2.350020192e-18
2.006547181e-18
1.983906188e-18
2.100294022e-18
1.981969775e-18
1.897710007e-18
1.863422242e-18
1.796172149e-18
1.806862897e-18
1.785875041e-18
1.8942771e-18
1.829944672e-18
1.872356968e-18
1.889147755e-18
1.75893417e-18
1.74542265e-18
1.677697508e-18
1.78410328e-18
1.482114587e-18
1.463347974e-18
)
;
    }
    frontAndBack
    {
        type            empty;
    }
    procBoundary1to0
    {
        type            processor;
        value           nonuniform List<scalar> 
21
(
7.384788622
9.077120101
10.46676596
11.48007935
11.89731775
11.40009093
11.09508829
10.44833526
9.974503253
9.418919027
8.957248027
8.594538593
8.710176063
8.221570014
8.182168512
8.011713558
8.073004536
8.123170347
7.971670543
8.063465507
7.864545741
)
;
    }
    procBoundary1to3
    {
        type            processor;
        value           nonuniform List<scalar> 
36
(
14.00918
14.78007583
14.97506123
14.85686979
14.00918
14.84602932
12.93036926
13.53616318
13.86682511
14.37229664
14.58882737
14.78007583
14.74901838
10.04825784
10.68352175
10.95360917
11.37379074
12.93036926
11.87748943
8.40127185
8.700069164
8.740485609
8.995276166
9.195248999
10.04825784
9.363234599
7.902799109
7.915822126
7.884266901
8.005454982
8.131399805
8.137163155
8.40127185
8.297723559
7.902799109
7.985591948
)
;
    }
}


// ************************************************************************* //
