/*--------------------------------*- C++ -*----------------------------------*\
| =========                 |                                                 |
| \\      /  F ield         | OpenFOAM: The Open Source CFD Toolbox           |
|  \\    /   O peration     | Version:  2406                                  |
|   \\  /    A nd           | Website:  www.openfoam.com                      |
|    \\/     M anipulation  |                                                 |
\*---------------------------------------------------------------------------*/
FoamFile
{
    version     2.0;
    format      ascii;
    arch        "LSB;label=32;scalar=64";
    class       volVectorField;
    location    "0.002";
    object      momentumMean;
}
// * * * * * * * * * * * * * * * * * * * * * * * * * * * * * * * * * * * * * //

dimensions      [1 -2 -1 0 0 0 0];

internalField   nonuniform List<vector> 
546
(
(0.005462502539 0.001540302927 0.0001353270648)
(0.005136315634 0.001427592105 0.0001050139427)
(0.005077446956 0.001400029396 2.584446878e-05)
(0.004866388657 0.001320239295 -0.0001381708694)
(0.004737837191 0.001307448478 -0.0001321609574)
(0.004690712815 0.001281784611 -2.018754607e-05)
(0.004578094888 0.001223105303 -9.200216595e-05)
(0.004447146481 0.001265705394 1.876874679e-05)
(0.004437090568 0.001135124146 0.0001188314047)
(0.004198243027 0.001184240728 -6.033412467e-05)
(0.004016140616 0.001147791533 7.571489761e-05)
(0.003862396116 0.001004579196 -4.277195619e-05)
(0.003690922144 0.001057855982 -0.0002048096616)
(0.003758914174 0.0009628106932 3.035709878e-05)
(0.003632096874 0.001037627788 -4.428937472e-05)
(0.003578328681 0.0009176123293 -0.0001646632526)
(0.003426402334 0.0009985776539 -4.706537753e-05)
(0.003376021913 0.0008835941148 -0.0001051546559)
(0.003269875565 0.0009144437796 -6.396659498e-06)
(0.003283023875 0.0008117799075 -0.0002155986205)
(0.003393392861 0.0008642534859 -0.0002003129883)
(0.003441616478 0.0009112431594 -0.0001095384824)
(0.003339951921 0.0009151335173 -8.815492556e-05)
(0.003544936825 0.0008405504849 0.0002437627982)
(0.003506187206 0.0009289179033 -3.705836579e-05)
(0.003420137301 0.0009436340077 -0.0001128383732)
(0.003304083889 0.0009075658022 2.094043335e-05)
(0.003373207947 0.0008308641859 0.0001525516701)
(0.003423951612 0.0008619969415 0.0001572043738)
(0.003740160329 0.0007228901812 -7.280238852e-06)
(0.008456452208 0.002671484259 -8.035671251e-05)
(0.008241740812 0.002368262942 -5.278797798e-05)
(0.007809209622 0.002229637214 -4.76018255e-05)
(0.007629044918 0.002275459799 -5.515226411e-05)
(0.007442972359 0.002044529486 -9.948292936e-05)
(0.007261866073 0.002039508557 -0.0001097734995)
(0.006968154106 0.002004274058 -0.0001193634649)
(0.006935682766 0.001879005447 9.077922982e-06)
(0.006548865694 0.001966394902 -5.909538292e-05)
(0.006518122838 0.001886858551 -0.0001271451107)
(0.006176683334 0.001915769594 9.529465996e-06)
(0.00610112618 0.001687335192 -4.252406738e-05)
(0.005979896696 0.001731774429 -7.059639039e-05)
(0.005792823712 0.001537753209 0.0002556758324)
(0.005662286008 0.0015112507 7.426819152e-05)
(0.005525349605 0.001596198045 -0.0001768879118)
(0.00546268697 0.001553796683 -7.642807099e-05)
(0.005393539877 0.001397285726 -3.58744075e-05)
(0.005255811586 0.001462221021 8.357779828e-06)
(0.005075724955 0.001352242007 -5.281367557e-05)
(0.004998533349 0.0011573716 -8.909844163e-05)
(0.005048380985 0.001367109519 1.477893608e-05)
(0.005140771609 0.001317366309 -0.0002791731144)
(0.004950527378 0.001202552229 -6.374516168e-05)
(0.004871589936 0.001368852662 -0.0001481821364)
(0.004843417278 0.001345219149 -0.0002251679858)
(0.004886967344 0.001282246705 -5.369499755e-06)
(0.004769098082 0.001171939831 -4.920069135e-05)
(0.004920967238 0.001152979754 1.320655414e-05)
(0.005145072315 0.0007259573954 -5.153163505e-05)
(0.01035681492 0.003272869052 -0.0001205596356)
(0.01019934252 0.003195738929 -0.0001300772335)
(0.009847396324 0.003096592046 -0.0001449076356)
(0.009455978934 0.002789908272 -0.0001158678905)
(0.009138629941 0.002647280814 -5.224566138e-05)
(0.008845032224 0.002660226803 3.285025671e-05)
(0.008794266042 0.002562737199 -0.0001420950046)
(0.008471724582 0.002519609368 -0.0001340540515)
(0.008364201602 0.002490352198 -0.0001577250868)
(0.008207548312 0.002365453536 -0.0001774658697)
(0.008267876908 0.002568758826 1.554696849e-05)
(0.007897470165 0.002295909204 -4.471375794e-05)
(0.007627282698 0.002213367283 -7.696244596e-05)
(0.007212439371 0.002115742018 -3.442702406e-05)
(0.007178390715 0.001977708627 -3.508668022e-05)
(0.007152984058 0.002040296215 7.514520318e-05)
(0.007165090602 0.001991640077 3.49915536e-05)
(0.006948809794 0.00191503489 -1.475038468e-05)
(0.006857245272 0.001962521187 8.900085123e-06)
(0.006771515682 0.001823233795 0.0001056252262)
(0.006613270348 0.001652744964 -6.421241153e-05)
(0.006604250431 0.001570004208 1.996339497e-05)
(0.006557373133 0.001745212078 -0.0001293910079)
(0.006236091446 0.001726281504 -1.257733576e-05)
(0.006017079229 0.001704905818 -0.0001384640153)
(0.00599123269 0.001590430799 -4.963958404e-07)
(0.006025680148 0.001560664623 -1.402266858e-05)
(0.006127601684 0.001539970137 4.277618521e-06)
(0.006086173607 0.001331617936 3.744126569e-05)
(0.006142286682 0.0009011626252 -3.734915015e-05)
(0.01124910277 0.003452777267 -1.499962515e-05)
(0.01123110011 0.003582594179 -8.766503941e-05)
(0.01123341964 0.003647520395 -0.0001312841013)
(0.01096243313 0.003438184361 -0.0001431138521)
(0.01092720026 0.003393430431 -6.912190444e-05)
(0.0106754033 0.003120800819 -3.926657841e-05)
(0.0103431278 0.003163423801 4.179254179e-06)
(0.01017181684 0.003157698675 -8.196348664e-07)
(0.009854037023 0.003019415108 -6.121179788e-05)
(0.009495721885 0.002891254137 -0.0001281248869)
(0.009341859514 0.002814850542 -8.713790589e-05)
(0.009131158866 0.002850331135 -0.0001513621979)
(0.008997057813 0.00267139164 -0.0001050281413)
(0.009097151475 0.002724851029 -9.349487341e-05)
(0.008746403464 0.002525776192 8.36678945e-05)
(0.008428563194 0.002355296216 -1.498380877e-05)
(0.008280081534 0.002378479411 7.919293057e-05)
(0.008185296043 0.002290827671 -2.723487024e-06)
(0.008062818349 0.002339295442 -6.470156757e-05)
(0.007882053939 0.002199703889 0.0001152714895)
(0.00776591658 0.001926685398 0.0001231904065)
(0.00740345304 0.001949851431 4.042399054e-05)
(0.007236822207 0.002063620462 -0.0001048705112)
(0.00723069177 0.002089558469 2.850013249e-08)
(0.007291313627 0.002016668596 -1.692768609e-05)
(0.007110952501 0.001859939241 -2.939402505e-05)
(0.006918969396 0.001776515062 -0.0001223205664)
(0.007030521354 0.001695080287 6.253139265e-06)
(0.00700557344 0.001493002896 -1.365321938e-05)
(0.007078255554 0.00122536503 0.0001877213481)
(0.01218354101 0.003680160941 -0.0001075321596)
(0.01201842935 0.003764302043 3.756088523e-05)
(0.01211759963 0.003902746781 -2.042819793e-05)
(0.01217428947 0.003829919058 -2.898124111e-05)
(0.01200783687 0.003667683291 -1.466690098e-06)
(0.01160186384 0.003711314312 -6.702556652e-05)
(0.01146580744 0.003545029885 1.374612529e-05)
(0.01130338577 0.003503907976 -0.0001169061578)
(0.01117826242 0.003595596645 -0.0002755411808)
(0.01099008894 0.003380382912 -0.000196906733)
(0.0108356211 0.003305606634 -0.0002330971634)
(0.01073487331 0.003303054835 -3.81001295e-05)
(0.01057497075 0.003188204087 -0.000128976622)
(0.01016965281 0.003219185077 0.0001017788199)
(0.009897595197 0.002981833876 -7.415498162e-06)
(0.009738900443 0.002857339574 -0.0001288888333)
(0.00953692979 0.002702992663 -6.572914161e-05)
(0.009445430864 0.002772427524 6.605859791e-05)
(0.009070607065 0.002625240991 2.563800271e-05)
(0.008891494963 0.002619823133 -3.019384948e-06)
(0.008666168364 0.002423215477 -8.514678041e-05)
(0.008449645518 0.002233289549 -0.0001013184385)
(0.008334997621 0.002330431644 -0.0001337073624)
(0.008244157894 0.002326324452 -5.266882583e-06)
(0.008189407936 0.002237967195 0.0001256848607)
(0.008113850931 0.002192139486 -4.49337413e-06)
(0.008231316149 0.002152759835 -0.0001686438122)
(0.007941156682 0.001945031635 -7.84879726e-05)
(0.007819542345 0.001735911672 4.301498707e-05)
(0.007620276544 0.001391454518 -4.812724103e-05)
(0.01172313268 0.003378532447 -9.260628454e-05)
(0.01199656087 0.003701101759 -0.0001407436135)
(0.01228478623 0.003779852025 -2.765524985e-05)
(0.01228055803 0.003899350165 -6.337814257e-05)
(0.01217856268 0.003864659477 -2.629744806e-05)
(0.01226496448 0.004021521161 -3.085863702e-05)
(0.01222053791 0.003773448241 -6.587088666e-05)
(0.01207046247 0.003697321067 3.405980504e-05)
(0.01206353438 0.003794575607 -1.025556429e-05)
(0.01192824898 0.003810608271 -2.674485361e-05)
(0.011652974 0.003612258718 -0.0001279545986)
(0.01159104841 0.003558999619 -6.959533722e-06)
(0.01130247197 0.003617213727 -2.43294589e-05)
(0.01126290763 0.003496091733 7.656950744e-05)
(0.01119222972 0.003446696689 2.980004128e-05)
(0.01107450859 0.003303661041 -6.106537492e-05)
(0.01067795516 0.003169115985 -1.080919138e-05)
(0.01053148874 0.003192449928 6.051947107e-05)
(0.01036642029 0.003153236679 -4.198164578e-05)
(0.01009760869 0.002915812945 -5.490501854e-05)
(0.009859286543 0.002891734252 -4.344149623e-05)
(0.009564135539 0.002675538803 0.0001581578526)
(0.009347389196 0.002693414034 -3.83881684e-05)
(0.009286619111 0.002668283496 4.427002819e-05)
(0.00912678214 0.002610041127 0.0001176149761)
(0.008913239346 0.002322041913 8.446774011e-05)
(0.008808758592 0.002302658207 3.573758329e-05)
(0.008855263405 0.00222865388 -6.352185799e-05)
(0.008768026033 0.00204486692 -2.370063927e-05)
(0.008618078562 0.001694298619 -0.0001160433436)
(0.01134058517 0.002927449518 1.34521977e-05)
(0.0119004485 0.003338757017 2.740341513e-05)
(0.01216469362 0.003546162385 -0.000153825353)
(0.01249258488 0.003803457064 -8.581018881e-05)
(0.0126666706 0.003787412151 -7.521099911e-05)
(0.01298170102 0.004131851742 -6.188618258e-05)
(0.01288838368 0.004025398782 -5.25203927e-05)
(0.01271833853 0.004020689447 -5.589164767e-05)
(0.01266941832 0.003966974307 8.569969392e-06)
(0.01265423531 0.003916148096 0.0001595849178)
(0.01245900026 0.003989588951 7.574469257e-05)
(0.01226274275 0.003809526688 -1.958883086e-05)
(0.01233241248 0.003862123146 1.329654603e-05)
(0.01217945696 0.003872498588 -2.86862314e-05)
(0.01177099761 0.003788393549 -7.466352067e-05)
(0.01146187626 0.00359721901 -7.2718662e-05)
(0.0113688662 0.003419131086 -0.0001127425007)
(0.01111151645 0.003383555655 -0.0001412219722)
(0.01102749202 0.003444595834 -1.500230328e-05)
(0.01061444142 0.00331030906 -1.813100367e-05)
(0.01057780931 0.00316652625 5.719115088e-05)
(0.01036155983 0.003082994801 -7.670810341e-07)
(0.01024688309 0.002923769431 -7.166830252e-05)
(0.01024197721 0.002826828326 -9.361480215e-05)
(0.01020127485 0.002887824097 -9.718797593e-05)
(0.010093219 0.002810447669 2.432337371e-05)
(0.009753236505 0.002530374501 7.929322459e-05)
(0.00965471381 0.002463681795 -4.856499816e-05)
(0.009484153159 0.002267549167 -6.078025255e-05)
(0.009336183741 0.002023496652 2.082727477e-05)
(0.01103587737 0.002508960473 -8.286844093e-05)
(0.01133426558 0.002797386285 -8.717177457e-05)
(0.01190439277 0.003055271525 -1.322673753e-05)
(0.01238848563 0.003510722771 2.92931417e-05)
(0.01256548697 0.003596710557 -7.51644828e-05)
(0.01260275293 0.003813330143 -4.903364483e-05)
(0.01304892811 0.004062568154 1.491709097e-05)
(0.01323384507 0.004076922481 6.904291967e-07)
(0.01309102611 0.004129312673 -3.765035677e-05)
(0.0130850391 0.004093406775 -0.0001016999381)
(0.01306842197 0.004149503488 -7.869501854e-05)
(0.01294259258 0.004064770733 1.551937233e-05)
(0.01280003301 0.004010943789 -4.571961464e-05)
(0.01262554142 0.004046263455 2.756862172e-06)
(0.01281397785 0.004181172244 -5.898557809e-05)
(0.01270874546 0.003967955976 -2.724446266e-05)
(0.01228681012 0.003828519086 2.712330868e-06)
(0.01204070699 0.003773727763 1.271113002e-05)
(0.01178362306 0.003732323331 2.33639626e-05)
(0.01188933496 0.003665252027 -2.765807898e-05)
(0.0116893308 0.003520776361 4.131148372e-05)
(0.01155139639 0.003361562048 2.38511446e-05)
(0.01136620081 0.003246738305 5.479424709e-06)
(0.01109470222 0.003083563341 4.244656251e-05)
(0.01080419789 0.003135510989 -0.0001079141482)
(0.01061863714 0.003018197255 2.688236728e-05)
(0.01052224342 0.002863654218 6.518519728e-06)
(0.01041118109 0.002687543267 0.0001017344623)
(0.01031954146 0.002589062724 0.0001016647332)
(0.01008844753 0.002258105585 8.084732965e-05)
(0.01062848113 0.002053820481 -3.067043214e-06)
(0.01102905176 0.002320422501 1.543206096e-05)
(0.01132448209 0.002608192524 1.627244234e-05)
(0.01156669382 0.002904455363 -1.672927013e-05)
(0.01222649218 0.003303598227 7.104780296e-05)
(0.01252599282 0.003527531477 5.064404988e-05)
(0.01270551519 0.003698765285 1.589077144e-05)
(0.01305026743 0.003937554849 1.185421525e-05)
(0.01309160823 0.004092914752 4.989653606e-05)
(0.01326463664 0.004115977738 -5.379566921e-05)
(0.01336439858 0.004131996945 -0.0001255578464)
(0.01345890934 0.004265878867 1.880331653e-06)
(0.01335735082 0.004244298997 -5.017201053e-05)
(0.01334276745 0.004216616421 -5.335352473e-05)
(0.01315619869 0.004124476143 8.798988133e-05)
(0.01315334895 0.004309241165 2.462397733e-05)
(0.01304746345 0.004093801867 -5.168824041e-05)
(0.01298344192 0.00401287729 7.59522544e-06)
(0.01292674577 0.00401231563 -1.461216959e-05)
(0.01248198563 0.003930957545 9.107371575e-05)
(0.01222544672 0.003852783503 8.60479703e-06)
(0.01204174906 0.003619764086 3.812935038e-05)
(0.01184141279 0.003501537326 -8.99652368e-06)
(0.01185665154 0.003453710556 2.276458654e-05)
(0.01160739146 0.003398995727 1.81881387e-05)
(0.01134104819 0.003182284203 -0.0001042774751)
(0.01119223551 0.003153841 -2.373699005e-05)
(0.01100024539 0.00296125379 2.372065187e-05)
(0.01066060135 0.002742953599 1.419868886e-05)
(0.01058772024 0.002496929354 1.063809463e-05)
(0.009727866202 0.001508856554 2.895595874e-05)
(0.01007901783 0.001804121663 -2.116355827e-06)
(0.01057461467 0.002137133517 6.9016218e-05)
(0.01100619409 0.002365758643 3.665704983e-05)
(0.01135365093 0.002773916007 1.702029446e-05)
(0.0117449563 0.003098658526 -6.74188175e-05)
(0.01228824455 0.003312285119 -0.0001295710173)
(0.01258045327 0.00356337177 -9.496861955e-05)
(0.01303519983 0.003754672509 -9.379277414e-05)
(0.01325519374 0.003994245675 -8.262750412e-05)
(0.01340891771 0.004023367681 1.148015763e-05)
(0.01349657923 0.004129186772 -5.072223868e-05)
(0.01361332963 0.004220821897 -1.525495743e-05)
(0.01365336621 0.004407217288 -2.734316052e-06)
(0.01371483988 0.004310096938 -1.844536198e-05)
(0.01371848121 0.004304931217 1.789426067e-05)
(0.013655116 0.004330253939 -4.608491287e-06)
(0.01335431712 0.004255941773 -6.093245452e-05)
(0.013217163 0.004246189496 -7.873998223e-06)
(0.01313042851 0.004191947236 -8.729317662e-05)
(0.01305931735 0.004062515627 -9.695490062e-05)
(0.01284506228 0.003898457993 -0.0001442482996)
(0.01271811427 0.00382679214 -3.300259437e-05)
(0.0122991566 0.003580307278 -4.928514089e-05)
(0.01239767788 0.00364018694 1.46427194e-05)
(0.01228577003 0.003672869626 -8.414860912e-05)
(0.01189612277 0.003390086043 -9.051906279e-05)
(0.01179099992 0.003281854132 2.37358125e-05)
(0.01140542005 0.003066248253 4.886703897e-06)
(0.01118146272 0.002807434761 -6.757956201e-06)
(0.009417848596 0.001170354343 -6.113335404e-05)
(0.009750141679 0.001381641016 -3.770176267e-05)
(0.01006810776 0.001629696032 -7.88576487e-05)
(0.01049582851 0.001949835226 -3.643670986e-05)
(0.01094944303 0.002230968138 4.640023181e-05)
(0.01139005643 0.002506022857 0.0001046150584)
(0.01171398637 0.002844384236 1.450528169e-05)
(0.01231500064 0.003103291959 2.519911466e-05)
(0.01270458312 0.003424647774 -4.832106452e-06)
(0.01320178714 0.003628504912 -7.773245893e-05)
(0.01361099615 0.003960573763 -0.0001067169194)
(0.01371188067 0.00411163788 -9.13003902e-05)
(0.01378328192 0.004147751559 -8.906194888e-05)
(0.01401579736 0.004253093646 -1.83253557e-05)
(0.01401746903 0.004410329194 -1.692444026e-05)
(0.01391935869 0.004294905537 -2.883996055e-05)
(0.01393133704 0.004482250741 5.496855598e-05)
(0.01405686847 0.004529669739 2.595562023e-05)
(0.01378181828 0.00440804847 -1.705265246e-05)
(0.0139616722 0.004330592361 -3.643436854e-05)
(0.01386403135 0.004317287971 -1.841989196e-05)
(0.01378735175 0.004242929934 -9.550887879e-05)
(0.01333674366 0.004109302288 -4.558626019e-05)
(0.01310484202 0.003988073931 -3.026069837e-05)
(0.01260104646 0.003769406988 3.533469137e-05)
(0.0125678708 0.003721507572 8.816453771e-05)
(0.0126126008 0.003571899938 5.5314418e-05)
(0.01271021688 0.003598257787 -4.785318705e-05)
(0.01249131156 0.003431317241 -2.141894168e-05)
(0.01201871923 0.003168518288 -4.100567748e-05)
(0.009209334769 0.0008385278347 1.899770843e-05)
(0.009509517156 0.001057637386 -1.220042701e-05)
(0.009812199554 0.001273862901 -5.756363343e-05)
(0.01005061341 0.001443235238 -9.266816017e-05)
(0.01038800649 0.0017848169 -6.11952237e-05)
(0.01077795272 0.002092122854 -2.744840956e-05)
(0.01126744758 0.002405415231 2.208442939e-05)
(0.01162351606 0.002476020295 -5.614723131e-05)
(0.01205388043 0.00284812709 1.349673754e-05)
(0.01227106893 0.003187243139 -1.238637958e-05)
(0.01260304605 0.003416595006 -5.321152899e-05)
(0.01307039591 0.003666392067 2.797114206e-05)
(0.01349080529 0.004038898865 7.595927458e-05)
(0.01357785842 0.004047177714 2.850231121e-05)
(0.01360070633 0.004158670986 3.315044314e-05)
(0.01398614019 0.004353185244 3.897423053e-05)
(0.01407435597 0.004393496793 -1.262106234e-05)
(0.01421586107 0.004346464157 -5.767682865e-05)
(0.01447105961 0.004528975459 -6.498332448e-05)
(0.01430758767 0.004521192687 -4.330571353e-05)
(0.01402994308 0.004414610193 -1.262299899e-05)
(0.01393503239 0.004355175584 6.712642395e-05)
(0.01391337988 0.004379623435 -4.883772885e-05)
(0.01387824785 0.00422150479 -7.281918346e-05)
(0.01384017367 0.004121656742 -2.689017015e-05)
(0.01373268923 0.003958940798 -7.602397747e-05)
(0.01330994244 0.003854095688 -9.297798806e-05)
(0.01287972784 0.003689308665 -3.132475077e-05)
(0.01264690497 0.003672586887 -3.23156736e-05)
(0.01272605489 0.003543980029 -4.628345875e-05)
(0.009105904023 0.0006146293639 -4.183386795e-05)
(0.009217637573 0.0007725507093 -3.790394384e-05)
(0.00950910966 0.0009954500741 -2.118068127e-05)
(0.00969040115 0.001125952792 -1.835671377e-05)
(0.01000869605 0.001376663806 -2.770232053e-05)
(0.01041899897 0.001621413063 -1.259183474e-06)
(0.01075672259 0.0019202173 -7.416414706e-07)
(0.01091231951 0.002165862781 8.122120651e-06)
(0.01132935276 0.002498058045 -6.22212504e-06)
(0.01172627162 0.002707737637 3.306934204e-05)
(0.01218955237 0.002961204121 1.787392175e-05)
(0.01270771368 0.00333088909 -5.769682613e-05)
(0.01305966958 0.003549122711 -7.013649753e-05)
(0.0134742927 0.003829877925 5.02121633e-05)
(0.01383340872 0.004047706993 8.823319549e-05)
(0.01399400043 0.004158100155 4.096765274e-05)
(0.01412793295 0.004255319139 -8.947069987e-06)
(0.01431612828 0.004340427802 5.227946998e-05)
(0.01431342311 0.004401021142 -8.825188973e-06)
(0.01451350924 0.004480746759 3.337901076e-05)
(0.01453469986 0.004532819202 1.553283459e-05)
(0.01449468935 0.004634343133 -6.091779652e-06)
(0.01434376206 0.004436732245 8.24339941e-06)
(0.01415084839 0.004368233818 3.851021307e-05)
(0.01395612658 0.004239716308 -2.438477705e-05)
(0.01376868782 0.004147257572 -6.731905077e-05)
(0.01373480093 0.004190683963 -4.042902609e-05)
(0.0134355074 0.00396316432 -0.0001041355295)
(0.01355179807 0.003883867569 -6.943445015e-05)
(0.01324606072 0.003688818819 -2.010987373e-05)
(0.008614975587 0.0004958897795 -4.98947664e-06)
(0.008766068641 0.0005888485876 -3.121524334e-05)
(0.008870727385 0.0006775678448 3.821065761e-05)
(0.009241101856 0.0008198329836 -8.511517253e-07)
(0.009422028902 0.001010963491 -4.183015217e-05)
(0.009630107706 0.001205294122 -3.222825801e-06)
(0.009957426514 0.001422367129 -3.091363775e-05)
(0.0103724786 0.001775240612 -3.894331631e-05)
(0.01075782026 0.001941355209 -2.22341923e-05)
(0.01124309098 0.00221326657 2.426483441e-05)
(0.01181873682 0.002519384546 -1.539721135e-05)
(0.0121961821 0.002776229699 1.379167887e-05)
(0.012620816 0.003146689529 6.044378497e-06)
(0.01299465075 0.003464070496 -6.545966894e-05)
(0.01323166207 0.003672133971 -8.274328494e-05)
(0.01367833205 0.003861783165 -7.428824473e-05)
(0.01399784257 0.004037929077 -0.0001121789181)
(0.01424633177 0.004235650903 -9.01248727e-05)
(0.0142950297 0.004311803955 6.903551561e-06)
(0.01428684725 0.004380299623 5.1291511e-05)
(0.01445376804 0.004441557474 -1.180651509e-06)
(0.01450966798 0.00447056756 5.92997518e-05)
(0.0146716039 0.004631784256 6.706578884e-05)
(0.01459780531 0.004577413583 1.155081202e-05)
(0.0143670572 0.004459488106 4.323706898e-05)
(0.0141600415 0.004346836653 1.751419147e-05)
(0.01420190316 0.004251539082 -2.089240212e-05)
(0.01400738919 0.004166456329 -1.838898618e-05)
(0.01372282491 0.003985323511 -5.25118217e-05)
(0.01364177188 0.003857108044 -9.811547901e-05)
(0.008754806032 0.0003631597648 -7.373329288e-06)
(0.008887670623 0.0004110247783 -1.137403882e-05)
(0.009059520474 0.0004604021119 -4.802007216e-05)
(0.009119544097 0.0006570443196 -5.463154762e-05)
(0.009291191752 0.0008218992467 -4.906072546e-05)
(0.009536571637 0.00102365239 -3.531450394e-05)
(0.009838513233 0.001121356596 -2.85191211e-05)
(0.01021360466 0.001340498515 -7.9020268e-05)
(0.01048517252 0.001533867933 -6.62708798e-05)
(0.01070940209 0.001787353919 -8.987977582e-05)
(0.01092233171 0.002015483198 -5.381222505e-05)
(0.01116857727 0.002294264284 -3.606891841e-05)
(0.01167938135 0.002646941198 -7.477980494e-05)
(0.01227981298 0.00291586311 -9.309074172e-05)
(0.01292900703 0.00322055893 -4.694946783e-05)
(0.01337381513 0.003490322293 -3.443917257e-05)
(0.01375357426 0.003738439623 -4.505672678e-05)
(0.01392996766 0.003988883213 3.348680581e-05)
(0.0142147525 0.004194450395 -3.675329493e-05)
(0.01459991288 0.004260346094 3.915050415e-05)
(0.01475290995 0.004405218029 -4.87392583e-05)
(0.0149747784 0.004489514437 -0.000102011789)
(0.01495672673 0.004601056103 -3.079337958e-05)
(0.01485717977 0.004650965234 8.165881003e-05)
(0.01494356954 0.004546492215 1.945601577e-06)
(0.01483615628 0.004552526835 -3.855318972e-05)
(0.01463775185 0.004396647702 -9.869088335e-05)
(0.01450498177 0.004422744375 -1.311307305e-05)
(0.01432690278 0.004226346759 2.29398395e-05)
(0.01409134959 0.004028045379 -7.808729793e-05)
(0.008462235311 0.00024077043 -3.076298325e-05)
(0.008416842858 0.0003078278033 -1.54073842e-05)
(0.008562457854 0.0003986448255 1.919366593e-05)
(0.008614126797 0.0004625633122 2.475096168e-05)
(0.008916291614 0.0005494582695 -3.374440639e-05)
(0.008995945578 0.0006361645983 -4.176581607e-05)
(0.009180065968 0.0008255905325 -3.491305019e-05)
(0.009352531607 0.0009938055493 -3.65333068e-05)
(0.009674737722 0.001208531756 -4.476909153e-05)
(0.010040545 0.001384914563 -1.291665101e-05)
(0.01050781508 0.001677070183 1.908769782e-05)
(0.0110995351 0.001908412872 -1.681674291e-05)
(0.01140203141 0.002063861767 -6.550919814e-05)
(0.01181867208 0.002400273849 5.011393709e-05)
(0.01224061881 0.002711883295 -1.662763602e-05)
(0.01263735378 0.003026486313 1.488591365e-05)
(0.01291416063 0.003375265568 6.789236138e-06)
(0.01337200526 0.003606207399 -1.740245542e-05)
(0.01361091965 0.003726896761 -8.328815606e-05)
(0.01410182558 0.003982766138 -9.905617953e-05)
(0.01437535154 0.004123920535 2.179131819e-05)
(0.01453477764 0.004378867118 4.786431281e-05)
(0.01466220002 0.004426905373 -2.853554929e-05)
(0.01501813217 0.004634930694 -6.964071999e-05)
(0.01514712249 0.004634245618 4.373810393e-05)
(0.01507312984 0.004564929543 1.366160979e-05)
(0.01500283957 0.004596206982 1.184017235e-05)
(0.01498419221 0.004506572599 -6.183517188e-06)
(0.01477322624 0.004438380226 1.940923815e-05)
(0.008481629443 0.0002044290753 3.037709357e-05)
(0.008568540841 0.0002688690774 8.03964965e-06)
(0.008638857325 0.0002783456481 -1.456004564e-05)
(0.008787829106 0.0003379867853 1.473430398e-05)
(0.008753194334 0.0004128141633 4.367648264e-05)
(0.008942785605 0.0004933228727 -1.679399552e-05)
(0.00918139041 0.0006441673831 -6.686687287e-06)
(0.009426075865 0.0007275103998 1.100897824e-05)
(0.009529469811 0.0009519186253 8.293828421e-06)
(0.009779965143 0.001065422738 -3.557848406e-07)
(0.01011764731 0.001258710635 -3.971210804e-07)
(0.01029856985 0.001462536469 -1.609211948e-05)
(0.01057433432 0.001726228641 3.362989284e-05)
(0.01101104688 0.001918238277 5.291137858e-06)
(0.01132175947 0.002229448802 4.279793328e-05)
(0.01168456644 0.002505440779 -2.073227266e-05)
(0.01225198592 0.002800702187 -4.747373192e-05)
(0.01287332549 0.00314974009 -5.493365791e-06)
(0.01345499421 0.003426282269 -2.486116234e-05)
(0.01347008127 0.003674515608 -3.490444476e-05)
(0.01374408911 0.003847685275 -0.0001134337984)
(0.0142295694 0.004040580032 -3.734233058e-05)
(0.01448047514 0.004174275319 -1.552867261e-05)
(0.01462472068 0.004318084623 -5.2417236e-05)
(0.01482827655 0.004456967466 -9.204547182e-05)
(0.008690608732 0.0001401075725 -1.258848899e-05)
(0.008693457912 0.0001836659872 -1.01801909e-05)
(0.00881572952 0.0002660162514 -1.516089863e-05)
(0.008736861568 0.0002972815039 -2.222974601e-05)
(0.008891368069 0.0003764835113 -4.378897647e-07)
(0.008948477642 0.0004146506376 2.496466865e-05)
(0.00899278667 0.0004427999045 3.399382796e-05)
(0.009048664077 0.0006082936123 1.206036233e-05)
(0.009317830551 0.0006680083701 3.166027157e-05)
(0.009447241184 0.0008775169226 1.841569811e-05)
(0.009446635117 0.001003048034 1.787467037e-05)
(0.009745034022 0.001082214256 2.003686045e-05)
(0.01004163769 0.001327129534 -3.614992413e-05)
(0.01031423532 0.001548737589 -5.379930426e-05)
(0.01072695843 0.00184597354 -2.119935774e-05)
(0.01118569683 0.002041926178 3.452108687e-05)
(0.01166200541 0.002276399436 1.818300166e-06)
(0.01205066132 0.002650184354 -5.546682529e-05)
(0.01237339728 0.002958733786 7.200397917e-05)
(0.00845264038 0.0001440991045 -9.724672483e-06)
(0.008507106701 0.000131778252 7.93506804e-06)
(0.008615598066 0.0001511598671 2.009179687e-05)
(0.00862886215 0.0002201794475 2.054763197e-05)
(0.008606618361 0.0002708461025 1.505727398e-05)
(0.008662308464 0.0002961012451 2.417128514e-05)
(0.008779861845 0.0003707336293 1.561078781e-05)
(0.008890409256 0.000454424348 7.796421622e-06)
(0.008999558776 0.0005493280883 4.935333471e-06)
(0.008885120229 0.0006274491708 3.078019083e-05)
(0.009243316414 0.0008283930448 7.453829593e-06)
(0.009381555826 0.0009386908779 -6.048080516e-06)
(0.009528847898 0.001001286669 4.164616521e-05)
(0.009964686939 0.001166221556 4.98996978e-05)
(0.008588305281 9.182600919e-05 -1.189156145e-05)
(0.008534120166 0.0001273451796 -1.432572605e-05)
(0.008550268608 0.0001666752398 -6.581221652e-06)
(0.008603946894 0.0001673816063 -4.696973811e-06)
(0.008652317609 0.0002329773593 1.168483309e-05)
(0.008632947754 0.0002901274881 1.783246579e-05)
(0.008672971862 0.0003103378046 1.804792972e-05)
(0.008696866751 0.0003778831005 5.582638392e-06)
(0.008261802097 6.858521048e-05 4.746538723e-05)
)
;

boundaryField
{
    flow
    {
        type            calculated;
        value           nonuniform List<vector> 
15
(
(0.003740160329 0.0007228901812 -7.280238852e-06)
(0.005145072315 0.0007259573954 -5.153163505e-05)
(0.006142286682 0.0009011626252 -3.734915015e-05)
(0.007078255554 0.00122536503 0.0001877213481)
(0.007620276544 0.001391454518 -4.812724103e-05)
(0.008618078562 0.001694298619 -0.0001160433436)
(0.009336183741 0.002023496652 2.082727477e-05)
(0.01008844753 0.002258105585 8.084732965e-05)
(0.01058772024 0.002496929354 1.063809463e-05)
(0.01118146272 0.002807434761 -6.757956201e-06)
(0.01201871923 0.003168518288 -4.100567748e-05)
(0.01272605489 0.003543980029 -4.628345875e-05)
(0.01324606072 0.003688818819 -2.010987373e-05)
(0.01364177188 0.003857108044 -9.811547901e-05)
(0.01409134959 0.004028045379 -7.808729793e-05)
)
;
    }
    obstacle
    {
        type            calculated;
        value           nonuniform List<vector> 
30
(
(1.114671543e-21 2.986753404e-22 6.546565989e-23)
(1.247983878e-21 3.34396273e-22 1.469156093e-23)
(1.098966532e-21 2.944671938e-22 -1.351315769e-23)
(1.225182331e-21 3.282866166e-22 1.221243619e-23)
(1.009751648e-21 2.705621377e-22 1.964316103e-23)
(1.111119012e-21 2.977234426e-22 1.452534685e-22)
(1.175792142e-21 3.150525555e-22 -2.684336434e-23)
(8.825564179e-22 2.364802787e-22 -3.289028978e-23)
(1.01610891e-21 2.722655623e-22 1.052557238e-22)
(9.527320937e-22 2.552837956e-22 -1.517167637e-22)
(1.240903336e-21 3.324990457e-22 -4.481113791e-23)
(7.682336668e-22 2.05847591e-22 7.479537689e-23)
(1.065585881e-21 2.855228768e-22 4.650622831e-24)
(1.056294709e-21 2.830333134e-22 -6.817928107e-23)
(6.447378445e-22 1.727569851e-22 4.171525603e-22)
(9.302446255e-22 2.492582954e-22 -4.572981662e-23)
(8.733978774e-22 2.340262563e-22 3.163618746e-23)
(1.032396581e-21 2.766298305e-22 4.507882605e-23)
(7.945144532e-22 2.128895054e-22 2.710809113e-23)
(8.734917512e-22 2.340514097e-22 5.350989978e-23)
(8.397776467e-22 2.250177427e-22 -1.68307066e-22)
(7.86616027e-22 2.107731285e-22 -1.985311938e-23)
(9.244143394e-22 2.476960762e-22 -9.403162531e-23)
(7.392181553e-22 1.980729081e-22 1.032403601e-22)
(8.900072494e-22 2.38476723e-22 1.831479062e-22)
(8.043899809e-22 2.155356462e-22 -7.941094693e-23)
(8.098161287e-22 2.16989577e-22 1.14784976e-22)
(1.088112678e-21 2.915589138e-22 -1.366895516e-22)
(9.089368937e-22 2.435489071e-22 4.761074904e-23)
(1.004075041e-21 2.690410956e-22 1.154150828e-22)
)
;
    }
    frontAndBack
    {
        type            empty;
    }
    procBoundary1to0
    {
        type            processor;
        value           nonuniform List<vector> 
21
(
(0.005832834181 0.001737878708 -1.055038052e-05)
(0.00863709725 0.002586638813 -7.292557443e-05)
(0.01042800874 0.003291747669 -0.0001254013076)
(0.01143192867 0.003603034675 -0.0001014142416)
(0.01186787479 0.003616982786 -9.007886239e-06)