/*--------------------------------*- C++ -*----------------------------------*\
| =========                 |                                                 |
| \\      /  F ield         | OpenFOAM: The Open Source CFD Toolbox           |
|  \\    /   O peration     | Version:  2406                                  |
|   \\  /    A nd           | Website:  www.openfoam.com                      |
|    \\/     M anipulation  |                                                 |
\*---------------------------------------------------------------------------*/
FoamFile
{
    version     2.0;
    format      ascii;
    arch        "LSB;label=32;scalar=64";
    class       volVectorField;
    location    "0.002";
    object      momentum;
}
// * * * * * * * * * * * * * * * * * * * * * * * * * * * * * * * * * * * * * //

dimensions      [1 -2 -1 0 0 0 0];

internalField   nonuniform List<vector> 
546
(
(0.002537032002 0.001913981165 0.0006894141899)
(0.006598317373 0.004931513061 0.0006498248916)
(0.008618509274 0.002318346067 -0.0004128342963)
(0.009121604515 0.001448037447 -0.002585265143)
(0.002115578816 0.001795315351 -0.00127553661)
(0.003055245312 0.001594521257 0.001782525284)
(0.0001438336982 0.001570684141 -0.001185758914)
(0.002638607429 0.002257278471 -0.0006178639929)
(0.001956670906 0.001798877479 -0.001265942417)
(0.0038577661 0.0001060887814 -0.003123083863)
(0.005007975927 0.0005273008121 -0.001746389519)
(0.003633511241 0.001772155626 -0.001021318623)
(0.002426524582 -0.0004971625349 -0.0003986003738)
(0.002017439157 0.0007068107767 0.0006981483988)
(0.0005999711998 0.0008932997939 -0.0005308082069)
(0.003368025742 -0.001312945691 -0.002617250525)
(0.005521314465 -0.0003739801832 -5.110271349e-05)
(-0.0006118577043 0.002508418168 0.0009971338986)
(0.00397006351 0.001701455321 -0.0003292972467)
(0.004747402868 0.0015362037 -0.001310833551)
(0.003582234014 -0.0004749895916 2.69932491e-05)
(0.002743272065 0.0009669231359 0.0003969909725)
(0.001502086069 0.0006561096513 0.0008452095743)
(0.004983343845 -0.001499800608 -0.00107961262)
(0.002062804224 0.0005909255338 0.0006165284118)
(0.004485028072 0.0008789689414 0.0004068058832)
(0.004001636384 -0.001412806516 -0.001633927292)
(0.004409062807 0.001231859308 -0.0002916896444)
(0.003883060024 0.001065747159 0.00119370949)
(0.001801323694 0.001342887735 -0.0003325306605)
(0.009608594264 0.002033386677 -0.0007995569904)
(0.007977088256 0.003743092312 0.001471708381)
(0.005272131877 0.001991212512 -0.002807457295)
(0.008433673972 0.001351155029 -0.0006254890751)
(0.009426523626 0.004291807676 0.001203289428)
(0.007280980959 0.003476214905 0.002079786069)
(0.01041932359 0.002622136636 0.000347554612)
(0.005646083538 7.552955367e-05 0.0007602321501)
(0.003232399982 0.001240385333 -0.0004919693974)
(0.006737115569 0.002388861544 -0.0005051220414)
(0.006173321016 0.0009508717432 -0.001691752586)
(0.009023936243 0.002772118801 -0.002532437272)
(0.006921544409 0.001626832147 0.0003178967488)
(0.007381223886 0.00209774499 -0.002123507537)
(0.005938521913 0.0007426601138 -0.0006793536781)
(0.00679865946 0.001703148877 0.001272815395)
(0.006747442719 0.002131394455 -0.0006574668487)
(0.006738148575 0.0004010083663 -0.001814112024)
(0.007556496217 0.0009789357717 -0.0003713953492)
(0.007205531312 -0.0003771512871 0.003441908778)
(0.005579991817 0.002940348778 0.0004210578398)
(0.002748829114 0.0006700947406 -0.0006113280804)
(0.000947379985 0.0009209141705 0.001988925868)
(0.003417163262 0.0009755781188 0.000269276948)
(0.005535189748 0.0008190306166 -0.001394572979)
(0.003905409584 0.0009809330034 0.0006776210909)
(0.007825140436 0.0007248479919 0.000489189317)
(0.005956033472 0.001622447267 0.0004567472905)
(0.006519523048 -0.0003676121891 0.0003682892537)
(0.006890727983 0.000478716463 -0.002012156792)
(0.01130627733 0.002285287507 0.0002210457354)
(0.01079788 0.002408722268 0.001473285269)
(0.010252145 0.001315877792 0.0002602701196)
(0.00784666646 0.003499062154 -0.001444701759)
(0.01264967042 0.005412594434 -0.001084870365)
(0.008357904029 0.002710308113 -0.001410264575)
(0.01269450753 0.004364295393 -0.001181046262)
(0.009690209997 0.00420063907 -0.0004844605601)
(0.00780232999 0.001692603199 -0.002591090595)
(0.005720580299 0.003919855071 -0.001263917753)
(0.01423160856 0.00346800798 -0.0005792490458)
(0.005029842152 0.002662613086 0.0002415140976)
(0.01275941202 0.006501091535 -0.0009630129599)
(0.00305844361 0.0002416910145 -0.001673993423)
(0.003794861996 0.003140421567 -0.001127300265)
(0.004417007939 0.001363301937 -0.0008847767449)
(0.006672686658 0.001592616882 -0.0004318540405)
(0.009637491107 0.0008465937214 0.001734927834)
(0.004093369715 0.001348267677 -0.001075042599)
(0.01146694862 0.00311993521 0.00107317227)
(0.006420867215 0.001149254419 -0.00188782945)
(0.008090275327 0.003571646924 -0.0003985957569)
(0.005752410657 0.003434395342 0.001251216854)
(0.006710599928 0.002166551213 0.001645063075)
(0.005905085308 0.001408671589 -0.002420884994)
(0.005890606327 0.0005287367727 -0.001188162274)
(0.001776976937 0.001660583467 -0.0001977345569)
(0.004858014543 0.002240140759 0.0002367301655)
(0.004171848755 0.001660969794 0.0003550771711)
(0.005832872753 0.003319664948 0.002448541531)
(0.004436637642 0.0009371496644 -0.0008553937072)
(0.01128592901 6.389355611e-05 -0.001107389927)
(0.01655473965 0.004636693927 0.0009833979875)
(0.01108696368 0.002864614432 -0.001092345293)
(0.01289899697 0.003313702398 -0.001129875837)
(0.01142204281 0.002267526433 -0.000694794254)
(0.006415770817 0.002812054652 -5.362087747e-05)
(0.007952727001 0.004374397323 0.0005560124144)
(0.01175106058 0.006818751172 0.001081760833)
(0.005712502265 0.001626265001 0.0005892427696)
(0.01272230498 0.002905955648 -0.001765200639)
(0.0107190435 0.005070644423 0.0009333123324)
(0.006265323112 0.001944793384 0.001544937349)
(0.006389941171 0.001912528897 -0.0002795843567)
(0.00571281981 0.002809736246 0.0004797381454)
(0.009033706112 0.002036036332 -0.0001605609051)
(0.0119574058 0.001417759024 -0.002264605449)
(0.009324009002 0.003833352448 0.001820322938)
(0.004370028377 0.003414399 0.001467791999)
(0.007462003455 0.001019198314 0.001588092929)
(0.008549199874 0.002557403605 0.0003463268899)
(0.004447250194 0.001197376847 0.002620732498)
(0.005523307965 0.003329032585 -0.0005385536845)
(0.01462575421 0.001910814624 -0.001284546325)
(0.007673101468 0.0003144088185 8.647212821e-05)
(0.004984847944 -0.0003131796912 -0.001832822101)
(0.006129004989 0.002286041592 -0.0002028309721)
(0.009035097336 0.0005139820422 0.002001871309)
(0.004409729365 0.002013379198 0.0009090986108)
(0.006625523606 0.003142616057 0.001325600651)
(0.007732853233 0.002379303582 0.000964172468)
(0.008275555649 0.004202204857 0.0003533519755)
(0.0138026199 0.004623423785 -0.001452486207)
(0.02186643258 0.006683366513 0.002412894126)
(0.01224228378 0.003304240124 -0.0007478185242)
(0.01085131063 0.004407881539 0.0008610345158)
(0.01891692198 0.005835503513 0.0010820243)
(0.01546530146 0.005973411453 -0.001411106872)
(0.01445365136 0.003429257902 -0.002307926168)
(0.006320210303 0.002462941415 -0.0003580154805)
(0.004855963746 0.002966585195 -0.001822897772)
(0.009863343754 0.004859677569 -0.001248097142)
(0.010079362 0.005242171699 -0.001854270877)
(0.01112337864 0.004169651153 0.0003682762551)
(0.005293231959 0.002431375548 0.0005537475866)
(0.01061263841 0.001126197791 -0.0005587663653)
(0.005489492846 0.0006163148898 -0.0003685205286)
(0.009073216315 0.003625586181 -9.066252961e-05)
(0.00861251882 0.0009941289784 0.001249927232)
(0.006002326033 0.002818771058 0.0002627627466)
(0.009774861003 0.004984253334 0.002496972212)
(0.006769233726 0.002341788977 0.001013853299)
(0.005280239 0.0005492385674 -0.001432229362)
(0.005984095684 0.002241398387 -0.001282828787)
(0.009288213427 0.002915647177 0.001566379307)
(0.008902859473 0.0002286335169 0.001913949437)
(0.01117414783 0.00280126577 -0.0005539745453)
(0.006581672884 0.002413529001 -0.0008420362853)
(0.0108070323 0.001105236384 0.002499533526)
(0.004979188508 0.0001060060017 -0.0005424823654)
(0.007810771829 0.003863948046 0.00022180111)
(0.007673565804 0.003273458075 0.0006181681791)
(0.01332807985 0.005228645581 0.001970830108)
(0.01095025799 0.004809021593 -8.601561121e-05)
(0.01050147422 0.002174364813 -0.0007111035899)
(0.0132795008 0.004141392583 -0.001853643466)
(0.01345360504 0.003118679151 0.0004651868193)
(0.01056167553 0.003567785392 -0.0003844894318)
(0.007168820001 0.0006623982376 0.001562580237)
(0.01313075302 0.0007147936614 0.0005962889861)
(0.008274542927 0.005928835458 -0.0002692286723)
(0.01106413883 0.003890662305 -0.002041012907)
(0.01257689241 0.003651228023 0.0001630071072)
(0.006733865128 0.002923378407 -0.001330481181)
(0.01118309419 0.001939012621 0.001645166396)
(0.01099807526 0.004131544554 -0.0006804204664)
(0.01059574509 0.0007561402164 -0.0008268777149)
(0.01105497668 0.001746594034 0.0005741956962)
(0.004893420729 0.002764463129 0.0006049708087)
(0.007510803004 0.0004734032169 -6.132933062e-05)
(0.01128976485 0.002745858861 0.0004953179144)
(0.008410459891 0.003921884436 0.0007175476357)
(0.008216219388 0.000687260062 -0.0001112895464)
(0.008709732844 0.003984385705 0.001740722876)
(0.01072291971 0.004077773797 -0.001373147446)
(0.0123703261 0.001644395452 -0.0009486570934)
(0.0143560913 0.0004217946675 -0.0006533506746)
(0.009620918746 0.002164736115 -0.0007405549399)
(0.006972420511 0.0008293485743 0.000600176456)
(0.008796298383 0.000751346099 -0.000623442465)
(0.01084432169 0.003254619445 0.00180496399)
(0.01259090634 0.006002401216 0.001026939319)
(0.007477948955 0.001186000045 -0.0009268830735)
(0.008731601058 0.004526005955 -0.0003491707313)
(0.01401853702 0.004143482672 -0.0006746217103)
(0.01286146344 0.00632154923 0.0006098682845)
(0.01473972511 0.003143256946 0.001095202913)
(0.01704694234 0.006742174554 -0.0004969994201)
(0.007079812955 0.003473671811 -0.00112036625)
(0.01775302345 0.00534241064 5.843437777e-05)
(0.009930664709 0.001122929758 9.789011907e-05)
(0.01121633177 0.003958905386 0.001710259947)
(0.009745963888 0.003276784762 0.0004119862876)
(0.008299593265 0.004013221033 0.0006656870699)
(0.01174041869 0.002237232237 -0.0007228144746)
(0.009603360933 0.004068978484 0.001528836358)
(0.01139500437 0.005704011186 0.001754452551)
(0.01191327139 0.004539482585 0.0007621572568)
(0.01687728302 0.00287660916 -0.002072007788)
(0.01661988029 0.005245047661 0.002428039164)
(0.006861426993 0.002658646802 0.001155793014)
(0.01273761709 0.002668804205 0.0001077394512)
(0.01228550794 0.001670776558 6.864544481e-05)
(0.009257087392 0.002695560974 0.001513941516)
(0.01321052547 0.004486902033 -0.0005580022351)
(0.01782962289 0.005276430904 -0.0004436093615)
(0.01007945016 0.003413155936 4.579466266e-05)
(0.01357093694 0.001618415271 0.002480420459)
(0.007472147362 0.001363233214 0.0005896126475)
(0.007936425752 0.001157849632 0.0004735901277)
(0.01517865419 0.004950968769 -0.001113111198)
(0.004349473928 0.002344827187 -0.0006010684707)
(0.01894050124 0.005021322638 -8.083379562e-06)
(0.0119288038 0.003492788253 0.0006859011061)
(0.01358276669 0.003044438047 0.0007440883527)
(0.01103527904 0.002051003967 0.0003922328878)
(0.01319525754 0.004183863876 0.001116677329)
(0.01470385858 0.003472107421 0.001749553525)
(0.01460080279 0.003626898875 0.001637978495)
(0.01267398976 0.002174101058 0.0006808547387)
(0.01328433983 0.005838690718 -0.001233041795)
(0.0137854914 0.004042806332 0.001000403694)
(0.01272280577 0.001788837859 0.0007850541709)
(0.01013909138 0.003160239272 -0.001067783472)
(0.01494495483 0.003669073162 -0.0002126874341)
(0.01745840633 0.005965769631 -0.0008699143284)
(0.009578225131 0.005681206023 -0.001028515573)
(0.01094668534 0.004579060909 0.001492874933)
(0.01527867549 0.003409374009 0.001233514387)
(0.01214903982 0.003915006569 -0.00339733085)
(0.00836188047 0.002327684829 -0.001493758894)
(0.01891926965 0.007825762203 0.001726563402)
(0.007342190823 0.001359329345 -0.001773644518)
(0.008750249203 0.004091130724 0.001169806378)
(0.0119999282 0.003591520612 -0.001655829442)
(0.009627825233 0.003308153082 8.878978643e-05)
(0.01025612439 0.004308863627 -0.001130175162)
(0.01249790338 0.003267760108 0.001517843348)
(0.00608913929 0.00284842927 -0.0001564219129)
(0.006836520881 0.003634815445 0.0007327005663)
(0.01402882719 0.004296191716 -4.216517271e-05)
(0.00868123829 0.002921799278 -0.0002195494853)
(0.01032689076 0.001388602275 -7.187487726e-05)
(0.009124455304 0.003288906729 0.001267686274)
(0.009507290825 0.001962962406 -0.00165204553)
(0.01675137539 0.003134395963 0.0006884047718)
(0.01498845649 0.004356112538 0.000997629827)
(0.0141308169 0.00487338595 0.0003128866329)
(0.01024889801 0.003471364068 -0.0007856608472)
(0.01570896613 0.004482987533 -0.0008516463209)
(0.01265251345 0.002844454988 0.0009898937196)
(0.01228081141 0.005579475434 -0.0007512230108)
(0.01276433029 0.00415242104 0.002077912054)
(0.01134327221 0.003804755124 -0.00158514657)
(0.01372581281 0.004562778754 -0.001656212648)
(0.01650339441 0.004937471018 -0.0005263845142)
(0.01575692497 0.004549806419 0.0007150826717)
(0.01859101176 0.004029182333 -0.0002794826324)
(0.009770824303 0.003428542235 0.0005235954992)
(0.01804953027 0.005651604991 -0.002304952549)
(0.01479612069 0.005175193059 -0.0007168661254)
(0.01143393902 0.001132412704 0.001557741404)
(0.006707037979 0.003772952442 0.0009013964224)
(0.01711501989 0.005373854378 -0.0005051125493)
(0.01130728096 0.003726402927 -0.002924774927)
(0.01564157104 0.005095093585 0.0009426828625)
(0.01226434468 0.004903803951 -0.0003055328399)
(0.01107170271 0.004637371645 -0.001412107281)
(0.01701990397 0.004877690929 0.003614377411)
(0.01085567096 0.0001267478067 0.001152784897)
(0.009487251085 0.001068416301 0.0008945823407)
(0.0159971929 0.004564143307 6.321501473e-06)
(0.0116249249 0.004317967623 0.002054907695)
(0.01800163603 0.002643706738 0.0005548367713)
(0.01390536434 0.003199005479 -0.0005477279966)
(0.00691208106 0.002606590633 -0.0007813678429)
(0.007520939834 0.002324539702 0.0004094390664)
(0.01161394201 0.004759593376 -0.0007902316782)
(0.01989067451 0.006066427381 0.001336542572)
(0.009332546652 0.002936826088 -0.001000539091)
(0.01268176568 0.004475274878 0.0003077447882)
(0.02149044553 0.006250747196 -0.001252402392)
(0.01085390916 0.003979986457 -0.002268685483)
(0.01722287808 0.007485746333 -0.001127043844)
(0.012675766 0.004371228941 -5.581377134e-05)
(0.01136105596 0.002917830734 -3.348547052e-05)
(0.01153114962 0.001530348317 0.0002245442399)
(0.0131301045 0.003066633149 -0.001202369466)
(0.01007223384 0.002461534369 -0.001449462962)
(0.01256704122 0.004192071799 0.0002402694738)
(0.01666894887 0.003954194838 -0.0002572320113)
(0.01947945638 0.008255282337 4.463766356e-05)
(0.01570888785 0.004183291011 0.001894693203)
(0.01572597052 0.00505337377 0.0008625522048)
(0.01280956114 0.006675333986 -8.087907243e-05)
(0.01328390377 0.003695133664 0.0006996845411)
(0.01419571317 0.002908169612 -0.001099023587)
(0.01040735017 0.002683929032 -0.0009243927429)
(0.010464141 0.003820615103 0.001273909269)
(0.01229694937 0.002254582466 0.001086757041)
(0.0101595556 -0.0009378728374 1.307644267e-05)
(0.01127079765 0.003371763817 -6.741565032e-05)
(0.01091775135 0.001142951418 0.0004162794121)
(0.01409233791 0.003308439415 0.0006860759545)
(0.004330173599 0.001162577989 -0.0009388898107)
(0.01143687966 0.0003896021872 -4.837666519e-05)
(0.01279107648 0.002881280727 0.002394479643)
(0.01061146936 0.004335781053 -0.0009234245465)
(0.00968740473 0.002302068051 -0.00210987938)
(0.01512799823 0.004650442596 -0.0005361602215)
(0.009578853278 0.00311523805 -0.0003241947496)
(0.01968105105 0.006351530343 0.0004324049587)
(0.01062539077 0.003773827224 -0.001562160311)
(0.01201043913 0.005129203857 0.001724361932)
(0.01525024476 0.004141334082 0.0005726381217)
(0.02007774316 0.005334939176 0.001478674198)
(0.007818365537 0.004571909304 -0.0008349196449)
(0.0165853351 0.004261824959 0.002184194156)
(0.01511280484 0.003571268586 0.0003832419291)
(0.01277160452 0.007815441031 1.217340871e-05)
(0.01649815567 0.005977292317 -0.001983005272)
(0.01269489859 0.002766865072 0.0001731867259)
(0.01216701269 0.006032360479 -0.000496120067)
(0.01452152802 0.001803629007 -0.002048721531)
(0.01569483187 0.004566738276 0.00179895682)
(0.01354349536 0.006991620237 -0.002590493156)
(0.01204450667 0.004362258672 -0.001944467405)
(0.01219806312 0.002327701973 -0.001997959329)
(0.01094067522 0.003259246787 0.001303093889)
(0.01311464687 0.00445567353 0.001878640573)
(0.002146168518 1.420519789e-05 0.000341123305)
(0.008233137963 0.0006150530022 0.000251427441)
(0.0131963537 -0.0005768328668 -0.0007819523198)
(0.01680408664 0.003302751909 -0.0004181709901)
(0.01504846974 0.002938151307 0.001522731717)
(0.01251849779 0.003485005036 -0.0003197961612)
(0.008985539861 0.001713250829 0.000448631048)
(0.01215887538 0.004501184865 -0.0001234863657)
(0.008497877924 0.004358176988 -0.001459650575)
(0.01372233479 0.004039630254 0.0003597658438)
(0.01152538761 0.005324013652 -0.002527510475)
(0.007119649661 0.003622545787 0.0002617013829)
(0.01572765416 0.006283834005 0.002305740945)
(0.005388247735 0.001336697968 -0.0001289704907)
(0.01304415306 0.00348000824 -0.002458367054)
(0.01093650737 0.003577428775 -0.0001404405867)
(0.01206435795 0.004307949541 0.0001622895927)
(0.01399157272 0.005137975858 9.842669787e-05)
(0.01850016419 0.005061397669 0.001607384221)
(0.01472189193 0.004770249594 0.00327738653)
(0.01506197558 0.00263807979 0.0003208892047)
(0.01447486909 0.006696970147 0.000690140621)
(0.01230565531 0.001974849109 0.0002230545183)
(0.0142698913 0.004176295833 0.0002577367238)
(0.01474038165 0.003323061361 0.00146538717)
(0.01292527117 0.004737410324 -0.0004987000052)
(0.01168518248 0.003799554977 5.732757138e-05)
(0.004494523037 0.0008713693767 -0.0007559156859)
(0.01836749546 0.004429032922 0.0003249523103)
(0.02351994017 0.005358030106 0.0007875391286)
(0.009845011512 0.001731746623 -0.0003497139143)
(0.006804701802 0.001035306312 -0.0003649763114)
(0.007864419466 0.000991821871 0.001236694974)
(0.005363170414 0.0009946687148 0.0003691734953)
(0.008872860619 0.0007566553728 -0.000363372464)
(0.01352084026 0.002441100505 -5.449664241e-05)
(0.01351190889 0.002540338669 -0.0001068483613)
(0.01342502647 0.003977234521 -0.001124843411)
(0.01063650697 0.003204244555 0.001216704815)
(0.01249606658 0.0008908787219 0.0006607773146)
(0.009373520777 0.003045026778 0.0008301766329)
(0.01176027683 0.003443311767 0.0002711281106)
(0.01164641785 0.002810211062 -0.00072672601)
(0.0103419832 0.004075569035 -0.001167609701)
(0.01876454835 0.005498113839 -0.0006892345749)
(0.01840090915 0.007534651348 -0.0003212315978)
(0.0170647295 0.00377326442 0.001375325194)
(0.01261071155 0.00401988028 0.002100601957)
(0.01341135952 0.004596524032 -0.000814834016)
(0.01188092929 0.006192919357 -5.743426754e-05)
(0.0180874875 0.004791773358 -0.001674885382)
(0.01552903134 0.006467621683 -0.0004127080058)
(0.01343390514 0.00538620648 0.0008825254939)
(0.01472651082 0.004517217709 0.001763910823)
(0.01517993296 0.003576165426 -0.001478488656)
(0.00837289777 0.003557680546 0.0001860268348)
(0.01607516938 0.004627305499 -0.0003178489725)
(0.01657078419 0.004790093387 -0.0009784061465)
(0.02068610484 0.005270109296 -0.001388209688)
(0.01093469614 0.0009930508489 0.001419219438)
(0.008613740614 -0.0001048321759 0.0009200932584)
(0.01309395482 0.001249286718 0.0001481141463)
(0.006933516144 0.0006300646116 -0.0006113367503)
(0.00915095917 -0.0001887765222 -0.0001322643208)
(0.01394026844 0.001844556728 -0.001442408698)
(0.007252927444 0.002082319843 -0.001478312488)
(0.006452912741 0.0002730818582 -0.0005062505578)
(0.004115495544 0.0008707614663 0.0004628378847)
(0.0159902263 0.005235621591 0.001012426147)
(0.005630851827 0.001301208993 -0.0001842956516)
(0.01460860191 0.003842524419 0.0001977330186)
(0.01696689318 0.002694077749 0.003101162149)
(0.01229442254 0.002953335518 -0.0007498232397)
(0.01778439001 0.005678341205 0.002071880185)
(0.005337537827 0.002508695585 -0.001704268224)
(0.0159596073 0.00549252489 -0.0002093721863)
(0.009200653131 0.002900784574 -0.0001249068376)
(0.005817454625 0.003752244648 -0.0001782936731)
(0.006718619352 0.002975748091 0.0004365259822)
(0.01904804521 0.008171904155 -0.001122534379)
(0.009124069724 0.002823975223 0.0006011821074)
(0.02504497334 0.008442432522 -9.023463158e-08)
(0.01695137692 0.004284690061 -0.001514300654)
(0.01429031717 0.004625603023 0.001047212673)
(0.02493087425 0.006915114098 0.0003527677971)
(0.01136935781 0.002295212062 0.001151957955)
(0.01754435045 0.003962704458 -0.0001614911204)
(0.009875849465 0.002002430385 -0.0003266038139)
(0.009619929208 0.0009077503825 -6.234982353e-06)
(0.01623396259 0.006359258043 0.00162970476)
(0.006302295336 0.0004405566341 -0.0008120462067)
(0.009497553634 2.421866915e-05 0.0001340298125)
(0.01184312725 -0.000235006771 0.0002582277391)
(0.004182145883 -0.0004554485449 0.0001220639426)
(0.007141786137 -0.0002084902912 -0.0006049181663)
(0.009006874367 0.001536423522 0.0001870850283)
(0.007817368781 0.001081668827 -0.0006363014087)
(0.01777581398 0.001679354278 -0.0009317537081)
(0.009583176593 0.001356019299 -0.0002140988294)
(0.01247458905 0.0006990996491 -0.0003272464688)
(0.005350250359 0.00253795678 0.0002954693339)
(0.00985282731 0.00253729324 0.0002695498561)
(0.0137252908 0.004608070673 -0.0001765677013)
(0.009685274094 0.003811002045 0.001592772965)
(0.01163164045 0.003209915587 -0.0003122362311)
(0.01711066752 0.006957735326 -0.0006333213978)
(0.02141132563 0.00796129921 0.000345692239)
(0.01304656319 0.002569712061 -0.0006473955969)
(0.01716041879 0.005199653888 -0.0007719585137)
(0.01361466456 0.004477177952 0.0005365994513)
(0.014391157 0.003856985973 -0.0009714438408)
(0.01861690908 0.005900782542 -0.001121867807)
(0.01298425803 0.00197548752 -0.0012076908)
(0.01139741249 0.006139623094 0.0001862660879)
(0.01526383286 0.006101281955 0.00228026902)
(0.01512319571 0.004777163806 -7.218817785e-05)
(0.01183223519 0.003782428852 0.0003981595114)
(0.01063643332 0.00238174619 -0.001977621247)
(0.01543627614 0.005618886015 -0.00126540919)
(0.01660399632 0.004507887132 0.001128225478)
(0.007424453122 0.000230826619 0.0003668716852)
(0.01031955369 0.0006549435871 -0.0006387614846)
(0.01415891842 -0.00111974889 8.227171026e-05)
(0.01000067339 0.0001058756439 0.0006495773765)
(0.01003089369 0.0006008467048 -0.0003805422915)
(0.005203377589 0.0004005283591 1.34407813e-05)
(0.01200264894 0.001815988012 0.0004657642598)
(0.01222005091 0.0002175845444 -0.001002520283)
(0.0124539289 0.001337221408 0.0003878986055)
(0.008733696662 -0.000534454355 -0.0002969688133)
(0.01250503319 0.001239014486 0.0007159031102)
(0.01076795979 0.002002192989 0.0001064104105)
(0.01048653756 0.004204707004 0.0001800301008)
(0.01190334262 0.004147142509 0.001152424805)
(0.0118809494 0.00163027541 0.0007946980135)
(0.01729046092 0.003497470362 0.0003651408712)
(0.01831479592 0.004451313683 -0.0003988938921)
(0.01872854753 0.008397229691 0.001261163495)
(0.02354800676 0.007160029068 -0.002659959182)
(0.009807471406 0.003086768236 -0.001334804568)
(0.01673832297 0.005580655993 -0.0002879740671)
(0.01654458769 0.00685758447 0.00105202223)
(0.01290192824 0.00448230217 -0.0004172577725)
(0.02715741558 0.008202729687 -0.00183444689)
(0.01737765834 0.00648295953 -0.001095678908)
(0.01873427555 0.007535238349 0.002117195194)
(0.01359577534 0.004452574907 2.299885313e-05)
(0.01662799126 0.004231485519 -0.0009325898381)
(0.01650959494 0.004368077554 0.0002734149145)
(0.005786088259 -0.0001270392058 -0.0002424568548)
(0.005688946141 0.0002535152329 -0.0001308785851)
(0.007037327829 0.000825102738 -0.0001513686486)
(0.00887567357 0.0006754105993 0.0009646972165)
(0.004811060763 0.0001247081495 6.440340421e-05)
(0.007286570545 0.001585838849 0.000296791955)
(0.006661845822 0.0006585108184 0.0003439198229)
(0.00976038151 0.001001644974 -0.0002654617523)
(0.007427706736 0.002807252031 -8.157829869e-05)
(0.01122490254 0.001330288139 0.001069703192)
(0.01456075612 0.002331142678 -0.0006825113205)
(0.01287389471 0.006348697059 0.001516602593)
(0.009367638454 0.001614267571 -0.001073091635)
(0.008109966222 0.003273205489 -0.0002524836447)
(0.01083898389 0.001753107637 -0.0008678531322)
(0.0145867127 0.003364761183 0.0002632146343)
(0.01337742247 0.002233505844 -0.0007289580695)
(0.01564262615 0.003044152971 -0.001237388089)
(0.0158859147 0.004467621037 -0.001807434193)
(0.01045887805 0.002652535012 -0.0003422953763)
(0.01651179935 0.004055612573 0.0001205070964)
(0.01278595904 0.006628878635 -0.0002411106991)
(0.01541350562 0.003659002786 0.002153729439)
(0.01678215944 0.005685531324 -0.0004805105041)
(0.0237290553 0.008599268757 -1.050855966e-05)
(0.008179532922 -0.0005777804025 -0.0009068189158)
(0.007844540346 -0.0009307986132 0.0008089277125)
(0.009943230832 0.0005144851202 -3.286639957e-06)
(0.01080846317 0.0006145852125 0.0003361262518)
(0.0096613981 -0.001204916564 0.000216759143)
(0.01421662261 -0.0001254258462 2.985353332e-05)
(0.004743359782 0.0003177287465 -0.0001433303482)
(0.01338556023 0.002237450058 -4.09747111e-05)
(0.01116936084 0.00138954525 -0.0003828778583)
(0.01369287136 0.002017724527 0.0003635817173)
(0.009408746002 0.001041918347 0.0001158467947)
(0.011279319 0.0008627757396 8.455639201e-05)
(0.01221051676 0.0006392885702 0.0003239262096)
(0.00768811638 0.000489362066 0.0003285910085)
(0.01421621241 0.0006956401906 0.001954985455)
(0.01348902115 0.002277972791 -0.0009043320583)
(0.01210169215 0.001700795484 -0.0002311637684)
(0.01215800734 0.002392827169 0.001551294827)
(0.01107121836 0.003411891239 -0.001768509372)
(0.009070626814 0.0007308939847 0.0005056009005)
(0.007757235904 -0.0001707092135 -0.0001114390057)
(0.006163434232 0.00013633142 0.0001365865035)
(0.006268993928 0.0001371357772 0.0002672252824)
(0.008198233601 -1.938613636e-05 -0.0001998648389)
(0.004569317328 0.0003667095238 0.0002278966971)
(0.005430860092 0.0002202152823 0.0005579368725)
(0.0128319854 0.00130557312 0.0002280266831)
(0.008648313232 -0.0003193321389 -0.0004407954308)
(0.01000069079 0.00074598937 -0.0009307799928)
(0.007185017476 0.0009640666536 0.0008861845165)
(0.01171148005 0.0005898552453 0.0005240613267)
(0.01480708206 0.001561499208 -0.0001234027189)
(0.01099488983 0.00124511572 -0.000476197437)
(0.008178115774 8.553116784e-05 0.0002444306257)
(0.008654550836 6.662837741e-06 -0.0005071673302)
(0.01433381639 0.0004904241344 -0.0004275143822)
(0.01179032536 0.00111858958 -0.0003482932733)
(0.00912145808 0.0004458799809 -2.753683248e-05)
(0.009469738931 -4.465840123e-05 -0.0003696003418)
(0.01325803102 4.885933955e-05 -0.00105721315)
(0.006227140579 -0.0003259110291 -0.0004650359577)
(0.008631809169 0.0004104661792 -0.0004162496539)
)
;

boundaryField
{
    flow
    {
        type            zeroGradient;
    }
    obstacle
    {
        type            calculated;
        value           nonuniform List<vector> 
30
(
(3.617346971e-21 9.692652014e-22 1.611876471e-21)
(1.96001202e-21 5.25183639e-22 4.075856582e-21)
(6.699582039e-22 1.795147591e-22 4.974762932e-22)
(1.861195414e-21 4.98705809e-22 -1.005093289e-21)
(3.753855357e-21 1.005842508e-21 -6.675042102e-22)
(-5.601768783e-23 -1.500989424e-23 2.259798172e-22)
(0 0 0)
(0 0 0)
(-2.682596839e-21 -7.18799658e-22 7.375395045e-22)
(-1.186360945e-22 -3.178844577e-23 -1.111016087e-21)
(-2.205450148e-21 -5.909485844e-22 4.769607986e-21)
(8.387550565e-22 2.247437404e-22 -1.281440488e-21)
(1.884584825e-21 5.049729829e-22 9.624346143e-22)
(7.261261045e-22 1.945649027e-22 -5.856878909e-22)
(0 0 0)
(-8.412457645e-22 -2.254111225e-22 -1.560466242e-21)
(0 0 0)
(-1.272148999e-21 -3.408712975e-22 -2.245770215e-22)
(2.107436485e-21 5.646859026e-22 1.597742413e-21)
(2.651800565e-21 7.105478213e-22 -9.571003905e-22)
(0 0 0)
(5.853574057e-21 1.568460437e-21 -3.109376727e-21)
(0 0 0)
(0 0 0)
(0 0 0)
(0 0 0)
(4.014828926e-21 1.075770165e-21 6.093257992e-21)
(1.453846861e-21 3.89557093e-22 9.677375707e-22)
(4.954245742e-22 1.327486148e-22 -3.484847523e-22)
(7.137429138e-23 1.912468368e-23 -7.244418854e-22)
)
;
    }
    frontAndBack
    {
        type            empty;
    }
    procBoundary1to0
    {
        type            processor;
        value           nonuniform List<vector> 
21
(
(0.006636599102 0.001943790201 0.0009194724103)
(0.006447932537 0.002395391765 0.001597899629)
(0.01333655 0.005468632124 0.002445614548)
(0.013398229 0.005597873161 -0.002736488773)
(0.009877356925 0.003118218525 0.0009911522639)
(0.007800482031 0.0032158476 -0.002029032551)
(0.01434033252 0.003961476607 0.002251843891)
(0.01103108792 0.001546817918 -0.0003112967072)
(0.01242135397 0.0003833490812 0.0003653578088)
(0.01043405203 -0.0002671637025 -0.0007160335283)
(0.01202136047 -0.0004587927841 0.00060277472)
(0.007864084722 0.001298291408 -0.0005746224367)
(0.009604962909 0.001155644648 -0.0004985174502)
(0.007168019841 0.002215641458 0.0006604828556)
(0.01323612719 0.0003775737108 0.0002810141018)
(0.003155050407 0.0001190543539 0.0004505714262)
(0.01121172756 0.0003515187526 -0.0007327112895)
(0.005599813851 4.340675458e-05 1.00480314e-05)
(0.01042528351 0.0009279705004 -0.0007336458416)
(0.003637552113 0.0002698199644 0.0002540677672)
(0.009577870261 -0.0004561603949 -0.0004948897621)
)
;
    }
    procBoundary1to3
    {
        type            processor;
        value           nonuniform List<vector> 
36
(
(0.0222359758 0.008460258978 -0.002679223441)
(0.01775766456 0.004674970888 -0.0003871884674)
(0.01626623243 0.006331074717 -0.0005971283555)
(0.009071868177 0.003083488859 0.00200240785)
(0.0222359758 0.008460258978 -0.002679223441)
(0.008464519242 0.004262460245 0.001012229528)
(0.01294952806 0.004074668134 0.0001749338856)
(0.01464703303 0.002205553961 -0.00186854432)
(0.01565275551 0.004483675371 0.0004745067051)
(0.00991512406 0.004481626612 -0.0008561755699)