/*--------------------------------*- C++ -*----------------------------------*\
| =========                 |                                                 |
| \\      /  F ield         | OpenFOAM: The Open Source CFD Toolbox           |
|  \\    /   O peration     | Version:  2406                                  |
|   \\  /    A nd           | Website:  www.openfoam.com                      |
|    \\/     M anipulation  |                                                 |
\*---------------------------------------------------------------------------*/
FoamFile
{
    version     2.0;
    format      ascii;
    arch        "LSB;label=32;scalar=64";
    class       volScalarField;
    location    "0.002";
    object      overallT;
}
// * * * * * * * * * * * * * * * * * * * * * * * * * * * * * * * * * * * * * //

dimensions      [1 2 -2 0 0 0 0];

internalField   nonuniform List<scalar> 
546
(
842.5383381
825.7774767
826.2641221
821.6316834
819.4142082
811.7295705
821.051318
799.6453825
780.393855
778.0145685
777.2540396
777.8085225
771.0298092
779.0331712
770.864961
772.3998251
756.9374827
748.2250992
758.6592932
762.8424826
769.5722658
757.7455628
748.6910729
761.7017201
745.2081713
749.1692294
735.919844
737.220708
740.7174515
732.1845192
917.5035992
917.8992503
912.4014258
900.6177372
894.8005886
897.3281223
884.8482672
874.7683485
877.3509232
883.3384927
868.0030206
861.6032565
860.602261
867.3372218
854.4327452
846.6831824
844.4073157
833.5386386
835.447003
838.5239005
847.0585645
845.8143856
831.1410387
840.2318234
828.3960474
827.6287872
809.6949976
800.897315
794.2344325
765.1930738
918.8245453
931.7656526
917.0462123
923.5583726
933.277168
922.5455804
916.5240871
918.7659017
906.1943762
916.2610481
904.9841615
897.3015519
901.0553879
897.4060938
891.1914648
899.849452
894.8246516
885.8220194
880.3973805
873.2790932
879.3479768
877.1148084
858.6509258
874.6279084
867.8859882
838.4071283
840.7556149
824.0416868
810.2760842
774.1664287
907.9368444
931.3462176
923.7933186
910.5449424
914.7036177
913.5176887
906.5946167
908.0305441
908.0687441
919.7829606
915.1585856
912.6449953
915.9045715
898.2889878
902.6991656
897.5692546
893.7094579
886.5300002
886.8903611
889.9776146
906.0714062
885.398292
884.7353079
895.2705611
886.1226395
858.6549026
845.7138524
831.0000297
803.3443916
771.7617283
861.8789095
882.3585769
891.352316
874.6485735
884.5677664
885.8160584
876.0826935
884.1297621
880.1303955
885.3102849
901.729937
887.8967193
892.0999287
889.3462377
886.7339373
884.5917166
890.128198
886.3896167
896.6796841
890.2667425
888.5502456
883.3441552
880.812831
888.9358561
877.93274
860.6395369
847.6764265
834.0808791
817.2439733
764.7751703
829.2759911
845.5152231
849.6051784
846.1220536
837.9429669
850.4089951
844.7480892
859.9413824
870.8057174
871.5402834
867.9874413
874.4722691
876.74899
871.6337201
871.4931332
871.5157299
882.4599744
879.2554611
862.07343
867.1836937
869.9196039
862.9400154
867.9331509
861.6991445
867.230774
867.8565397
848.4955326
835.1795837
807.9653161
774.5474097
799.0035028
820.1963675
820.6791761
825.9380694
818.4758637
835.693422
817.5213376
824.1467095
841.202197
845.4066422
852.4048643
859.2565513
853.3751566
863.5292024
874.4265877
875.3771218
876.9616544
867.0118777
868.9948921
861.3670283
876.0822996
857.2718137
862.3238716
856.8689932
861.0615357
845.6571698
840.4725374
847.7610902
816.8058983
786.1484085
758.1629865
767.7006327
774.2984859
789.57854
785.4727631
807.3892284
808.9341121
799.7755276
801.0301381
808.0409376
817.5542922
812.2109558
825.1417296
834.5659657
849.3962185
847.0217559
849.1372439
853.3822498
862.795019
862.674458
852.7452481
836.6237748
833.8363554
842.8731563
854.0477061
842.7953516
818.6292568
809.3315603
802.6701525
782.6232945
705.8591401
734.3087367
740.5456548
747.0604156
765.9106413
773.8818317
772.0167413
784.6696655
795.3865761
787.7768351
788.6075701
797.1621503
803.8649162
812.1433931
819.4710309
818.3876858
817.50529
817.966784
814.9159583
836.975938
836.4283988
828.163153
832.3430336
821.5847018
823.2635856
832.7854711
828.0468877
821.4196304
810.3085117
786.2308622
645.2313504
669.2253476
708.5573003
725.7073426
738.5128392
736.9442999
737.8319156
760.7320501
771.3977923
773.7613553
770.0584302
771.5370439
774.2180136
787.8622477
782.9622968
792.4111771
798.269075
798.4132483
804.8106436
807.8187431
812.4307358
820.6801627
823.8136379
820.1811997
819.1237906
813.648055
805.5647801
805.2961171
792.4447118
769.5385728
584.7862801
614.3457279
650.4869858
660.3489819
686.1230168
700.4023683
716.1790988
726.0557569
736.4494448
742.4188503
743.0067111
756.0887955
764.2286196
767.7663977
774.2273195
772.8193404
776.4832497
784.6004034
780.798826
783.8566527
801.0939554
792.5769243
811.5943088
813.6952435
799.4990473
808.0229841
802.5037878
789.3042985
779.5314075
767.0449693
540.0782926
566.1947554
596.2234029
609.2339096
638.1594112
654.1382105
684.1514618
692.2848388
711.4591041
713.7821457
721.9148519
737.0142916
739.6455105
743.2084052
751.0512515
751.9473442
754.9338726
758.3157269
765.845428
774.1604978
777.4003642
773.5441366
779.4254737
776.0814692
785.4981137
786.4724522
790.2465783
781.9204607
778.4248785
756.1768419
474.4559181
506.9088921
550.3357791
554.5855071
581.1469046
609.9815931
629.4610188
648.3954934
663.7892
682.48337
693.2973881
703.2729511
721.7355378
722.6759643
728.8438124
730.2567568
751.7137789
745.3422519
753.9153587
752.7025494
761.9108051
774.1800906
772.4490671
783.5197825
779.6804374
765.5843255
760.1449295
758.3589154
766.7201721
752.5177934
448.7843015
473.8158054
499.3422615
520.8081777
546.0741629
573.0314828
588.1016903
608.5090133
621.5962062
643.8249481
650.2275409
657.1342597
675.431411
696.6627612
706.0137775
714.0011198
729.7185654
727.3603684
732.6990517
734.6714759
734.966734
737.6637605
753.3866471
756.6086485
752.0058937
749.9713334
759.9192883
760.6991662
750.4217633
737.8430133
408.0617981
435.5462722
441.440876
460.5845717
493.707488
519.1438695
533.9785029
561.6749905
581.6359098
597.4636171
617.9239461
632.9608043
655.5960347
663.7542998
667.774397
678.4575972
690.1121349
699.4892892
697.7159362
705.7514526
716.6257277
727.0894585
730.8297373
737.3568401
738.6793932
737.9928419
729.9808819
736.4613656
735.0992806
728.90644
396.2119322
412.4482727
418.0945476
435.8014694
455.1341242
470.7174128
503.5597509
540.4056335
556.8670216
562.5263716
580.1526648
596.8148886
606.1233961
621.4898107
646.0620056
651.5780412
669.5859639
678.3983134
694.8043454
692.9904286
687.8903556
696.622277
705.8975281
712.6546869
714.7595074
715.3152088
707.961743
721.1649594
715.7392045
361.7311243
373.3562111
386.5119467
402.2148103
420.5522101
430.7459257
454.8138685
484.4306158
505.5702557
516.2582762
540.3775626
560.6256667
575.7040401
592.3842095
615.1547682
621.3764887
648.700901
664.9115568
671.9598074
680.0035903
670.2656117
686.4536612
693.3880524
700.3815886
698.3508434
344.8038849
353.2043939
373.8828844
385.992162
400.2819598
401.5352178
414.0683655
440.2984524
454.0375799
481.5245976
507.6839459
518.0095158
544.4265468
558.0780705
583.3319308
590.980935
604.2934207
627.1590017
631.5582668
337.3357802
342.9597739
350.0130716
360.5888893
382.2177089
390.9271453
395.8745939
415.2821345
432.641545
452.778978
481.8814799
492.5076267
501.2550457
522.1634946
331.1055254
337.185503
332.9211188
342.7591272
358.8272797
375.0664659
372.5547717
385.8175352
325.0367033
)
;

boundaryField
{
    flow
    {
        type            calculated;
        value           nonuniform List<scalar> 
15
(
732.1845192
765.1930738
774.1664287
771.7617283
764.7751703
774.5474097
786.1484085
782.6232945
786.2308622
769.5385728
767.0449693
756.1768419
752.5177934
737.8430133
728.90644
)
;
    }
    obstacle
    {
        type            calculated;
        value           nonuniform List<scalar> 
30
(
742.3799075
733.9700616
714.8384231
732.7158833
701.9229202
705.7313933
710.4066891
739.8494303
672.2977191
666.9380268
726.4230406
694.3238565
670.9870728
681.9800635
683.1184115
692.4495375
680.6256422
651.9880812
679.3969384
651.8554663
694.0479515
670.3646961
634.8506734
723.0639712
683.9144479
701.5441195
703.4120271
680.4261746
694.8499846
693.1128263
)
;
    }
    frontAndBack
    {
        type            empty;
    }
    procBoundary1to0
    {
        type            processor;
        value           nonuniform List<scalar> 
21
(
859.2483452
950.8923671
933.6953724
911.8495705
864.5132277
828.3592101
796.6183187
733.2430928
677.8542589
621.0944957
549.6181173
499.3291713
461.2013369
421.8516967
391.9160947
374.5581626
355.3468194
334.3745993
325.7029549
320.7268075
318.9642505
)
;
    }
    procBoundary1to3
    {
        type            processor;
        value           nonuniform List<scalar> 
36
(
714.9236741
707.5517853
711.0383534
709.1380666
714.9236741
702.1209162
654.9355638
661.4065074
663.0598944
659.2227384
673.2520883
707.5517853
688.0077562
541.1410639
571.4247151
573.2413042
594.4550707
654.9355638
610.917014
408.8828867
409.7343545
424.2052171
455.7777598
462.01918
541.1410639
486.6511352
320.5650075
323.9420243
328.2535641
338.0519846
353.3874169
355.9673811
408.8828867
371.0276744
320.5650075
319.725789
)
;
    }
}


// ************************************************************************* //
