/*--------------------------------*- C++ -*----------------------------------*\
| =========                 |                                                 |
| \\      /  F ield         | OpenFOAM: The Open Source CFD Toolbox           |
|  \\    /   O peration     | Version:  2406                                  |
|   \\  /    A nd           | Website:  www.openfoam.com                      |
|    \\/     M anipulation  |                                                 |
\*---------------------------------------------------------------------------*/
FoamFile
{
    version     2.0;
    format      ascii;
    arch        "LSB;label=32;scalar=64";
    class       volScalarField;
    location    "0.002";
    object      p;
}
// * * * * * * * * * * * * * * * * * * * * * * * * * * * * * * * * * * * * * //

dimensions      [1 -1 -2 0 0 0 0];

internalField   nonuniform List<scalar> 
546
(
4.005237009
3.851945213
3.728127906
3.707976823
3.600009417
3.540559833
3.622607361
3.445397936
3.514161238
3.499267164
3.427559596
3.341431853
3.174521768
3.29318398
3.242143172
3.13080078
3.021559275
2.982404937
3.018107195
3.070041333
2.98305749
3.01740088
3.075142102
3.068206165
2.908898307
2.775654311
2.672333251
2.55250441
2.401575033
1.941440106
3.896088694
3.790200191
3.756607863
3.68253521
3.521716501
3.548929215
3.558502267
3.489585067
3.450296251
3.486558096
3.36721331
3.278310714
3.281792908
3.328506986
3.26787101
3.20906323
3.158448113
3.114895849
3.101017114
3.134798929
2.989288196
3.055283948
3.010367532
2.922313434
2.850697604
2.876830949
2.747093243
2.51658709
2.313504505
1.787792612
3.595399518
3.748621354
3.531281985
3.50559126
3.4648518
3.438805757
3.421320733
3.374483135
3.374442778
3.383233498
3.442980251
3.294775065
3.369334686
3.287344209
3.166565714
3.161733156
3.137700275
3.106296896
3.121495022
3.013219727
2.983704973
2.93632901
3.045907451
2.925521979
2.861886501
2.749556222
2.647231689
2.542968496
2.211049334
1.839714775
3.299376972
3.476687275
3.523103275
3.325493217
3.39956635
3.35500569
3.256027356
3.345063211
3.288825833
3.290151728
3.243529711
3.241354482
3.288732073
3.289632368
3.119941858
3.104156568
3.037083787
3.065737723
3.076126377
3.014144601
2.971885643
2.839531743
2.886595248
2.920060828
2.883475933
2.669176563
2.537657977
2.380613796
2.195450037
1.895778931
3.104008269
3.198351364
3.284125654
3.213843812
3.240691873
3.222517376
3.132445349
3.170551827
3.203015484
3.162744559
3.1500906
3.121818035
3.173726303
3.158342112
3.044411983
3.057776238
3.061020685
3.078848964
2.963887823
2.995658425
2.876166127
2.826812236
2.766866614
2.84726031
2.748399135
2.659478748
2.667137713
2.44202958
2.22506476
1.851280574
2.720266682
2.884257437
2.953536985
2.944705525
2.884585319
2.988188122
2.939796609
2.970109818
3.10151107
3.025261721
2.969279678
3.045610624
3.030177414
2.999187425
3.068725714
3.094400049
2.956209736
3.016159867
2.9288255
2.91645606
2.863384608
2.723260949
2.701648128
2.714445895
2.767958259
2.639469195
2.5389714
2.482580434
2.265868284
1.936539223
2.400017442
2.656688343
2.660993393
2.789073921
2.704249083
2.921111317
2.823779274
2.836754386
2.898730411
2.954334873
2.966912668
2.917173343
2.950437555
3.041920844
3.03948152
2.913866446
2.956579002
2.869401267
2.905324631
2.800631521
2.835501018
2.71352651
2.755268354
2.719151545
2.742472367
2.622258591
2.506285583
2.515205608
2.266282158
2.033574546
2.132459105
2.223733141
2.353991402
2.510553117
2.528228545
2.653612086
2.726939543
2.739632499
2.768447072
2.776112788
2.834977731
2.799029768
2.839505606
2.84608233
3.008109119
2.974156724
2.883239549
2.821642982
2.843077525
2.888011096
2.849771282
2.740392373
2.713076061
2.690256102
2.685043007
2.656536352
2.488671504
2.35931239
2.305668061
2.106743079
1.819088994
1.989771688
2.087134593
2.167443182
2.371928681
2.462724077
2.466337997
2.585517871
2.677784801
2.657735854
2.677509903
2.749715848
2.78245616
2.793021122
2.791768167
2.842158531
2.789140908
2.805449557
2.812945854
2.817906014
2.706836367
2.649106985
2.706281615
2.651350829
2.649283405
2.612286572
2.578910802
2.461296097
2.296101349
2.128275655
1.475195022
1.619308818
1.817282929
1.948231797
2.07932996
2.129911689
2.208415467
2.345755756
2.481479882
2.56607485
2.557148768
2.576271329
2.660641042
2.751538386
2.698526804
2.718499528
2.748317247
2.715973772
2.688970549
2.702549775
2.786667794
2.736243354
2.723152747
2.581447426
2.679716223
2.652608047
2.535258345
2.47555596
2.318726828
2.13573486
1.244058921
1.383206451
1.535731031
1.615466304
1.78326197
1.894199682
2.017274522
2.156896505
2.269117474
2.367819779
2.438838768
2.495278514
2.516178178
2.609208131
2.644991005
2.602407358
2.637882027
2.67157849
2.635060922
2.685901184
2.748103133
2.705581658
2.748829355
2.713047804
2.50043896
2.570086216
2.585072906
2.536574293
2.399752043
2.225471713
1.088410798
1.181502434
1.311566445
1.383286525
1.529520102
1.659725518
1.829050662
1.909472366
2.059312162
2.083221077
2.13956023
2.30117051
2.389269192
2.401263511
2.433586723
2.519117134
2.555473281
2.575746775
2.64216691
2.656734072
2.616162447
2.607283238
2.627536358
2.578602497
2.619852171
2.593132798
2.523743912
2.399470042
2.353204536
2.285821723
0.8930496769
0.9905740411
1.132489852
1.155007778
1.277870403
1.420681184
1.543605343
1.611288618
1.729658372
1.866777285
1.988095479
2.086286982
2.200954611
2.279796464
2.371775325
2.38869139
2.513183215
2.495583068
2.557730705
2.556181937
2.599436062
2.655590268
2.604377475
2.659078654
2.610016063
2.497960475
2.465779863
2.385224838
2.436184839
2.280254148
0.786770706
0.8670628892
0.9401742663
1.024014822
1.110968289
1.20160839
1.290022387
1.418463134
1.522378682
1.678942449
1.785336307
1.84808074
1.996859751
2.130189778
2.180170153
2.274665801
2.399421352
2.443703942
2.422030654
2.43595325
2.46903227
2.505828758
2.573158747
2.620036853
2.526213077
2.479600624
2.506491336
2.493552868
2.364343755
2.31632019
0.6922613945
0.7795224054
0.8018991838
0.8479282432
0.9439935213
1.050334915
1.122583718
1.261472304
1.347608659
1.428251314
1.507966383
1.600059644
1.778691283
1.896458432
1.992897456
2.099955359
2.190077681
2.241617128
2.287484126
2.335403793
2.40497551
2.465155973
2.497553799
2.529779294
2.552051921
2.524991465
2.42464034
2.44636927
2.414138219
2.301668541
0.634418475
0.6651702817
0.6939395994
0.7422623996
0.815820011
0.8648688135
0.9733304756
1.077653651
1.17554679
1.216548161
1.326122387
1.455129312
1.512205486
1.644181092
1.800311833
1.854963995
1.969890596
2.066847583
2.161795038
2.234030746
2.21494203
2.284945922
2.36438553
2.441910787
2.438039785
2.415424889
2.380614293
2.422769824
2.390895278
0.5591498623
0.5949575108
0.628599555
0.6794967811
0.7229598724
0.7576830815
0.8320418979
0.9451358807
1.01271701
1.074168037
1.175879059
1.251496927
1.314198433
1.409149047
1.539288116
1.597276652
1.782471843
1.934274372
2.051770458
2.068688728
2.058248014
2.242465387
2.272139473
2.334303966
2.331272732
0.5332732701
0.5551054101
0.613191173
0.6308086569
0.6747411636
0.6807780213
0.7138523468
0.7801344288
0.840171322
0.9301103991
0.9974726084
1.057822902
1.164357145
1.232735392
1.356249236
1.462348573
1.556589554
1.692036584
1.74274695
0.5028511812
0.5201304971
0.5397984234
0.5668123919
0.6139712629
0.6382467418
0.6572770801
0.7141747374
0.7615414845
0.7969718975
0.9182304922
0.9521713505
0.9890213609
1.069259485
0.4949473142
0.5027163407
0.4934384937
0.5213811147
0.5602613703
0.5965095865
0.5866201302
0.6225932691
0.4667387149
)
;

boundaryField
{
    flow
    {
        type            calculated;
        value           nonuniform List<scalar> 
15
(
1.941440106
1.787792612
1.839714775
1.895778931
1.851280574
1.936539223
2.033574546
2.106743079
2.128275655
2.13573486
2.225471713
2.285821723
2.280254148
2.31632019
2.301668541
)
;
    }
    obstacle
    {
        type            calculated;
        value           nonuniform List<scalar> 
30
(
3.254532291
3.2720171
3.095241729
3.084754751
3.098851301
2.925387486
3.045456032
3.088519429
3.033529432
2.982739201
2.921643797
2.943745093
2.794415037
2.83701707
2.885486269
2.801339779
2.785979793
2.572276711
2.665488493
2.735621301
2.608083328
2.614813255
2.685584926
2.770650768
2.532673871
2.526187552
2.326955972
2.268296871
2.156354155
2.017353989
)
;
    }
    frontAndBack
    {
        type            empty;
    }
    procBoundary1to0
    {
        type            processor;
        value           nonuniform List<scalar> 
21
(
4.094971262
3.912241774
3.72071521
3.365635778
3.06272599
2.627007514
2.354535683
1.941686887
1.635573482
1.350196992
1.116600918
0.9501411659
0.8599736737
0.7130475012
0.6331642717
0.5896069091
0.5435358461
0.5016279108
0.4779431557
0.4656292838
0.4537885675
)
;
    }
    procBoundary1to3
    {
        type            processor;
        value           nonuniform List<scalar> 
36
(
2.330227107
2.361085188
2.400865167
2.363022648
2.330227107
2.343048405
1.915799789
2.016544796
2.067995137
2.133314228
2.221855306
2.361085188
2.326284221
1.158526082
1.330803391
1.367100373
1.49576034
1.915799789
1.62548026
0.690084351
0.7183532985
0.755783118
0.8651771882
0.891169263
1.158526082
0.9722017191
0.4629205075
0.4651320817
0.478268274
0.509621493
0.5516358539
0.5522832798
0.690084351
0.5990151019
0.4629205075
0.4688827611
)
;
    }
}


// ************************************************************************* //
