/*--------------------------------*- C++ -*----------------------------------*\
| =========                 |                                                 |
| \\      /  F ield         | OpenFOAM: The Open Source CFD Toolbox           |
|  \\    /   O peration     | Version:  2406                                  |
|   \\  /    A nd           | Website:  www.openfoam.com                      |
|    \\/     M anipulation  |                                                 |
\*---------------------------------------------------------------------------*/
FoamFile
{
    version     2.0;
    format      ascii;
    arch        "LSB;label=32;scalar=64";
    class       volScalarField;
    location    "0.002";
    object      rhoM;
}
// * * * * * * * * * * * * * * * * * * * * * * * * * * * * * * * * * * * * * //

dimensions      [1 -3 0 0 0 0 0];

internalField   nonuniform List<scalar> 
546
(
1.557159579e-05
1.981528559e-05
1.678659766e-05
2.20159461e-05
1.097634667e-05
1.554546991e-05
1.122232747e-05
1.138730467e-05
1.543339738e-05
1.70688646e-05
1.575766604e-05
2.342012354e-05
1.209109926e-05
1.367041136e-05
9.465204221e-06
1.699251577e-05
1.434946771e-05
1.097945107e-05
1.656339923e-05
1.990897141e-05
9.428798252e-06
1.664281244e-05
1.137065924e-05
1.379951248e-05
1.175314261e-05
1.486763063e-05
1.932952469e-05
1.077478924e-05
1.134357369e-05
1.012439106e-05
1.415534356e-05
1.245913201e-05
8.09094427e-06
1.249219542e-05
1.627142339e-05
1.63952253e-05
1.402790933e-05
1.075923529e-05
8.547815771e-06
1.108710014e-05
1.551727763e-05
1.799107835e-05
1.135440704e-05
1.589442585e-05
1.145714197e-05
1.037945621e-05
1.32518206e-05
2.051276058e-05
1.793827687e-05
1.203123649e-05
1.318291524e-05
1.00391952e-05
8.17279507e-06
1.550293281e-05
1.473757079e-05
1.313583417e-05
1.150508876e-05
1.198277166e-05
1.078072785e-05
1.163776488e-05
1.288939846e-05
1.418505965e-05
1.376123065e-05
1.196071513e-05
1.627142341e-05
1.121402298e-05
1.309208961e-05
1.492090438e-05
1.1554851e-05
9.093819149e-06
1.607818391e-05
1.321013168e-05
2.115794784e-05
7.164505625e-06
1.137439456e-05
8.957132964e-06
1.147916754e-05
1.463926808e-05
9.870432771e-06
1.540830221e-05
1.597569855e-05
1.435242715e-05
1.110292238e-05
1.353157388e-05
1.184324985e-05
8.665574439e-06
3.221956992e-06
8.266246907e-06
9.468173596e-06
1.040729397e-05
4.917062665e-06
1.088281337e-05
1.504783126e-05
1.196071514e-05
1.21275307e-05
8.352706388e-06
7.793491548e-06
1.123076027e-05
1.432524127e-05
8.694394363e-06
1.326590582e-05
1.604483066e-05
8.250706771e-06
9.388520133e-06
1.220386864e-05
1.096547456e-05
1.367242861e-05
1.336277844e-05
1.115770073e-05
9.262235458e-06
1.257173101e-05
9.68601238e-06
9.682124902e-06
1.69362559e-05
1.093999958e-05
1.18586171e-05
8.652305675e-06
1.030966428e-05
7.686204789e-06
9.55630606e-06
7.898079577e-06
9.156885729e-06
1.149311609e-05
1.74457202e-05
1.304921748e-05
1.16012916e-05
1.605489295e-05
1.547070156e-05
1.377116321e-05
9.411821797e-06
1.029143211e-05
1.09408108e-05
1.078251743e-05
1.292973444e-05
8.633730204e-06
9.543151315e-06
6.836214309e-06
1.276694662e-05
7.295896828e-06
9.954485707e-06
1.519049112e-05
9.598246963e-06
8.084262691e-06
8.961507343e-06
1.175314263e-05
1.240630973e-05
1.132161038e-05
9.846776845e-06
1.078072786e-05
7.380546348e-06
7.972335805e-06
7.430958095e-06
1.050978076e-05
1.036076907e-05
1.043900421e-05
1.16012916e-05
1.153301586e-05
9.188115939e-06
9.73485353e-06
1.316180326e-05
9.968977558e-06
1.175044591e-05
1.290724106e-05
8.071320317e-06
1.095865754e-05
1.146806407e-05
1.316566585e-05
1.046844517e-05
7.466981228e-06
8.050276243e-06
1.274575422e-05
1.056790884e-05
7.63946112e-06
1.08435534e-05
1.184324977e-05
1.021773651e-05
1.389917609e-05
1.086736675e-05
7.4993422e-06
9.556306025e-06
1.080304556e-05
1.065659188e-05
5.444203485e-06
9.751527937e-06
1.013115897e-05
1.121402298e-05
1.340465528e-05
1.539242936e-05
9.655971881e-06
1.675086195e-05
1.045169106e-05
1.118311571e-05
8.741178987e-06
9.634751195e-06
1.145714197e-05
1.029602736e-05
1.139301279e-05
1.131875487e-05
1.725187186e-05
1.436888439e-05
8.904625694e-06
1.056790888e-05
1.066026053e-05
1.120080495e-05
1.437496416e-05
1.833561846e-05
9.941088517e-06
1.281820661e-05
9.468173655e-06
6.055774515e-06
1.005689398e-05
3.827685812e-06
1.421521785e-05
8.684897236e-06
1.105284575e-05
8.429787513e-06
1.192325361e-05
1.240862684e-05
1.321708517e-05
1.092809882e-05
1.334603528e-05
1.272356975e-05
1.004779301e-05
9.058228314e-06
1.1457142e-05
1.557019256e-05
1.156328912e-05
1.029879321e-05
1.519265647e-05
1.324319565e-05
8.730602352e-06
1.866778011e-05
6.9290623e-06
7.258087005e-06
1.31992141e-05
1.112909259e-05
8.468827237e-06
1.207534906e-05
7.59277348e-06
8.420136081e-06
1.087730179e-05
6.004248488e-06
7.032247952e-06
8.760822986e-06
8.97997495e-06
1.345682758e-05
1.129999956e-05
1.091577969e-05
7.281896362e-06
1.372022938e-05
8.683032698e-06
1.337166829e-05
9.231651203e-06
8.399628426e-06
1.494453301e-05
1.439815573e-05
1.257681463e-05
1.540475189e-05
9.355112077e-06
1.436888422e-05
1.414424889e-05
8.806237197e-06
7.106127104e-06
1.801232752e-05
1.084989228e-05
1.64197927e-05
1.049374076e-05
1.105252173e-05
1.640466993e-05
9.650607078e-06
6.481827337e-06
1.073320435e-05
9.375723472e-06
1.142739977e-05
1.005465989e-05
6.805494911e-06
6.624655533e-06
9.188115953e-06
1.432524126e-05
9.173319777e-06
9.968977605e-06
1.596406236e-05
9.394485957e-06
1.572828809e-05
9.630699019e-06
9.376293632e-06
8.777110626e-06
1.021396735e-05
1.055683785e-05
1.125271563e-05
1.43182721e-05
1.620186418e-05
1.412372184e-05
1.299353804e-05
1.112021411e-05
1.322675004e-05
1.058547982e-05
1.058963427e-05
8.811896446e-06
1.08810779e-05
7.673516217e-06
8.180811141e-06
7.10760889e-06
9.827453679e-06
3.761397303e-06
8.429787532e-06
9.117671789e-06
9.109843779e-06
6.727818317e-06
1.196545035e-05
8.12018972e-06
1.41813034e-05
1.070110007e-05
9.882965992e-06
1.162263686e-05
1.364527979e-05
7.258855387e-06
1.182976071e-05
1.21883421e-05
1.315692501e-05
1.519049114e-05
1.074343968e-05
9.060258564e-06
1.209825075e-05
1.419474943e-05
1.194953298e-05
1.067721908e-05
1.142506921e-05
1.237357602e-05
1.08810781e-05
1.117432668e-06
5.404004459e-06
8.166305275e-06
1.256995627e-05
1.159018822e-05
8.971218347e-06
6.70232759e-06
8.716590865e-06
7.518541266e-06
1.02901721e-05
1.037156168e-05
5.673302245e-06
1.257960371e-05
5.434936989e-06
9.547951605e-06
9.710009029e-06
8.608867424e-06
1.217111479e-05
1.467733584e-05
1.359036332e-05
1.056415503e-05
1.338488637e-05
9.14879078e-06
1.173884067e-05
1.428485692e-05
1.131092455e-05
9.388436278e-06
4.086834716e-06
1.556153024e-05
2.034308296e-05
5.737470449e-06
4.803760352e-06
5.444203477e-06
3.960984779e-06
5.449923793e-06
8.352706419e-06
8.416745663e-06
1.028771035e-05
7.914856078e-06
8.13596823e-06
6.994503819e-06
8.104159622e-06
9.394485957e-06
8.235474371e-06
1.35318271e-05
1.255667184e-05
1.257681463e-05
1.021396735e-05
1.072792225e-05
8.136546915e-06
1.39681228e-05
1.197639774e-05
1.163625639e-05
1.19174664e-05
1.084989228e-05
6.840664665e-06
1.399091513e-05
1.244789665e-05
1.649810121e-05
8.705318156e-06
4.842806435e-06
8.330420193e-06
4.914855322e-06
6.475710011e-06
7.905289994e-06
5.568470904e-06
4.519999791e-06
2.748985908e-06
1.068524636e-05
4.067984115e-06
1.109466341e-05
1.166967761e-05
8.169289336e-06
1.18587656e-05
5.396581345e-06
1.130120639e-05
5.992965138e-06
4.510126702e-06
5.664392566e-06
1.341573694e-05
6.723026471e-06
1.752258763e-05
1.225812275e-05
1.272559944e-05
1.808242786e-05
1.003370738e-05
1.436008904e-05
7.895936889e-06
8.531602604e-06
1.343632081e-05
3.725373801e-06
5.329199967e-06
6.578260798e-06
2.666576793e-06
3.914395487e-06
6.109901815e-06
5.065581779e-06
1.123076032e-05
5.777425506e-06
8.773895007e-06
4.100159627e-06
5.915607154e-06
1.004779305e-05
7.823105532e-06
9.214962085e-06
1.255667194e-05
1.59518444e-05
9.872613359e-06
1.22738844e-05
1.168615395e-05
1.047714351e-05
1.453007925e-05
9.859189671e-06
1.003757897e-05
1.139053585e-05
1.039956836e-05
9.296697115e-06
6.780532029e-06
1.256043858e-05
1.248875279e-05
4.321218212e-06
6.380078966e-06
7.712318023e-06
6.627561571e-06
5.67942103e-06
3.325666342e-06
7.325581747e-06
8.166793811e-06
7.203014778e-06
4.626410263e-06
7.637476239e-06
6.402168975e-06
7.515982324e-06
8.894074273e-06
7.969750927e-06
1.104890343e-05
1.232241678e-05
1.336277849e-05
1.68220933e-05
8.222817562e-06
1.265874272e-05
1.444231385e-05
1.092585765e-05
1.998368645e-05
1.500789245e-05
1.569026815e-05
1.086069731e-05
1.235308164e-05
1.368613015e-05
3.79962999e-06
3.227441761e-06
4.385507199e-06
5.409079341e-06
2.839710515e-06
4.331446923e-06
4.052089939e-06
7.303907708e-06
4.51150606e-06
7.418540847e-06
8.280448788e-06
9.967687028e-06
5.881730945e-06
5.352859968e-06
6.641792429e-06
9.2908483e-06
8.947386906e-06
1.114910301e-05
1.184410582e-05
7.616837884e-06
1.134936246e-05
1.08312049e-05
1.261439189e-05
1.093286635e-05
1.826264267e-05
4.694294037e-06
4.803760387e-06
5.973551588e-06
6.094246168e-06
5.910767186e-06
8.739975036e-06
2.727909789e-06
7.460452222e-06
7.518541323e-06
8.535393015e-06
5.145716027e-06
7.050267548e-06
8.332124207e-06
4.858414108e-06
9.71344651e-06
9.2074196e-06
7.258855446e-06
8.680949595e-06
7.896759707e-06
4.84280647e-06
4.728955876e-06
3.326810881e-06
3.275817907e-06
4.989080401e-06
2.784235452e-06
3.428835892e-06
7.775432744e-06
5.06558415e-06
7.019116005e-06
5.145716067e-06
7.13103585e-06
9.884958164e-06
6.505905729e-06
4.694294003e-06
4.803760352e-06
8.015583289e-06
6.551635815e-06
5.755920151e-06
6.651332685e-06
7.793491548e-06
3.377055316e-06
4.917062686e-06
)
;

boundaryField
{
    flow
    {
        type            zeroGradient;
    }
    obstacle
    {
        type            calculated;
        value           nonuniform List<scalar> 
30
(
9.642464975e-24
1.231629332e-23
2.971078625e-24
9.0894035e-24
5.145815927e-24
3.27392645e-24
1e-300
1e-300
2.497456563e-23
2.92224398e-24
1.088230269e-23
7.207787253e-24
8.868999247e-24
1.036047776e-23
1e-300
1.293598695e-23
1e-300
5.22512429e-24
1.009180448e-23
6.356439834e-24
1e-300
1.686705824e-23
1e-300
1e-300
1e-300
1e-300
1.679715195e-23
3.748814099e-24
5.94655654e-24
2.232435161e-24
)
;
    }
    frontAndBack
    {
        type            empty;
    }
    procBoundary1to0
    {
        type            processor;
        value           nonuniform List<scalar> 
21
(
1.508792993e-05
1.309047401e-05
1.486678223e-05
1.516164583e-05
1.013292974e-05
7.322817268e-06
1.020664564e-05
7.988042017e-06
8.061757917e-06
5.843154299e-06
6.805024308e-06
4.807568411e-06
6.655810854e-06
4.733852456e-06
8.505834972e-06
2.218603618e-06
7.617680863e-06
3.254189527e-06
5.843154341e-06
2.071171818e-06
5.325361345e-06
)
;
    }
    procBoundary1to3
    {
        type            processor;
        value           nonuniform List<scalar> 
36
(
1.712545439e-05
1.276997339e-05
1.141334965e-05
7.430811985e-06
1.712545439e-05
7.312479638e-06
8.569985165e-06
1.012699409e-05
1.127215331e-05
8.615456947e-06
1.030551757e-05
1.276997339e-05
9.674142461e-06
9.049467183e-06
6.277327715e-06
3.797670924e-06
7.489285972e-06
8.569985165e-06
6.350797652e-06
8.072619379e-06
9.173319792e-06
3.537316644e-06
3.565517925e-06
1.004779305e-05
9.049467183e-06
7.08242861e-06
3.75288133e-06
4.385507199e-06
6.399784302e-06
3.914395458e-06
4.021259464e-06
6.779999789e-06
8.072619379e-06
4.005124704e-06
3.75288133e-06
5.960239096e-06
)
;
    }
}


// ************************************************************************* //
