/*--------------------------------*- C++ -*----------------------------------*\
| =========                 |                                                 |
| \\      /  F ield         | OpenFOAM: The Open Source CFD Toolbox           |
|  \\    /   O peration     | Version:  2406                                  |
|   \\  /    A nd           | Website:  www.openfoam.com                      |
|    \\/     M anipulation  |                                                 |
\*---------------------------------------------------------------------------*/
FoamFile
{
    version     2.0;
    format      ascii;
    arch        "LSB;label=32;scalar=64";
    class       volScalarField;
    location    "0.002";
    object      rhoMMean;
}
// * * * * * * * * * * * * * * * * * * * * * * * * * * * * * * * * * * * * * //

dimensions      [1 -3 0 0 0 0 0];

internalField   nonuniform List<scalar> 
546
(
1.477912314e-05
1.460413147e-05
1.430241139e-05
1.435303822e-05
1.409069559e-05
1.383509935e-05
1.427635421e-05
1.384945631e-05
1.453874125e-05
1.442209391e-05
1.413772026e-05
1.38251374e-05
1.320805919e-05
1.362968876e-05
1.370199283e-05
1.328130667e-05
1.297682176e-05
1.297539037e-05
1.306164295e-05
1.310767155e-05
1.249433878e-05
1.292214623e-05
1.325873565e-05
1.320818063e-05
1.277233939e-05
1.213140127e-05
1.190014668e-05
1.140402949e-05
1.06212271e-05
8.74997328e-06
1.313220777e-05
1.287342515e-05
1.279371063e-05
1.284972912e-05
1.247059856e-05
1.258679266e-05
1.284251697e-05
1.275482384e-05
1.252214187e-05
1.257885276e-05
1.240681647e-05
1.22686229e-05
1.224983613e-05
1.24153441e-05
1.245819593e-05
1.233297548e-05
1.217215722e-05
1.202898285e-05
1.19542697e-05
1.18531538e-05
1.118556649e-05
1.161424316e-05
1.176514238e-05
1.129674173e-05
1.123826355e-05
1.137689505e-05
1.111486501e-05
1.037907921e-05
9.647923525e-06
8.020535647e-06
1.22212002e-05
1.24770374e-05
1.203618837e-05
1.186948127e-05
1.169735027e-05
1.186834556e-05
1.190573515e-05
1.17175812e-05
1.198832164e-05
1.192970775e-05
1.22191467e-05
1.179707827e-05
1.195194461e-05
1.179857843e-05
1.151261974e-05
1.149097877e-05
1.152728255e-05
1.132961439e-05
1.150775416e-05
1.126159937e-05
1.108172904e-05
1.103068941e-05
1.154097494e-05
1.09053633e-05
1.072126411e-05
1.061757192e-05
1.034266431e-05
1.014791684e-05
9.077421961e-06
8.168608969e-06
1.112330006e-05
1.157502539e-05
1.184868369e-05
1.152214366e-05
1.17416185e-05
1.165789429e-05
1.143971477e-05
1.162015785e-05
1.15959898e-05
1.146197484e-05
1.152604592e-05
1.165698088e-05
1.162209885e-05
1.183332604e-05
1.112333991e-05
1.117444871e-05
1.104053693e-05
1.119023561e-05
1.13329002e-05
1.109478452e-05
1.074583035e-05
1.043189287e-05
1.054943349e-05
1.054858187e-05
1.07135941e-05
1.018486946e-05
1.000990753e-05
9.531435799e-06
9.131232177e-06
8.411868111e-06
1.084427728e-05
1.106881287e-05
1.131727824e-05
1.14278778e-05
1.15031741e-05
1.142397311e-05
1.134383643e-05
1.149441084e-05
1.170498541e-05
1.152461151e-05
1.143110582e-05
1.140703643e-05
1.155456275e-05
1.146415475e-05
1.128095248e-05
1.121705111e-05
1.115033088e-05
1.128591213e-05
1.083230209e-05
1.100688124e-05
1.064317241e-05
1.045560356e-05
1.017018488e-05
1.034667355e-05
1.01835e-05
1.020607399e-05
1.044698251e-05
9.80979004e-06
9.201495323e-06
8.402578799e-06
9.747392064e-06
1.019944254e-05
1.061025013e-05
1.07427598e-05
1.0731747e-05
1.110132689e-05
1.10614235e-05
1.111156259e-05
1.139657508e-05
1.128254952e-05
1.109732565e-05
1.122670227e-05
1.118996503e-05
1.122661739e-05
1.148195194e-05
1.153890449e-05
1.111363911e-05
1.123711617e-05
1.112034309e-05
1.095836953e-05
1.084664841e-05
1.043662798e-05
1.033036809e-05
1.051909514e-05
1.052991463e-05
1.010637554e-05
9.96689466e-06
9.965248046e-06
9.456041899e-06
8.653151488e-06
8.854515567e-06
9.569261303e-06
9.82729e-06
1.033211178e-05
1.039629599e-05
1.093418636e-05
1.087610914e-05
1.087295818e-05
1.092772448e-05
1.114765395e-05
1.122727388e-05
1.113951181e-05
1.127130398e-05
1.141103059e-05
1.12575897e-05
1.093824701e-05
1.103649986e-05
1.086185359e-05
1.094508706e-05
1.064937004e-05
1.07239955e-05
1.049516091e-05
1.055285552e-05
1.054524931e-05
1.06165716e-05
1.042862739e-05
9.929118912e-06
9.887843755e-06
9.44476926e-06
8.958346613e-06
8.206468783e-06
8.555072371e-06
9.099360255e-06
9.597874865e-06
9.822878079e-06
1.011718883e-05
1.054173123e-05
1.080138664e-05
1.085531137e-05
1.087398793e-05
1.105299929e-05
1.101605854e-05
1.1062947e-05
1.110723874e-05
1.151448421e-05
1.140901285e-05
1.112212038e-05
1.099683238e-05
1.090826739e-05
1.10766322e-05
1.102455419e-05
1.07780652e-05
1.067711021e-05
1.056287839e-05
1.043452265e-05
1.039323099e-05
1.022564465e-05
9.827830518e-06
9.791291118e-06
9.343110629e-06
7.460980799e-06
7.879725041e-06
8.230981782e-06
8.57984305e-06
9.252802097e-06
9.590175169e-06
9.813007852e-06
1.021155335e-05
1.043601607e-05
1.057027209e-05
1.072048376e-05
1.099433652e-05
1.108036838e-05
1.115312229e-05
1.112325842e-05
1.135011224e-05
1.124990948e-05
1.128120777e-05
1.132297808e-05
1.113635911e-05
1.087973306e-05
1.072352648e-05
1.078134046e-05
1.068606782e-05
1.061041145e-05
1.03548654e-05
1.037864303e-05
1.008797475e-05
9.624780486e-06
9.290567697e-06
6.556912037e-06
6.963209997e-06
7.459309429e-06
7.838393174e-06
8.275831893e-06
8.642970619e-06
9.102306739e-06
9.482502668e-06
9.967758386e-06
1.02754442e-05
1.039674382e-05
1.050009281e-05
1.085425325e-05
1.107516993e-05
1.107497813e-05
1.114209396e-05
1.121582075e-05
1.110487844e-05
1.105272908e-05
1.10459778e-05
1.122772007e-05
1.108976451e-05
1.096863858e-05
1.05458593e-05
1.076768952e-05
1.076858924e-05
1.043295086e-05
1.031437371e-05
9.846803412e-06
9.491144342e-06
6.163403896e-06
6.493977331e-06
6.81950666e-06
7.162772519e-06
7.59518053e-06
7.962045754e-06
8.357298558e-06
8.906657894e-06
9.337047665e-06
9.832770592e-06
1.022575058e-05
1.034425415e-05
1.038613303e-05
1.070478932e-05
1.091510872e-05
1.083306644e-05
1.09933075e-05
1.117463245e-05
1.105543335e-05
1.123600066e-05
1.130613198e-05
1.123465839e-05
1.108418723e-05
1.101257947e-05
1.044750681e-05
1.052631902e-05
1.066601055e-05
1.077050971e-05
1.04612093e-05
9.929090459e-06
5.864603858e-06
6.120887505e-06
6.413968888e-06
6.630390322e-06
6.956063771e-06
7.360312018e-06
7.829447569e-06
8.151695902e-06
8.548362886e-06
8.786709572e-06
9.042325122e-06
9.573728528e-06
1.005883482e-05
1.013307377e-05
1.022842284e-05
1.062170891e-05
1.072636696e-05
1.097214684e-05
1.121525254e-05
1.121789921e-05
1.103854334e-05
1.109390848e-05
1.111129213e-05
1.103755307e-05
1.116830589e-05
1.107715757e-05
1.07511287e-05
1.037798619e-05
1.028189482e-05
1.032726257e-05
5.582424592e-06
5.733587198e-06
6.03611512e-06
6.180941957e-06
6.473458586e-06
6.839944145e-06
7.20044613e-06
7.371851873e-06
7.764672566e-06
8.109493068e-06
8.595478032e-06
9.057197276e-06
9.429958363e-06
9.801504921e-06
1.017939712e-05
1.03242449e-05
1.059006727e-05
1.067216152e-05
1.086098895e-05
1.097093511e-05
1.106926625e-05
1.12168619e-05
1.111159937e-05
1.113897903e-05
1.096953918e-05
1.080553753e-05
1.084771996e-05
1.059537156e-05
1.071943803e-05
1.034991674e-05
5.237375699e-06
5.383622131e-06
5.503226138e-06
5.797000733e-06
5.962128113e-06
6.177929472e-06
6.47098911e-06
6.877137219e-06
7.218139743e-06
7.678085478e-06
8.139997193e-06
8.423238646e-06
8.854211881e-06
9.27000828e-06
9.542471776e-06
9.87996771e-06
1.023286103e-05
1.053750139e-05
1.052656909e-05
1.059334222e-05
1.075740911e-05
1.086894889e-05
1.113957828e-05
1.127403978e-05
1.103691735e-05
1.088939475e-05
1.089541158e-05
1.080382017e-05
1.055001606e-05
1.051206379e-05
5.220188451e-06
5.377404356e-06
5.499658713e-06
5.557842213e-06
5.736056275e-06
5.970427826e-06
6.223044336e-06
6.545901138e-06
6.805343251e-06
7.020518435e-06
7.229310092e-06
7.517812127e-06
8.021154494e-06
8.543368337e-06
8.991838306e-06
9.449424437e-06
9.813660728e-06
9.980848713e-06
1.030251348e-05
1.058546587e-05
1.080268941e-05
1.096485217e-05
1.104584496e-05
1.107349273e-05
1.120905441e-05
1.117435653e-05
1.098221438e-05
1.106320813e-05
1.081646242e-05
1.058369805e-05
5.052905312e-06
5.041281623e-06
5.119456011e-06
5.223804898e-06
5.416689682e-06
5.528663085e-06
5.732060044e-06
5.91559047e-06
6.198698368e-06
6.443464238e-06
6.826644684e-06
7.262375301e-06
7.493681089e-06
7.904948968e-06
8.361726177e-06
8.708922574e-06
9.050333775e-06
9.458731644e-06
9.745462328e-06
1.016087798e-05
1.030114646e-05
1.055048334e-05
1.070706982e-05
1.106483586e-05
1.112010567e-05
1.107037604e-05
1.109807087e-05
1.110086088e-05
1.106149107e-05
4.983305925e-06
5.055598248e-06
5.116357142e-06
5.240946915e-06
5.265336139e-06
5.382414533e-06
5.568494958e-06
5.79356e-06
5.885285989e-06
6.122029361e-06
6.408551967e-06
6.585668315e-06
6.812123276e-06
7.154139377e-06
7.497340941e-06
7.809107085e-06
8.34738616e-06
8.874574258e-06
9.312726563e-06
9.383752445e-06
9.645056452e-06
1.014154943e-05
1.037478741e-05
1.055511474e-05
1.068779307e-05
5.078452403e-06
5.108915559e-06
5.224489348e-06
5.187850459e-06
5.301692846e-06
5.337013324e-06
5.370825888e-06
5.461801352e-06
5.684292492e-06
5.817541532e-06
5.90278797e-06
6.153070797e-06
6.399463227e-06
6.614709855e-06
6.970710205e-06
7.347985371e-06
7.684228644e-06
8.097854972e-06
8.398133137e-06
4.947502575e-06
4.986794596e-06
5.042115892e-06
5.08020406e-06
5.121796595e-06
5.179172797e-06
5.265628691e-06
5.368736609e-06
5.456997043e-06
5.423974817e-06
5.704854668e-06
5.815323622e-06
5.934696731e-06
6.248212648e-06
4.989807494e-06
4.974789679e-06
4.986613302e-06
5.0543643e-06
5.092827056e-06
5.096702551e-06
5.118414293e-06
5.168719015e-06
4.809582309e-06
)
;

boundaryField
{
    flow
    {
        type            calculated;
        value           nonuniform List<scalar> 
15
(
8.74997328e-06
8.020535647e-06
8.168608969e-06
8.411868111e-06
8.402578799e-06
8.653151488e-06
8.958346613e-06
9.343110629e-06
9.290567697e-06
9.491144342e-06
9.929090459e-06
1.032726257e-05
1.034991674e-05
1.051206379e-05
1.058369805e-05
)
;
    }
    obstacle
    {
        type            calculated;
        value           nonuniform List<scalar> 
30
(
6.634749776e-24
6.408351069e-24
6.198734969e-24
6.190995464e-24
6.292743984e-24
6.270006433e-24
6.244510997e-24
5.840936211e-24
6.471779708e-24
6.136517494e-24
6.44223899e-24
6.147402317e-24
5.969410297e-24
6.249743332e-24
6.301840716e-24
5.843913015e-24
5.683127305e-24
5.671800325e-24
5.581101626e-24
5.667478747e-24
5.633460206e-24
5.582497719e-24
6.202103779e-24
5.531619353e-24
5.563349374e-24
5.084730618e-24
4.903719633e-24
5.253185989e-24
4.257699964e-24
4.124326903e-24
)
;
    }
    frontAndBack
    {
        type            empty;
    }
    procBoundary1to0
    {
        type            processor;
        value           nonuniform List<scalar> 
21
(
1.490837247e-05
1.266774895e-05
1.223927606e-05
1.116989264e-05
1.053842777e-05
9.307916086e-06
8.560727706e-06
7.659267321e-06
6.985991943e-06
6.246788049e-06
5.928718638e-06
5.577316748e-06
5.535886161e-06
5.142246335e-06
5.041533527e-06
5.046762011e-06
4.96575269e-06
5.00193339e-06
4.896195426e-06
4.949427625e-06
4.831911786e-06
)
;
    }
    procBoundary1to3
    {
        type            processor;
        value           nonuniform List<scalar> 
36
(
1.085885516e-05
1.075277876e-05
1.101230843e-05
1.100853008e-05
1.085885516e-05
1.106119497e-05
8.908432726e-06
9.383917359e-06
9.720134875e-06
1.016208994e-05
1.040411519e-05
1.075277876e-05
1.074452615e-05
6.478908519e-06
6.943506063e-06
7.193365128e-06
7.527723918e-06
8.908432726e-06
8.011573363e-06
5.273550735e-06
5.474634513e-06
5.501267671e-06
5.717523944e-06
5.84163767e-06
6.478908519e-06
5.995763817e-06
4.861672447e-06
4.868868322e-06
4.85463919e-06
4.939652289e-06
5.013041818e-06
5.014300868e-06
5.273550735e-06
5.140534165e-06
4.861672447e-06
4.918000163e-06
)
;
    }
}


// ************************************************************************* //
