/*--------------------------------*- C++ -*----------------------------------*\
| =========                 |                                                 |
| \\      /  F ield         | OpenFOAM: The Open Source CFD Toolbox           |
|  \\    /   O peration     | Version:  2406                                  |
|   \\  /    A nd           | Website:  www.openfoam.com                      |
|    \\/     M anipulation  |                                                 |
\*---------------------------------------------------------------------------*/
FoamFile
{
    version     2.0;
    format      ascii;
    arch        "LSB;label=32;scalar=64";
    class       volScalarField;
    location    "0.002";
    object      rhoN;
}
// * * * * * * * * * * * * * * * * * * * * * * * * * * * * * * * * * * * * * //

dimensions      [0 -3 0 0 0 0 0];

internalField   nonuniform List<scalar> 
546
(
3.252915806e+20
4.180916781e+20
3.528987708e+20
4.587658988e+20
2.311150417e+20
3.260228879e+20
2.346589049e+20
2.364719068e+20
3.217227415e+20
3.482657484e+20
3.268120377e+20
4.880259961e+20
2.58272728e+20
2.85161855e+20
1.999937504e+20
3.528712651e+20
3.049725702e+20
2.306445852e+20
3.359663447e+20
4.170182266e+20
1.97156203e+20
3.446979492e+20
2.407224623e+20
2.833187616e+20
2.450045941e+20
3.021373699e+20
4.018785065e+20
2.237522425e+20
2.399292716e+20
2.136728845e+20
2.916407277e+20
2.598948269e+20
1.707574697e+20
2.523212443e+20
3.351168104e+20
3.376665627e+20
2.933236311e+20
2.246483115e+20
1.787348564e+20
2.281741108e+20
3.268120377e+20
3.78220147e+20
2.336753252e+20
3.347552208e+20
2.374925784e+20
2.142432681e+20
2.795581893e+20
4.35661994e+20
3.747316918e+20
2.476045723e+20
2.760186844e+20
2.121218151e+20
1.738551118e+20
3.237928704e+20
3.130614258e+20
2.746703365e+20
2.355839523e+20
2.51721273e+20
2.25815785e+20
2.421626024e+20
2.692068253e+20
2.937941522e+20
2.845957829e+20
2.523212443e+20
3.351168107e+20
2.328734913e+20
2.698577404e+20
3.074134789e+20
2.38313142e+20
1.921466198e+20
3.268120375e+20
2.806149478e+20
4.427532477e+20
1.487800981e+20
2.374925786e+20
1.890381778e+20
2.41436618e+20
3.075261134e+20
2.067485198e+20
3.257954898e+20
3.285936714e+20
2.916674955e+20
2.273489923e+20
2.833187616e+20
2.450045941e+20
1.785357186e+20
6.928939768e+19
1.678141818e+20
1.975888119e+20
2.136728847e+20
1.009525595e+20
2.259955015e+20
3.187472769e+20
2.523212445e+20
2.542265458e+20
1.746551185e+20
1.642612334e+20
2.364719068e+20
2.978914273e+20
1.801374561e+20
2.783954396e+20
3.294175471e+20
1.721818186e+20
1.983734643e+20
2.49992188e+20
2.268458133e+20
2.795581893e+20
2.818989373e+20
2.325920846e+20
1.954772939e+20
2.628749375e+20
1.988642016e+20
2.006020519e+20
3.507756093e+20
2.313932277e+20
2.472033026e+20
1.801524341e+20
2.097677277e+20
1.552483523e+20
1.99428025e+20
1.682542658e+20
1.920961763e+20
2.390604575e+20
3.670127188e+20
2.7733805e+20
2.445171661e+20
3.40255412e+20
3.192370742e+20
2.859757702e+20
1.921466197e+20
2.178746918e+20
2.318123483e+20
2.21376624e+20
2.727635134e+20
1.749945316e+20
2.016407229e+20
1.397790948e+20
2.690853497e+20
1.550613898e+20
2.085091133e+20
3.154499245e+20
1.988642013e+20
1.738551116e+20
1.888791744e+20
2.450045945e+20
2.60936819e+20
2.355839513e+20
2.097677281e+20
2.258157852e+20
1.566934491e+20
1.682542661e+20
1.581968513e+20
2.162927952e+20
2.179138021e+20
2.195592897e+20
2.445171661e+20
2.346589049e+20
1.891775254e+20
2.025661706e+20
2.762107658e+20
2.057705421e+20
2.440129979e+20
2.705714289e+20
1.73576781e+20
2.24992969e+20
2.394483585e+20
2.668509989e+20
2.17830997e+20
1.550613898e+20
1.694136549e+20
2.628749375e+20
2.253794289e+20
1.604816425e+20
2.293532832e+20
2.450045924e+20
2.19736269e+20
2.910154718e+20
2.237522429e+20
1.552483518e+20
1.994280242e+20
2.243390211e+20
2.146957264e+20
1.138383131e+20
2.064446543e+20
2.080035375e+20
2.328734915e+20
2.815906858e+20
3.192370742e+20
2.025661706e+20
3.482657484e+20
2.17874692e+20
2.318123483e+20
1.8448052e+20
1.983734643e+20
2.374925784e+20
2.142432679e+20
2.287294276e+20
2.30644585e+20
3.618099108e+20
2.997318529e+20
1.840124575e+20
2.253794296e+20
2.273489927e+20
2.293532848e+20
2.994500631e+20
3.845384742e+20
2.078681941e+20
2.657057884e+20
1.975888131e+20
1.282037322e+20
2.01905119e+20
7.909842558e+19
2.959796144e+20
1.835063596e+20
2.311150417e+20
1.746551185e+20
2.463918501e+20
2.601190975e+20
2.740601133e+20
2.28174111e+20
2.783954393e+20
2.684142977e+20
2.090779225e+20
1.859751228e+20
2.374925791e+20
3.276661756e+20
2.414366177e+20
2.178309959e+20
3.230445606e+20
2.736682103e+20
1.840124547e+20
3.844707852e+20
1.471081705e+20
1.484050653e+20
2.722273253e+20
2.334697838e+20
1.801524317e+20
2.51721271e+20
1.552483518e+20
1.709383065e+20
2.243390213e+20
1.242975259e+20
1.47989807e+20
1.835063595e+20
1.848920335e+20
2.794481898e+20
2.346589049e+20
2.246483115e+20
1.549035422e+20
2.882199295e+20
1.815622428e+20
2.80614948e+20
1.967792215e+20
1.735767816e+20
3.124902352e+20
3.024610825e+20
2.668509985e+20
3.203397025e+20
1.938267371e+20
2.997318494e+20
3.023061782e+20
1.856065891e+20
1.471081718e+20
3.777583482e+20
2.313932265e+20
3.433379203e+20
2.217260738e+20
2.237522429e+20
3.387236766e+20
1.994280261e+20
1.346034127e+20
2.259955015e+20
1.935251324e+20
2.408520969e+20
2.080035375e+20
1.397240948e+20
1.407953427e+20
1.891775257e+20
2.978914271e+20
1.921466191e+20
2.057705431e+20
3.294175471e+20
1.967792204e+20
3.223568795e+20
1.999937497e+20
2.016407233e+20
1.779006671e+20
2.178309977e+20
2.196703021e+20
2.345727537e+20
3.023061782e+20
3.314403349e+20
2.942163435e+20
2.698273915e+20
2.313932286e+20
2.746703363e+20
2.217260718e+20
2.237522429e+20
1.834753248e+20
2.27917742e+20
1.570373148e+20
1.694966258e+20
1.479898065e+20
2.06444654e+20
8.089026458e+19
1.746551189e+20
1.877271247e+20
1.891775263e+20
1.429878853e+20
2.521924379e+20
1.694580927e+20
2.928155975e+20
2.213766247e+20
2.107718058e+20
2.374925797e+20
2.898585397e+20
1.524862836e+20
2.434581719e+20
2.584356495e+20
2.736682103e+20
3.154499251e+20
2.253794296e+20
1.872285822e+20
2.56336022e+20
2.994500579e+20
2.472033026e+20
2.217260738e+20
2.37736758e+20
2.540427597e+20
2.279177462e+20
2.243390219e+19
1.129977513e+20
1.707574706e+20
2.637903924e+20
2.426707936e+20
1.862987924e+20
1.407953419e+20
1.773539282e+20
1.549035412e+20
2.161649484e+20
2.17874694e+20
1.220064999e+20
2.582727288e+20
1.115850737e+20
1.999937497e+20
2.016407233e+20
1.779006671e+20
2.56271762e+20
3.101227794e+20
2.867000299e+20
2.23443695e+20
2.78409879e+20
1.87228579e+20
2.428446524e+20
2.994500631e+20
2.334697879e+20
1.940103145e+20
8.390709107e+19
3.246101901e+20
4.273457662e+20
1.233864613e+20
1.016979751e+20
1.138383129e+20
8.028403246e+19
1.155575207e+20
1.746551192e+20
1.7599418e+20
2.128247171e+20
1.668191995e+20
1.681282919e+20
1.452497938e+20
1.708090972e+20
1.967792204e+20
1.735767813e+20
2.749914059e+20
2.646534471e+20
2.668509985e+20
2.178309977e+20
2.196703021e+20
1.694136554e+20
2.891624337e+20
2.518946567e+20
2.407224629e+20
2.428446524e+20
2.313932265e+20
1.373351669e+20
2.910154692e+20
2.657057884e+20
3.387236766e+20
1.851831654e+20
1.009525592e+20
1.694966264e+20
1.024544816e+20
1.376297689e+20
1.61780529e+20
1.164367452e+20
9.386356124e+19
5.911797652e+19
2.263974851e+20
8.406414597e+19
2.299788401e+20
2.440129979e+20
1.721818179e+20
2.479668284e+20
1.124964842e+20
2.394483589e+20
1.27071904e+20
8.969511596e+19
1.162960423e+20
2.736682103e+20
1.445812144e+20
3.579555617e+20
2.54095933e+20
2.698273915e+20
3.811182555e+20
2.060027522e+20
3.048733487e+20
1.678141806e+20
1.834753248e+20
2.848971801e+20
7.851865773e+19
1.129977517e+20
1.366059765e+20
5.734573747e+19
8.089026512e+19
1.280804207e+20
1.055965072e+20
2.364719079e+20
1.191565711e+20
1.801374556e+20
8.472904702e+19
1.220064999e+20
2.090779234e+20
1.611784398e+20
1.874941419e+20
2.646534493e+20
3.303869505e+20
2.050174096e+20
2.584356517e+20
2.476045733e+20
2.234436969e+20
3.049251107e+20
2.006020524e+20
2.158619132e+20
2.313932286e+20
2.197362709e+20
1.940103145e+20
1.398451518e+20
2.540427597e+20
2.564074621e+20
8.973560819e+19
1.355973001e+20
1.593736381e+20
1.376297699e+20
1.155575207e+20
6.986204766e+19
1.525282893e+20
1.655303355e+20
1.549035436e+20
9.607331042e+19
1.573539432e+20
1.342071478e+20
1.598831166e+20
1.859751228e+20
1.624949217e+20
2.268458137e+20
2.541438101e+20
2.818989382e+20
3.488881269e+20
1.694136554e+20
2.628749398e+20
3.049251107e+20
2.273489927e+20
4.182324569e+20
3.130614241e+20
3.296044006e+20
2.217260718e+20
2.517212732e+20
2.822697305e+20
7.851865717e+19
6.779865055e+19
9.1070651e+19
1.146914749e+20
5.777876037e+19
9.314939619e+19
8.213061608e+19
1.537067378e+20
9.532525615e+19
1.561191294e+20
1.694580953e+20
2.074110498e+20
1.229870137e+20
1.115850737e+20
1.374957029e+20
1.890381765e+20
1.90607856e+20
2.306445858e+20
2.455138671e+20
1.563818345e+20
2.365874418e+20
2.253794258e+20
2.674694009e+20
2.293532848e+20
3.811182621e+20
1.009525599e+20
1.016979758e+20
1.252221433e+20
1.261606215e+20
1.271132728e+20
1.862987938e+20
5.866472665e+19
1.537067401e+20
1.549035424e+20
1.801374556e+20
1.089373453e+20
1.464077987e+20
1.721818192e+20
9.918673216e+19
1.999937513e+20
1.890381796e+20
1.524862848e+20
1.793902319e+20
1.679831722e+20
1.009525599e+20
1.016979758e+20
6.830298825e+19
6.881488497e+19
1.040017687e+20
5.821837262e+19
7.039767093e+19
1.655303343e+20
1.07240914e+20
1.441099645e+20
1.089373462e+20
1.464077987e+20
2.090779217e+20
1.363817567e+20
1.009525592e+20
1.016979751e+20
1.707574694e+20
1.376297699e+20
1.155575216e+20
1.397240953e+20
1.642612334e+20
7.094157237e+19
1.009525599e+20
)
;

boundaryField
{
    flow
    {
        type            zeroGradient;
    }
    obstacle
    {
        type            calculated;
        value           nonuniform List<scalar> 
30
(
207.3648382
256.0926504
55.93145002
177.2300031
96.87153477
70.40702044
1e-300
1e-300
480.3284237
62.84395655
234.0280147
155.0061775
190.7311666
222.8059734
1e-300
250.8009537
1e-300
112.3682643
199.1358669
119.6618945
1e-300
362.7324354
1e-300
1e-300
1e-300
1e-300
361.2290741
70.57255458
111.945718
48.00935829
)
;
    }
    frontAndBack
    {
        type            empty;
    }
    procBoundary1to0
    {
        type            processor;
        value           nonuniform List<scalar> 
21
(
3.117893059e+20
2.672479765e+20
3.117893059e+20
3.117893059e+20
2.115713149e+20
1.558946531e+20
2.115713147e+20
1.670299853e+20
1.670299853e+20
1.224886559e+20
1.447593206e+20
1.002179916e+20
1.336239882e+20
1.002179905e+20
1.781653177e+20
4.454132941e+19
1.55894653e+20
6.681199412e+19
1.224886568e+20
4.454132941e+19
1.113533235e+20
)
;
    }
    procBoundary1to3
    {
        type            processor;
        value           nonuniform List<scalar> 
36
(
3.561214751e+20
2.609368218e+20
2.355839534e+20
1.53829667e+20
3.561214751e+20
1.552483518e+20
1.824454736e+20
2.1029995e+20
2.386370432e+20
1.738551121e+20
2.158619132e+20
2.609368218e+20
2.04170494e+20
1.874941404e+20
1.26025451e+20
7.624314242e+19
1.537630572e+20
1.824454736e+20
1.292178248e+20
1.668191995e+20
1.921466194e+20
7.262489688e+19
7.320389936e+19
2.090779234e+20
1.874941404e+20
1.487800982e+20
7.909842621e+19
9.1070651e+19
1.376297699e+20
8.089026452e+19
8.150572227e+19
1.40795344e+20
1.668191995e+20
8.276516776e+19
7.909842621e+19
1.233864613e+20
)
;
    }
}


// ************************************************************************* //
