/*--------------------------------*- C++ -*----------------------------------*\
| =========                 |                                                 |
| \\      /  F ield         | OpenFOAM: The Open Source CFD Toolbox           |
|  \\    /   O peration     | Version:  2406                                  |
|   \\  /    A nd           | Website:  www.openfoam.com                      |
|    \\/     M anipulation  |                                                 |
\*---------------------------------------------------------------------------*/
FoamFile
{
    version     2.0;
    format      ascii;
    arch        "LSB;label=32;scalar=64";
    class       volScalarField;
    location    "0.002";
    object      rhoNMean;
}
// * * * * * * * * * * * * * * * * * * * * * * * * * * * * * * * * * * * * * //

dimensions      [0 -3 0 0 0 0 0];

internalField   nonuniform List<scalar> 
546
(
3.075912319e+20
3.04653236e+20
2.978693302e+20
2.986910075e+20
2.932387649e+20
2.878549227e+20
2.970312418e+20
2.884602555e+20
3.031104851e+20
3.003491851e+20
2.94457646e+20
2.884111631e+20
2.755401047e+20
2.840584026e+20
2.855660763e+20
2.769913406e+20
2.705869129e+20
2.70840811e+20
2.723394877e+20
2.731730021e+20
2.604564879e+20
2.699250094e+20
2.758010744e+20
2.744414404e+20
2.658027618e+20
2.525456407e+20
2.478066019e+20
2.375829279e+20
2.2105954e+20
1.819638284e+20
2.737945585e+20
2.684713562e+20
2.664727235e+20
2.679766306e+20
2.597733068e+20
2.624600686e+20
2.67839674e+20
2.659836008e+20
2.607741554e+20
2.624722824e+20
2.582299264e+20
2.554206057e+20
2.550504681e+20
2.588277774e+20
2.595793882e+20
2.572053447e+20
2.540294438e+20
2.511975803e+20
2.497005246e+20
2.469399495e+20
2.33616957e+20
2.418056116e+20
2.450420933e+20
2.35586296e+20
2.34265226e+20
2.372327696e+20
2.317868933e+20
2.160188058e+20
2.010183891e+20
1.671064405e+20
2.550285992e+20
2.600643235e+20
2.509679452e+20
2.477565236e+20
2.440228169e+20
2.472068547e+20
2.480696611e+20
2.440981258e+20
2.497521728e+20
2.484215611e+20
2.546834104e+20
2.457088884e+20
2.490364031e+20
2.457599254e+20
2.397925067e+20
2.392719229e+20
2.40369214e+20
2.364875812e+20
2.396344562e+20
2.345597209e+20
2.312379384e+20
2.297279255e+20
2.400404155e+20
2.2715419e+20
2.232264079e+20
2.207937498e+20
2.155316004e+20
2.119912652e+20
1.892759683e+20
1.701833302e+20
2.316861241e+20
2.407756073e+20
2.466876246e+20
2.398313429e+20
2.443463778e+20
2.427473274e+20
2.384369132e+20
2.423009393e+20
2.415303692e+20
2.387902118e+20
2.402794726e+20
2.429027387e+20
2.422721174e+20
2.464542327e+20
2.312927723e+20
2.330084579e+20
2.302669977e+20
2.332457434e+20
2.363910886e+20
2.309890023e+20
2.23956303e+20
2.172790267e+20
2.196993672e+20
2.20044238e+20
2.231583511e+20
2.120592331e+20
2.085333714e+20
1.986360536e+20
1.904050474e+20
1.752544994e+20
2.258533095e+20
2.304250133e+20
2.356339242e+20
2.381453779e+20
2.395854079e+20
2.380549267e+20
2.363015172e+20
2.39593336e+20
2.438777537e+20
2.402193021e+20
2.378586427e+20
2.375588545e+20
2.404888059e+20
2.388292527e+20
2.347801633e+20
2.33865431e+20
2.324653418e+20
2.353215451e+20
2.256660094e+20
2.294121519e+20
2.218795907e+20
2.179153918e+20
2.121032362e+20
2.157539827e+20
2.125006516e+20
2.127596421e+20
2.173192661e+20
2.042578291e+20
1.915905803e+20
1.749553583e+20
2.032848043e+20
2.127069663e+20
2.210853882e+20
2.23659845e+20
2.23742472e+20
2.314063885e+20
2.304937093e+20
2.316478799e+20
2.375743711e+20
2.34863215e+20
2.31092423e+20
2.336546461e+20
2.327898185e+20
2.336591439e+20
2.389550327e+20
2.400280756e+20
2.313216945e+20
2.34129881e+20
2.316746382e+20
2.281610976e+20
2.259541526e+20
2.172525118e+20
2.150454009e+20
2.188435063e+20
2.195241148e+20
2.107133485e+20
2.074663156e+20
2.07278484e+20
1.970948393e+20
1.803541582e+20
1.845973635e+20
1.994410301e+20
2.048520444e+20
2.153332436e+20
2.16554794e+20
2.278550678e+20
2.266805021e+20
2.265637339e+20
2.278511949e+20
2.324854008e+20
2.339611068e+20
2.323857789e+20
2.34843702e+20
2.376762069e+20
2.346051686e+20
2.277027862e+20
2.297460029e+20
2.262238972e+20
2.280565399e+20
2.218276348e+20
2.234436984e+20
2.188566838e+20
2.200604515e+20
2.198688519e+20
2.21048592e+20
2.172505044e+20
2.070228635e+20
2.060618312e+20
1.96713777e+20
1.864794509e+20
1.710585036e+20
1.784686477e+20
1.896660137e+20
1.999301788e+20
2.047217039e+20
2.109018774e+20
2.198871268e+20
2.25393198e+20
2.263736536e+20
2.268651122e+20
2.304993196e+20
2.29616231e+20
2.307113382e+20
2.313654511e+20
2.400674987e+20
2.379864638e+20
2.317537386e+20
2.290044446e+20
2.272941528e+20
2.307674604e+20
2.295555373e+20
2.245707114e+20
2.22547915e+20
2.200847119e+20
2.174687988e+20
2.164951571e+20
2.129124585e+20
2.047612694e+20
2.036293836e+20
1.942428956e+20
1.555566774e+20
1.643665284e+20
1.718047821e+20
1.789301697e+20
1.927383891e+20
1.99758881e+20
2.043292414e+20
2.128365397e+20
2.177467177e+20
2.202600719e+20
2.236241623e+20
2.29140406e+20
2.306990398e+20
2.324069122e+20
2.318177561e+20
2.364237461e+20
2.344349557e+20
2.350780873e+20
2.358612955e+20
2.320185151e+20
2.266244837e+20
2.232449539e+20
2.243800823e+20
2.224861757e+20
2.208444177e+20
2.159320849e+20
2.162106377e+20
2.099774954e+20
2.006090975e+20
1.935448993e+20
1.365327283e+20
1.451343111e+20
1.554689843e+20
1.635271046e+20
1.726544919e+20
1.80290657e+20
1.897569231e+20
1.975249841e+20
2.077852282e+20
2.140513336e+20
2.165069238e+20
2.189040604e+20
2.260009347e+20
2.304851689e+20
2.30542795e+20
2.320632674e+20
2.337868909e+20
2.315159098e+20
2.303824598e+20
2.300507122e+20
2.338666882e+20
2.308813373e+20
2.28579352e+20
2.197744104e+20
2.244786544e+20
2.242408625e+20
2.173469819e+20
2.149000447e+20
2.048854839e+20
1.976616617e+20
1.284901743e+20
1.354165042e+20
1.4235481e+20
1.495576827e+20
1.585449186e+20
1.658990756e+20
1.743633e+20
1.858078016e+20
1.946422589e+20
2.050204429e+20
2.130209267e+20
2.156464869e+20
2.165186377e+20
2.229965706e+20
2.274303941e+20
2.257619948e+20
2.289835692e+20
2.327460123e+20
2.301757113e+20
2.341687653e+20
2.35588519e+20
2.341294546e+20
2.308795888e+20
2.290834554e+20
2.175232443e+20
2.192555959e+20
2.221972417e+20
2.241997473e+20
2.177428721e+20
2.065789472e+20
1.225003229e+20
1.27687459e+20
1.337486348e+20
1.382261656e+20
1.448860195e+20
1.53614998e+20
1.632521989e+20
1.699878284e+20
1.782105664e+20
1.83211803e+20
1.885221311e+20
1.995172293e+20
2.099019363e+20
2.114041213e+20
2.13168338e+20
2.213889116e+20
2.23583017e+20
2.284662758e+20
2.335482965e+20
2.337256834e+20
2.299761372e+20
2.310006539e+20
2.315215114e+20
2.299873772e+20
2.323596376e+20
2.304896147e+20
2.238186136e+20
2.161306821e+20
2.141157041e+20
2.150403896e+20
1.164319516e+20
1.195064205e+20
1.257799519e+20
1.289361561e+20
1.350174072e+20
1.425767956e+20
1.500643708e+20
1.537303873e+20
1.619337801e+20
1.691130434e+20
1.792261414e+20
1.888050556e+20
1.966193373e+20
2.043618633e+20
2.124058618e+20
2.154027009e+20
2.208128476e+20
2.223798215e+20
2.26389629e+20
2.285129575e+20
2.305676097e+20
2.337052109e+20
2.312272991e+20
2.320110826e+20
2.284803942e+20
2.250374045e+20
2.260497302e+20
2.208434637e+20
2.234870591e+20
2.157668774e+20
1.091297165e+20
1.123084646e+20
1.148742416e+20
1.209650977e+20
1.244323383e+20
1.288256149e+20
1.34776341e+20
1.432428571e+20
1.503398458e+20
1.599380423e+20
1.695549259e+20
1.756283552e+20
1.846404023e+20
1.932901428e+20
1.988437857e+20
2.059003835e+20
2.132901909e+20
2.194711352e+20
2.192180397e+20
2.205114184e+20
2.239957324e+20
2.265063249e+20
2.323506706e+20
2.349252184e+20
2.300320899e+20
2.269463653e+20
2.271167869e+20
2.25248584e+20
2.197893256e+20
2.189862175e+20
1.089165952e+20
1.122519666e+20
1.147148688e+20
1.157925131e+20
1.195442561e+20
1.244941689e+20
1.298250391e+20
1.36467938e+20
1.419035605e+20
1.46415724e+20
1.50926641e+20
1.568637569e+20
1.67373027e+20
1.783377444e+20
1.877816329e+20
1.97242435e+20
2.047382518e+20
2.081823659e+20
2.148117137e+20
2.20889343e+20
2.252969652e+20
2.285479993e+20
2.302777827e+20
2.307698766e+20
2.336118813e+20
2.328243126e+20
2.28946029e+20
2.303669185e+20
2.255052897e+20
2.205389071e+20
1.053047362e+20
1.050766078e+20
1.066664992e+20
1.088995555e+20
1.129574765e+20
1.15260735e+20
1.195117811e+20
1.233555707e+20
1.292967963e+20
1.342504421e+20
1.423205896e+20
1.515198698e+20
1.56365688e+20
1.648483488e+20
1.743945498e+20
1.816782917e+20
1.889178013e+20
1.974958334e+20
2.035826829e+20
2.119495148e+20
2.14913407e+20
2.201426723e+20
2.233235782e+20
2.308103507e+20
2.318424016e+20
2.307230804e+20
2.311771456e+20
2.313598191e+20
2.305014619e+20
1.037792309e+20
1.05257405e+20
1.066095808e+20
1.092665682e+20
1.098489792e+20
1.122100914e+20
1.161913559e+20
1.208844375e+20
1.227908456e+20
1.277054479e+20
1.334482501e+20
1.371963091e+20
1.420377022e+20
1.491396501e+20
1.562576166e+20
1.626862547e+20
1.740249726e+20
1.850153986e+20
1.940980946e+20
1.957770249e+20
2.01178188e+20
2.116975689e+20
2.165566004e+20
2.201251879e+20
2.229677947e+20
1.057870659e+20
1.065455793e+20
1.088977293e+20
1.081655292e+20
1.104498783e+20
1.112436672e+20
1.118619008e+20
1.137784585e+20
1.183343908e+20
1.212445168e+20
1.230144712e+20
1.280946232e+20
1.331580398e+20
1.377331759e+20
1.452329623e+20
1.532343484e+20
1.601868422e+20
1.687805811e+20
1.749997001e+20
1.03240818e+20
1.039579308e+20
1.051296827e+20
1.058946388e+20
1.068098164e+20
1.080067249e+20
1.09738236e+20
1.118275644e+20
1.136634532e+20
1.130542672e+20
1.189232696e+20
1.211890554e+20
1.237741296e+20
1.304057561e+20
1.040372207e+20
1.037319346e+20
1.039571474e+20
1.052638357e+20
1.060009146e+20
1.061204504e+20
1.066642052e+20
1.07712954e+20
1.002907598e+20
)
;

boundaryField
{
    flow
    {
        type            calculated;
        value           nonuniform List<scalar> 
15
(
1.819638284e+20
1.671064405e+20
1.701833302e+20
1.752544994e+20
1.749553583e+20
1.803541582e+20
1.864794509e+20
1.942428956e+20
1.935448993e+20
1.976616617e+20
2.065789472e+20
2.150403896e+20
2.157668774e+20
2.189862175e+20
2.205389071e+20
)
;
    }
    obstacle
    {
        type            calculated;
        value           nonuniform List<scalar> 
30
(
138.5183599
133.6500694
129.3842079
128.767333
131.3202443
130.5793863
129.8632603
121.4174935
134.8815466
127.7109913
134.3962172
128.4051271
124.5556098
129.7264165
131.8369599
122.2254759
118.7114484
118.5806069
115.9919834
118.3668476
117.1620274
116.1681812
129.5884021
114.6753789
115.6463032
106.02186
102.3847166
110.0494785
88.61745451
85.83084462
)
;
    }
    frontAndBack
    {
        type            empty;
    }
    procBoundary1to0
    {
        type            processor;
        value           nonuniform List<scalar> 
21
(
3.104976073e+20
2.637848881e+20
2.552663589e+20
2.327729875e+20
2.193215062e+20
1.941556551e+20
1.784659716e+20
1.5964726e+20
1.456501472e+20
1.301052232e+20
1.237469484e+20
1.163864943e+20
1.154511258e+20
1.071775731e+20
1.052288907e+20
1.051954847e+20
1.033804256e+20
1.042155755e+20
1.021889457e+20
1.031688543e+20
1.007858931e+20
)
;
    }
    procBoundary1to3
    {
        type            processor;
        value           nonuniform List<scalar> 
36
(
2.263508096e+20
2.242957986e+20
2.295419179e+20
2.29429956e+20
2.263508096e+20
2.304026675e+20
1.857294921e+20
1.956315285e+20
2.02589592e+20
2.118625143e+20
2.169547142e+20
2.242957986e+20
2.238797524e+20
1.351957748e+20
1.447906407e+20
1.501100402e+20
1.570177086e+20
1.857294921e+20
1.670140385e+20
1.099219368e+20
1.141591102e+20
1.145536707e+20
1.192369514e+20
1.217448449e+20
1.351957748e+20
1.248884941e+20
1.013137842e+20
1.014071699e+20
1.012152266e+20
1.029848625e+20
1.045019796e+20
1.04517077e+20
1.099219368e+20
1.071808922e+20
1.013137842e+20
1.026351019e+20
)
;
    }
}


// ************************************************************************* //
