/*--------------------------------*- C++ -*----------------------------------*\
| =========                 |                                                 |
| \\      /  F ield         | OpenFOAM: The Open Source CFD Toolbox           |
|  \\    /   O peration     | Version:  2406                                  |
|   \\  /    A nd           | Website:  www.openfoam.com                      |
|    \\/     M anipulation  |                                                 |
\*---------------------------------------------------------------------------*/
FoamFile
{
    version     2.0;
    format      ascii;
    arch        "LSB;label=32;scalar=64";
    class       volScalarField;
    location    "0.002";
    object      translationalT;
}
// * * * * * * * * * * * * * * * * * * * * * * * * * * * * * * * * * * * * * //

dimensions      [1 2 -2 0 0 0 0];

internalField   nonuniform List<scalar> 
546
(
943.1280724
915.7790596
906.528407
899.1481724
889.1983701
890.8707092
883.3555402
865.1069641
839.7250855
843.8534811
843.0990144
839.1448725
834.4683959
839.7011663
822.3221294
818.6639074
808.7992379
797.5701779
802.6763134
813.9970855
829.5505314
809.6667227
807.5801551
809.7505487
792.6572796
796.052853
781.0775332
778.1577975
786.8705667
772.7790398
1030.671875
1022.540681
1021.079378
995.3283826
981.9203759
979.3783559
962.296136
950.2444277
958.3149018
962.1213701
944.4532398
929.6309738
931.9689643
931.440232
911.8241783
903.6800364
900.5463955
898.1409146
899.4998827
919.4640161
926.7867736
915.1696431
889.8057957
898.4484698
881.3729673
878.3266612
858.4221769
843.7947256
833.587059
774.8905285
1021.11504
1044.016107
1019.132254
1024.831773
1028.420275
1007.542881
998.9334101
1001.288481
978.6089775
986.4136839
979.1523658
971.22825
979.9360177
968.8365544
956.4654795
957.0836047
945.4727474
951.3734473
943.4736718
930.4515606
934.5729185
925.7790054
919.0703089
932.8225068
928.5883658
901.9702886
889.6053825
868.8392176
846.0954489
782.9785797
1031.450326
1045.850345
1034.414057
1004.307093
1007.706406
1001.048702
989.078945
999.9208726
986.2466306
997.9661446
977.7270106
966.5192768
983.1990754
966.7796218
977.0141235
964.9133948
955.3037393
952.0015899
942.5176154
945.1248522
961.1368024
946.5538443
951.6417545
961.16578
935.8787576
911.6675968
881.4017856
868.0550551
835.1442669
783.4926352
995.4347863
1005.339981
1009.481471
977.4600423
979.7015138
980.4704218
960.1374186
958.4655882
951.2688041
953.6140019
959.2250485
951.8154842
955.8527809
957.8291591
939.2007377
947.013289
953.7278263
947.6393719
951.2879953
945.7846826
938.886326
939.5620331
944.837955
955.8390202
936.776397
905.364947
888.9219153
865.941615
841.1721892
766.4104165
969.2213431
982.1293966
967.6064976
953.6088096
933.7946032
935.29582
923.7928794
928.6682127
945.5623037
932.9628555
930.6401875
944.0964407
942.8019625
929.688006
930.161358
933.7504387
925.6254369
933.069332
915.6540198
925.8278545
917.8585581
907.9059342
909.9447595
898.3879703
913.2584619
907.2791947
886.393611
867.4920579
832.6755458
777.707954
941.6842498
964.8115733
940.8489327
938.1350137
904.4723426
928.5511191
902.2626571
906.8756566
921.4524287
920.4081119
918.4964848
909.2202334
909.963374
926.9975867
938.3791167
926.867599
932.0901677
918.6904647
922.7170339
914.4431828
919.1324501
898.0296115
906.8559507
895.7485353
898.6093025
874.2409118
876.8567454
884.0815772
834.4409434
789.8516289
902.9265961
902.4790697
898.9421795
909.5099671
894.4763158
911.3252291
898.2394147
880.3754161
885.7817893
886.3102976
890.833226
882.9199623
891.436054
890.9746627
907.5626645
905.1655087
901.0945863
892.4308066
905.9763096
906.4433967
899.1634299
883.844855
882.9880828
885.3605208
894.2741834
888.7589353
846.6090428
834.5532216
820.1111939
785.5662831
846.9966465
876.8115612
879.8965421
877.3654954
891.3531515
892.9477813
874.255703
879.8684741
890.7184694
873.9617817
867.218955
869.1656235
873.5724842
870.4454955
872.266224
870.7101495
861.7166611
864.3839987
863.8157048
879.6709773
865.1104895
859.4769806
873.5848362
863.1386607
868.8771894
876.2338828
863.9242535
848.9996568
829.004394
796.4573963
782.5805908
808.1202468
846.6329922
862.9135384
872.2920861
855.6669907
842.9456098
860.1558711
864.9927985
868.2959692
855.4617742
852.4210893
852.6925205
864.6672176
847.7964328
848.4754131
851.4577654
849.6912254
845.3820796
850.8764857
863.044592
858.3853427
862.881997
850.7511869
864.6297167
856.7906732
844.8605077
834.3584045
819.6997449
782.602619
701.2735103
739.8297824
781.3748282
782.3580927
814.6653094
826.9860732
837.9658622
840.778823
844.3767122
836.5037254
829.234234
838.0945999
841.7100417
847.4750903
842.3490652
834.9122771
834.3868502
831.3848227
829.1776154
830.7636148
844.8805414
836.9913994
862.3402202
857.7883107
832.5819434
849.0111791
842.6564225
819.4620968
798.2498136
780.2834969
643.5347614
670.1974624
710.2599754
724.833552
764.6190445
782.5625387
811.4898614
813.6019008
836.9608365
823.5658219
822.0127978
835.3813925
824.4513645
822.7024198
826.8762745
824.1550032
827.8448191
816.5776052
819.4075254
823.2998758
823.9452136
817.506861
822.0037294
812.0762347
816.6434792
814.8727577
816.7055104
804.1097179
796.0265595
769.9078013
555.5457676
600.360495
652.1376848
648.8235321
685.5094568
721.7124241
745.0322705
759.1542376
773.6406516
799.5245531
803.4378465
800.3442546
810.7767032
808.0023518
808.7670537
803.2029639
824.3586794
812.8175196
818.3040341
810.2095039
816.5771917
823.0175103
815.7953527
830.116136
827.3907163
803.98372
790.0720738
782.2781067
789.54022
765.446569
522.181591
559.1837102
592.7916882
613.1441161
646.6731111
675.5805387
693.2661382
717.2350109
733.4406834
760.3270411
762.6513234
762.1539586
783.3164165
798.2243874
794.1357909
800.160015
814.8019113
806.4688219
800.2390647
800.1184208
798.3685577
801.2858218
802.1194598
807.7819851
795.4226554
791.3614819
799.3433661
801.8126685
779.1488351
766.1224931
460.3545702
502.9803827
506.3099493
530.3896299
571.9482067
611.0759545
626.2917334
669.5199046
687.8391691
706.5344065
723.6726441
738.8052319
769.7177629
770.2229609
768.684713
771.1273559
774.7773775
779.8909835
771.2879245
765.7792963
773.1641691
781.23804
785.5597364
793.9989324
791.2450057
785.5032528
767.062257
769.1628544
775.3928656
755.916746
436.3593839
458.5040714
471.205154
493.6825278
523.1133156
543.482113
589.88317
632.7568279
658.5193772
656.3416806
674.8888846
695.5821096
700.4638902
722.4061771
747.7066283
739.518171
755.2411197
757.9960045
769.1128813
763.4368555
746.4749837
751.775373
766.831806
766.2860425
761.6655697
758.2613125
745.8655396
758.4738682
751.2825002
390.2421515
409.4017508
427.0652516
450.418794
476.6883848
489.0711858
518.6659992
566.2917827
597.3632724
609.227086
638.2137783
660.6991717
670.1526048
684.3530607
713.5018827
711.1245714
741.8694836
757.2278961
765.6387459
765.3319186
741.0256068
767.2312442
759.9411542
768.0757808
757.2989388
365.1183387
377.3604904
407.8434323
422.401224
442.4746218
443.2478439
462.2134721
496.6218253
514.2487883
555.6339779
587.3015908
598.1339693
633.3375274
648.2577326
676.379932
691.2118622
703.8233555
726.1121
721.2958439
352.7803937
362.3857359
371.8969877
387.6874708
416.3449281
428.0102919
433.817349
462.564203
485.2763461
510.5901723
559.2439217
569.0731725
578.7515847
593.8855421
344.5772755
351.0160117
343.7914529
358.750494
382.8225128
407.131538
398.3406825
418.6517272
337.0771453
)
;

boundaryField
{
    flow
    {
        type            calculated;
        value           nonuniform List<scalar> 
15
(
772.7790398
774.8905285
782.9785797
783.4926352
766.4104165
777.707954
789.8516289
785.5662831
796.4573963
782.602619
780.2834969
769.9078013
765.446569
766.1224931
755.916746
)
;
    }
    obstacle
    {
        type            calculated;
        value           nonuniform List<scalar> 
30
(
807.9742412
821.4449877
775.1133176
812.4251324
749.0040201
751.4950933
773.9879717
814.7195991
719.3028915
727.4544884
798.2477135
735.0387744
729.5820736
746.0164002
707.9098384
718.2893092
728.6613816
690.3268276
726.9209366
698.9937389
752.0108299
735.9298473
669.8876949
772.7679425
701.3001113
763.5919373
756.7978702
729.0349406
750.7783132
748.6410832
)
;
    }
    frontAndBack
    {
        type            empty;
    }
    procBoundary1to0
    {
        type            processor;
        value           nonuniform List<scalar> 
21
(
955.2323086
1074.217386
1055.721215
1047.251372
1011.447457
980.0036049
955.5782553
880.9152561
813.3463753
751.6554433
653.5516044
591.2919287
539.5148299
481.8711728
435.8106218
405.9587135
380.8081882
348.6305688
338.7573531
326.8948517
326.1145714
)
;
    }
    procBoundary1to3
    {
        type            processor;
        value           nonuniform List<scalar> 
36
(
745.6458423
762.4421914
757.5689523
745.991991
745.6458423
736.5634439
747.1118982
746.595604
739.3478021
729.3182996
741.7594439
762.4421914
752.6002527
620.6676348
665.7172521
659.6401221
689.9693221
747.1118982
704.92859
454.7096905
455.7680927
477.8642921
525.5458356
530.183272
620.6676348
563.8328283
330.9438281
332.2186703
342.2489495
358.4187701
382.3352769
382.7287109
454.7096905
404.7965536
330.9438281
330.8908446
)
;
    }
}


// ************************************************************************* //
