/*--------------------------------*- C++ -*----------------------------------*\
| =========                 |                                                 |
| \\      /  F ield         | OpenFOAM: The Open Source CFD Toolbox           |
|  \\    /   O peration     | Version:  2406                                  |
|   \\  /    A nd           | Website:  www.openfoam.com                      |
|    \\/     M anipulation  |                                                 |
\*---------------------------------------------------------------------------*/
FoamFile
{
    version     2.0;
    format      ascii;
    arch        "LSB;label=32;scalar=64";
    class       volVectorField;
    location    "0.002";
    object      UMean;
}
// * * * * * * * * * * * * * * * * * * * * * * * * * * * * * * * * * * * * * //

dimensions      [0 1 -1 0 0 0 0];

internalField   nonuniform List<vector> 
546
(
(369.6093799 104.2215368 9.156636934)
(351.7029167 97.75261933 7.190700996)
(355.0063565 97.88764689 1.807000797)
(339.0493763 91.9832634 -9.626593843)
(336.2387018 92.78807214 -9.379306832)
(339.0443896 92.64730079 -1.459154399)
(320.6767512 85.67350489 -6.444374003)
(321.1062139 91.39025862 1.355197372)
(305.1908341 78.07582007 8.173431435)
(291.0980231 82.11295357 -4.183451102)
(284.0727176 81.18646511 5.355523819)
(279.374881 72.66323417 -3.093781635)
(279.4447004 80.09170509 -15.50641609)
(275.7887022 70.64069549 2.227277476)
(265.0780015 75.72823905 -3.232330894)
(269.425951 69.09051586 -12.39812141)
(264.0401786 76.9508646 -3.626880173)
(260.186539 68.09769029 -8.104161252)
(250.3418274 70.00985887 -0.4897285527)
(250.4658331 61.9316638 -16.44827761)
(271.5944333 69.17160652 -16.03230006)
(266.3347417 70.5179421 -8.476802576)
(251.9057631 69.02117529 -6.648818402)
(268.3894872 63.63862736 18.455441)
(274.5140963 72.72887719 -2.901454827)
(281.9243403 77.78441966 -9.301347029)
(277.6506859 76.26509372 1.759678591)
(295.7908826 72.85707099 13.37699717)
(322.3687414 81.1579428 14.80096154)
(427.4482001 82.616273 -0.8320298382)
(643.9474883 203.4299416 -6.11905583)
(640.2135185 183.9652551 -4.100538695)
(610.3944234 174.2760392 -3.72072082)
(593.7125091 177.0823165 -4.292095467)
(596.8416291 163.9479835 -7.977398109)
(576.9433303 162.0356045 -8.721324211)
(542.5847693 156.0655176 -9.294398071)
(543.769389 147.3172402 0.7117246853)
(522.9828698 157.033431 -4.719271153)
(518.1810269 150.0024356 -10.10784633)
(497.8459502 154.4126649 0.7680830954)
(497.2951106 137.5325663 -3.466083173)
(488.1613627 141.3712323 -5.763047739)
(466.5858365 123.859089 20.59353573)
(454.5028862 121.3057419 5.961392157)
(448.0143184 129.4252184 -14.34267927)
(448.785443 127.6517099 -6.278925716)
(448.3787155 116.1599234 -2.982330922)
(439.65978 122.3178879 0.6991459987)
(428.2172525 114.0828871 -4.455664412)
(446.873509 103.4700925 -7.965483167)
(434.671542 117.7097379 1.272483783)
(436.9493748 111.9719818 -23.72883433)
(438.2261272 106.4512456 -5.642791808)
(433.4824429 121.8028619 -13.1855011)
(425.7240007 118.2413253 -19.79169051)
(439.6785154 115.3632279 -0.4830917652)
(459.4914429 112.913661 -4.740371507)
(510.0545444 119.5054823 1.36884938)
(641.4873696 90.51233326 -6.424961787)
(847.44663 267.8025889 -9.864795082)
(817.4490621 256.1296264 -10.42533009)
(818.14907 257.2734782 -12.03932932)
(796.6632001 235.0488793 -9.761832705)
(781.2564154 226.3145715 -4.466452673)
(745.2624447 224.1447041 2.76788846)
(738.6579606 215.2523274 -11.93500467)
(722.9926071 215.0281124 -11.4404201)
(697.6957956 207.7315135 -13.15656116)
(687.9924039 198.2826056 -14.87596121)
(676.6329195 210.2240761 1.272344859)
(669.4428895 194.6167645 -3.79024)
(638.1624873 185.1888839 -6.439324185)
(611.2973195 179.3217742 -2.917895936)
(623.5236529 171.7861505 -3.047671252)
(622.4869266 177.5563471 6.539495433)
(621.5767305 172.7762001 3.035542282)
(613.3315358 169.0291323 -1.301931749)
(595.8804106 170.5390261 0.7733989623)
(601.2925391 161.8983001 9.379238481)
(596.7724285 149.1414344 -5.794439778)
(598.7160171 142.3305606 1.809804829)
(568.1819056 151.2187737 -11.21144518)
(571.837111 158.2965607 -1.15331653)
(561.2285239 159.02097 -12.91489641)
(564.2752161 149.7923264 -0.04675229366)
(582.6042464 150.8958017 -1.355808151)
(603.8285275 151.752341 0.4215267614)
(670.4738012 146.6956082 4.124658505)
(751.9379009 110.3202061 -4.572277886)
(1011.309837 310.4094332 -1.348486966)
(970.2872977 309.5106972 -7.573636899)
(948.0732151 307.8418235 -11.0800579)
(951.4230565 298.3979773 -12.42076617)
(930.6383328 289.0087454 -5.886914521)
(915.7231176 267.6985004 -3.368239361)
(904.1421056 276.5299541 0.3653285298)
(875.3596098 271.7431825 -0.0705356052)
(849.7797249 260.3844225 -5.278704011)
(828.4542602 252.2474685 -11.17825582)
(810.4999387 244.2164955 -7.560086648)
(783.3210811 244.5170978 -12.98468269)
(774.1336509 229.8544931 -9.036934089)
(768.7738381 230.2692431 -7.90098009)
(786.3109046 227.069946 7.52183204)
(754.271053 210.7751601 -1.340899149)
(749.9709105 215.4314982 7.172923842)
(731.4677123 204.7166611 -0.2433806685)
(711.4523382 206.41631 -5.709180034)
(710.4287534 198.2646787 10.38970061)
(722.6911581 179.296093 11.46401929)
(709.6941209 186.9125244 3.875038887)
(685.9915477 195.6143392 -9.940866615)
(685.4657679 198.0890413 0.002701797536)
(680.5665361 188.2345529 -1.58001936)
(698.1878886 182.6178773 -2.886048287)
(691.2121189 177.4756715 -12.21994968)
(737.6140911 177.8410223 0.6560542815)
(767.2100878 163.5050853 -1.495222015)
(841.460596 145.670975 22.31624958)
(1123.499584 339.3643344 -9.916028228)
(1085.792081 340.0818215 3.393397799)
(1070.716772 344.8485314 -1.805045126)
(1065.314986 335.138258 -2.536012514)
(1043.87161 318.8409788 -0.1275030773)
(1015.571704 324.870715 -5.867097715)
(1010.752184 312.5071406 1.211770407)
(983.3810472 304.8358046 -10.17069595)
(955.0001151 307.1850598 -23.54049757)
(953.6190378 293.3186 -17.08575884)
(947.9066392 289.1764531 -20.39147981)
(941.0746934 289.562925 -3.340055037)
(915.2203312 275.9259831 -11.16239746)
(887.0826524 280.8043982 8.878004709)
(877.3722976 264.3246554 -0.6573468131)
(868.2228822 254.731796 -11.49043826)
(855.3046448 242.413673 -5.894815351)
(836.9222403 245.6538286 5.853190877)
(837.3665164 242.3530076 2.366810167)
(807.8123827 238.0168437 -0.2743179364)
(814.2467329 227.6779313 -8.000131645)
(808.1451697 213.597382 -9.69034813)
(819.5522225 229.1434887 -13.14699427)
(796.7930811 224.8379097 -0.5090411483)
(804.1840168 219.7640492 12.34201018)
(795.0021664 214.7877321 -0.4402647027)
(787.9132695 206.0652281 -16.14282516)
(809.5134197 198.2745428 -8.000983943)
(849.8121305 188.6553882 4.674782257)
(906.8973617 165.5985086 -5.727675061)
(1202.69428 346.6088596 -9.500621698)
(1176.197701 362.8729456 -13.79914764)
(1157.822491 356.245327 -2.606465401)
(1143.147409 362.9747138 -5.899614599)
(1134.816417 360.114665 -2.450434962)
(1104.819686 362.2558999 -2.779725103)
(1104.788901 341.1358622 -5.95500992)
(1086.297483 332.7453756 3.065257904)
(1058.522783 332.9575403 -0.8998812551)
(1057.229925 337.743545 -2.370461886)
(1050.070473 325.5071385 -11.53021932)
(1032.453532 317.0120248 -0.619908995)
(1010.054271 323.2551414 -2.174221174)
(1003.232518 311.410963 6.820354232)
(974.7671628 300.1838631 2.59538112)
(959.7539007 286.3062993 -5.292129335)
(960.7973641 285.1555601 -0.9726059372)
(937.2056473 284.098685 5.385676373)
(932.2032786 283.5557008 -3.775211378)
(921.4517418 266.0809107 -5.010327346)
(908.9707872 266.6016398 -4.005061711)
(916.4009255 256.3604652 15.15411423)
(904.8457051 260.7277893 -3.716050394)
(882.8344063 253.6609339 4.208539576)
(866.7479711 247.8691632 11.16960396)
(881.9422264 229.7601057 8.357866751)
(883.8017148 231.0306556 3.585628675)
(888.6144494 223.6425897 -6.374337868)
(927.2406073 216.2497736 -2.506401677)
(995.9468031 195.8013357 -13.41052953)
(1280.768562 330.6165645 1.519247168)
(1243.612033 348.9043628 2.863691801)
(1237.848239 360.8484521 -15.65287613)
(1209.102761 368.1200073 -8.305193618)
(1218.383029 364.3039939 -7.234403405)
(1187.258072 377.8837863 -5.659879989)
(1185.01787 370.1138644 -4.828968894)
(1169.722013 369.787999 -5.14042699)
(1159.38303 363.0192465 0.7842409833)
(1135.14784 351.2979604 14.31556079)
(1109.708411 355.3479671 6.746490142)
(1100.83305 341.9832713 -1.758499941)
(1094.142479 342.6509614 1.179681255)
(1067.340663 339.364491 -2.513903646)
(1045.605491 336.519064 -6.632282989)
(1047.871404 328.8661343 -6.648109331)
(1030.115195 309.802123 -10.21542175)
(1022.98529 311.5081259 -13.00164572)
(1007.528945 314.7161658 -1.370688346)
(996.7201232 310.8455286 -1.702542366)
(986.368309 295.274858 5.333007726)
(987.2702212 293.7539337 -0.07308902082)
(971.0057215 277.0595528 -6.791365842)
(971.2408794 268.0665239 -8.877438494)
(960.8822172 272.010985 -9.154365423)
(967.8377244 269.4935359 2.332365786)
(982.2862019 254.8438108 7.985927583)
(976.4225699 249.1626948 -4.911586324)
(1004.169916 240.0851842 -6.435334826)
(1042.177105 225.8783612 2.324901644)
(1344.777841 305.7296066 -10.09794141)
(1324.859112 326.985695 -10.18948418)
(1308.267003 335.7677287 -1.45358983)
(1290.752985 365.781261 3.052044553)
(1279.206243 366.1564898 -7.651981649)
(1245.677346 376.91598 -4.846568117)
(1237.835402 385.3795992 1.415051347)
(1225.198718 377.4443612 0.0639204224)
(1205.955837 380.3955991 -3.468381098)
(1203.333973 376.4402537 -9.352588837)
(1182.3417 375.4187782 -7.119788619)
(1174.884151 368.9859416 1.408795376)
(1157.018379 362.5565402 -4.132679532)
(1136.694881 364.2906712 0.248204098)
(1112.857303 363.1228432 -5.122728644)
(1113.921566 347.7913495 -2.387977208)
(1104.718318 344.2256473 0.2438681453)
(1094.925026 343.1649798 1.155890131)
(1080.246995 342.1554678 2.141858259)
(1073.370927 330.8994974 -2.496975479)
(1060.299637 319.3577084 3.747224878)
(1071.750465 311.889192 2.212933782)
(1064.539054 304.0839928 0.5131936076)
(1050.348381 291.9245329 4.01846551)
(1035.428093 300.4939558 -10.34203018)
(1021.687784 290.4002864 2.586526492)
(1029.005386 280.0463263 0.6374678518)
(1059.357004 273.4625167 10.35167041)
(1053.951041 264.4250583 10.3831795)
(1079.773956 241.686701 8.653149134)
(1424.542084 275.2748648 -0.4110777519)
(1399.674697 294.4801359 1.958451707)
(1375.836127 316.8750209 1.976974651)
(1348.124174 338.5208034 -1.949834051)
(1321.382653 357.0375971 7.678517514)
(1306.127636 367.8276377 5.280826365)
(1294.762562 376.9247248 1.619357864)
(1277.990428 385.5980296 1.160863078)
(1254.464169 392.191304 4.781186203)
(1254.900208 389.3918439 -5.08933628)
(1246.622716 385.430083 -11.71195715)
(1224.16749 388.0069398 0.1710272966)
(1205.496999 383.0467412 -4.528009253)
(1196.325755 378.066008 -4.783729913)
(1182.764816 370.7974758 7.91044117)
(1158.873911 379.6650708 2.169491968)
(1159.783861 363.8964274 -4.594547229)
(1150.891127 355.713446 0.6732635012)
(1141.638328 354.3516202 -1.290488198)
(1120.831818 352.9840863 8.178051269)
(1123.689952 354.1248192 0.7909014846)
(1122.928085 337.5535177 3.555672702)
(1098.324725 324.7775488 -0.8344531663)
(1109.542981 323.1975143 2.130305266)
(1093.962427 320.3453271 1.714178454)
(1095.238591 307.3226044 -10.07038441)
(1078.391026 303.8779724 -2.287099574)
(1090.431495 293.5429422 2.351378988)
(1107.620207 284.9886917 1.475222098)
(1139.620374 268.7596103 1.145042475)
(1483.604805 230.1169431 4.416096872)
(1447.467164 259.0933871 -0.3039339368)
(1417.6399 286.5055455 9.252360243)
(1404.139068 301.816787 4.676602591)
(1371.90449 335.1827397 2.056626413)
(1358.902722 358.5177669 -7.800421924)
(1350.014332 363.8951327 -14.23496494)
(1326.701791 375.7838932 -10.01514293)
(1307.736336 376.6817336 -9.409615533)
(1289.987419 388.7175675 -8.041258606)
(1289.722816 386.9834393 1.104207031)
(1285.377137 393.2524071 -4.8306467)
(1254.193109 388.8634069 -1.405435923)
(1232.790675 397.9367644 -0.2468870518)
(1238.362706 389.1743069 -1.665498727)
(1231.230078 386.3664436 1.606005185)
(1217.487003 386.0844459 -0.4108920239)
(1202.563106 383.2497397 -5.486998785)
(1195.828008 384.1756606 -0.7124030784)
(1188.706763 379.4998788 -7.902711575)
(1163.131719 361.8290804 -8.635315098)
(1158.280887 351.5365893 -13.00733658)
(1159.497979 348.8848787 -3.008814095)
(1166.25457 339.4988664 -4.673411573)
(1151.377727 338.0657413 1.359875707)
(1140.889466 341.0724974 -7.814264917)
(1140.245261 324.9402868 -8.676266574)
(1143.161985 318.1825892 2.301236428)
(1158.28656 311.395295 0.4962731246)
(1178.094265 295.7951812 -0.7120275446)
(1528.027167 189.88766 -9.91876487)
(1501.412953 212.7572896 -5.80565049)
(1476.368931 238.9756494 -11.56354156)
(1465.330426 272.2179465 -5.08695617)
(1441.630384 293.7347083 6.109167731)
(1430.543956 314.746101 13.13921844)
(1401.647468 340.3473284 1.735642396)
(1382.67359 348.4238415 2.829244702)
(1360.663839 366.7805817 -0.5175197371)
(1342.631461 369.0216179 -7.905448236)
(1331.05106 387.3137459 -10.43609646)
(1325.555276 397.4803615 -8.826193639)
(1327.085055 399.35475 -8.575082626)
(1309.301561 397.3075528 -1.711883827)
(1284.22624 404.0572851 -1.550551689)
(1284.895534 396.462586 -2.66221579)
(1267.256196 407.725404 5.00018361)
(1257.926695 405.3529061 2.322726975)
(1246.610408 398.7223593 -1.542468026)
(1242.583782 385.4211557 -3.242645638)
(1226.240006 381.8536682 -1.629194847)
(1227.21593 377.6643477 -8.501271285)
(1203.222517 370.7355534 -4.112729173)
(1189.988418 362.1380388 -2.747830194)
(1206.129529 360.7948822 3.382117094)
(1193.94736 353.5431109 8.375628513)
(1182.504062 334.8862183 5.186045685)
(1180.094277 334.0842618 -4.442982581)
(1194.059998 328.00388 -2.047463258)
(1210.455205 319.1146561 -4.129852341)
(1570.325122 142.9811552 3.239384772)
(1553.617371 172.7915086 -1.993244771)
(1529.817142 198.6075896 -8.974729132)
(1515.840384 217.6697251 -13.97627525)
(1493.374246 256.584321 -8.797392565)
(1464.333671 284.2437723 -3.729245376)
(1439.111442 307.2266862 2.820688074)
(1425.901579 303.7429664 -6.887797581)
(1410.080572 333.1780749 1.578868108)
(1396.548825 362.7345495 -1.409672128)
(1393.783776 377.8447423 -5.884717512)
(1365.235694 382.9638637 2.921656069)
(1341.189663 401.5275065 7.551498352)
(1339.954562 399.4027683 2.81280013)
(1329.697309 406.5798854 3.241012193)
(1316.750469 409.8384998 3.669299439)
(1312.127025 409.597845 -1.17663906)
(1295.631682 396.1361637 -5.256658472)
(1290.301717 403.822869 -5.794191814)
(1275.424873 403.0338127 -3.860412073)
(1270.995877 399.9268795 -1.143538473)
(1256.097651 392.5735993 6.050746141)
(1252.183789 394.1596878 -4.395323991)
(1257.366353 382.4674511 -6.597402793)
(1239.236623 369.049414 -2.407721495)
(1239.730423 357.3968118 -6.863130457)
(1238.004196 358.4828902 -8.648207149)
(1241.062342 355.4936958 -3.018384319)
(1230.016956 357.1896961 -3.1429687)
(1232.277654 343.1674177 -4.481677349)
(1631.173672 110.1007911 -7.493852763)
(1607.656299 134.7412506 -6.610860275)
(1575.369169 164.9156874 -3.508992266)
(1567.787114 182.1652427 -2.969889362)
(1546.112625 212.6627965 -4.279369392)
(1523.257903 237.0506291 -0.1840926545)
(1493.896683 266.6803231 -0.1029993777)
(1480.268418 293.8017229 1.101774804)
(1459.089571 321.7209771 -0.8013377238)
(1445.993174 333.897275 4.07785564)
(1418.13548 344.507206 2.079456393)
(1403.05144 367.76157 -6.370273758)
(1384.912751 376.3667425 -7.437625367)
(1374.716721 390.7438659 5.122903442)
(1358.961494 397.6372024 8.667821331)
(1355.45026 402.7510191 3.968101603)
(1334.073958 401.821729 -0.8448548779)
(1341.44599 406.705595 4.898676792)
(1317.874751 405.2136652 -0.8125585073)
(1322.905394 408.4197668 3.042494593)
(1313.068052 409.4959052 1.403239767)
(1292.223215 413.1586155 -0.543091259)
(1290.881859 399.288356 0.7418733464)
(1270.390073 392.1574685 3.457248009)
(1272.261884 386.499035 -2.22295364)
(1274.225163 383.8085391 -6.230051083)
(1266.14634 386.3193351 -3.72696071)
(1268.054388 374.0467521 -9.828398082)
(1264.226543 362.3200731 -6.477433797)
(1279.822925 356.4104824 -1.942998599)
(1644.903112 94.68287326 -0.9526673141)
(1628.284532 109.3777708 -5.798186161)
(1611.914023 123.1219339 6.943319546)
(1594.117766 141.4236467 -0.1468262235)
(1580.313057 169.5642012 -7.015976742)
(1558.792108 195.0967759 -0.521667626)
(1538.779674 219.8067567 -4.777266229)
(1508.255291 258.1365698 -5.662722012)
(1490.38681 268.9550602 -3.080321675)
(1464.309171 288.25761 3.160271461)
(1451.933771 309.5068078 -1.891549958)
(1447.92076 329.5917183 1.637336831)
(1425.402528 355.3890025 0.6826557324)
(1401.794946 373.6858039 -7.061446652)
(1386.607409 384.8199981 -8.671053673)
(1384.451089 390.8700188 -7.519077685)
(1367.930487 394.6041157 -10.96261523)
(1351.964877 401.9597005 -8.552774454)
(1357.995144 409.611519 0.6558216169)
(1348.662864 413.495527 4.841862931)
(1343.610519 412.8835696 -0.1097524038)
(1334.96515 411.3155381 5.455886527)
(1317.069959 415.7952969 6.020496215)
(1294.815841 406.0136093 1.024549518)
(1301.727353 404.0519617 3.91749504)
(1300.351565 399.1807399 1.608371436)
(1303.475602 390.21372 -1.91754134)
(1296.521876 385.6465827 -1.702081846)
(1300.739717 377.7552079 -4.977416279)
(1297.725371 366.9220547 -9.333607653)
(1677.10536 69.56832463 -1.412464197)
(1652.780791 76.4355349 -2.115154092)
(1647.287759 83.71466957 -8.731464018)
(1640.84257 118.2193187 -9.829632711)
(1619.787413 143.2864685 -8.553041167)
(1597.301218 171.4537751 -5.914903415)
(1580.980739 180.1942162 -4.582824669)
(1560.305364 204.7844119 -12.0717173)
(1540.726475 225.3917072 -9.738065716)
(1525.443197 254.5900186 -12.80244139)
(1510.840118 278.7932973 -7.443618322)
(1485.615373 305.1771241 -4.797794597)
(1456.072359 329.9950399 -9.322823166)
(1437.350293 341.3013457 -10.89625755)
(1437.860267 358.1646845 -5.221342537)
(1415.304733 369.3687712 -3.644578863)
(1401.47236 380.9424155 -4.591225234)
(1395.669653 399.6537096 3.355106041)
(1379.736365 407.1288433 -3.567410516)
(1379.24141 402.4712889 3.698514984)
(1365.670102 407.7890109 -4.511770768)
(1365.707277 409.4459613 -9.303526164)
(1354.059086 416.5417964 -2.78777945)
(1341.688673 420.0088759 7.374259595)
(1333.169507 405.6088987 0.1735741041)
(1327.696699 407.4084106 -3.450148527)
(1332.85978 400.3425492 -8.986428411)
(1311.100867 399.7705116 -1.185286663)
(1324.54607 390.7328105 2.120826442)
(1331.420221 380.5895974 -7.378073106)
(1674.726675 47.64989944 -6.088177266)
(1669.583945 61.06141778 -3.056243502)
(1672.532753 77.86859086 3.749161217)
(1649.013883 88.54911721 4.738109896)
(1646.077612 101.4380188 -6.229710095)
(1627.146643 115.0666243 -7.554415132)
(1601.529973 144.0303357 -6.090838184)
(1580.997139 167.9976926 -6.175766729)
(1560.769237 194.965408 -7.222337477)
(1558.252616 214.9332272 -2.00461282)
(1539.235682 245.6653687 2.79605849)
(1528.36154 262.7808111 -2.315598163)
(1521.552795 275.4136108 -8.741925012)
(1495.097834 303.6419158 6.339564909)
(1463.886589 324.320988 -1.988541082)
(1451.081195 347.5155839 1.709271557)
(1426.926448 372.9437667 0.7501641715)
(1413.720757 381.2569734 -1.839829701)
(1396.641759 382.4238025 -8.546352472)
(1387.855026 391.9706688 -9.748781523)
(1395.509868 400.3360743 2.115426499)
(1377.640926 415.0394799 4.536693844)
(1369.394266 413.4562908 -2.665112843)
(1357.284678 418.8883372 -6.293877367)
(1362.138359 416.7447466 3.933245352)
(1361.573428 412.3554185 1.234069172)
(1351.842113 414.1446776 1.06686761)
(1349.822538 405.966046 -0.557030419)
(1335.554687 401.2461066 1.754667433)
(1702.00858 41.02278253 6.095771367)
(1694.861898 53.18244533 1.590246941)
(1688.478166 54.40309197 -2.845783678)
(1676.763617 64.48964105 2.811382031)
(1662.418904 78.40224298 8.29509864)
(1661.482138 91.65456686 -3.120160184)
(1648.810043 115.6806979 -1.200806921)
(1626.992016 125.5722561 1.900209584)
(1619.202504 161.745517 1.409248155)
(1597.503796 174.0309748 -0.05811550707)
(1578.772766 196.4110834 -0.06196736524)
(1563.78508 222.0786713 -2.443505914)
(1552.281703 253.4053731 4.93677103)
(1539.11551 268.1298443 0.7395911065)
(1510.103323 297.3652684 5.708414973)
(1496.274326 320.8357565 -2.654883898)
(1467.763164 335.5184645 -5.687257186)
(1450.585134 354.9173175 -0.6190004873)
(1444.796442 367.9139773 -2.669590068)
(1435.468524 391.5827521 -3.719668114)
(1424.987939 398.9282275 -11.76082265)
(1403.096194 398.4184135 -3.68211296)
(1395.737047 402.3480342 -1.496770198)
(1385.557717 409.0987857 -4.966050801)
(1387.403036 417.0147603 -8.612205645)
(1711.271081 27.58863554 -2.478804169)
(1701.624897 35.95009255 -1.992632446)
(1687.385873 50.91717748 -2.901891002)
(1684.100503 57.30340655 -4.284962758)
(1677.080949 71.01194322 -0.08259432929)
(1676.68265 77.69338624 4.677647803)
(1674.376876 82.44540295 6.329348347)
(1656.717902 111.3723428 2.208129069)
(1639.22433 117.5182964 5.569782275)
(1623.92329 150.8398209 3.165546479)
(1600.368362 169.9278441 3.028174221)
(1583.767576 175.8819769 3.256400115)
(1569.137494 207.381383 -5.648899423)
(1559.287641 234.1353775 -8.133282553)
(1538.861625 264.8185745 -3.041204858)
(1522.28077 277.8892547 4.698034241)
(1517.65466 296.2430637 0.2366275459)
(1488.13005 327.2699206 -6.8495701)
(1473.350931 352.3085116 8.573807773)
(1708.46609 29.12562496 -1.96557199)
(1705.926831 26.42544213 1.591216138)
(1708.726704 29.97945117 3.984794738)
(1698.526683 43.34066996 4.044646972)
(1680.390504 52.88107355 2.939842241)
(1672.52741 57.17153235 4.667016545)
(1667.390992 70.40633723 2.964657922)
(1655.959288 84.64269736 1.452189256)
(1649.177873 100.6649049 0.9044046446)
(1638.119742 115.680694 5.67484029)
(1620.254494 145.2084396 1.306576596)
(1613.247419 161.416791 -1.040024754)
(1605.616652 168.7174112 7.017404105)
(1594.805987 186.6488262 7.986235522)
(1721.169662 18.40271579 -2.383170385)
(1715.473561 25.5981032 -2.879664665)
(1714.644407 33.4245368 -1.319777824)
(1702.280719 33.11625288 -0.9292907143)
(1698.92233 45.74617531 2.294370682)
(1693.830014 56.92454782 3.498824114)
(1694.464607 60.63163059 3.52607833)
(1682.596157 73.10962338 1.080081617)
(1717.779542 14.26011784 9.868920872)
)
;

boundaryField
{
    flow
    {
        type            calculated;
        value           nonuniform List<vector> 
15
(
(427.4482001 82.616273 -0.8320298382)
(641.4873696 90.51233326 -6.424961787)
(751.9379009 110.3202061 -4.572277886)
(841.460596 145.670975 22.31624958)
(906.8973617 165.5985086 -5.727675061)
(995.9468031 195.8013357 -13.41052953)
(1042.177105 225.8783612 2.324901644)
(1079.773956 241.686701 8.653149134)
(1139.620374 268.7596103 1.145042475)
(1178.094265 295.7951812 -0.7120275446)
(1210.455205 319.1146561 -4.129852341)
(1232.277654 343.1674177 -4.481677349)
(1279.822925 356.4104824 -1.942998599)
(1297.725371 366.9220547 -9.333607653)
(1331.420221 380.5895974 -7.378073106)
)
;
    }
    obstacle
    {
        type            calculated;
        value           nonuniform List<vector> 
30
(
(168.0050614 45.01682061 9.867087999)
(194.7433692 52.18132861 2.292564931)
(177.2888399 47.50440134 -2.179986362)
(197.8974686 53.026467 1.972612685)
(160.4628522 42.99589152 3.121557317)
(177.2117819 47.48375392 23.16639864)
(188.2921085 50.4527185 -4.298713599)
(151.0984517 40.48670798 -5.63099623)
(157.0061028 42.06965852 16.26379891)
(155.2561521 41.60076066 -24.72359344)
(192.6198854 51.61234257 -6.955832899)
(124.9688286 33.48529677 12.16698908)
(178.5077299 47.83100215 0.7790757544)
(169.0140943 45.28718994 -10.90913297)
(102.3094479 27.413734 66.19535134)
(159.1818056 42.65263613 -7.825204876)
(153.6826171 41.17913321 5.566686398)
(182.0227303 48.77284366 7.947886644)
(142.3579978 38.14471044 4.857121934)
(154.123516 41.29727172 9.441570435)
(149.0695977 39.9430784 -29.8763211)
(140.9075412 37.75606174 -3.556314822)
(149.048512 39.93742849 -15.16124668)
(133.6350367 35.80740023 18.66367759)
(159.9768754 42.86567443 32.92043944)
(158.1971674 42.38880334 -15.61753275)
(165.143236 44.24999659 23.40773629)
(207.1338574 55.50134992 -26.02031451)
(213.4807293 57.20198913 11.18226964)
(243.4518564 65.23272812 27.9839803)
)
;
    }
    frontAndBack
    {
        type            empty;
    }
    procBoundary1to0
    {
        type            processor;
        value           nonuniform List<vector> 
21
(
(391.2455362 116.5706526 -0.7076815756)
(681.8178416 204.1908805 -5.75679031)
(852.0118904 268.9495401 -10.24581086)
(1023.459136 322.5666344 -9.079249447)
(1126.152312 343.2184444 -0.8547656668)
(1223.083746 326.9746721 0.2522276755)
(1290.444849 318.9427429 0.1184245143)
(1373.670516 284.1810225 5.635978374)
(1449.516243 228.0580711 -9.953737016)
(1526.658216 191.0226594 -1.042282113)
(1558.723168 164.3312258 3.404208865)
(1598.818916 120.7749656 -8.884828847)
(1634.305973 98.89169667 -5.766722909)
(1666.234877 72.96852323 0.3922565163)
(1692.798985 59.63919243 3.246318925)
(1680.322847 30.03206393 -10.88915385)
(1709.320969 35.92265594 5.776741883)
(1716.538057 23.96750499 -8.628595366)
(1721.337259 20.29682219 -3.440050997)
(1725.068478 15.55257491 2.700343529)
(1724.315566 13.11677791 8.440736202)
)
;
    }
    procBoundary1to3
    {
        type            processor;
        value           nonuniform List<vector> 
36
(
(1334.033395 395.989456 1.314549097)
(1382.356335 423.5822643 1.659237645)
(1376.076855 414.7801427 3.945586324)
(1373.413935 411.0061888 -1.638069783)
(1334.033395 395.989456 1.314549097)
(1371.173414 410.6984497 8.76898589)
(1458.922786 359.5217235 8.656650824)
(1451.640556 364.700303 4.788796056)
(1439.025246 379.6501255 -5.242151593)
(1430.59886 390.1332829 -2.692940366)
(1414.615395 403.2676849 2.489651129)
(1382.356335 423.5822643 1.659237645)
(1390.794484 401.9233824 -4.830295074)
(1587.682447 211.3099305 2.037082478)
(1563.818615 238.2280051 2.020108735)
(1550.954134 264.2368113 6.728871052)
(1531.104683 285.3999526 2.289450845)
(1458.922786 359.5217235 8.656650824)
(1505.151733 301.5323866 -2.189756388)
(1668.941932 90.7456428 -4.109360426)
(1666.116118 93.42347592 -2.059241697)
(1659.923218 100.6395848 -1.499537026)
(1636.186837 124.4050151 4.334534883)
(1634.392286 138.7898185 3.194947199)
(1587.682447 211.3099305 2.037082478)
(1616.344382 155.7824536 -1.301827)
(1721.96942 10.81968403 10.53958816)
(1721.848396 14.64202817 5.889660402)
(1718.165941 20.90517499 7.250007093)
(1712.020689 27.85367454 1.961820147)
(1706.480418 43.52694209 -2.772023662)
(1706.657397 49.28467736 -6.999044746)
(1668.941932 90.7456428 -4.109360426)
(1695.753412 56.45877059 -0.3203226497)
(1721.96942 10.81968403 10.53958816)
(1720.732938 21.10048888 -10.3991868)
)
;
    }
}


// ************************************************************************* //
