/*--------------------------------*- C++ -*----------------------------------*\
| =========                 |                                                 |
| \\      /  F ield         | OpenFOAM: The Open Source CFD Toolbox           |
|  \\    /   O peration     | Version:  2406                                  |
|   \\  /    A nd           | Website:  www.openfoam.com                      |
|    \\/     M anipulation  |                                                 |
\*---------------------------------------------------------------------------*/
FoamFile
{
    version     2.0;
    format      ascii;
    arch        "LSB;label=32;scalar=64";
    class       Cloud<dsmcParcel>;
    location    "0.01/lagrangian/dsmc";
    object      coordinates;
}
// * * * * * * * * * * * * * * * * * * * * * * * * * * * * * * * * * * * * * //

6892
(
(0.07898878748 0.3910918618 0.4605056063 0.06941374443) 448 874 1
(0.6262419898 0.1475162564 0.03936274867 0.1868790051) 392 745 2
(0.5437757423 0.2281121289 0.05314988934 0.1749622395) 447 872 2
(0.2634433834 0.3682783083 0.2443767243 0.123901584) 454 887 2
(0.1283082789 0.4358458606 0.1486270347 0.2872188259) 447 874 2
(0.2502626904 0.3748686548 0.07097603283 0.3038926219) 457 893 2
(0.0384557522 0.4807721239 0.1041017626 0.3766703613) 489 935 1
(0.0002603001576 0.4998698499 0.0818836662 0.4179861837) 448 1306 2
(0.06913840206 0.2919249389 0.465430799 0.1735058601) 505 982 1
(0.3963890846 0.3018054577 0.280368064 0.02143739374) 466 910 2
(0.3759413878 0.1898606735 0.1221686326 0.3120293061) 509 2622 1
(0.6018536829 0.1990731585 0.04305063857 0.15602252) 508 990 2
(0.3229714797 0.1929572932 0.1455569669 0.3385142601) 479 916 2
(0.2565541945 0.3717229028 0.2694521881 0.1022707146) 488 952 2
(0.314024123 0.3429879385 0.1958732949 0.1471146436) 459 878 1
(0.5750860775 0.2124569612 0.04067013543 0.1717868258) 457 894 1
(0.5161842154 0.2419078923 0.2242818805 0.01762601181) 462 902 2
(0.3431756905 0.3284121547 0.1635469178 0.1648652369) 447 1305 2
(0.1252841383 0.4373579308 0.3776037347 0.0597541961) 457 875 1
(0.07973800904 0.4601309955 0.07076810083 0.3893628946) 485 944 2
(0.01963244364 0.4901837782 0.08081068101 0.4093730972) 511 977 1
(0.2774222833 0.3612888583 0.3154708526 0.04581800573) 499 2621 2
(0.1026687706 0.3685516781 0.08011393661 0.4486656147) 498 953 2
(0.162417047 0.2381254699 0.1806660066 0.4187914765) 449 1307 1
(0.162801389 0.3248176067 0.09378169875 0.4185993055) 459 878 2
(0.5730251415 0.168257367 0.2134874293 0.04523006228) 479 935 2
(0.5604300788 0.2197849606 0.1264369894 0.09334797122) 458 895 2
(0.6572335423 0.1713832289 0.1587517428 0.01263148606) 449 876 2
(0.02525722688 0.1668767687 0.3204946179 0.4873713866) 457 875 2
(0.730709235 0.1346453825 0.04472663509 0.08991874742) 449 1307 2
(0.0008786899452 0.2380130962 0.499560655 0.2615475588) 454 888 2
(0.2254610166 0.3872694917 0.1333151817 0.2539543101) 447 875 1
(0.5821197546 0.2089401227 0.1214354995 0.08750462322) 474 925 2
(0.09440300478 0.3748699345 0.07792856307 0.4527984976) 468 914 1
(0.6190874571 0.1345174486 0.1904562715 0.05593882283) 468 912 1
(0.3664560374 0.3167719813 0.08873502576 0.2280369555) 506 984 2
(0.275465314 0.2789606968 0.08330664617 0.362267343) 489 935 2
(0.2175803609 0.3912098196 0.2572114009 0.1339984187) 447 874 2
(0.2089700128 0.3955149936 0.01750300612 0.3780119875) 446 870 2
(0.08077322933 0.4596133853 0.4152889344 0.04432445097) 449 1307 2
(0.09710861342 0.4514456933 0.4459545931 0.005491100171) 468 912 2
(0.4696843566 0.05331527204 0.2651578217 0.2118425497) 445 871 2
(0.0216354963 0.4891822519 0.2545974503 0.2345848016) 495 965 2
(0.3604363116 0.2627699728 0.05701187145 0.3197818442) 509 973 2
(0.5948848269 0.06199035877 0.2025575866 0.1405672278) 455 890 2
(0.7113975288 0.1443012356 0.03948744913 0.1048137865) 489 952 2
(0.1272880704 0.4363559648 0.4196979012 0.0166580636) 446 1304 2
(0.481497902 0.221438599 0.03781244996 0.259251049) 489 935 2
(0.6419812563 0.0297097509 0.1790093718 0.1492996209) 467 910 1
(0.3052941242 0.3473529379 0.2000823115 0.1472706264) 447 1305 2
(0.8432511212 0.06758358117 0.07837443942 0.01079085825) 469 914 1
(0.4537530696 0.04577845533 0.2731234652 0.2273450099) 456 892 2
(0.0612364518 0.2586902407 0.2106915334 0.4693817741) 469 2618 1
(0.1211351894 0.4394324053 0.02731868594 0.4121137194) 459 878 1
(0.2857119452 0.2001135433 0.1570304841 0.3571440274) 480 936 1
(0.1432647733 0.4283676133 0.1015286631 0.3268389502) 449 878 1
(0.03256950072 0.4837152496 0.01252778304 0.4711874666) 464 906 2
(0.2171666538 0.1186157918 0.3914166731 0.2728008814) 448 874 1
(0.61743767 0.08700549277 0.1042756722 0.191281165) 499 2621 1
(0.1020122511 0.4489938744 0.1890543945 0.25993948) 448 877 1
(0.6155231719 0.192238414 0.06648378597 0.1257546281) 508 972 1
(0.7089557342 0.09061562546 0.05490650746 0.1455221329) 441 862 1
(0.01809061105 0.2938757136 0.4909546945 0.1970789809) 457 894 2
(0.06731845044 0.4663407748 0.009966658314 0.4563741165) 488 934 1
(0.8577159631 0.03457560701 0.03656641144 0.07114201846) 456 891 1
(0.1152340134 0.004199043889 0.4381839494 0.4423829933) 457 893 1
(0.007044410376 0.3929330896 0.1035447052 0.4964777948) 489 2620 1
(0.009897040223 0.1492410386 0.3458104413 0.4950514799) 448 1306 1
(0.02853347042 0.02669587723 0.4590373876 0.4857332648) 468 896 2
(0.1487697456 0.4256151272 0.1365507258 0.2890644014) 566 1082 1
(0.5453186175 0.2012997666 0.02604092462 0.2273406912) 497 969 1
(0.129569502 0.422153142 0.01306210698 0.435215249) 444 1302 1
(0.2344820584 0.3827589708 0.2776219085 0.1051370623) 458 896 1
(0.3209715948 0.3395142026 0.0231349467 0.3163792559) 449 2616 2
(0.142141372 0.3864425038 0.428929314 0.0424868102) 469 914 1
(0.5005131883 0.2497434059 0.1775965113 0.07214689459) 448 1306 2
(0.1510831839 0.1694176765 0.2550407316 0.424458408) 454 869 2
(0.04480135217 0.4775993239 0.1224156455 0.3551836784) 447 872 2
(0.8008128299 0.07467931581 0.02491426924 0.09959358505) 448 876 1
(0.7691415665 0.09637141807 0.1154292168 0.01905779869) 467 913 2
(0.2919261248 0.0788082698 0.2752286678 0.3540369376) 494 963 1
(0.684098243 0.1086628649 0.1579508785 0.04928801359) 556 1082 2
(0.2184391917 0.2196764799 0.3907804042 0.1711039243) 139 278 2
(0.03406086028 0.4829695699 0.4034982346 0.07947133528) 444 1302 2
(0.2976974347 0.3511512827 0.1765835744 0.1745677083) 448 1306 2
(0.4183160873 0.2752762285 0.2908419564 0.0155657279) 546 1063 2
(0.2054976091 0.3972511954 0.06699416679 0.3302570287) 453 886 1
(0.5569149504 0.2215425248 0.1265672725 0.09497525229) 79 118 1
(0.6541965217 0.09436766062 0.07853407851 0.1729017391) 457 875 2
(0.04576610333 0.008209379342 0.468907569 0.4771169483) 479 916 2
(0.1954593323 0.3172354871 0.4022703339 0.08503484675) 449 878 2
(0.2205181529 0.3897409235 0.1563463151 0.2333946084) 524 1018 2
(0.4469568058 0.1499394171 0.12658218 0.2765215971) 449 1307 1
(0.3569665364 0.3215167318 0.1740078589 0.1475088729) 467 913 1
(0.3281170597 0.1136157533 0.3359414702 0.2223257169) 446 873 2
(0.10287624 0.2967322215 0.44856188 0.1518296585) 477 932 2
(0.6865977427 0.02231864184 0.1343824868 0.1567011287) 489 935 2
(0.515137633 0.2424311835 0.03752272436 0.2049084591) 453 883 2
(0.6774469609 0.1612765195 0.01402590408 0.1472506155) 469 916 1
(0.142924661 0.2066574986 0.4285376695 0.2218801709) 549 1066 1
(0.3360661303 0.3319669349 0.09888045055 0.2330864843) 448 877 1
(0.01883454576 0.4905827271 0.4410777028 0.04950502434) 479 916 1
(0.3551877621 0.2157260537 0.1066800653 0.322406119) 497 951 2
(0.323410757 0.3382946215 0.03651300149 0.30178162) 498 971 2
(0.4150217917 0.2924891041 0.01388597235 0.2786031318) 459 895 2
(0.0235062917 0.4482569046 0.4882468541 0.03998994958) 496 968 2
(0.8981538987 0.02097865843 0.02994439222 0.05092305064) 575 1117 1
(0.1914961622 0.4042519189 0.3069893845 0.09726253439) 549 1068 1
(0.5251038341 0.05122540516 0.237448083 0.1862226778) 477 929 1
(0.4124283872 0.1497550188 0.2937858064 0.1440307876) 446 873 2
(0.3216628085 0.3391685957 0.04402807112 0.2951405246) 449 2616 2
(0.8991302037 0.05043489814 0.01472124619 0.03571365195) 467 894 1
(0.06905231825 0.2661752379 0.1992986029 0.4654738409) 485 928 2
(0.1048905943 0.3800702976 0.06748440528 0.4475547028) 455 871 2
(0.2532073297 0.3733963352 0.01313792023 0.3602584149) 459 897 1
(0.659410716 0.170294642 0.1332189758 0.03707566622) 453 883 2
(0.7666871033 0.0820768386 0.03457960974 0.1166564483) 463 886 2
(0.1835449349 0.270466857 0.1377606756 0.4082275325) 493 943 2
(0.1574863189 0.4212568405 0.3575464336 0.06371040696) 464 904 2
(0.4612069008 0.1012107075 0.1681858421 0.2693965496) 449 1307 1
(0.3825240418 0.3087379791 0.208865475 0.09987250413) 488 952 2
(0.2002651273 0.3150937424 0.3998674363 0.08477369393) 458 893 1
(0.2154443285 0.06969186257 0.3922778358 0.3225859732) 469 914 1
(0.151294554 0.424352723 0.3587735118 0.06557921125) 465 890 1
(0.6902583543 0.1548708229 0.06885827104 0.08601255181) 459 897 1
(0.6172871723 0.03976857275 0.1913564139 0.1515878411) 476 930 2
(0.1688289229 0.4155855386 0.1333808705 0.2822046681) 497 969 2
(0.3194364553 0.1200171196 0.3402817723 0.2202646528) 457 894 2
(0.2154474696 0.3922762652 0.04968268209 0.3425935831) 446 1304 2
(0.3952764476 0.3023617762 0.068936398 0.2334253782) 444 868 2
(0.2601649365 0.1254508651 0.2444666666 0.3699175317) 457 875 2
(0.1855811844 0.3633310021 0.04387840576 0.4072094078) 456 873 2
(0.2404606636 0.3067134658 0.07305620242 0.3797696682) 445 1303 1
(0.4294483558 0.2852758221 0.100151948 0.1851238741) 526 1025 1
(0.8781204603 0.007545806545 0.05339396328 0.06093976983) 567 1084 2
(0.1753040277 0.2877413458 0.1246066404 0.4123479862) 492 941 2
(0.463124718 0.268437641 0.1219421651 0.146495476) 539 1047 2
(0.1515700539 0.424214973 0.1315811195 0.2926338536) 495 965 2
(0.8773853583 0.001319269684 0.06130732087 0.05998805119) 449 878 2
(0.4653316892 0.2673341554 0.06793451198 0.1993996434) 527 1027 1
(0.8575950205 0.008439450388 0.07120248977 0.06276303938) 489 952 1
(0.7788218836 0.1105890582 0.0151758922 0.09541316601) 499 973 1
(0.2414455161 0.379277242 0.3029652275 0.07631201445) 447 874 2
(0.1475148186 0.4262425907 0.1064835441 0.3197590467) 456 889 2
(0.1527432047 0.2736137053 0.1500146923 0.4236283976) 445 1303 1
(0.5220017355 0.08450237625 0.154496756 0.2389991323) 478 915 2
(0.7562979324 0.1070369902 0.1218510338 0.01481404366) 468 915 2
(0.4756170154 0.2253299198 0.03686157251 0.2621914923) 447 874 1
(0.005480234134 0.3600703771 0.4972598829 0.1371895058) 455 890 2
(0.04723890216 0.4763805489 0.4474494636 0.02893108536) 504 964 1
(0.4983556969 0.06126267045 0.2508221516 0.1895594811) 453 886 2
(0.2572283441 0.371385828 0.132284815 0.239101013) 527 1024 2
(0.3165219167 0.3417390416 0.1476679507 0.194071091) 465 908 2
(0.2184919434 0.3907540283 0.2460267274 0.1447273009) 458 895 2
(0.1882684485 0.3329170002 0.4058657757 0.07294877552) 474 926 2
(0.2670561843 0.3664719078 0.09209608021 0.2743758276) 458 895 2
(0.1694515836 0.1110404639 0.3042337443 0.4152742082) 459 878 2
(0.1460880498 0.4269559751 0.09195542008 0.335000555) 448 877 1
(0.01671707894 0.0492680984 0.4423733621 0.4916414605) 17 1295 1
(0.002085522919 0.4989572385 0.4909042383 0.008053000222) 488 952 2
(0.3891095759 0.1810838794 0.305445212 0.1243613326) 566 1098 1
(0.4131261329 0.1662952128 0.1271417207 0.2934369336) 477 931 1
(0.6962176914 0.1518911543 0.1400399595 0.01185119484) 447 872 2
(0.9187060966 0.02994086643 0.01070608528 0.04064695171) 468 896 2
(0.2956666385 0.3521666808 0.2128334734 0.1393332073) 518 1009 2
(0.5982957585 0.2008521208 0.003879431574 0.1969726892) 497 970 1
(0.3225411667 0.2707020606 0.06802735608 0.3387294166) 488 934 2
(0.7667273145 0.1096963363 0.1166363428 0.006940006413) 463 902 1
(0.3178218718 0.01767308023 0.3234159839 0.3410890641) 449 1307 1
(0.07589220324 0.4620538984 0.0317213974 0.430332501) 499 954 1
(0.190116395 0.07062471619 0.4049418025 0.3343170863) 451 882 2
(0.6107048292 0.1946475854 0.1025416273 0.09210595805) 450 880 1
(0.9414319058 0.02928404708 0.006362218386 0.02292182869) 445 868 2
(0.1963851986 0.02174239542 0.4018074007 0.3800650053) 499 971 1
(0.2668016933 0.3665991533 0.1334233397 0.2331758137) 477 913 1
(0.2820290808 0.1977265169 0.1612589427 0.3589854596) 447 1305 1
(0.339214755 0.3303926225 0.08125835939 0.2491342631) 508 990 2
(0.1248730302 0.05569694209 0.3818665428 0.4375634849) 459 878 2
(0.5015765823 0.09330012141 0.1559115874 0.2492117088) 502 978 1
(0.589827794 0.09332433482 0.205086103 0.1117617682) 448 877 2
(0.01144230278 0.4189493116 0.4942788486 0.07532953697) 456 892 2
(0.648413642 0.175793179 0.08749563092 0.08829754807) 466 910 2
(0.2631824434 0.3684087783 0.07273855604 0.2956702223) 482 941 1
(0.3960102944 0.3019948528 0.01220392732 0.2897909255) 459 897 1
(0.3253986763 0.1472582671 0.3373006619 0.1900423947) 448 877 2
(0.2856546527 0.3571726737 0.06782153096 0.2893511427) 464 907 1
(0.1528071915 0.03833186517 0.4235964043 0.3852645391) 454 888 2
(0.07429659031 0.4628517048 0.2990230741 0.1638286307) 479 2619 2
(0.4130603603 0.1719417802 0.2934698198 0.1215280396) 529 1028 1
(0.4115604349 0.1872035597 0.1070162229 0.2942197826) 449 1307 1
(0.8865046829 0.001960078117 0.05674765856 0.05478758044) 469 914 1
(0.2435367682 0.3782316159 0.3779788729 0.0002527429626) 458 877 1
(0.3825968546 0.3087015727 0.1916366085 0.1170649642) 548 1067 1
(0.005069543612 0.4974652282 0.3589048455 0.1385603827) 468 912 2
(0.1781085179 0.1509487079 0.4109457411 0.2599970331) 457 891 1
(0.6942242618 0.1528878691 0.04221726168 0.1106706074) 488 934 1
(0.4343279406 0.09492621398 0.2828360297 0.1879098157) 468 912 1
(0.364913214 0.317543393 0.1287200319 0.1888233611) 507 988 2
(0.2675470831 0.0338356964 0.3662264585 0.3323907621) 447 875 2
(0.6117963508 0.1941018246 0.0925712992 0.1015305254) 445 1303 2
(0.3411946138 0.0777898199 0.2516128732 0.3294026931) 445 1303 1
(0.06640017013 0.4667999149 0.02209664511 0.4447032698) 494 964 1
(0.3835073491 0.3082463255 0.3021472179 0.006099107571) 489 935 1
(0.2957040477 0.1601693236 0.3521479762 0.1919786526) 448 877 2
(0.09892694908 0.2969268196 0.1536097059 0.4505365255) 446 872 1
(0.1051343061 0.2408426295 0.2065902174 0.4474328469) 448 876 1
(0.3665730295 0.2557804935 0.3167134853 0.06093299179) 446 870 1
(0.2843927448 0.112969067 0.2448345606 0.3578036276) 466 892 2
(0.07889347079 0.4605532646 0.1767043853 0.2838488793) 539 1030 1
(0.346373364 0.1783208268 0.326813318 0.1484924912) 446 873 2
(0.04271402089 0.2295731836 0.4786429896 0.2490698059) 478 934 2
(0.456570248 0.2527397804 0.01897509564 0.271714876) 489 935 2
(0.03469220962 0.4641133613 0.4826538952 0.0185405339) 449 878 2
(0.01130431229 0.4943478439 0.2950622551 0.1992855888) 459 895 2
(0.7060993234 0.1469503383 0.03740336246 0.1095469758) 446 870 2
(0.05771940335 0.4219587714 0.04918152697 0.4711402983) 444 1302 1
(0.6936605291 0.1531697354 0.007446909991 0.1457228254) 449 876 2
(0.2310819694 0.3844590153 0.04987429531 0.33458472) 453 883 2
(0.5868857773 0.1817476681 0.2065571113 0.02480944324) 486 946 1
(0.3017674869 0.1816375397 0.1674787168 0.3491162566) 457 893 1
(0.2475841379 0.3762079311 0.1837631544 0.1924447766) 499 973 1
(0.159497127 0.4202514365 0.2409531506 0.1792982859) 449 2616 2
(0.4670830553 0.08171540122 0.1847430711 0.2664584723) 529 1011 2
(0.1068439471 0.4465780264 0.00810726433 0.4384707621) 506 984 2
(0.06029847737 0.2621918781 0.4698507613 0.2076588832) 509 992 2
(0.05885419024 0.4705729049 0.4648357933 0.005737111573) 445 870 2
(0.7833651053 0.1083174473 0.09847676538 0.009840681965) 475 909 1
(0.8184163267 0.08062233837 0.01016949826 0.09079183663) 445 1303 1
(0.02022546482 0.07229541783 0.4175918498 0.4898872676) 545 1042 2
(0.5642354228 0.2178822886 0.1921042261 0.02577806254) 467 910 2
(0.4797254799 0.26013726 0.07215058351 0.1879866765) 478 931 2
(0.5459454994 0.08693723727 0.2270272503 0.140090013) 448 877 2
(0.2692989474 0.2887455092 0.3653505263 0.07660501706) 489 954 2
(0.7542012235 0.05837686286 0.1228993882 0.06452252539) 445 868 1
(0.1989724513 0.4005137743 0.1549378987 0.2455758756) 478 931 2
(0.5183174554 0.2408412723 0.158097159 0.08274411336) 441 1299 2
(0.009780882335 0.4951095588 0.0927140468 0.402395512) 455 871 1
(0.374769881 0.3126150595 0.1381072309 0.1745078286) 466 908 2
(0.4568863246 0.2715568377 0.1520166397 0.119540198) 468 914 2
(0.1172894049 0.4413552975 0.370667822 0.07068747549) 447 874 2
(0.1183619168 0.2133555224 0.2274635192 0.4408190416) 476 911 2
(0.09510302042 0.4524484898 0.03366874805 0.4187797417) 455 871 1
(0.1798515351 0.4100742324 0.1367265072 0.2733477252) 486 948 2
(0.651003315 0.03837077781 0.1744983425 0.1361275647) 525 1020 1
(0.2213204822 0.3893397589 0.2188668209 0.170472938) 527 1008 1
(0.4931519313 0.2534240343 0.1770030629 0.07642097145) 487 950 2
(0.3453659945 0.04640529164 0.3273170028 0.2809117111) 467 910 1
(0.2693331323 0.2055569714 0.1597764624 0.3653334338) 478 915 2
(0.2182912075 0.3908543963 0.3016384907 0.08921590553) 455 889 2
(0.6461054172 0.1769472914 0.1112741719 0.06567311953) 445 871 1
(0.1417310384 0.4070135463 0.02212093445 0.4291344808) 459 2617 1
(0.5753124199 0.08800724817 0.1243365419 0.2123437901) 447 1305 1
(0.1985896845 0.4007051578 0.09845226444 0.3022528933) 509 992 1
(0.2393293252 0.3803353374 0.361973258 0.01836207943) 519 992 1
(0.3240811845 0.06899714845 0.3379594077 0.2689622593) 490 239 1
(0.4422716795 0.2788641603 0.2785934353 0.0002707250223) 448 876 2
(0.7119385159 0.144030742 0.007051975158 0.1369787669) 458 877 1
(0.3451261197 0.3274369402 0.264649643 0.0627872972) 453 886 1
(0.1829963122 0.4085018439 0.3890537243 0.01944811965) 585 1134 2
(0.3307753959 0.3346123021 0.05073593191 0.2838763701) 628 1219 1
(0.5208312597 0.1666811525 0.2395843701 0.07290321768) 483 940 1
(0.2367623468 0.2529972584 0.3816188266 0.1286215682) 465 906 1
(0.3557257946 0.08522531861 0.3221371027 0.2369117841) 77 155 2
(0.3022229505 0.2333518879 0.1155366369 0.3488885248) 443 866 1
(0.5361290649 0.2319354676 0.1038624498 0.1280730177) 446 872 2
(0.5275714776 0.05904612189 0.2362142612 0.1771681393) 445 868 1
(0.2921002477 0.3539498762 0.3186253439 0.03532453227) 448 1306 2
(0.145958228 0.02734530323 0.3996755828 0.427020886) 446 1304 1
(0.2727083405 0.3636458298 0.09483186292 0.2688139668) 516 1005 2
(0.2164300417 0.2544761267 0.1373088524 0.3917849792) 549 1049 2
(0.8214907534 0.08925462329 0.03667457477 0.05258004853) 618 1200 1
(0.3430323193 0.2368161745 0.09166766584 0.3284838403) 607 1178 1
(0.2738096779 0.363095161 0.3164537756 0.0466413854) 607 1179 1
(0.5961591022 0.05856340602 0.1433570429 0.2019204489) 443 866 1
(0.2275164369 0.2348523502 0.1513894313 0.3862417815) 466 892 2
(0.3319636956 0.3340181522 0.01654682906 0.3174713231) 485 946 2
(0.3587154964 0.2484069192 0.07223533263 0.3206422518) 460 880 2
(0.4564874411 0.2449488902 0.02680738931 0.2717562795) 447 1305 1
(0.03169610338 0.4841519483 0.2640988052 0.2200531431) 457 894 1
(0.2779663276 0.3610168362 0.01413007449 0.3468867617) 466 911 1
(0.1444787799 0.4277606101 0.4078440656 0.01991654446) 445 868 2
(0.5388046892 0.1382914369 0.2305976554 0.09230621852) 477 932 2
(0.1696283961 0.3639329329 0.05125286901 0.4151858019) 469 897 2
(0.1586141152 0.02064418636 0.4206929424 0.400048756) 553 1073 1
(0.004621731211 0.2561117834 0.241577351 0.4976891344) 486 948 1
(0.2133377872 0.3578120932 0.3933311064 0.03551901324) 507 986 1
(0.4017753124 0.2991123438 0.0005661094224 0.2985462344) 476 927 2
(0.2586232375 0.3004789438 0.07020943748 0.3706883812) 499 2621 1
(0.5065652569 0.1408281899 0.1058891817 0.2467173715) 489 935 2
(0.3530795603 0.2189773005 0.3234602199 0.1044829194) 476 930 2
(0.2475610718 0.1957628487 0.1804566154 0.3762194641) 518 1009 1
(0.3931801954 0.1894833114 0.1139265909 0.3034099023) 528 1010 2
(0.3857943618 0.3071028191 0.1728687871 0.134234032) 463 905 1
(0.2395322738 0.2517962389 0.3802338631 0.1284376242) 457 891 1
(0.4653770974 0.2673114513 0.250995048 0.01631640328) 466 908 2
(0.2084817346 0.2075031802 0.3957591327 0.1882559525) 478 931 1
(0.4414975408 0.2792512296 0.07564062274 0.2036106069) 468 914 2
(0.1665515458 0.4167242271 0.2835118082 0.1332124189) 497 951 1
(0.02250811217 0.4887459439 0.08035105991 0.408394884) 499 954 1
(0.1841984055 0.4079007972 0.140656472 0.2672443253) 474 925 2
(0.5150580323 0.09459152915 0.2424709839 0.1478794547) 467 913 2
(0.6456368179 0.177181591 0.1287952867 0.04838630439) 469 914 2
(0.208764398 0.395617801 0.2177143942 0.1779034068) 549 1068 1
(0.4607951042 0.2047069273 0.06489552063 0.2696024479) 532 1035 1
(0.5272087689 0.0858689502 0.2363956155 0.1505266653) 524 1018 1
(0.2453733387 0.3773133307 0.3031316709 0.07418165981) 465 909 1
(0.4292675354 0.2853662323 0.2054614836 0.07990474866) 565 1099 1
(0.2887141166 0.3556429417 0.3059068085 0.04973613316) 555 1061 1
(0.2988593027 0.3440511458 0.3505703486 0.006519202843) 599 1163 2
(0.1058755082 0.4470622459 0.2031814635 0.2438807823) 619 1201 1
(0.05822282435 0.4708885878 0.1687991892 0.3020893986) 468 914 2
(0.03594308045 0.4820284598 0.1476671121 0.3343613477) 441 860 2
(0.2792766894 0.3603616553 0.09694086052 0.2634207948) 469 897 1
(0.1174579756 0.4412710122 0.1105560612 0.330714951) 469 916 1
(0.5837873056 0.1759329451 0.2081063472 0.03217340206) 444 866 1
(0.5392143091 0.2303928454 0.042639034 0.1877538114) 519 992 1
(0.2153092282 0.3923453859 0.03337434494 0.358971041) 486 948 2
(0.01399600888 0.4930019956 0.4587723828 0.03422961277) 469 914 2
(0.233247721 0.3833761395 0.3201572181 0.06321892139) 594 1135 1
(0.7378120506 0.1310939747 0.06883791115 0.06225606357) 448 877 1
(0.005426320174 0.3330938124 0.4972868399 0.1641930275) 578 1121 1
(0.1820905233 0.4089547383 0.3371741312 0.07178060709) 484 926 1
(0.6429491835 0.1785254082 0.05014770211 0.1283777061) 546 1063 1
(0.2875603821 0.3562198089 0.1329253672 0.2232944418) 515 985 1
(0.6020174017 0.1098112773 0.1989912991 0.08918002179) 444 866 1
(0.3287659536 0.03001383171 0.3356170232 0.3056031915) 529 1028 1
(0.01878311284 0.4906084436 0.4841530068 0.006455436795) 457 893 2
(0.05558910396 0.4317399798 0.472205448 0.0404654682) 444 866 1
(0.6795299377 0.1602350312 0.153823858 0.006411173191) 99 199 2
(0.4157850073 0.08109845248 0.2110090439 0.2921074964) 459 878 2
(0.8932907022 0.05335464892 0.04148178985 0.01187285907) 457 891 2
(0.1841197576 0.4079401212 0.262605089 0.1453350322) 487 932 1
(0.1040358552 0.2798889205 0.1680931519 0.4479820724) 489 2620 1
(0.5044718762 0.2477640619 0.2223939677 0.02537009418) 477 913 1
(0.5237160939 0.2000944268 0.03804752621 0.238141953) 469 897 2
(0.1778434327 0.3557500871 0.05532819652 0.4110782836) 444 1302 1
(0.2180216788 0.1399905403 0.2509986203 0.3909891606) 519 992 2
(0.6190975887 0.1904512056 0.1892679371 0.00118326857) 489 935 1
(0.3239215701 0.338039215 0.05747944328 0.2805597717) 479 2619 2
(0.1233859839 0.4383070081 0.2135698009 0.2247372072) 445 871 1
(0.5744741188 0.03901937149 0.1737435691 0.2127629406) 506 968 2
(0.3667594102 0.3127141007 0.3166202949 0.003906194216) 489 952 1
(0.5266211582 0.1253548161 0.1113346047 0.2366894209) 454 869 2
(0.1145522939 0.1623886281 0.4427238531 0.280335225) 441 863 2
(0.301654747 0.3491726265 0.04186857405 0.3073040525) 444 869 1
(0.0777416235 0.4611291882 0.2813873821 0.1797418062) 519 992 1
(0.1781111636 0.4109444182 0.2940649222 0.1168794961) 518 1009 2
(0.3283389509 0.07836167485 0.2574688497 0.3358305245) 536 1043 1
(0.1089508489 0.1788972076 0.4455245755 0.2666273679) 478 934 2
(0.8741743145 0.06291284274 0.03720985084 0.0257029919) 646 1249 2
(0.1985127918 0.1515103139 0.2492332901 0.4007436041) 450 879 1
(0.2136938368 0.1361858856 0.256967196 0.3931530816) 447 874 1
(0.7395289445 0.07345656033 0.1302355278 0.05677896744) 488 953 2
(0.2074367927 0.3223149998 0.0739666039 0.3962816037) 477 913 2
(0.03780825443 0.3721104199 0.1089854529 0.4810958728) 458 895 1
(0.08696508333 0.4565174583 0.3703177422 0.08619971617) 465 908 2
(0.1281069129 0.4359465436 0.003623962179 0.4323225814) 486 930 1
(0.3807013582 0.3096493209 0.034679324 0.2749699969) 497 967 2
(0.3189016154 0.2071257332 0.3405491923 0.1334234591) 529 1028 1
(0.5292060073 0.2353969963 0.2028577461 0.0325392502) 464 904 2
(0.2484802539 0.375759873 0.08048266718 0.2952772059) 475 927 2
(0.5964386978 0.2017806511 0.1506186243 0.05116202682) 519 992 1
(0.3999738818 0.3000130591 0.2474027844 0.05261027472) 543 1054 2
(0.55036349 0.224818255 0.1704990415 0.05431921348) 566 1098 2
(0.3428650961 0.2928893195 0.03567813244 0.328567452) 578 1123 1
(0.4323074225 0.2593074692 0.2838462888 0.02453881957) 506 984 1
(0.3597461387 0.2460949981 0.3201269307 0.07403193252) 509 990 1
(0.2890023146 0.3554988427 0.1129516496 0.2425471931) 559 1085 2
(0.3981923103 0.3009038448 0.2961163767 0.004787468127) 469 914 2
(0.04304456522 0.189232882 0.2892448354 0.4784777174) 543 1056 1
(0.3047648656 0.3476175672 0.1382427364 0.2093748307) 589 1142 2
(0.1472080702 0.2055225085 0.4263959649 0.2208734564) 588 1143 2
(0.03629844657 0.4818507767 0.208292279 0.2735584977) 498 971 2
(0.2762005519 0.361899724 0.3105473399 0.05135238418) 457 893 2
(0.1204098887 0.4397950557 0.3279285306 0.111866525) 454 869 1
(0.5490501099 0.225474945 0.0001098441985 0.2253651008) 478 915 1
(0.6758451516 0.1620774242 0.08793688782 0.07414053636) 504 982 2
(0.7580972352 0.1149435392 0.006007843154 0.1209513824) 457 893 1
(0.19052871 0.404735645 0.3746683375 0.03006730748) 468 912 2
(0.3525204888 0.3237397556 0.1600785715 0.1636611841) 494 961 2
(0.08456607667 0.4577169617 0.2818361203 0.1758808414) 492 960 1
(0.09590567111 0.2065139718 0.4520471644 0.2455331926) 445 871 2
(0.3200069287 0.3399965357 0.0400261227 0.299970413) 488 952 2
(0.1369437893 0.0140074809 0.4315281054 0.4175206245) 466 908 1
(0.4558654252 0.1889447668 0.2720672874 0.08312252058) 489 952 1
(0.3233450944 0.3383274528 0.1783258587 0.1600015941) 556 1063 1
(0.3932770072 0.3033614964 0.1120015584 0.191359938) 497 969 2
(0.449406586 0.275296707 0.09281315076 0.1824835562) 454 888 1
(0.2543547767 0.1727626988 0.2000599129 0.3728226116) 469 2618 1
(0.4588964187 0.2269089392 0.04364285142 0.2705517906) 527 1008 2
(0.6188590434 0.1905704783 0.06824762613 0.1223228522) 465 908 2
(0.3022454536 0.3195611778 0.02931609535 0.3488772732) 446 872 1
(0.02214211487 0.09638581031 0.4889289426 0.3925431323) 559 1087 2
(0.1311413441 0.4344293279 0.2611747045 0.1732546234) 638 1237 2
(0.3254202542 0.3372898729 0.3306909809 0.006598891949) 598 1143 1
(0.06937157981 0.06057597678 0.4653142101 0.4047382333) 535 1042 2
(0.1902252234 0.2968367309 0.4048873883 0.1080506574) 445 868 1
(0.4998234491 0.2500882754 0.07525482931 0.1748334461) 504 982 2
(0.569486763 0.2152566185 0.1241891788 0.09106743968) 488 950 2
(0.3642421539 0.0528771418 0.3178789231 0.2650017813) 448 877 2
(0.07615465791 0.1133546874 0.3485679837 0.461922671) 447 874 1
(0.4951281288 0.04770066968 0.2524359356 0.2047352659) 446 873 2
(0.164206695 0.4178966525 0.1397786116 0.2781180409) 489 952 2
(0.4045956572 0.1425604375 0.1551417339 0.2977021714) 445 870 1
(0.1130071165 0.09898424296 0.3445121988 0.4434964417) 458 895 1
(0.07775587932 0.4611220603 0.3530600861 0.1080619743) 452 865 1
(0.4240759208 0.2879620396 0.1536162967 0.1343457429) 518 991 1
(0.04619399593 0.476903002 0.2875730341 0.189329968) 487 950 2
(0.6127144844 0.06385008691 0.1936427578 0.1297926709) 536 1044 2
(0.0151082172 0.2670508347 0.2253950567 0.4924458914) 469 2618 1
(0.1635249821 0.3802080401 0.0380294688 0.4182375089) 476 911 2
(0.09114931994 0.1201739798 0.45442534 0.3342513602) 517 1005 1
(0.4699043036 0.09873677691 0.1663110713 0.2650478482) 578 1123 1
(0.5232239035 0.2383880483 0.199733807 0.03865424123) 488 950 2
(0.5949599205 0.2025200397 0.1450963502 0.05742368957) 529 2624 2
(0.5183813883 0.1133022506 0.2408093058 0.1275070552) 557 1084 2
(0.578980838 0.210509581 0.1176220577 0.09288752328) 617 1198 1
(0.3727621199 0.3136189401 0.2499436694 0.06367527063) 555 1080 1
(0.7806136815 0.07226548257 0.03742767667 0.1096931592) 609 2632 1
(0.2941601113 0.3529199444 0.05447310308 0.2984468413) 578 1124 1
(0.08751505618 0.1452231528 0.3110193191 0.4562424719) 609 1163 2
(0.6245776132 0.1877111934 0.1392081312 0.04850306216) 443 867 1
(0.3092829396 0.3453585302 0.1375576203 0.2078009099) 498 953 1
(0.176003766 0.411998117 0.36837287 0.04362524702) 443 1301 2
(0.06196345341 0.4690182733 0.3115852324 0.1574330409) 442 864 2
(0.06535727401 0.1410096976 0.467321363 0.3263116654) 485 944 1
(0.2871641919 0.356417904 0.2549298207 0.1014880833) 508 990 2
(0.807703704 0.09614814801 0.0577803667 0.0383677813) 449 1307 2
(0.02346548066 0.2547093289 0.4882672597 0.2335579308) 441 860 1
(0.3283249029 0.3358375486 0.2463198601 0.08951768851) 451 881 2
(0.3561376852 0.3219311574 0.217020823 0.1049103344) 513 981 1
(0.2187670317 0.3906164842 0.1677281105 0.2228883736) 497 951 1
(0.09323774713 0.4533811264 0.3249220383 0.1284590881) 504 982 2
(0.1095997775 0.4452001113 0.08241492236 0.3627851889) 469 2618 2
(0.01859140785 0.4907042961 0.007061033877 0.4836432622) 448 1306 2
(0.2297146526 0.3851426737 0.1501385199 0.2350041538) 489 2620 2
(0.02164314662 0.4891784267 0.05472919892 0.4344492278) 447 872 2
(0.7216621825 0.0008616332018 0.1391689087 0.1383072755) 468 915 2
(0.01717325781 0.4914133711 0.06328632153 0.4281270496) 457 893 2
(0.1373275474 0.4313362263 0.4068689001 0.02446732616) 547 1064 2
(0.5324801691 0.2337599154 0.1002730879 0.1334868275) 537 1045 2
(0.08289610662 0.2183489405 0.2402030062 0.4585519467) 487 950 1
(0.126462956 0.03786400767 0.436768522 0.3989045143) 488 953 2
(0.6731277572 0.1634361214 0.003980365572 0.1594557558) 586 1138 2
(0.01674744071 0.4916262796 0.4766598696 0.01496641007) 514 1002 1
(0.3267560472 0.1385084986 0.3366219764 0.1981134778) 579 1125 2
(0.2081346368 0.3959326816 0.1111666984 0.2847659832) 559 2627 2
(0.6180381665 0.1721114745 0.01886944224 0.1909809168) 556 1063 2
(0.06225359319 0.4688732034 0.1317945621 0.3370786413) 614 1192 1