/*--------------------------------*- C++ -*----------------------------------*\
| =========                 |                                                 |
| \\      /  F ield         | OpenFOAM: The Open Source CFD Toolbox           |
|  \\    /   O peration     | Version:  2406                                  |
|   \\  /    A nd           | Website:  www.openfoam.com                      |
|    \\/     M anipulation  |                                                 |
\*---------------------------------------------------------------------------*/
FoamFile
{
    version     2.0;
    format      ascii;
    arch        "LSB;label=32;scalar=64";
    class       scalarField;
    location    "0.01/lagrangian/dsmc";
    object      Ei;
}
// * * * * * * * * * * * * * * * * * * * * * * * * * * * * * * * * * * * * * //


6892
(
5.88077198e-21
1.784816389e-20
8.691252889e-21
1.087933652e-20
3.095530067e-20
3.621342059e-21
4.929927674e-21
2.375027318e-20
7.82454235e-21
9.986162735e-21
6.517550361e-20
4.491785504e-20
4.619819756e-21
1.344443635e-21
4.674356177e-21
3.303670477e-20
2.173090616e-20
8.191960805e-21
1.168138518e-20
1.337656134e-20
7.844213368e-22
2.644589732e-20
9.723017585e-22
5.433632219e-21
1.093885999e-20
2.37804899e-20
1.004030637e-20
3.838699197e-21
1.831276979e-22
2.39830424e-20
7.220822848e-21
7.290970485e-21
1.325281493e-20
5.738341131e-21
2.4543137e-21
1.883812016e-21
1.293274889e-20
5.062481103e-22
1.898154841e-20
2.84231591e-21
4.751088218e-21
2.502933965e-21
2.577969671e-20
5.468138376e-22
2.577351685e-21
3.530616917e-21
1.62146862e-20
3.375718494e-20
6.225601141e-20
5.841318556e-21
6.359941038e-21
7.500803622e-21
2.545365434e-20
8.086051946e-21
4.097572762e-21
7.089896723e-21
1.406261158e-20
8.101163738e-21
4.384438925e-21
3.279944912e-21
2.898782669e-21
5.029514948e-20
1.419664238e-20
3.936827294e-21
7.196741542e-21
7.275630658e-22
7.576915041e-20
1.516058938e-21
1.550008533e-20
1.328463692e-20
1.886084745e-20
1.36588291e-20
2.821662173e-21
1.236032179e-21
7.777247955e-21
8.241774521e-22
6.353129668e-22
7.892751224e-21
5.954871686e-21
1.965088269e-20
7.326741032e-21
1.582015405e-21
2.269173124e-20
1.694463825e-20
7.144870498e-21
7.203646948e-23
3.52212008e-20
2.447703818e-21
8.611621902e-21
3.967049725e-21
8.251708371e-21
3.386805269e-20
4.565554509e-21
8.693428058e-21
9.393047574e-22
1.598171591e-21
1.476955787e-20
9.990102751e-21
3.545043334e-21
1.296234392e-21
1.311890416e-20
4.252911222e-20
7.776983549e-21
2.789864693e-20
2.673082711e-21
6.976753554e-22
4.571058116e-21
2.418432774e-20
8.504789782e-21
9.775930903e-22
8.112873291e-21
1.672573639e-21
6.654669954e-21
1.0980931e-21
4.687283818e-21
1.511331542e-20
3.836268456e-21
4.778003256e-21
3.78411687e-20
1.480636201e-20
3.249657841e-21
7.955580283e-21
1.543290672e-20
2.585301859e-21
7.807798123e-21
2.69534999e-21
9.548510395e-22
6.009053362e-21
2.718018779e-20
4.903865663e-21
2.082677882e-20
8.247838496e-21
2.615664991e-21
8.734779285e-21
8.520808669e-21
3.250244395e-21
1.420353025e-21
4.983437809e-21
3.870935162e-21
7.258224513e-22
3.148850387e-21
2.09656026e-21
1.952060905e-22
2.514719428e-20
4.507896108e-21
6.978202848e-21
4.106557978e-20
4.748220117e-21
4.426286665e-20
1.386869282e-20
1.452847853e-20
2.820520411e-20
2.701623381e-20
4.443837648e-21
4.296836231e-20
2.241684433e-20
8.461045907e-22
5.518125469e-21
4.939871717e-21
1.675100758e-20
6.56282858e-21
1.258844424e-20
2.271230486e-22
1.270216431e-20
9.000112519e-21
1.941923707e-20
2.220312743e-21
1.520669527e-20
5.988816765e-20
9.195577739e-21
8.883673111e-21
1.215831508e-21
4.886864255e-21
2.428618277e-20
1.547632067e-22
1.809251887e-21
2.326295728e-21
1.227486169e-20
5.978062343e-21
4.952961387e-21
8.660381421e-21
1.114963308e-20
6.473149384e-22
7.602690728e-21
1.09151134e-22
1.341617559e-20
5.06332559e-21
7.545335049e-21
1.042959587e-20
1.735911804e-20
2.433201217e-20
4.339461459e-21
4.452643499e-21
6.997368399e-21
1.372343752e-20
3.533612597e-20
1.493053546e-20
6.151966413e-22
1.959393906e-20
1.954276772e-20
5.696217155e-21
4.155243748e-23
9.432389193e-22
4.627494515e-21
9.161441119e-21
3.396881873e-22
1.090886896e-20
2.080541431e-20
1.107035569e-20
5.71237153e-21
1.32764456e-22
3.046430586e-21
1.065408123e-21
8.164858185e-21
8.612363375e-21
2.525733102e-20
1.750385486e-20
1.362358816e-20
7.083547502e-22
3.481803693e-21
2.098512976e-20
3.272484035e-21
9.643029811e-21
2.644541713e-20
5.954671454e-20
1.627129843e-21
1.214784476e-20
1.298541175e-20
2.576170864e-21
2.114837821e-21
3.888312455e-21
2.40345613e-21
3.017823343e-20
2.198667693e-21
2.93377227e-21
4.696334683e-21
1.363851726e-20
8.525671452e-21
2.348564712e-20
1.611239888e-21
4.418729085e-21
7.414883902e-20
4.540949325e-21
1.702947999e-23
1.579619866e-20
1.556947864e-20
5.737789321e-22
7.429772294e-20
1.50909579e-20
8.869833451e-21
4.162443351e-21
7.805910768e-21
2.147342032e-20
2.828669334e-22
8.883387328e-21
5.905117847e-20
2.791056107e-21
3.228846807e-21
2.145818439e-20
1.040634586e-20
2.787143033e-21
2.077929507e-20
1.076083405e-20
1.379316099e-21
4.508696311e-22
2.446799567e-21
2.222205394e-20
9.610628293e-22
2.288229641e-21
3.327987417e-21
4.358579242e-21
9.711797743e-21
7.945681535e-21
1.971913521e-20
5.019652753e-21
5.228212616e-22
1.150118962e-21
7.000720086e-21
2.419984046e-20
1.705407686e-20
1.221536396e-21
2.915226056e-21
6.653672646e-21
8.084417588e-22
1.810954667e-21
3.682782476e-21
1.017159334e-21
1.464461214e-21
7.861921736e-21
2.44190649e-21
2.021446692e-21
8.131984662e-21
2.403216189e-21
1.8001775e-20
5.153810405e-22
1.116761881e-21
2.642730653e-20
8.59446223e-20
1.928843403e-21
1.921504281e-21
9.471528004e-21
2.313189362e-21
3.553012155e-21
2.730449637e-20
1.607583441e-20
9.672467766e-21
1.370286751e-20
5.861352316e-21
5.932138565e-22
4.484680268e-21
3.512600956e-21
1.497545119e-20
1.996603227e-20
2.068630304e-20
8.05423843e-21
2.31795939e-21
4.066481193e-21
1.041963996e-20
2.091563583e-21
1.762566937e-20
3.726102516e-21
6.555226625e-22
1.740209673e-20
3.805106952e-21
2.492494054e-20
2.869547004e-21
1.781221122e-21
4.810115625e-21
2.348459203e-20
8.688863103e-22
2.347711282e-20
2.563681509e-21
6.991783312e-21
3.079435055e-20
1.658309038e-20
1.38088088e-22
1.929180599e-21
9.023373242e-22
1.165843055e-21
7.223349233e-21
7.590947012e-21
3.263823847e-22
6.838991106e-22
1.37008534e-20
2.837585727e-21
4.876225455e-21
1.402448528e-20
9.272836005e-21
8.442117554e-22
1.009752987e-20
2.459526e-21
1.005297023e-21
1.254928847e-20
1.023846964e-20
9.074106579e-21
1.433516235e-20
1.252063318e-20
2.273180274e-21
9.676593214e-24
1.42840461e-20
1.872307845e-21
5.061332501e-21
1.127198559e-20
1.634382519e-20
1.361561507e-20
7.988136005e-22
2.161920142e-22
8.407089446e-21
3.223384425e-21
2.933604731e-22
1.853950738e-22
2.155598691e-21
2.206669234e-20
8.928950986e-22
1.036164716e-20
1.427179497e-20
6.382637912e-21
3.257357337e-20
5.449365453e-21
1.490656585e-20
2.274886742e-22
3.247193491e-21
8.966862757e-21
2.947572811e-20
1.010008302e-21
3.685047086e-21
6.275607247e-21
5.016581048e-21
4.119556302e-21
1.102154786e-20
2.747567199e-20
4.195788427e-21
8.553868918e-22
1.018045634e-21
9.28917798e-21
2.830693305e-23
3.01905352e-21
1.018548189e-20
1.152911569e-21
4.090598366e-21
2.512075532e-20
6.097955277e-21
1.21421318e-20
3.946436337e-21
1.354166126e-20
3.369399537e-22
5.037008768e-22
1.293691134e-21
2.10232974e-21
3.287228886e-21
1.530370298e-20
1.80462136e-20
9.114129488e-22
7.926293735e-22
1.958407593e-22
1.477594982e-21
1.005479258e-20
1.65716449e-21
3.256596749e-21
3.256337165e-21
1.741635212e-21
7.151621229e-21
2.457777424e-20
1.35000921e-20
2.501932816e-20
6.726017022e-21
4.846794341e-21
5.348033866e-22
1.266072726e-20
2.195711623e-21
9.319029465e-21
9.764170204e-21
2.759409833e-21
2.486292008e-21
8.605630357e-21
6.711233751e-22
1.434249921e-21
5.977383176e-21
1.507977644e-21
2.502040329e-21
2.076823695e-21
2.495878353e-21
8.93550276e-21
1.240599666e-21
1.674915346e-21
5.761470805e-21
3.642433721e-21
5.478769565e-21
8.275006326e-21
5.204742071e-21
4.476255943e-22
1.140170995e-21
5.267910287e-22
7.567777634e-21
3.60427182e-21
1.326440305e-21
1.181182459e-20
1.395594527e-20
1.348481835e-21
3.052192213e-21
6.196458201e-22
5.591942179e-21
5.570674196e-20
1.189075047e-20
7.750612161e-21
3.105172511e-20
1.654326142e-21
3.810535794e-21
8.026900982e-21
8.758750836e-22
2.764715812e-22
2.457532981e-21
7.300705683e-21
7.131290017e-21
2.199950444e-21
4.393976459e-21
6.421761676e-21
1.290516716e-20
5.014910299e-21
8.179903046e-23
3.189219878e-21
8.006108223e-21
4.925145167e-22
1.870392502e-20
5.295164651e-21
4.537461173e-21
3.539964269e-21
1.410647036e-20
5.237837495e-21
1.108657402e-21
1.414991709e-21
2.932149883e-21
2.003573456e-22
2.927710227e-21
1.682250577e-21
3.284319131e-21
6.313320409e-21
1.661119633e-20
8.667559763e-22
7.508385274e-21
2.119950584e-20
1.136973917e-22
6.201663383e-22
1.203978447e-21
2.951020754e-21
5.633830478e-21
1.36278864e-20
9.35974117e-21
1.301851494e-21
5.574918887e-21
1.913797903e-20
4.049825075e-21
2.083403514e-20
1.181958619e-24
6.59437726e-22
2.068829529e-21
1.105260625e-22
1.347296295e-22
3.014263065e-21
1.323232476e-20
1.461346014e-20
8.706069448e-21
9.221612855e-21
5.217981532e-21
8.484858252e-21
2.734305987e-21
1.586708848e-21
5.12839338e-21
2.216292798e-21
8.69102405e-22
7.70676138e-22
2.191551113e-20
8.911745969e-21
7.366571167e-21
1.010020589e-21
1.079509243e-20
1.345831812e-20
1.832980509e-21
1.759090517e-21
1.737101363e-20
2.248541918e-22
1.442110694e-20
1.882475835e-21
3.695927105e-21
6.03507597e-21
5.24798961e-21
5.139837064e-21
1.177831091e-20
3.262069379e-22
2.539314471e-22
3.393173078e-21
7.493675348e-21
1.641420166e-21
1.055145385e-20
1.373048564e-21
3.216887553e-21
7.46747035e-22
5.548531829e-21
4.342433663e-21
8.469932037e-21
1.601140898e-21
1.158697922e-20
6.16184728e-22
8.60742733e-21
7.862192101e-22
2.561702026e-21
1.495033024e-20
6.698988304e-21
7.244782732e-21
2.106301073e-21
1.138492882e-20
8.618359694e-21
5.934968583e-21
5.468239835e-21
1.453023903e-20
7.466685866e-21
8.088727598e-21
4.166198606e-21
6.278570816e-21
8.337945839e-22
2.008919866e-20
3.888879842e-21
2.175679072e-21
7.290236465e-21
2.348023829e-21
3.414906695e-20
8.470860099e-23
1.057848124e-20
1.019172781e-20
2.522883685e-20
2.944128554e-21
2.335558739e-22
9.33648646e-21
1.017741554e-21
2.321118256e-22
9.98248328e-21
3.204986503e-21
2.716250838e-21
6.382473203e-22
3.257458964e-20
4.988843061e-21
2.963426315e-21
3.314174615e-22
4.143344177e-21
1.857113867e-21
1.590057381e-20
4.992139816e-21
2.31292923e-21
1.064499213e-20
1.49749235e-21
1.259471719e-20
3.438374848e-21
4.016933144e-22
2.554898321e-21
1.900679931e-21
2.536479833e-21
7.041267357e-21
3.012866383e-21
8.015234814e-21
2.710649941e-21
9.030030054e-21
1.06207661e-21
5.174673861e-21
4.048883112e-21
9.963396632e-22
1.179254447e-20
1.422894785e-20
4.109944256e-20
1.622440966e-20
7.896040015e-21
2.322334038e-21
7.181402575e-21
8.785425907e-21
1.434648138e-21
1.143464441e-20
1.686348432e-20
2.081153284e-21
5.482046174e-21
1.14417439e-20
4.749827031e-23
1.961911658e-22
3.074163068e-22
2.3238698e-21
7.480050399e-22
6.263352497e-21
3.818965755e-21
1.896857308e-21
1.41313708e-21
9.242134201e-23
4.389271219e-21
5.202282549e-21
5.018042043e-22
5.886684921e-22
1.192199674e-20
3.292016201e-21
3.086084597e-21
2.525821719e-21
7.705971908e-21
9.613494769e-21
1.051019303e-20
2.594238284e-20
2.616462833e-21
3.102522047e-21
8.274582413e-21
4.791711347e-21
1.888175685e-21
1.574109172e-21
8.315131909e-20
2.939195915e-20
7.347263091e-21
6.352404845e-21
6.812729565e-21
8.493492671e-22
4.754394687e-21
6.362628183e-21
1.831778379e-22
1.085365521e-21
1.602577541e-20
2.435576959e-21
3.805616205e-21
2.052683051e-21
3.071291172e-21
1.696316669e-20
1.038018924e-20
8.637906879e-22
4.938242456e-21
6.08337936e-21
9.125325937e-22
7.426646191e-21
1.442098863e-21
5.688962132e-21
2.608775827e-21
2.483055909e-21
8.970556138e-22
2.096310004e-21
2.597118728e-21
9.995668825e-22
3.220735352e-21
5.828802731e-21
2.450843495e-21
8.645878491e-21
3.004165619e-21
4.843654805e-21
2.532377398e-21
1.484383021e-20
1.361307149e-21
8.471558626e-22
1.721979786e-20
8.424041012e-21
2.400214008e-21
3.237704001e-21
1.451794686e-20
2.605151503e-21
7.840174089e-21
7.780977441e-22
3.268093842e-21
5.7577384e-21
2.482285897e-20
1.296744083e-21
7.509370071e-21
4.035020826e-21
1.32230659e-21
6.128526545e-22
4.139215018e-21
5.742709779e-21
3.041679644e-22
6.841567361e-21
1.781483859e-21
1.733857433e-21
1.724753174e-21
8.323473729e-22
7.348290694e-21
1.255897032e-21
2.046660271e-21
8.860729821e-21
3.256055523e-21
1.13609579e-20
9.446232035e-22
6.159670863e-23
1.557516864e-22
3.430845323e-21
7.957243719e-22
2.826046471e-21
2.431506056e-20
5.01760225e-21
1.100227967e-20
1.592605502e-21
1.445916614e-21
6.57676804e-21
1.375878104e-21
2.907854489e-22
2.146971895e-22
4.814676458e-21
7.114262143e-22
4.815586008e-22
5.240503279e-22
9.376641232e-21
6.973641648e-22
2.528785954e-21
1.283314383e-21
5.329238978e-21
3.720063632e-21
2.523257458e-20
1.048789091e-20
2.190014093e-21
7.17365902e-22
4.023327113e-21
5.982539807e-21
1.14888283e-21
2.743105256e-20
2.649584253e-21
4.006217185e-21
4.257418653e-20
1.249423225e-21
1.701067e-20
1.863544849e-21
3.958544423e-21
7.237434745e-21
3.654728149e-21
3.406983858e-21
6.434082304e-22
5.915774302e-21
5.138473821e-21
2.86872891e-21
9.018421537e-21
1.809309629e-20
1.288496659e-20
1.790423136e-22
8.159741444e-21
1.411702463e-22
2.89797981e-21
1.98916373e-21
9.68088853e-22
3.003859261e-21
1.242076354e-22
1.613717064e-21
5.468073882e-21
4.30510805e-21
1.365468354e-21
6.790303247e-22
2.813073694e-21
4.904604861e-21
2.066560937e-20
1.078127218e-20
2.625155335e-20
1.428224352e-21
3.587951901e-22
2.938853278e-21
3.488279182e-21
6.159357086e-21
5.008447398e-21
3.623298381e-22
3.964370274e-21
4.963643024e-21
1.236157788e-20
1.177455473e-21
3.316315511e-21
1.901704266e-21
2.832486662e-20
5.59470814e-22
2.294575235e-21
1.679171285e-21
1.633980583e-21
6.894104268e-22
8.325139239e-21
1.130502544e-22
5.926347761e-21
2.828185446e-21
2.474855198e-20
1.243233251e-21
5.351741062e-21
2.058793337e-20
1.817427619e-21
5.831014271e-20
1.004462022e-20
9.726896399e-22
7.956805666e-21
1.873083727e-23
2.389103387e-21
4.424221473e-22
6.676251747e-21
2.674107316e-21
2.294008844e-21
5.973731991e-20
2.176715469e-21
7.393872754e-21
9.830841368e-21
2.631395597e-21
9.221821445e-21
5.774231429e-21
1.977761185e-21
5.617088155e-21
2.919622144e-21
7.666857914e-21
4.903940476e-21
5.968763351e-21
1.407508954e-20
6.312545815e-21
2.714978032e-21
1.283706714e-21
3.646136279e-21
3.740196516e-21
8.751599948e-21
9.88778005e-21
1.959638347e-21
2.847729612e-21
1.531721606e-20
3.941299244e-21
1.098146305e-21
2.045271253e-21
1.331757936e-20
4.860716146e-22
1.332044269e-21
6.074364105e-21
1.252304089e-21
2.958999244e-22
2.934340359e-21
1.341097e-21
2.082321332e-21
4.071672174e-21
6.773088541e-22
2.810123823e-21
4.736569465e-21
5.125812752e-21
5.368720086e-21
5.394204855e-21
3.933098578e-22
1.620571334e-20
3.880539404e-21
5.129330774e-21
2.27281327e-21
1.786639387e-21
7.540465879e-21
1.037825442e-20
3.764200965e-21
3.295861005e-22
6.052366944e-22
2.738489617e-20
1.5174888e-21
9.634070012e-22
3.401225543e-22
2.694688965e-21
4.793128012e-21
4.745912137e-21
2.051582133e-20
2.657764088e-20
3.064648461e-21
1.209248406e-21
1.638779332e-21
2.920807095e-21
1.143509871e-20
2.669713047e-21
3.269672325e-20
1.918137778e-20
5.546027756e-21
6.69795332e-21
1.10314072e-20
5.369199699e-21
2.801554535e-21
1.813730733e-21
6.083105866e-21
3.401276816e-21
7.596579368e-21
8.672894935e-21
8.869629786e-21
2.829749757e-21
4.888864051e-21
6.110738759e-22
8.942107003e-22
4.715342763e-22
7.737840755e-21
3.051053358e-21
4.001117616e-22
4.90721157e-21
1.770674404e-21
6.673876736e-21
2.24845896e-21
4.178251033e-22
1.312030335e-20
1.42255354e-20
8.239646544e-23
4.857684398e-21
1.966889958e-21
2.292467406e-20
6.503424155e-21
2.963225718e-20
2.825934302e-20
9.802714534e-23
6.392100133e-21
2.715130077e-20
7.00008771e-21
3.391869145e-21
1.696901506e-21
3.166225045e-21
1.440659571e-21
1.492849271e-21
3.02527685e-21
6.568660311e-21
1.507408281e-20
7.062820531e-23
3.856721719e-21
3.424088936e-21
6.147669342e-21
3.396353589e-21
5.552234054e-21
5.86552643e-22
4.416156826e-21
5.037383468e-21
4.376716037e-22
3.844074005e-21
2.935053403e-21
5.049154506e-21
1.912522547e-21
5.538830017e-21
9.724306347e-21
2.274391975e-21
4.207202599e-21
5.678063829e-21
2.321483677e-21
1.807619767e-21
5.220338264e-22
1.127123963e-21
5.442223704e-21
3.769898079e-21
1.323596772e-21
6.64975121e-21
3.622913283e-21
2.634296181e-21
3.515656116e-22
1.712289882e-20
2.20100714e-21
1.909044204e-21
6.185232063e-22
5.477923077e-21
4.078537771e-21
9.551234752e-21
1.97103834e-21
4.488452988e-21
5.518235069e-22
9.674919133e-22
1.027467345e-22
1.893670546e-21
3.423005333e-21
1.826216885e-21
3.900855776e-21
3.282369629e-21
2.955632839e-21
1.214067513e-20
1.987262616e-21
4.157943023e-22
2.83532573e-21
1.069407291e-20
1.022058012e-22
2.277540469e-21
2.285518642e-21
1.090452097e-21
5.158715989e-22
7.830079406e-22
4.257179692e-21
1.268687118e-21
5.326280717e-21
1.425062108e-21
3.295812217e-21
1.424427508e-21
2.787856835e-21
2.240282895e-22
2.290045662e-21
2.778436599e-21
5.345838733e-21
8.942778199e-21
5.983093148e-21
3.111523658e-21
8.102483983e-21
4.209404033e-22
7.868465769e-21
5.473742424e-21
9.569030408e-21
2.929390589e-21
2.804567965e-21
3.261631928e-21
7.271092397e-21
2.681435574e-20
2.471629054e-21
1.739358843e-21
9.942514966e-21
4.3598675e-21
5.257557331e-20
6.772671879e-22
3.460746618e-21
7.561064115e-21
8.429892348e-21
1.006880665e-21
2.942621273e-21
3.71022234e-22
5.758968211e-21
5.53108023e-21
4.479573402e-21
5.310634401e-21
1.337277942e-20
2.839200924e-21
7.344494287e-21
3.73857813e-21
2.50094428e-21
2.352204637e-21
1.217556112e-21
1.352629597e-20
1.033039239e-21
8.11227621e-21
4.468489723e-21
1.024622342e-20
1.015497802e-21
8.951465867e-21
9.80996454e-21
3.913543307e-21
2.742856655e-21
1.58847248e-21
9.476268014e-22
2.934923182e-22
1.501978918e-21
1.637942582e-21
8.985837295e-23
6.156769017e-21
3.509030744e-21
1.979046555e-21
2.928781146e-21
1.07667602e-21
6.330212666e-21
1.099715648e-21
1.901354613e-20
1.598884897e-21
5.775713223e-21
1.449251008e-21
1.995779083e-21
3.066820695e-21
4.812475207e-21
3.439407867e-21
7.196558558e-22
3.508194682e-22
1.841554613e-21
3.732177592e-21
6.123530875e-21
4.050679286e-21
2.002805579e-21
2.58103493e-21
1.895627148e-21
8.828044452e-21
2.515887702e-22
1.367083634e-21
7.49561733e-21
4.874501613e-21
1.092298901e-20
2.06511561e-21
4.71810923e-21
1.092576421e-21
2.856536777e-21
3.448857028e-22
2.041104765e-23
1.296064715e-21
1.988414915e-21
3.351456792e-21
1.386555811e-20
1.204126961e-20
5.386080643e-21
6.888169694e-22
2.738223447e-20
3.423920549e-22
3.791241034e-21
7.098358975e-21
8.031144321e-21
4.780111676e-21
1.107926946e-21
7.76475596e-21
1.857653258e-21
7.040309021e-21
4.960535891e-21
3.588398106e-20
3.509042006e-21
5.565512632e-21
4.540036452e-21
1.117177873e-20
1.338983202e-21
4.076883886e-21
3.680057595e-22
4.812006227e-21
5.679260958e-22
7.496468694e-21
5.030538273e-21
5.05319067e-22
9.697412019e-22
7.066764067e-22
1.079862609e-21
3.358976831e-21
7.311524323e-21
1.506359308e-21
3.754341889e-21
6.243161908e-21
1.949058069e-21
1.406838715e-22
1.510403741e-21
3.565575166e-21
1.113707279e-21
7.538315273e-21
3.360484592e-23
1.126666285e-20
1.206534061e-21
3.513925253e-21
3.442176612e-21
8.00093932e-21
1.18744377e-21
1.021292335e-20
3.156805457e-21
8.715281439e-21
1.049781906e-20
3.048960495e-21
1.00196389e-20
3.039489647e-21
6.253583328e-23
8.249594515e-21
1.221158342e-20
3.071066751e-21
6.084927507e-21
3.844331387e-21
6.097234124e-21
8.604189922e-21
9.658577066e-22
7.264096016e-22
6.491012618e-21
4.020960901e-21
5.528108574e-22
3.886599322e-22
4.072301314e-21
3.807431115e-20
1.604422153e-20
1.729090807e-20
1.416508745e-21
5.022638574e-21
3.808583171e-21
2.023089956e-21
1.039240418e-21
7.248195475e-21
8.928270615e-22
1.732763338e-20
6.737067312e-23
1.11343914e-20
3.67333928e-22
2.055101162e-21
3.131024427e-21
2.187122984e-21
5.554861659e-21
2.544079897e-21
2.036692602e-21
1.285507805e-20
3.358505398e-22
5.039461608e-21
4.634391456e-21
2.317797788e-21
2.248417972e-20
4.621838643e-21
5.605816437e-21
7.387394145e-22
9.173360821e-22
2.307952551e-22
2.497534228e-22
3.786813668e-21
6.465850863e-21
5.751593882e-21
1.176462775e-20
6.829608182e-21
6.081374326e-21
1.210496303e-21
3.682489273e-21
1.8834824e-20
8.40035383e-21
9.652575551e-22
6.591132198e-22
6.822010705e-22
7.73852749e-21
6.067024971e-21
1.737561616e-21
1.184538055e-21
1.184044543e-21
2.235502914e-21
3.813733677e-21
4.272908858e-22
2.221202364e-21
7.41965975e-21
6.472224222e-21
3.056560417e-21
5.649163287e-21
1.761599189e-21
2.633587678e-21
2.545675611e-21
9.199096123e-21
9.683705446e-21
2.255528017e-21
3.172026099e-21
2.569347412e-21
1.122423968e-20
7.4633245e-22
8.526923654e-21
2.471856538e-21
1.172235043e-21
6.298192519e-21
8.82207644e-21
1.246051902e-21
1.498323233e-21
5.092597754e-21
2.539489169e-21
1.203650927e-20
7.964120957e-21
1.546810175e-22
5.669239086e-22
5.989053125e-21
6.302463385e-21
8.938003718e-22
1.433040644e-21
1.498740243e-20
6.426740468e-21
1.436892431e-21
7.260240863e-21
2.748077806e-22
1.06470506e-20
1.0044425e-20
3.925670404e-21
8.686404446e-21
2.898466259e-20
1.123111327e-22
3.072397412e-21
3.834519185e-20
1.057881747e-21
3.480578175e-21
9.653758829e-21
2.062403563e-21
8.785658216e-21
1.623882221e-20
6.909327102e-21
1.317293299e-22
4.657144165e-21
4.798636347e-21
4.609052436e-21
2.350393028e-21
1.114188872e-20
7.841634539e-21
1.99043919e-22
5.682199861e-22
4.773461017e-22
2.897827165e-21
1.811376376e-21
7.235309151e-21
4.448172399e-22
1.126646807e-20
1.786520789e-22
5.80365601e-22
1.981641507e-21
2.3113058e-21
2.015675992e-20
2.405914248e-21
6.25813641e-22
5.455178244e-21
2.873166238e-21
1.087544044e-20
7.124197417e-21
3.3722072e-22
6.89156794e-21
4.392531102e-21
3.885061344e-21
1.695521207e-21
2.69521875e-22
2.4090036e-21
3.626190183e-22
4.237240004e-21
3.27574471e-21
7.92096228e-21
7.909693152e-21
2.482756271e-22
7.978262727e-22
1.573160144e-21
8.199600634e-22
9.807019352e-22
8.186250811e-21
9.828462028e-21
7.903582626e-21
1.312572496e-21
3.604526893e-21
1.001811604e-20
9.787806399e-21
7.750854941e-21
5.725196862e-22
3.004433995e-21
3.756328171e-21
1.08101287e-20
3.005616614e-20
1.001143135e-20
1.043544809e-20
1.383930268e-20
8.993752577e-21
1.679191947e-22
2.884256717e-21
3.524813167e-20
6.705503032e-21
1.929275499e-21
4.332753273e-20
1.283756209e-21
1.664197318e-21
7.622995186e-22
1.861879795e-21
7.052340438e-23
5.430409385e-22
2.299454061e-20
6.342126114e-22
9.729163908e-21
6.669573126e-21
4.819130864e-21
2.132312252e-21
4.698097103e-22
9.17582195e-22
3.052678773e-21
1.570216053e-22
2.830005158e-21
4.382795421e-21
4.45487387e-21
8.005823179e-22
9.766492037e-21
1.44784553e-20
5.24194889e-21
1.093228577e-21
5.427542312e-21
1.007904025e-21
4.591909356e-22
3.760480946e-21
8.183313947e-21
2.477376593e-21
2.487192703e-21
5.7617528e-21
5.232301884e-21
5.493853327e-22
2.964040722e-21
1.952955448e-21
4.273891821e-21
3.882164495e-22
5.268635239e-22
7.639631939e-21
1.534441829e-20
1.931779318e-21
2.639317987e-21
1.146985698e-20
4.835784492e-21
2.97719002e-21
3.63167169e-21
1.40724578e-20
3.240049074e-21
5.650032969e-21
3.344832468e-21
1.169980786e-20
2.732585178e-21
3.029159881e-21
3.274973692e-21
2.69338296e-21
3.27279924e-21
1.629672662e-22
2.826109676e-21
1.960614892e-22
4.970930454e-22
2.908053925e-21
1.245532713e-20
4.575885785e-21
4.739223424e-21
3.990874461e-21
9.938633685e-21
1.854104085e-20
1.13817176e-20
5.200230138e-21
1.997286903e-21
5.628248803e-21
5.534471688e-21
6.907961216e-21
9.580206303e-21
1.358796097e-21
6.090709894e-21
1.358834529e-20
2.198589983e-21
4.200426652e-21
3.619073809e-21
3.097540084e-21
7.423033256e-22
4.007889124e-21
5.150121563e-21
7.00992011e-22
9.036165346e-21
3.872793099e-22
5.737333757e-22
7.370052142e-21
6.94569047e-21
3.914683588e-21
2.08380956e-20
5.51710133e-21
1.045029523e-21
1.638260261e-21
2.59558184e-21
3.167146078e-21
5.052696034e-21
6.694615662e-21
2.332822306e-21
1.445626702e-20
4.980996945e-21
2.686120158e-21
1.169206683e-21
3.780281335e-21
3.078322017e-22
6.204263898e-22
3.63722323e-21
9.086261003e-22
4.682222488e-22
5.319958276e-21
7.141097588e-22
5.52795989e-22
7.045341543e-21
3.283222569e-21
3.455358658e-21
6.715302986e-22
1.215528043e-20
1.708996888e-21
1.698938758e-22
4.646648479e-21
6.198256766e-21
4.327320913e-21
1.05098182e-20
7.199408078e-21
7.41576397e-22
1.424318901e-21
7.840881113e-21
1.397103691e-20
2.064722557e-21
3.142794642e-22
3.143528653e-21
3.87764564e-21
6.223322397e-21
2.847090953e-21
2.080220936e-20
8.383827755e-21
6.980821307e-21
4.024879576e-21
9.399959071e-23
3.637761117e-21
1.12129105e-21
6.69438722e-21
1.245101319e-20
2.772850398e-21
9.35618456e-21
1.046453755e-22
4.501030177e-21
1.813869819e-21
2.186684923e-21
5.295241776e-21
1.070281097e-21
3.397560144e-20
2.742256361e-21
9.9904669e-21
2.553131149e-21
8.969129775e-21
3.046813329e-20
1.482604587e-20
1.902933978e-21
8.458073087e-21
1.57277754e-22
2.108965823e-21
6.295107245e-22
1.595219622e-20
1.317327438e-20
2.063607661e-20
1.289098915e-21
4.771729706e-21
1.395192623e-21
1.512537714e-22
2.824048074e-21
1.011554442e-20
9.919953833e-22
1.277163233e-20
7.311727745e-21
6.775247823e-21
3.544875834e-21
6.710417705e-22
3.995031033e-21
1.81987602e-20
1.158071634e-20
2.202503165e-21
3.252664639e-21
4.933250448e-21
9.48251903e-21
3.045044249e-22
4.404545345e-21
4.233336534e-21
6.799037025e-21
9.776356844e-21
1.114987132e-20
1.351635217e-20
2.204853253e-20
7.618078637e-21
1.83981808e-20
3.479810635e-21
1.559727545e-21
6.886142175e-21
5.352587889e-21
2.295671084e-21
7.645213097e-21
2.084776315e-21
3.029617129e-21
2.192023891e-21
8.194315096e-21
4.92907473e-21
1.454159096e-21
4.518230128e-21
2.936986015e-21
3.869801056e-22
2.62897678e-21
6.277503384e-22
8.838387198e-22
1.742417421e-22
1.190244284e-21
1.127061062e-20
9.47373789e-21
7.435157775e-21
4.151138701e-22
1.76176024e-23
1.264294448e-21
6.766486009e-22
3.897365166e-21
7.155028827e-21
1.049402963e-21
1.808801681e-21
4.024033083e-21
5.510984026e-21
3.281581461e-21
5.8763018e-21
1.221904516e-21
2.106278639e-21
1.077033204e-20
2.546842799e-21
6.338780957e-21
6.243791604e-21
3.861812498e-22
1.543438421e-21
8.855876669e-21
3.826573662e-21
6.965869861e-21
2.683941702e-21
1.483946077e-21
1.502027722e-21
1.468479696e-20
3.699186153e-21
5.806239506e-21
8.841292132e-22
4.644451893e-21
1.052875184e-20
7.876306648e-22
6.757438948e-21
3.865390975e-22
1.239395025e-21
6.142457831e-21
2.106760075e-21
2.396267863e-21
3.541896987e-21
7.924948791e-21
1.266395079e-20
9.354929575e-21
9.006911705e-21
1.018082672e-20
3.475956528e-21
1.370965561e-21
2.50998352e-21
6.459782507e-21
2.474455176e-23
5.844220885e-21
1.7166048e-21
2.114044625e-20
2.621949134e-21
1.497708618e-21
2.074835533e-22
5.347742388e-22
4.79672208e-21
2.393050665e-21
4.818798467e-21
6.966351807e-21
4.287257179e-21
1.324237582e-21
9.827327621e-22
9.764289127e-22
4.13043598e-21
8.565301108e-21
1.944073614e-21
5.814126775e-21
3.117131443e-21
2.2153633e-21
5.360364048e-21
4.50797463e-21
9.131669254e-21
1.147319104e-20
4.41849888e-21
2.287490068e-21
1.095258425e-20
3.381881568e-22
4.86287426e-21
6.673835857e-21
5.89741851e-21
3.307261025e-21
5.543971549e-21
3.59905951e-22
2.453066207e-21
2.026098819e-21
4.135785955e-21
4.301347686e-21
8.721193251e-22
1.36390444e-22
7.39725203e-22
3.748279562e-21
6.66035121e-21
9.40774044e-22
6.125673432e-22
2.082077329e-21
3.848630574e-21
2.273183659e-21
1.030852739e-21
6.915252944e-23
2.228708563e-21
1.654341371e-22
6.547954738e-21
3.685365994e-21
1.201819009e-21
3.061619333e-21
4.117881291e-21
2.072702455e-20
1.341681442e-21
1.641500073e-22
1.009405193e-21
1.807536949e-21
4.335709588e-22
6.407971043e-22
6.920163956e-22
1.254739984e-20
4.389907018e-21
2.215131098e-21
1.941098699e-22
8.61469133e-22
2.494821269e-21
7.38898186e-21
5.732180717e-21
1.199012272e-21
2.672608439e-21
5.651370859e-21
2.724103087e-21
1.249939292e-21
1.311150159e-21
6.790423927e-22
1.935997207e-22
3.915780686e-20
9.19369432e-21
1.213526127e-20
4.267624659e-21
2.690114546e-21
9.988822339e-21
7.324780496e-21
6.690662199e-22
6.935871501e-21
5.722265768e-21
3.152644765e-21
2.729084512e-21
1.900323159e-21
6.213605636e-21
3.031289519e-21
1.045838077e-20
7.918754337e-21
1.002962508e-20
2.725701634e-22
4.421820423e-22
3.674483342e-21
4.464945396e-21
1.858029615e-21
1.153299487e-21
5.635307377e-21
2.597956993e-21
5.069586517e-21
5.707842725e-21
1.030166518e-21
4.413204147e-21
1.124068016e-21
4.737353704e-21
6.278599217e-22
7.025741975e-22
2.231399588e-21
1.480279096e-21
1.02409206e-20
3.401905864e-21
5.302338445e-21
2.683253147e-21
1.370557421e-22
1.033416743e-21
1.403270101e-21
1.565613309e-21
5.710551253e-21
4.243758516e-22
3.77907961e-22
4.279787055e-21
1.054892299e-20
4.223002865e-22
2.0103351e-21
3.171831559e-21
1.533495706e-21
1.291978087e-21
2.185789835e-20
5.877341704e-21
1.009108692e-20
4.751327665e-21
9.10154129e-22
9.464587018e-21
4.591820443e-21
1.383925546e-20
6.76633168e-21
1.449467328e-21
1.057484547e-20
6.688554846e-21
7.655787945e-22
1.43368648e-21
1.774016876e-21
3.467844299e-21
8.006250644e-22
8.145696509e-22
5.066903535e-21
7.525865101e-22
1.883195008e-20
7.294799468e-21
3.85344998e-21
8.904404421e-22
8.370218953e-21
5.12404287e-21
1.399390943e-20
3.88377057e-21
1.02586501e-20
6.569415016e-21
1.713450692e-21
1.874983967e-21
4.76318711e-22
3.705745255e-22
1.766156865e-21
5.335357758e-21
9.425868902e-21
3.769426789e-21
7.125420753e-21
1.18803718e-20
1.473796314e-21
7.072423018e-22
6.885118926e-21
4.070736334e-22
1.379088163e-22
3.966328334e-21
4.16600805e-21
1.077090726e-21
3.591158971e-21
9.701372155e-21
2.298361327e-21
4.5547314e-22
1.381485917e-21
8.731243437e-22
3.726904126e-21
6.653758302e-22
6.451025377e-21
2.253484117e-21
3.51935542e-21
5.25654751e-22
2.048082863e-21
8.467723101e-22
1.280391895e-20
8.598797275e-21
2.54933302e-21
3.49065217e-21
6.466976268e-22
2.155818987e-20