/*--------------------------------*- C++ -*----------------------------------*\
| =========                 |                                                 |
| \\      /  F ield         | OpenFOAM: The Open Source CFD Toolbox           |
|  \\    /   O peration     | Version:  2406                                  |
|   \\  /    A nd           | Website:  www.openfoam.com                      |
|    \\/     M anipulation  |                                                 |
\*---------------------------------------------------------------------------*/
FoamFile
{
    version     2.0;
    format      ascii;
    arch        "LSB;label=32;scalar=64";
    class       labelField;
    location    "0.01/lagrangian/dsmc";
    object      origId;
}
// * * * * * * * * * * * * * * * * * * * * * * * * * * * * * * * * * * * * * //


6892
(
496293
496523
500893
501602
501748
501813
502222
502634
502739
502828
503050
503244
503252
503867
503871
504082
504173
504187
504462
504785
504888
504890
504896
504972
504993
504998
505001
505180
505397
505401
505404
505495
505506
505509
505516
505603
505620
505623
505726
505790
505801
505817
506007
506015
506016
506120
506210
506213
506310
506416
506426
506429
506506
506510
506525
506529
506532
506639
506640
506719
506744
506748
506760
506821
506825
506833
506837
506862
506880
506935
506937
506950
506954
507040
507043
507046
507048
507050
507056
507061
507125
507131
507134
507140
507151
507240
507260
507352
507433
507436
507443
507451
507461
507462
507544
507558
507563
507643
507644
507650
507656
507657
507659
507670
507681
507688
507711
507734
507736
507740
507744
507749
507763
507770
507781
507838
507839
507847
507855
507858
507862
507934
507938
507945
507947
507950
507952
507953
507955
507958
507959
508039
508040
508044
508045
508046
508055
508066
508151
508153
508169
508187
508256
508264
508265
508268
508273
508286
508351
508352
508357
508359
508365
508452
508454
508462
508463
508465
508471
508474
508476
508477
508482
508484
508486
508491
508496
508559
508560
508571
508572
508576
508580
508584
508599
508600
508610
508660
508662
508666
508667
508670
508673
508676
508678
508682
508683
508687
508701
508703
508766
508771
508775
508778
508779
508782
508788
508789
508793
508868
508870
508875
508878
508879
508880
508884
508890
508892
508895
508898
508900
508911
508921
508972
508974
508976
508989
508991
508993
508994
508995
509001
509003
509006
509072
509076
509078
509082
509083
509088
509089
509095
509103
509116
509174
509175
509179
509182
509185
509186
509187
509191
509193
509198
509200
509203
509270
509272
509277
509279
509282
509285
509286
509287
509292
509293
509298
509300
509306
509346
509374
509381
509382
509386
509387
509389
509393
509404
509405
509434
509448
509466
509472
509474
509482
509483
509485
509487
509490
509491
509493
509494
509496
509497
509499
509501
509503
509509
509519
509525
509532
509535
509573
509581
509583
509585
509588
509589
509592
509593
509594
509595
509596
509602
509604
509612
509619
509624
509650
509665
509669
509672
509673
509674
509679
509680
509681
509684
509685
509697
509699
509702
509708
509710
509711
509730
509773
509775
509778
509780
509783
509785
509787
509788
509791
509792
509793
509794
509795
509796
509797
509798
509802
509805
509808
509817
509827
509837
509841
509852
509876
509883
509885
509888
509897
509898
509901
509902
509904
509906
509908
509910
509911
509925
509930
509931
509942
509954
509955
509956
509957
509961
509986
509987
509995
509997
509998
510001
510002
510005
510008
510009
510010
510011
510012
510013
510015
510017
510023
510025
510029
510034
510053
510079
510081
510089
510094
510095
510102
510103
510104
510108
510109
510111
510112
510115
510120
510121
510126
510127
510132
510134
510135
510140
510145
510153
510154
510159
510167
510170
510173
510194
510198
510204
510207
510208
510211
510214
510217
510218
510220
510222
510227
510228
510229
510234
510236
510238
510241
510245
510246
510250
510252
510253
510258
510261
510262
510263
510264
510274
510277
510281
510287
510292
510299
510300
510304
510305
510306
510309
510310
510311
510312
510313
510314
510315
510316
510317
510318
510319
510320
510322
510325
510326
510328
510330
510332
510333
510336
510337
510340
510345
510351
510352
510353
510354
510357
510359
510363
510369
510371
510382
510395
510397
510401
510402
510405
510408
510411
510416
510417
510418
510421
510422
510424
510426
510429
510430
510433
510434
510435
510437
510438
510439
510441
510444
510445
510446
510449
510450
510452
510453
510456
510458
510464
510466
510479
510480
510481
510488
510491
510499
510502
510513
510514
510515
510520
510521
510523
510524
510525
510526
510528
510529
510530
510532
510535
510537
510538
510541
510544
510546
510547
510548
510554
510558
510561
510563
510564
510565
510566
510569
510572
510573
510576
510577
510586
510587
510590
510591
510594
510599
510604
510609
510611
510614
510619
510621
510626
510629
510631
510632
510633
510634
510635
510637
510638
510639
510640
510641
510643
510647
510648
510649
510650
510653
510654
510655
510656
510661
510663
510666
510668
510670
510672
510675
510682
510691
510707
510712
510713
510715
510716
510717
510719
510721
510722
510724
510725
510726
510727
510728
510729
510731
510734
510735
510737
510740
510742
510743
510746
510747
510750
510751
510753
510754
510757
510759
510763
510764
510766
510768
510769
510771
510773
510774
510779
510780
510781
510782
510784
510788
510793
510794
510798
510800
510801
510807
510812
510813
510815
510816
510818
510819
510820
510821
510823
510824
510825
510826
510828
510829
510831
510834
510836
510837
510838
510839
510841
510843
510844
510845
510847
510850
510852
510853
510854
510855
510859
510860
510865
510867
510869
510870
510871
510872
510878
510879
510885
510887
510891
510892
510895
510899
510900
437686
437774
438117
510903
510904
510905
510906
510907
510908
510909
510910
510912
510913
510914
510915
510917
510918
510919
510921
510922
510923
510924
510926
510928
510930
510931
510932
510933
510937
510938
510939
510941
510944
510945
510948
510950
510951
510953
510954
510955
510956
510957
510958
510959
510960
510961
510962
510963
510966
510967
510968
510970
510972
510974
510976
510977
510978
510979
510983
510984
510987
510989
510991
510993
511003
511005
511007
511008
511009
511012
511014
511015
511016
511017
511018
511019
511020
511021
511023
511024
511025
511027
511029
511030
511031
511032
511033
511034
511035
511036
511037
511039
511041
511044
511045
511049
511050
511051
511052
511054
511055
511057
511059
511061
511063
511066
511067
511069
511070
511072
511074
511076
511077
511081
511082
511083
511084
511085
511087
511090
511092
511095
511096
511097
511098
511099
511100
511103
511104
511105
437506
511110
511111
511115
511116
511117
511118
511120
511121
511122
511124
511126
511128
511129
511130
511131
511132
511133
511134
511135
511136
511137
511138
511139
511140
511141
511142
511144
511145
511147
511148
511149
511150
511151
511152
511154
511155
511157
511158
511159
511160
511161
511162
511163
511164
511165
511167
511168
511169
511171
511174
511175
511176
511177
511178
511183
511186
511188
511189
511190
511193
511196
511197
511199
511201
511202
511203
511205
511206
511207
511208
511210
511211
511212
437595
437777
438115
511214
511216
511219
511220
511221
511222
511223
511224
511226
511227
511228
511229
511230
511231
511232
511233
511234
511235
511236
511237
511238
511240
511241
511242
511244
511246
511248
511249
511250
511251
511253
511254
511255
511256
511257
511258
511259
511260
511262
511266
511268
511269
511270
511272
511273
511274
511275
511277
511278
511279
511281
511282
511285
511287
511289
511292
511293
511294
511296
511299
511308
511309
511315
511317
511324
511325
511326
511327
511328
511330
511331
511332
511333
511334
511336
511337
511339
511340
511341
511342
511343
511344
511346
511347
511348
511349
511350
511352
511353
511354
511357
511358
511360
511361
511362
511363
511364
511365
511367
511368
511369
511370
511372
511373
511374
511375
511377
511378
511379
511380
511381
511382
511383
511386
511387
511388
511389
511392
511393
511394
511396
511397
511400
511401
511403
511405
511407
511409
511410
511419
438468
511424
511425
511426
511428
511430
511431
511432
511433
511435
511436
511437
511438
511439
511440
511441
511444
511447
511449
511450
511452
511453
511454
511456
511457
511458
511459
511460
511461
511463
511465
511466
511467
511468
511469
511470
511471
511472
511475
511477
511478
511479
511480
511481
511484
511485
511486
511487
511488
511490
511491
511494
511497
511499
511503
511504
511508
511511
511512
511513
511514
511515
511518
511519
511520
511522
511524
511526
511528
511530
511536
511537
511538
511539
511540
511542
511543
511544
511545
511547
511548
511549
511551
511552
511553
511554
511555
511556
511557
511558
511559
511560
511561
511562
511563
511564
511565
511566
511567
511568
511569
511570
511571
511572
511574
511575
511576
511577
511578
511580
511581
511582
511583
511585
511586
511587
511588
511589
511590
511592
511593
511594
511595
511596
511597
511599
511600
511601
511602
511603
511604
511605
511606
511607
511610
511611
511612
511614
511615
511616
511617
511619
511622
511623
511624
511625
511632
511633
511634
511635
511637
511639
511640
511641
511642
511646
511647
511648
511649
511650
511651
511652
511653
511654
511655
511656
511657
511658
511659
511661
511662
511663
511664
511665
511666
511667
511669
511670
511671
511673
511674
511676
511677
511678
511679
511680
511681
511682
511683
511684
511685
511686
511687
511688
511689
511690
511691
511693
511694
511697
511698
511701
511704
511705
511706
511707
511708
511709
511710
511711
511712
511713
511714
511715
511717
511719
511720
511721
511722
511726
511727
511729
511730
511731
511735
511736
511738
511739
511740
511743
511744
511745
511746
511747
511748
511749
511750
511751
511752
511753
511754
511755
511756
511758
511759
511760
511761
511762
511764
511765
511766
511767
511768
511770
511771
511772
511773
511774
511775
511776
511777
511779
511780
511781
511782
511783
511784
511785
511786
511787
511789
511790
511791
511792
511793
511794
511795
511796
511797
511798
511799
511800
511801
511802
511804
511805
511806
511807
511809
511811
511812
511813
511814
511816
511818
511819
511821
511822
511823
511825
511826
511827
511828
511830
511831
437058
510898
511832
511837
511838
511839
511840
511842
511843
511844
511845
511846
511847
511848
511850
511851
511852
511853
511854
511855
511856
511857
511859
511860
511861
511862
511863
511864
511865
511866
511867
511868
511869
511870
511871
511872
511873
511874
511875
511876
511877
511878
511879
511880
511881
511882
511883
511884
511885
511886
511887
511888
511890
511892
511893
511894
511895
511896
511897
511898
511899
511900
511901
511902
511904
511905
511906
511907
511908
511909
511910
511912
511913
511914
511915
511916
511918
511919
511920
511921
511922
511925
511926
511928
511931
511932
511934
511935
511936
438826
511938
511940
511944
511945
511946
511947
511948
511949
511950
511951
511952
511953
511954
511955
511956
511957
511958
511959
511960
511961
511962
511963
511964
511965
511966
511967
511968
511969
511971
511972
511973
511974
511975
511976
511977
511978
511979
511980
511982
511983
511984
511985
511986
511987
511988
511990
511991
511992
511993
511994
511995
511996
511997
511998
511999
512000
512001
512002
512003
512004
512005
512006
512007
512008
512010
512011
512012
512013
512014
512016
512017
512018
512020
512021
512024
512025
512027
512028
512029
512030
512031
512032
512033
512034
512035
512036
438377
512037
512038
512039
512040
512042
512044
512045
512046
512047
512048
512049
512050
512052
512053
512054
512055
512056
512057
512058
512059
512060
512061
512062
512063
512064
512065
512066
512067
512068
512069
512070
512071
512072
512073
512074
512075
512076
512077
512078
512079
512080
512081
512082
512083
512084
512086
512088
512089
512090
512091
512092
512093
512094
512095
512096
512097
512098
512099
512100
512101
512102
512103
512104
512105
512106
512107
512108
512109
512110
512111
512112
512114
512115
512116
512117
512118
512119
512120
512121
512123
512124
512125
512126
512128
512130
512136
512138
437337
512144
512145
512146
512147
512148
512149
512150
512151
512152
512153
512154
512155
512156
512157
512158
512159
512160
512161
512162
512163
512164
512165
512166
512167
512168
512169
512170
512171
512172
512173
512174
512175
512176
512177
512178
512179
512180
512181
512182
512183
512184
512185
512186
512187
512188
512189
512190
512191
512192
512193
512194
512195
512196
512197
512198
512199
512200
512201
512202
512203
512204
512206
512207
512209
512210
512211
512212
512213
512214
512215
512217
512218
512219
512221
512222
512223
512224
512227
512233
512235
512236
438548
438645
512240
512242
512243
512244
512245
512246
512247
512248
512249
512250
512251
512252
512253
512254
512255
512256
512257
512259
512260
512261
512262
512263
512264
512265
512266
512267
512268
512270
512271
512272
512273
512275
512276
512277
512278
512280
512281
512282
512283
512284
512285
512286
512287
512288
512289
512290
512291
512292
512293
512295
512296
512297
512298
512299
512300
512301
512302
512303
512304
512305
512306
512307
512309
512310
512311
512312
512313
512314
512315
512316
512317
512318
512319
512320
512323
512325
512326
512327
512328
512330
512331
512332
512333
512334
512335
438914
512337
512341
512343
512344
512345
512346
512347
512348
512349
512350
512352
512353
512354
512355
512356
512357
512358
512359
512360
512361
512362
512363
512364
512365
512366
512367
512368
512369
512371
512372
512373
512374
512375
512376
512377
512378
512379
512380
512381
512383
512384
512385
512386
512387
512388
512389
512390
512391
512392
512393
512394
512395
512396
512397
512398
512399
512400
512401
512402
512403
512404
512405
512406
512407
512408
512409
512411
512412
512413
512414
512415
512416
512418
512419
512420
512422
512423
512424
512426
512427
512428
512430
512435
512436
512437
512438
512439
512441
512442
512444
512445
512447
512448
512449
512450
512452
512454
512455
512456
512457
512458
512459
512460
512461
512462
512463
512464
512465
512467
512468
512469
512470
512471
512472
512473
512474
512475
512476
512477
512478
512479
512480
512482
512483
512484
512485
512486
512487
512488
512489
512490
512491
512492
512493
512494
512495
512496
512497
512498
512499
512500
512501
512503
512504
512505
512506
512507
512508
512509
512510
512511
512512
512513
512514
512515
512516
512517
512518
512519
512520
512521
512522
512524
512525
512526
512527
512528
512530
512531
512532
512533
512534
512535
512537
512538
512541
512542
438121
438124
512544
512549
512550
512551
512552
512553
512554
512555
512556
512557
512558
512559
512560
512561
512562
512563
512564
512565
512566
512567
512568
512569
512570
512571
512572
512573
512574
512575
512576
512577
512578
512579
512580
512581
512583
512584
512585
512586
512587
512588
512589
512590
512591
512592
512593
512594
512595
512596
512597
512598
512599
512600
512601
512602
512603
512604
512605
512606
512607
512608
512609
512610
512611
512612
512613
512614
512616
512617
512618
512619
512620
512621
512622
512623
512624
512625
512626
512627
512628
512629
512630
512631
512632
512633
512634
512637
512638
512640
512642
512643
437242
437690
438288
439262
439519
512645
512646
512647
512648
512649
512651
512652
512654
512657
512658
512659
512660
512662
512663
512664
512665
512666
512667
512668
512669
512670
512671
512672
512673
512674
512675
512676
512677
512678
512679
512680
512681
512682
512683
512684
512685
512686
512687
512688
512689
512690
512691
512692
512693
512694
512695
512696
512697
512698
512699
512700
512701
512702
512703
512704
512705
512706
512707
512708
512709
512710
512711
512712
512713
512714
512715
512716
512717
512718
512719
512720
512721
512722
512723
512724
512725
512726
512727
512728
512730
512731
512732
512733
512736
512737
512738
512739
512740
512741
512742
512743
512744
512745
512746
512747
438120
512752
512753
512754
512755
512756
512759
512760
512761
512762
512763
512764
512765
512766
512767
512768
512769
512770
512771
512772
512773
512774
512775
512776
512777
512778
512779
512780
512781
512782
512783
512784
512785
512786
512787
512788
512789
512790
512791
512792
512793
512794
512795
512796
512797
512798
512799
512800
512801
512802
512803
512804
512805
512806
512807
512808
512809
512810
512811
512812
512813
512814
512815
512816
512817
512818
512819
512820
512821
512822
512823
512824
512825
512826
512828
512829
512830
512831
512832
512833
512835
512836
512838
512839
512840
512841
512842
512843
512844
512848
512850
512852
512854
512855
437416
512858
512859
512861
512862
512865
512867
512869
512870
512871
512873
512874
512875
512876
512877
512878
512879
512880
512881
512882
512883
512884
512885
512886
512887
512888
512889
512890
512891
512892
512893
512894
512895
512896
512897
512898
512899
512900
512901
512902
512903
512904
512905
512906
512907
512908
512909
512910
512911
512912
512913
512914
512915
512916
512917
512918
512919
512920
512921
512922
512923
512924
512925
512926
512927
512928
512929
512930
512931
512932
512934
512935
512936
512937
512938
512939
512941
512942
512943
512945
512946
512948
512950
512953
512955
512956
512957
512958
512959
512960
512961
512962
512963
512964
438915
512965
512967
512970
512971
512972
512973
512974
512975
512976
512977
512979
512980
512981
512982
512983
512984
512985
512986
512987
512988
512989
512990
512991
512992
512993
512994
512995
512996
512997
512998
512999
513000
513001
513002
513003
513004
513005
513006
513007
513008
513009
513010
513011
513012
513013
513014
513015
513016
513017
513018
513019
513020
513021
513022
513023
513024
513025
513026
513027
513028
513029
513030
513031
513032
513033
513034
513035
513036
513037
513038
513039
513040
513042
513043
513045
513047
513048
513050
513053
513055
513056
513057
513058
438836
439260
439431
513060
513062
513063
513064
513065
513067
513068
513070
513071
513072
513074
513075
513076
513077
513079
513080
513081
513082
513083
513084
513085
513086
513087
513088
513089
513090
513091
513092
513093
513094
513095
513096
513097
513098
513099
513100
513101
513102
513103
513104
513105
513106
513107
513108
513109
513110
513111
513112
513113
513114
513115
513116
513117
513118
513119
513120
513121
513122
513123
513124
513125
513126
513127
513128
513129
513130
513131
513132
513133
513134
513135
513136
513138
513139
513141
513142
513143
513144
513146
513147
513149
513151
513153
513154
513155
513156
513158
513159
503486
438201
513162
513163
513165
513166
513168
513170
513171
513172
513173
513174
513175
513176
513177
513178
513179
513180
513181
513182
513183
513184
513185
513186
513187
513188
513189
513190
513191
513192
513193
513194
513195
513196
513197
513198
513199
513200
513201
513202
513203
513204
513205
513206
513207
513208
513209
513210
513211
513212
513213
513214
513215
513216
513217
513218
513219
513220
513221
513222
513223
513224
513225
513226
513227
513228
513229
513230
513231
513232
513233
513234
513235
513236
513237
513238
513239
513240
513242
513243
513244
513245
513248
513249
513250
513251
513252
513253
513255
513256
513257
513261
513265
513266
513267
513268
513270
513271
438281
439691
440128
513275
513280
513281
513282
513283
513285
513286
513287
513288
513289
513290
513291
513292
513293
513294
513295
513296
513297
513298
513299
513300
513301
513302
513303
513304
513305
513306
513307
513308
513309
513310
513311
513312
513313
513314
513315
513316
513317
513318
513319
513320
513321
513322
513323
513324
513325
513326
513327
513328
513329
513330
513331
513332
513333
513334
513335
513336
513337
513338
513339
513340
513341
513342
513343
513344
513345
513346
513347
513348
513349
513350
513352
513353
513354
513355
513357
513358
513360
513361
513362
513363
513364
513365
513366
513367
513368
513369
513371
513372
513374
513375
513376
513377
513378
513379
513380
513381
513382
513383
513384
513385
513386
513387
513388
513389
513390
513391
513392
513393
513394
513395
513396
513397
513398
513399
513400
513401
513402
513403
513404
513405
513406
513407
513408
513409
513410
513411
513412
513413
513414
513415
513416
513417
513418
513419
513420
513421
513422
513423
513424
513425
513426
513427
513428
513429
513430
513431
513432
513433
513434
513435
513436
513437
513438
513439
513441
513442
513443
513445
513446
513447
513448
513449
513450
513452
513453
513454
513455
513456
513457
513460
513462
513467
513468
438386
439428
513472
513474
513475
513476
513477
513478
513479
513480
513481
513482
513483
513484
513486
513487
513488
513489
513490
513491
513492
513493
513494
513495
513496
513497
513498
513499
513500
513501
513502
513503
513504
513505
513506
513507
513508
513509
513510
513511
513512
513513
513514
513515
513516
513517
513518
513519
513520
513521
513522
513523
513524
513525
513526
513527
513528
513529
513530
513531
513532
513533
513534
513535
513536
513537
513538
513539
513540
513541
513542
513543
513544
513545
513546
513547
513548
513549
513550
513551
513552
513553
513554
513555
513556
513557
513559
513560
513563
513564
513566
513567
513570
513571
512540
513054
440315
513258
513573
513574
513576
513577
513579
513580
513581
513582
513583
513584
513585
513586
513587
513588
513589
513591
513592
513593
513594
513595
513596
513597
513598
513599
513600
513601
513602
513603
513604
513605
513606
513607
513608
513609
513610
513611
513612
513613
513614
513615
513616
513617
513618
513619
513620
513621
513622
513623
513624
513625
513626
513627
513628
513629
513630
513631
513632
513633
513634
513635
513636
513637
513638
513639
513640
513641
513642
513643
513644
513645
513646
513647
513648
513649
513650
513651
513652
513653
513655
513656
513659
513660
513661
513665
513666
513667
513670
506610
439000
439696
439777
513672
513674
513677
513678
513679
513681
513682
513683
513684
513686
513687
513688
513689
513690
513691
513692
513693
513694
513695
513696
513697
513698
513699
513700
513701
513702
513703
513704
513705
513706
513707
513708
513709
513710
513711
513712
513713
513714
513715
513716
513717
513718
513719
513720
513721
513722
513723
513724
513725
513726
513727
513728
513729
513730
513731
513732
513733
513734
513735
513736
513737
513738
513739
513740
513741
513742
513743
513744
513745
513746
513747
513748
513749
513750
513751
513752
513754
513755
513756
513757
513758
513760
513761
513762
513763
513764
513765
513766
513767
513768
513769
513771
513773
437156
513775
513776
513777
513778
513780
513782
513783
513784
513785
513786
513787
513788
513789
513790
513791
513792
513793
513794
513795
513796
513797
513798
513799
513800
513801
513802
513803
513804
513805
513806
513807
513808
513809
513810
513811
513812
513813
513814
513815
513816
513817
513818
513819
513820
513821
513822
513823
513824
513825
513826
513827
513828
513829
513830
513831
513832
513833
513834
513835
513836
513837
513838
513839
513840
513841
513842
513843
513844
513846
513847
513848
513849
513850
513851
513852
513853
513854
513856
513858
513859
513860
513861
513863
513865
513866
513870
513871
513872
513874
513875
513878
513879
513880
513881
513882
513883
513884
513885
513886
513887
513888
513889
513890
513891
513892
513893
513894
513895
513896
513897
513898
513899
513900
513901
513902
513903
513904
513905
513906
513907
513908
513909
513910
513911
513912
513913
513914
513915
513916
513917
513918
513919
513920
513921
513922
513923
513924
513925
513926
513927
513928
513929
513930
513931
513932
513933
513934
513935
513936
513937
513938
513939
513940
513941
513942
513943
513944
513945
513946
513947
513948
513949
513950
513951
513953
513954
513955
513956
513957
513958
513959
513960
513961
513962
513964
513965
513966
513967
513968
513969
513971
513973
513974
513975
513976
438125
438213
438478
439183
439344
439444
439871
440496
513977
513979
513980
513981
513982
513986
513987
513988
513990
513991
513992
513993
513994
513995
513996
513997
513998
513999
514000
514001
514002
514003
514004
514005
514006
514007
514008
514009
514010
514011
514012
514013
514014
514015
514016
514017
514018
514019
514020
514021
514022
514023
514024
514025
514026
514027
514028
514029
514030
514031
514032
514033
514034
514035
514036
514037
514038
514039
514040
514041
514042
514043
514044
514045
514046
514047
514048
514049
514050
514051
514052
514053
514054
514055
514056
514057
514058
514059
514063
514064
514067
514069
514070
514071
514072
514073
514074
514075
438378
439187
439961
440586
440840
514077
514078
514080
514082
514085
514086
514087
514088
514090
514091
514092
514093
514094
514095
514096
514097
514098
514099
514100
514101
514102
514103
514104
514105
514106
514107
514108
514109
514110
514111
514112
514113
514114
514115
514116
514117
514118
514119
514120
514121
514122
514123
514124
514125
514126
514127
514128
514129
514130
514131
514132
514133
514134
514135
514136
514137
514138
514139
514140
514141
514142
514143
514144
514145
514146
514147
514148
514149
514150
514151
514152
514153
514154
514155
514156
514157
514158
514159
514160
514161
514162
514163
514164
514165
514167
514168
514170
514172
514175
514176
514178
514179
514181
514182
514183
514184
514186
438038
439695
440755
440841
440923
514189
514191
514192
514193
514195
514196
514197
514198
514199
514200
514201
514202
514203
514204
514205
514206
514207
514208
514209
514210
514211
514212
514213
514214
514215
514216
514217
514218
514219
514220
514221
514222
514223
514224
514225
514226
514227
514228
514229
514230
514231
514232
514233
514234
514235
514236
514237
514238
514239
514240
514241
514242
514243
514244
514245
514246
514247
514248
514249
514250
514251
514252
514253
514254
514255
514256
514257
514258
514259
514260
514261
514262
514263
514264
514265
514266
514267
514268
514269
514270
514271
514272
514274
514275
514278
514280
514281
514282
440046
511924
514283
514284
514285
514287
514289
514290
514291
514292
514293
514294
514295
514296
514298
514299
514300
514301
514302
514303
514304
514305
514306
514307
514308
514309
514310
514311
514312
514313
514314
514315
514316
514317
514318
514319
514320
514321
514322
514323
514324
514325
514326
514327
514328
514329
514330
514331
514332
514333
514334
514335
514336
514337
514338
514339
514340
514341
514342
514343
514344
514345
514346
514347
514348
514349
514350
514351
514352
514353
514354
514355
514356
514358
514359
514360
514361
514362
514363
514364
514365
514366
514367
514368
514369
514370
514371
514372
514375
514377
514378
514379
514380
514384
514385
514386
504603
439354
440051
440499
441092
441093
514388
514389
514392
514393
514394
514395
514396
514397
514398
514399
514401
514402
514403
514404
514405
514406
514407
514408
514409
514410
514411
514412
514413
514414
514415
514416
514417
514418
514419
514420
514421
514422
514423
514424
514425
514426
514427
514428
514429
514430
514431
514432
514433
514434
514435
514436
514437
514438
514439
514440
514441
514442
514443
514444
514445
514446
514447
514448
514449
514450
514451
514452
514453
514454
514455
514456
514457
514458
514459
514460
514461
514462
514463
514465
514468
514470
514471
514472
514473
514474
514475
514476
514477
439869
440225
440498
514481
514483
514484
514485
514486
514487
514488
514489
514490
514491
514492
514493
514494
514495
514496
514497
514498
514499
514500
514501
514502
514503
514504
514505
514506
514507
514508
514509
514510
514511
514512
514513
514514
514515
514516
514517
514518
514519
514520
514521
514522
514523
514524
514525
514526
514527
514528
514529
514530
514531
514532
514533
514534
514535
514536
514537
514538
514539
514540
514541
514542
514543
514544
514545
514546
514547
514548
514549
514550
514551
514552
514553
514554
514555
514556
514557
514558
514559
514560
514561
514562
514563
514564
514565
514566
514567
514569
514570
514571
514572
514573
514574
514575
514576
514577
514578
514580
514581
514582
514585
514587
514589
514590
514592
514593
514594
438553
438921
440229
440666
440672
441094
441276
514595
514596
514597
514599
514600
514602
514603
514605
514606
514607
514608
514609
514610
514612
514613
514614
514615
514616
514617
514618
514619
514620
514621
514622
514623
514624
514625
514626
514627
514628
514629
514630
514631
514632
514633
514634
514635
514636
514637
514638
514639
514640
514641
514642
514643
514644
514645
514646
514647
514648
514649
514650
514651
514652
514653
514654
514655
514656
514657
514658
514659
514660
514661
514662
514663
514664
514665
514666
514667
514668
514669
514670
514671
514672
514673
514674
514675
514676
514677
514678
514679
514681
514682
514684
514685
514686
514687
514688
514689
440134
511516
514690
514691
514694
514695
514696
514698
514699
514701
514702
514703
514704
514705
514706
514707
514708
514709
514710
514711
514712
514713
514714
514715
514716
514717
514718
514719
514720
514721
514722
514723
514724
514725
514726
514727
514728
514729
514730
514731
514732
514733
514734
514735
514736
514737
514738
514739
514740
514741
514742
514743
514744
514745
514746
514747
514748
514749
514750
514751
514752
514753
514754
514755
514756
514757
514758
514759
514760
514761
514762
514763
514764
514765
514766
514767
514768
514769
514770
514771
514772
514773
514774
514775
514776
514777
514778
514779
514780
514782
514783
514786
514787
514788
514791
514793
514794
514795
514796
502059
511628
512230
439345
514799
514800
514801
514802
514803
514804
514805
514806
514807
514808
514809
514810
514811
514812
514813
514814
514815
514816
514817
514818
514819
514820
514821
514822
514823
514824
514825
514826
514827
514828
514829
514830
514831
514832
514833
514834
514835
514836
514837
514838
514839
514840
514841
514842
514843
514844
514845
514846
514847
514848
514849
514850
514851
514852
514853
514854
514855
514856
514857
514858
514859
514860
514861
514862
514863
514864
514865
514866
514867
514868
514869
514870
514871
514872
514873
514874
514875
514876
514877
514878
514879
514880
514881
514882
514884
514887
514888
514889
514890
514891
514892
514894
514895
514896
514897
514899
439259
439615
439785
440675
441090
514900
514901
514902
514905
514907
514908
514909
514910
514911
514913
514914
514915
514916
514917
514918
514919
514920
514921
514922
514923
514924
514925
514926
514927