/*--------------------------------*- C++ -*----------------------------------*\
| =========                 |                                                 |
| \\      /  F ield         | OpenFOAM: The Open Source CFD Toolbox           |
|  \\    /   O peration     | Version:  2406                                  |
|   \\  /    A nd           | Website:  www.openfoam.com                      |
|    \\/     M anipulation  |                                                 |
\*---------------------------------------------------------------------------*/
FoamFile
{
    version     2.0;
    format      ascii;
    arch        "LSB;label=32;scalar=64";
    class       Cloud<dsmcParcel>;
    location    "0.01/lagrangian/dsmc";
    object      positions;
}
// * * * * * * * * * * * * * * * * * * * * * * * * * * * * * * * * * * * * * //

6892
(
(0.06126058495 0.02045179787 1.626303259e-19) 448
(-0.05685751649 0.1448484075 -5.421010862e-19) 392
(0.0554093091 0.01803166046 -1.084202172e-19) 447
(0.0370951062 0.01991922909 3.252606517e-19) 454
(0.06047056111 0.01771364597 -2.168404345e-19) 447
(0.0600053594 0.02457034933 2.168404345e-19) 457
(0.06951959416 0.04689983287 2.168404345e-19) 489
(0.06158494409 0.01650255569 0) 448
(0.03836310689 0.05861597845 -1.084202172e-19) 505
(0.0518279652 0.03161618693 -1.490777987e-19) 466
(0.07476592628 0.06638193536 0) 509
(0.06628417669 0.06252617065 1.084202172e-19) 508
(0.0734976518 0.04184945393 0) 479
(0.06760135167 0.04910588593 4.33680869e-19) 488
(0.07126753547 0.02722013348 2.168404345e-19) 459
(0.0568374745 0.02742157685 -3.252606517e-19) 457
(0.02089106871 0.02386838996 6.776263578e-20) 462
(0.055892164 0.01619748489 -2.168404345e-19) 447
(0.05669410245 0.02275719651 2.710505431e-19) 457
(0.03840344381 0.04236982822 0) 485
(0.008310491278 0.05440997164 -4.33680869e-19) 511
(0.07514173927 0.05829547265 -1.355252716e-19) 499
(0.06537999724 0.05319143945 0) 498
(0.07376592452 0.02033520662 4.33680869e-19) 449
(0.07310386432 0.02716945319 0) 459
(0.07273200541 0.04552971674 3.252606517e-19) 479
(0.06644219064 0.02772828807 0) 458
(0.07108102305 0.02144031874 -1.76182853e-19) 449
(0.05959205396 0.02315833201 -4.33680869e-19) 457
(0.07170144291 0.02177534652 5.421010862e-20) 449
(0.03628298848 0.02423270341 2.168404345e-19) 454
(0.05613311152 0.02136247599 2.168404345e-19) 447
(0.03587952847 0.03438872364 1.084202172e-19) 474
(0.06821989151 0.03643566222 -2.168404345e-19) 468
(0.06331588338 0.03505179813 -1.897353802e-19) 468
(0.04711454047 0.05868451765 -3.252606517e-19) 506
(0.07302352386 0.04857614455 2.168404345e-19) 489
(0.06013002792 0.01871012574 -1.084202172e-19) 447
(0.04651523083 0.01593201008 0) 446
(0.07205187447 0.01958955812 8.131516294e-20) 449
(0.06132953837 0.03099357341 -8.131516294e-20) 468
(0.04352213143 0.01717478405 2.168404345e-19) 445
(0.04563747162 0.05010956098 0) 495
(0.07282276507 0.06285013109 -4.33680869e-19) 509
(0.04297845135 0.02379291732 -1.084202172e-19) 455
(0.07128713758 0.05042441584 0) 489
(0.04940248999 0.01369357315 2.032879073e-19) 446
(0.07267590611 0.04921498567 0) 489
(0.05578302486 0.03382922881 2.168404345e-19) 467
(0.05602640745 0.01609865001 0) 447
(0.07178889053 0.03685951342 6.776263578e-21) 469
(0.0512603172 0.02642209662 -1.084202172e-19) 456
(0.07596640618 0.03930558155 -4.33680869e-19) 469
(0.06924913375 0.02601625657 0) 459
(0.006530198496 0.03647262637 0) 480
(0.07161568963 0.02570712298 2.168404345e-19) 449
(0.037975765 0.02487595331 -4.33680869e-19) 464
(0.06178640878 0.02203328023 4.33680869e-19) 448
(0.07384470961 0.05904480937 0) 499
(0.06332893757 0.0236842971 0) 448
(0.06380892626 0.06170760848 1.084202172e-19) 508
(0.01253578312 0.007473159526 -1.084202172e-19) 441
(0.05865165945 0.02986550431 1.084202172e-19) 457
(0.06129212043 0.04501869802 0) 488
(0.05006822377 0.0244238324 0) 456
(0.06052043361 0.02996573146 2.168404345e-19) 457
(0.07617312825 0.05258807538 -4.33680869e-19) 489
(0.06740503016 0.01809609041 0) 448
(0.06826773401 0.03247848094 0) 468
(0.04732665656 0.09941000636 0) 566
(0.05887985257 0.05504217072 0) 497
(0.0343889556 0.009685499426 0) 444
(0.06265344546 0.03012009994 3.252606517e-19) 458
(0.07497561518 0.02137718407 0) 449
(0.06912090186 0.03641246691 1.084202172e-19) 469
(0.06421794475 0.01897549807 2.168404345e-19) 448
(0.0362327368 0.01751503159 2.168404345e-19) 454
(0.05351048912 0.01703448921 2.168404345e-19) 447
(0.06552522969 0.02126337591 5.421010862e-20) 448
(0.05729171759 0.0339628578 -1.355252716e-20) 467
(0.03698645997 0.05179177013 0) 494
(0.04990248131 0.09690803973 0) 556
(-0.002506516993 0.05168085303 1.084202172e-19) 139
(0.03368427657 0.009149491559 4.878909776e-19) 444
(0.06343842849 0.01805006364 1.084202172e-19) 448
(0.04964671931 0.09064523329 -1.490777987e-19) 546
(0.02615859467 0.02090645312 0) 453
(-0.004534306398 0.02458843106 -1.084202172e-19) 79
(0.05774545032 0.02491404873 -3.252606517e-19) 457
(0.07596286421 0.04148815114 -4.33680869e-19) 479
(0.07303706241 0.025895382 -4.878909776e-19) 449
(0.03131919103 0.06921798716 0) 524
(0.07335249105 0.0212224663 0) 449
(0.05582243441 0.03506545723 0) 467
(0.05122263829 0.01970592667 -2.168404345e-19) 446
(0.05830647348 0.04369475994 1.084202172e-19) 477
(0.07341082213 0.05011161277 -2.168404345e-19) 489
(0.02482039376 0.01737553233 -3.252606517e-19) 453
(0.07227999247 0.03803863075 0) 469
(0.06912388258 0.09397191505 1.084202172e-19) 549
(0.06401498939 0.02303659808 0) 448
(0.07201268469 0.04041462336 -2.710505431e-19) 479
(0.05796128449 0.05235331528 0) 497
(0.06734632149 0.05468942698 -4.33680869e-19) 498
(0.07015931542 0.02924639887 0) 459
(0.04983461713 0.05626592421 3.794707604e-19) 496
(0.0422940011 0.1089732883 -2.710505431e-20) 575
(0.07004985608 0.0954364234 0) 549
(0.05533825417 0.04111053528 -2.168404345e-19) 477
(0.05062564969 0.01924778112 0) 446
(0.07497297846 0.02152493571 2.168404345e-19) 449
(0.05687376714 0.03267695986 0) 467
(0.04342834532 0.04072218528 -4.33680869e-19) 485
(0.04242376023 0.0189618446 0) 455
(0.0722887191 0.03251308009 2.168404345e-19) 459
(0.02536943548 0.01681406316 -2.710505431e-19) 453
(0.02693010234 0.02466170593 -1.084202172e-19) 463
(0.02771892376 0.04467075594 0) 493
(0.03107932075 0.02394860358 -1.626303259e-19) 464
(0.07366944511 0.02135737687 -2.168404345e-19) 449
(0.06712082872 0.04900850005 2.168404345e-19) 488
(0.0617220915 0.02776938013 -2.710505431e-19) 458
(0.06939984743 0.03845460517 4.33680869e-19) 469
(0.04140960713 0.0260870066 5.421010862e-20) 465
(0.07186211064 0.03087150568 -5.421010862e-20) 459
(0.05068230811 0.04000982319 -2.168404345e-19) 476
(0.06031599292 0.05318810318 0) 497
(0.05882696187 0.02883775881 -3.252606517e-19) 457
(0.04691846269 0.01334395401 -2.168404345e-19) 446
(0.03659223448 0.01174118379 0) 444
(0.05901165115 0.02384264386 2.168404345e-19) 457
(0.04986351429 0.02119201162 0) 456
(0.04246560864 0.01224660273 0) 445
(0.04876490028 0.07608735472 -1.084202172e-19) 526
(0.05755286285 0.1039197488 0) 567
(0.01999873187 0.04283502089 -2.168404345e-19) 492
(0.07034236531 0.08476319109 0) 539
(0.04514183757 0.04957742745 2.168404345e-19) 495
(0.07284305499 0.02345280446 -5.421010862e-20) 449
(0.0566302198 0.07760393788 -1.084202172e-19) 527
(0.07184347451 0.05127662039 -2.168404345e-19) 489
(0.07227076116 0.05872839772 2.168404345e-19) 499
(0.06003899299 0.01909512944 0) 447
(0.04628136443 0.02242000039 -2.168404345e-19) 456
(0.04305242617 0.01208721129 0) 445
(0.0659448708 0.04068890659 -6.505213035e-19) 478
(0.06487941378 0.03590849871 4.065758147e-20) 468
(0.05914573311 0.01966135998 0) 447
(0.04295535943 0.02591457948 0) 455
(0.03406933452 0.05293124429 -2.439454888e-19) 504
(0.02811223692 0.02033169427 1.084202172e-19) 453
(0.05431886852 0.07426695446 -2.168404345e-19) 527
(0.04451263037 0.02853558233 -2.168404345e-19) 465
(0.06774654345 0.02770294073 0) 458
(0.03484503031 0.03771864105 2.168404345e-19) 474
(0.06756129092 0.02674236034 0) 458
(0.07470747818 0.02761172398 0) 459
(0.06406862958 0.02372181879 0) 448
(-0.01568117261 6.268904602e-05 4.33680869e-19) 17
(0.06857204459 0.05000007081 -8.131516294e-20) 488
(0.04720074802 0.1033397114 1.084202172e-19) 566
(0.05938410797 0.04167127444 0) 477
(0.05598941868 0.01756452854 -3.862470239e-19) 447
(0.06484736616 0.0347528688 8.131516294e-20) 468
(0.06745215385 0.06995393246 0) 518
(0.05711771396 0.05587985381 1.084202172e-19) 497
(0.06528688892 0.04688377502 -2.168404345e-19) 488
(0.0257778366 0.0252764409 1.660184577e-19) 463
(0.0748529613 0.02117156821 0) 449
(0.06911051568 0.05396953958 -2.168404345e-19) 499
(0.01397666609 0.01785212358 4.33680869e-19) 451
(0.003025984472 0.01348791086 0) 450
(0.0416826287 0.0147331235 -2.032879073e-19) 445
(0.06932732021 0.05994785813 0) 499
(0.05537198523 0.03717355307 -4.33680869e-19) 477
(0.05837750872 0.01664583474 0) 447
(0.06728603577 0.06209543264 0) 508
(0.07529924608 0.02760996189 -2.168404345e-19) 459
(0.02094678801 0.05459607696 0) 502
(0.06561891906 0.02255906595 0) 448
(0.05010395933 0.02771303907 1.084202172e-19) 456
(0.05086661203 0.0308971314 -5.421010862e-20) 466
(0.01849457511 0.04086601008 4.33680869e-19) 482
(0.07229517631 0.03201383454 2.168404345e-19) 459
(0.06621663041 0.02364946675 0) 448
(0.0337719264 0.02983207152 0) 464
(0.03722503453 0.02392021766 0) 454
(0.0759165867 0.04366679212 -3.252606517e-19) 479
(0.07015185143 0.07940837185 0) 529
(0.07320356201 0.02105840616 4.33680869e-19) 449
(0.07195348675 0.03721062375 0) 469
(0.06476695697 0.02528083163 1.863472484e-20) 458
(0.06330797403 0.09344666323 -1.084202172e-19) 548
(0.06097929171 0.03152291656 4.33680869e-19) 468
(0.05401778231 0.0270383235 2.168404345e-19) 457
(0.06392350548 0.04786817427 -1.626303259e-19) 488
(0.06261279714 0.03581107269 1.084202172e-19) 468
(0.05956801876 0.06077843879 2.168404345e-19) 507
(0.05968159914 0.02213975259 4.33680869e-19) 447
(0.04113359054 0.01323007888 -5.421010862e-20) 445
(0.04382575819 0.01297466732 2.168404345e-19) 445
(0.03412132753 0.05252998925 0) 494
(0.07234175281 0.04879069592 1.016439537e-20) 489
(0.0662315209 0.02375827031 -1.084202172e-19) 448
(0.052962641 0.01886109215 0) 446
(0.06817895603 0.02324465932 0) 448
(0.04711498568 0.01665495282 -2.710505431e-19) 446
(0.05139435339 0.02910181975 2.168404345e-19) 466
(0.07022670701 0.08236004499 2.168404345e-19) 539
(0.05065994656 0.01949349039 -5.421010862e-19) 446
(0.06666771599 0.04592629267 2.168404345e-19) 478
(0.07253248065 0.04909296289 0) 489
(0.07253111857 0.02632710345 2.032879073e-19) 449
(0.0686230172 0.02687053583 -3.252606517e-19) 459
(0.04840704559 0.01628942607 1.626303259e-19) 446
(0.03466450591 0.009498145929 0) 444
(0.07121964156 0.02254227415 -2.168404345e-19) 449
(0.02373939925 0.01700599731 -2.168404345e-19) 453
(0.04795338104 0.04533202191 2.710505431e-20) 486
(0.05980889156 0.02786247846 2.168404345e-19) 457
(0.0709885808 0.06029971799 -1.084202172e-19) 499
(0.07559157899 0.02249830321 -1.084202172e-19) 449
(0.07379558405 0.0774570932 2.168404345e-19) 529
(0.04612659231 0.05904282939 0) 506
(0.07397208208 0.06864062649 4.33680869e-19) 509
(0.04549550129 0.01574683054 1.456896669e-19) 445
(0.04183149684 0.0356957306 -6.776263578e-21) 475
(0.04198381704 0.01420372076 0) 445
(0.04509195909 0.08413477223 -4.33680869e-19) 545
(0.05548716731 0.03131636693 -9.486769009e-20) 467
(0.06278555352 0.0410896299 1.084202172e-19) 478
(0.06583498158 0.02277055191 -1.084202172e-19) 448
(0.07297248594 0.05366422299 1.084202172e-19) 489
(0.04097012044 0.0150581382 5.421010862e-20) 445
(0.06171717233 0.04024130852 -2.168404345e-19) 478
(0.01079722671 0.004816963344 1.626303259e-19) 441
(0.03884370228 0.01768324069 0) 455
(0.04714617862 0.02959972501 -2.168404345e-19) 466
(0.06683716731 0.03469801984 5.421010862e-19) 468
(0.06051259321 0.01926033121 5.421010862e-20) 447
(0.05126273681 0.0356298467 0) 476
(0.03871847137 0.01795850653 2.168404345e-19) 455
(0.0526539524 0.04431893032 0) 486
(0.04057739974 0.07329845072 -1.084202172e-19) 525
(0.05584998827 0.07275955826 2.168404345e-19) 527
(0.05907884522 0.04725728893 0) 487
(0.05465427157 0.03448574763 -2.168404345e-19) 467
(0.06598626118 0.03980646769 0) 478
(0.04488733041 0.02218469629 -1.084202172e-19) 455
(0.04105918991 0.01589452237 -5.421010862e-20) 445
(0.07565934988 0.03091724491 0) 459
(0.05809482435 0.0176137675 0) 447
(0.07163887616 0.06763978845 -2.168404345e-19) 509
(0.07224897513 0.06931068075 -6.776263578e-20) 519
(0.001233343932 0.04355225035 -2.168404345e-19) 490
(0.06689291615 0.02144794801 -1.874060396e-19) 448
(0.06372295605 0.02666298534 -6.505213035e-19) 458
(0.02465184177 0.02001177025 0) 453
(0.03879639433 0.1125584994 2.032879073e-19) 585
(0.06438187489 0.1503881576 2.168404345e-19) 628
(0.02484206127 0.04019317435 -1.626303259e-19) 483
(0.03900100152 0.02947897869 0) 465
(-0.01724699529 0.02866602827 0) 77
(0.02932719255 0.01235290491 -2.168404345e-19) 443
(0.051294924 0.01640784221 1.084202172e-19) 446
(0.04010767863 0.01564602876 0) 445
(0.06449948717 0.01831459817 2.710505431e-19) 448
(0.05257486795 0.01461052537 0) 446
(0.05229974809 0.06571605639 2.168404345e-19) 516
(0.07343529344 0.09051683594 2.168404345e-19) 549
(0.06448677147 0.141601158 2.981555974e-19) 618
(0.05965148462 0.1337904203 2.168404345e-19) 607
(0.05473737524 0.1349590515 -2.710505431e-19) 607
(0.0282059945 0.01225920885 1.084202172e-19) 443
(0.05068255869 0.0287167796 -2.168404345e-19) 466
(0.04445372786 0.0420375104 -2.168404345e-19) 485
(0.004358877662 0.01745017058 -4.33680869e-19) 460
(0.05735219336 0.01699192967 2.168404345e-19) 447
(0.05513742275 0.02892253278 2.168404345e-19) 457
(0.04942107193 0.03375289611 2.168404345e-19) 466
(0.03864981547 0.01102199463 -6.776263578e-20) 445
(0.05785091955 0.0420336066 0) 477
(0.07277976309 0.03412119573 -2.168404345e-19) 469
(0.02346361756 0.0936686334 0) 553
(0.05332237031 0.04815583345 4.33680869e-19) 486
(0.05415184538 0.06115577876 -2.710505431e-20) 507
(0.0472489472 0.03779846705 -6.505213035e-19) 476
(0.0752134505 0.05912302596 0) 499
(0.07319453498 0.04942798036 -2.168404345e-19) 489
(0.05032456329 0.04087050358 0) 476
(0.06763565672 0.07224539522 0) 518
(0.06563631706 0.07545889442 0) 528
(0.02535103185 0.02737105687 -4.33680869e-19) 463
(0.05425152708 0.02615891849 -1.084202172e-19) 457
(0.0474909824 0.0288742556 -7.318364664e-19) 466
(0.06175335908 0.04268396542 0) 478
(0.06689586917 0.03412085968 -1.084202172e-19) 468
(0.05613416286 0.05125365582 1.084202172e-19) 497
(0.06927792699 0.05382154245 0) 499
(0.03739738286 0.03345767025 -2.168404345e-19) 474
(0.05827449576 0.03511062375 1.084202172e-19) 467
(0.07103689311 0.03568783952 -1.626303259e-19) 469
(0.07073005172 0.09550799108 1.084202172e-19) 549
(0.02110234474 0.07603822539 -2.168404345e-19) 532
(0.03248631496 0.07170315283 -3.252606517e-19) 524
(0.03959903499 0.03142902954 6.505213035e-19) 465
(0.04034245616 0.1032470642 -2.168404345e-19) 565
(0.04152971439 0.09160984867 -5.421010862e-20) 555
(0.07243829545 0.1305976043 3.388131789e-20) 599
(0.07084126805 0.1450686592 0) 619
(0.06835790396 0.03379477639 0) 468
(0.007756786197 0.004702478516 4.33680869e-19) 441
(0.07038144315 0.03389529665 -2.168404345e-19) 469
(0.0715470201 0.03982115349 0) 469
(0.03270162694 0.01263757629 1.084202172e-19) 444
(0.07095682452 0.07007690347 0) 519
(0.05251869826 0.04367518544 2.168404345e-19) 486
(0.06863326013 0.03276080412 2.168404345e-19) 469
(0.03380723193 0.1190095318 5.421010862e-20) 594
(0.06424207069 0.0216765239 0) 448
(0.06098064939 0.1132394604 2.168404345e-19) 578
(0.03374221996 0.03879900967 -5.421010862e-20) 484
(0.04914496723 0.08974264912 1.084202172e-19) 546
(0.04020720526 0.06242611811 -2.168404345e-19) 515
(0.03277100233 0.01307184319 5.421010862e-20) 444
(0.06983107922 0.08063668543 2.168404345e-19) 529
(0.0608883508 0.02690739284 2.40557357e-19) 457
(0.03069154665 0.01216620683 -5.421010862e-20) 444
(-0.002589348827 0.0337019162 1.253608762e-19) 99
(0.07399596778 0.02828986958 0) 459
(0.05673936933 0.02558685408 4.065758147e-20) 457
(0.05604170853 0.04416990588 -1.084202172e-19) 487
(0.07580314269 0.05295125603 2.168404345e-19) 489
(0.05695438241 0.03841152785 2.168404345e-19) 477
(0.07267750232 0.03533714713 -2.168404345e-19) 469
(0.03471080798 0.009947223225 0) 444
(0.07430160212 0.0696896928 0) 519
(0.07237812296 0.04962581245 3.726944968e-19) 489
(0.07496436214 0.04261807082 -2.168404345e-19) 479
(0.04028204414 0.0175783233 1.084202172e-19) 445
(0.05085132835 0.05864072132 0) 506
(0.06997565874 0.05041805707 -1.626303259e-19) 489
(0.03513602186 0.01859365688 2.168404345e-19) 454
(0.01356565424 0.0106188461 -4.33680869e-19) 441
(0.0339696166 0.01527801321 4.33680869e-19) 444
(0.07102000823 0.06847222994 3.252606517e-19) 519
(0.06790057945 0.07020964625 2.168404345e-19) 518
(0.05208754392 0.0837310918 0) 536
(0.06680120077 0.04572446329 2.168404345e-19) 478
(0.0490466513 0.1598890524 -2.710505431e-20) 646
(0.00686280541 0.01487645278 -2.168404345e-19) 450
(0.06014485327 0.02148663804 0) 447
(0.06519926342 0.05017351603 -5.421010862e-20) 488
(0.05771268081 0.03754244562 2.168404345e-19) 477
(0.06843577712 0.02966698515 -4.33680869e-19) 458
(0.04538827258 0.02953154371 -1.084202172e-19) 465
(0.04623512266 0.04160894809 -2.168404345e-19) 486
(0.05478873838 0.0536643123 6.505213035e-19) 497
(0.06979354167 0.07941651581 0) 529
(0.03249391553 0.02543253437 2.168404345e-19) 464
(0.0447721746 0.03507281388 0) 475
(0.07199738951 0.07050764647 -2.168404345e-19) 519
(0.02438212972 0.08175057896 1.355252716e-19) 543
(0.04781439627 0.1013316076 -2.710505431e-20) 566
(0.06727211122 0.1134430945 0) 578
(0.04736513648 0.05955561518 -1.355252716e-20) 506
(0.06994897058 0.06496829933 -2.168404345e-19) 509
(0.06967976348 0.09875758088 0) 559
(0.07009527286 0.03427326123 -4.065758147e-20) 469
(0.03031580964 0.08685106286 -4.33680869e-19) 543
(0.06973974597 0.1196894648 -1.084202172e-19) 589
(0.06645238048 0.1231085661 2.168404345e-19) 588
(0.06844153641 0.05514124566 -2.168404345e-19) 498
(0.05990641802 0.02633575807 2.168404345e-19) 457
(0.03343704026 0.01667315208 2.710505431e-19) 454
(0.06305019937 0.04006701757 -3.252606517e-19) 478
(0.03552201686 0.05618427342 1.084202172e-19) 504
(0.05806819699 0.02626845724 1.084202172e-19) 457
(0.06168504041 0.03158841321 -5.421010862e-20) 468
(0.03182153142 0.04743624764 1.084202172e-19) 494
(0.01690203696 0.04853782582 -2.168404345e-19) 492
(0.04378053233 0.01859149908 0) 445
(0.06735930569 0.04765640149 2.168404345e-19) 488
(0.04624113661 0.03336941535 0) 466
(0.07031474095 0.05105642303 -5.421010862e-20) 489
(0.04830932575 0.09304363047 1.084202172e-19) 556
(0.05945982353 0.05363447576 -2.168404345e-19) 497
(0.0335807602 0.02191437351 -1.084202172e-19) 454
(0.07522973306 0.0390462172 2.168404345e-19) 469
(0.05748046861 0.07395450448 2.168404345e-19) 527
(0.04335936848 0.02876201796 0) 465
(0.05218707813 0.01776808765 0) 446
(0.07538107636 0.1040611443 2.168404345e-19) 559
(0.06807974992 0.1543791642 2.168404345e-19) 638
(0.0647182237 0.1244879822 7.792703115e-20) 598
(0.04499379387 0.0837916314 2.168404345e-19) 535
(0.03882390402 0.01480560138 2.168404345e-19) 445
(0.0361934443 0.05560544892 0) 504
(0.06312713226 0.04788123627 -5.421010862e-19) 488
(0.06678764275 0.02366140699 0) 448
(0.06066950393 0.02227506082 0) 447
(0.05108784386 0.01907212367 -3.252606517e-19) 446
(0.06920486879 0.04922313203 0) 489
(0.04417667398 0.01655518869 2.168404345e-19) 445
(0.06814892451 0.03125125541 -2.168404345e-19) 458
(0.0182262259 0.0125482344 -1.626303259e-19) 452
(0.06374434015 0.06808949457 0) 518
(0.0607837905 0.04686202272 -1.084202172e-19) 487
(0.05051624959 0.0829557983 1.084202172e-19) 536
(0.07614236788 0.03945255466 0) 469
(0.04981904513 0.03543389328 2.168404345e-19) 476
(0.05368686379 0.0703255521 2.168404345e-19) 517
(0.0667875091 0.1142768041 -2.168404345e-19) 578
(0.06295108298 0.04730363517 8.131516294e-20) 488
(0.07393045369 0.07894869808 -8.131516294e-20) 529
(0.05811924294 0.0990563914 0) 557
(0.05625108311 0.1412294771 1.626303259e-19) 617
(0.04000375561 0.09615774357 0) 555
(0.07322225505 0.1355382613 1.626303259e-19) 609
(0.06435356561 0.1151689756 -4.33680869e-19) 578
(0.07475956285 0.1323260226 -2.168404345e-19) 609
(0.0256064689 0.01190331853 1.897353802e-19) 443
(0.06318513835 0.05340682638 3.252606517e-19) 498
(0.02633679641 0.007701218075 -2.981555974e-19) 443
(0.02262364682 0.008579573429 3.252606517e-19) 442
(0.03834871777 0.04523356901 4.33680869e-19) 485
(0.06748458717 0.06317950692 -1.626303259e-19) 508
(0.07209390551 0.02215056889 1.355252716e-19) 449
(0.007709301023 0.007529642396 2.168404345e-19) 441
(0.01398764855 0.01419518599 1.084202172e-19) 451
(0.02586900655 0.0595222617 -4.878909776e-19) 513
(0.05545059428 0.05127920336 3.252606517e-19) 497
(0.0377443485 0.05628945532 1.084202172e-19) 504
(0.07578191844 0.03525088968 0) 469
(0.06108455306 0.01643324154 4.33680869e-19) 448
(0.07532372578 0.05001977682 0) 489
(0.05342236182 0.01749463403 0) 447
(0.06582059109 0.0362641431 0) 468
(0.06089449168 0.02391863101 4.33680869e-19) 457
(0.06043615662 0.09051942818 -3.252606517e-19) 547
(0.05892882552 0.0823431813 -3.252606517e-19) 537
(0.06064378831 0.04987482506 -2.168404345e-19) 487
(0.0678090723 0.05295140953 2.168404345e-19) 488
(0.0507723395 0.1162838667 0) 586
(0.03065777713 0.06651090159 4.472333962e-19) 514
(0.07389811492 0.1167244964 0) 579
(0.07540604535 0.09865566662 0) 559
(0.04967099051 0.09436436743 1.084202172e-19) 556
(0.03328544789 0.1396790428 -2.168404345e-19) 614
(0.06161175728 0.09684879377 0) 558
(0.04551328629 0.1101135954 0) 575
(0.05778494232 0.104441621 -5.421010862e-20) 567
(0.0755253265 0.1231947489 2.168404345e-19) 589
(0.06082018982 0.1138331161 0) 577
(0.01476832908 0.07163888665 0) 531
(0.04913346243 0.05875989914 5.421010862e-20) 506
(0.02788877256 0.0389001573 4.33680869e-19) 483
(0.03219546492 0.01636588199 2.168404345e-19) 454
(0.04363677562 0.04865992166 2.168404345e-19) 495
(0.07061636748 0.04050141592 2.168404345e-19) 479
(0.07220241259 0.04381814466 1.151964808e-19) 479
(0.06284578751 0.06497686501 1.626303259e-19) 508
(0.03725475274 0.01251004192 -1.084202172e-19) 444
(0.07296446384 0.04335181333 2.168404345e-19) 479
(0.04610186019 0.02028432092 8.131516294e-20) 456
(0.06494618089 0.06554483391 2.439454888e-19) 508
(0.07316918122 0.04556031715 -2.168404345e-19) 479
(0.06816020841 0.06447874385 2.168404345e-19) 508
(0.06183889482 0.03285957143 -3.252606517e-19) 468
(0.05893097385 0.02600985729 -1.084202172e-19) 457
(0.0491558412 0.0415469847 0) 476
(0.0377834529 0.01570762109 -4.33680869e-19) 444
(0.07247433904 0.06700273055 2.710505431e-20) 509
(0.03743006081 0.06613374022 0) 514
(0.07518983279 0.09075808909 2.168404345e-19) 549
(0.05632635882 0.03690363338 -1.084202172e-19) 477
(0.06396260377 0.05881838371 0) 498
(0.06224481951 0.01778458217 -2.168404345e-19) 448
(0.05970837926 0.06919317429 -2.303929617e-19) 517
(0.06078216209 0.0926176066 -4.33680869e-19) 547
(0.05928499974 0.04611037673 2.168404345e-19) 487
(0.03201262425 0.1217643495 -1.084202172e-19) 594
(0.02060474803 0.03702137827 0) 482
(0.06520012973 0.04447971934 -2.710505431e-20) 478
(0.06581476539 0.1442221808 5.421010862e-19) 618
(0.04643073832 0.09084170247 0) 546
(0.06532131961 0.06038748929 -2.168404345e-19) 508
(0.02515909652 0.1407909171 -2.168404345e-19) 623
(0.04986701966 0.128961721 2.168404345e-19) 606
(0.05928253506 0.1281835326 2.168404345e-19) 597
(0.06686661775 0.1236444502 0) 588
(0.06443159178 0.09812865 -5.692061406e-19) 558
(0.05671373603 0.1542516812 0) 637
(0.0394462346 0.1219243026 -2.168404345e-19) 595
(0.06718485469 0.04931623123 1.626303259e-19) 488
(0.04951475544 0.06547911512 5.217722955e-19) 516
(0.07567999053 0.04965234615 4.33680869e-19) 489
(0.01310660379 0.02544395195 3.252606517e-19) 461
(0.05188810757 0.0287088095 -2.168404345e-19) 466
(0.0401769589 0.01669204789 6.505213035e-19) 445
(0.05121311689 0.01690847329 -5.421010862e-20) 446
(0.05414892789 0.02508221634 -2.168404345e-19) 457
(0.05572590573 0.01510484025 0) 447
(0.04871230389 0.04938131939 1.626303259e-19) 496
(0.0426868473 0.01677264089 5.421010862e-20) 445
(0.07079422309 0.08283799949 2.168404345e-19) 539
(0.03157245261 0.0424550756 0) 484
(0.05867256864 0.1046210496 -4.33680869e-19) 567
(0.07145847841 0.1037648419 0) 569
(0.02481155366 0.02572591453 5.421010862e-20) 463
(0.05808731097 0.01874276477 -5.421010862e-20) 447
(0.06702565272 0.06297931123 5.421010862e-20) 508
(0.06076366359 0.03225754102 0) 467
(0.05616365754 0.0463757209 -1.355252716e-20) 487
(0.05592779915 0.07055937034 0) 517
(0.07589966794 0.03677910188 -4.33680869e-19) 469
(0.05828865979 0.1021313163 0) 567
(0.005876499425 0.08505056496 -2.168404345e-19) 550
(0.0660215568 0.0667884009 2.168404345e-19) 508
(0.07445446709 0.06824752421 -2.168404345e-19) 509
(0.04652420264 0.06327963735 0) 516
(0.06969715687 0.04283935848 0) 479
(0.067521452 0.06962087834 3.252606517e-19) 518
(0.06547811731 0.04113693179 -3.252606517e-19) 478
(0.05946982039 0.1084741499 0) 577
(0.05283399117 0.1279211964 2.168404345e-19) 596
(0.03596400631 0.1307814293 4.33680869e-19) 604
(0.06153218663 0.1533493116 0) 638
(0.04593253697 0.135286303 -5.421010862e-20) 616
(0.04824305785 0.1440134798 -2.168404345e-19) 626
(0.04715807963 0.1519616227 -2.168404345e-19) 636
(0.05883362499 0.06708996183 2.168404345e-19) 517
(0.0429349799 0.021955822 2.710505431e-20) 455
(0.06006146626 0.02831020434 -2.168404345e-19) 457
(0.01325025534 0.03657538003 5.421010862e-20) 481
(0.06955819233 0.03116032515 0) 459
(0.04436818361 0.03240673044 2.168404345e-19) 465
(0.05875079476 0.02248326024 2.168404345e-19) 447
(0.03667275014 0.03466871902 -3.252606517e-19) 474
(0.017430616 0.04062211093 1.084202172e-19) 482
(0.07340669346 0.04393841744 8.131516294e-20) 479
(0.007403318383 0.05415424007 0) 510
(0.02621241675 0.04097997796 0) 483
(0.04926543447 0.05990894878 -1.558540623e-19) 506
(0.06724578388 0.06864031155 0) 518
(0.02553118377 0.06415957952 -1.084202172e-19) 513
(0.06742539272 0.05300099943 0) 488
(0.05596084961 0.05659118879 3.252606517e-19) 497
(0.02923951503 0.01878066784 -3.896351557e-20) 453
(0.02661189325 0.03947496782 4.33680869e-19) 483
(0.06517244559 0.07819063952 -1.355252716e-19) 528
(0.07065138527 0.1114621989 1.084202172e-19) 579
(0.05633270025 0.04027040752 -2.710505431e-20) 477
(0.06742790236 0.1009636182 0) 558
(0.0741745355 0.06940100683 0) 519
(0.05565079767 0.1265641182 -3.252606517e-19) 597
(0.06676173689 0.1229759119 0) 588
(0.06267266397 0.07989976414 -1.084202172e-19) 528
(0.05690485178 0.1078681982 1.355252716e-19) 577
(0.07054174833 0.09546646304 1.084202172e-19) 549
(0.03318919972 0.09501089122 2.168404345e-19) 554
(0.05389776376 0.088486753 -4.33680869e-19) 547
(0.0709903407 0.09927990383 -2.710505431e-19) 559
(0.06598229214 0.1534320796 -2.168404345e-19) 638
(0.07525047832 0.11461711 -2.168404345e-19) 579
(0.06455394858 0.1220475622 -4.33680869e-19) 588
(0.0643971035 0.1219546882 0) 588
(0.06401611885 0.1142462125 6.505213035e-19) 578
(0.06172658052 0.1172726512 0) 588
(0.04436996162 0.09591472233 -2.168404345e-19) 555
(0.01684124462 0.1661578198 -1.626303259e-19) 652
(0.04423982895 0.1221754512 -2.168404345e-19) 595
(0.02023953809 0.009305913904 1.084202172e-19) 442
(0.060333705 0.04933416915 -4.33680869e-19) 487
(0.04358790968 0.02436306865 1.084202172e-19) 455
(0.06029866352 0.04770507566 0) 487
(0.06198974734 0.02374144292 0) 458
(0.0628217612 0.02921643312 2.168404345e-19) 458
(0.04522160053 0.03691796947 -5.421010862e-20) 475
(0.05695546298 0.03513811859 0) 467
(0.04105139597 0.02580821254 1.626303259e-19) 465
(0.05813921274 0.07477763488 2.168404345e-19) 527
(0.07220258441 0.06453316159 4.065758147e-20) 509
(0.05425105505 0.0788274153 0) 537
(0.0597308864 0.04411748436 4.33680869e-19) 477
(0.06972695311 0.05810264278 -1.084202172e-19) 499
(0.01079302258 0.05140817068 0) 501
(0.06921994802 0.0628415973 0) 509
(0.06746692962 0.06102693141 -6.505213035e-19) 508
(0.06863666523 0.07123099096 1.965116438e-19) 519
(0.07409527409 0.05871914724 0) 499
(0.01852180512 0.07992036448 -1.626303259e-19) 542
(0.02681763205 0.02915742568 0) 473
(0.04274301173 0.09662260903 1.084202172e-19) 555
(0.06825566164 0.06337922177 4.33680869e-19) 508
(0.07185226656 0.07699869601 1.626303259e-19) 529
(0.0602888373 0.1170270617 -4.33680869e-19) 587
(0.06143868002 0.07037170537 1.626303259e-19) 518
(0.06708685484 0.0495087106 4.33680869e-19) 488
(0.07605387884 0.1072802785 -2.710505431e-19) 569
(0.05329096985 0.1314222569 -1.084202172e-19) 606
(0.06826327473 0.08127136332 -2.168404345e-19) 528
(0.06604810313 0.1303847745 -6.505213035e-19) 598
(0.05972223281 0.1090989199 0) 577
(0.06492301642 0.06605892534 -3.388131789e-19) 508
(0.05873893405 0.1491135355 -1.084202172e-19) 627
(0.07194848635 0.1146701356 4.607859233e-19) 579
(0.07279088167 0.1560030406 5.421010862e-20) 639
(0.06698506852 0.03198629521 -2.168404345e-19) 458
(0.06076867008 0.06748438543 -2.168404345e-19) 517
(0.01930934656 0.01024128447 -2.710505431e-20) 442
(0.02466704157 0.01032901852 2.57498016e-19) 443
(0.06580386775 0.02124003043 -3.252606517e-19) 448
(0.05414117204 0.05469373997 2.168404345e-19) 497
(0.05583816753 0.03128076228 -1.084202172e-19) 467
(0.009518027604 0.01516754144 1.084202172e-19) 451
(0.05411077604 0.02283747243 5.421010862e-20) 457
(0.06207941646 0.04246733445 -1.084202172e-19) 478
(0.07400526133 0.1039217843 -4.33680869e-19) 569
(0.06831503246 0.03284055685 2.168404345e-19) 468
(0.05226094706 0.04056420693 0) 476
(0.003317546435 0.01887727707 2.168404345e-19) 460
(0.07011384208 0.05922927661 4.33680869e-19) 499
(0.01764384339 0.01814976495 -1.084202172e-19) 452
(0.04395822599 0.04123603246 2.168404345e-19) 485
(0.0722917954 0.02554477357 -2.168404345e-19) 449
(0.06598758122 0.02483761953 0) 458
(0.06432989566 0.04237276416 0) 478
(0.03089857199 0.0320565243 -2.168404345e-19) 474
(0.05963313086 0.02060247321 -2.168404345e-19) 447
(0.05824434111 0.04562075776 0) 487