/*--------------------------------*- C++ -*----------------------------------*\
| =========                 |                                                 |
| \\      /  F ield         | OpenFOAM: The Open Source CFD Toolbox           |
|  \\    /   O peration     | Version:  2406                                  |
|   \\  /    A nd           | Website:  www.openfoam.com                      |
|    \\/     M anipulation  |                                                 |
\*---------------------------------------------------------------------------*/
FoamFile
{
    version     2.0;
    format      ascii;
    arch        "LSB;label=32;scalar=64";
    class       vectorField;
    location    "0.01/lagrangian/dsmc";
    object      U;
}
// * * * * * * * * * * * * * * * * * * * * * * * * * * * * * * * * * * * * * //


6892
(
(-35.7059599 134.4847217 300.0393123)
(419.3287583 1534.153029 42.12719968)
(-93.25142995 507.0367743 -24.19794334)
(-38.17325113 877.5004665 -394.4169335)
(871.6688894 -222.2766516 -180.1829365)
(206.5144237 511.8785966 -863.2716303)
(1888.046484 407.2982201 -93.72121135)
(-152.6618777 -466.481793 24.43259935)
(920.3310491 75.20268184 627.6921858)
(-106.1995886 216.1808062 -135.8806659)
(1244.986477 33.39589968 -522.4188871)
(725.3804786 151.6257934 179.4416643)
(717.76709 869.2273827 -427.6870741)
(1111.668089 875.3593269 -804.5099146)
(815.1002674 703.1281982 -236.0450784)
(1337.985166 550.9012749 605.4144325)
(1517.597143 819.1008584 278.5184629)
(-1018.412275 -484.9839702 356.1177826)
(-288.0095456 457.2584749 -957.6320666)
(1268.770135 1193.656392 -571.0711476)
(1572.493202 76.28220063 157.5390692)
(1441.006882 500.9410321 -104.524123)
(195.3961088 112.6440305 -909.2334399)
(-72.82637374 496.8195994 115.4092044)
(207.6985552 277.7118169 41.79135327)
(1279.481162 1137.31253 302.5924804)
(129.2030669 82.81637468 1257.00448)
(57.28823753 -414.9327299 -37.3970246)
(961.14019 -151.6814048 756.1494851)
(232.7023806 104.5251512 55.67986)
(-259.8341386 157.0574905 -501.648297)
(653.0480641 298.0358054 -266.7606779)
(617.5363118 352.8537852 434.012436)
(-221.4181637 -134.0689591 -1113.066462)
(926.4651419 1199.243558 436.2963375)
(620.8059972 849.00062 573.2419183)
(831.9263952 146.2749022 -82.45399186)
(225.6779244 350.9206399 169.1703436)
(1391.09169 -687.0821291 -852.8727824)
(769.8971639 727.6241305 -797.0007806)
(1662.242813 -37.01730409 -223.4530799)
(1003.060694 932.9251705 529.636932)
(547.9179222 487.5725489 -15.31545581)
(578.115765 550.1652119 269.8103465)
(845.3936557 -446.3591165 15.6919611)
(356.7483273 517.1539714 317.867467)
(901.655563 1383.784186 -135.1523706)
(1475.268669 1326.75944 -254.1892635)
(1825.337964 128.4384246 -758.0941567)
(814.4445038 -75.13359042 -140.2784034)
(1450.33041 -672.2245758 -512.5228279)
(274.8510193 309.4672333 -1135.959553)
(903.3361776 -215.0511592 -307.2620511)
(371.9202144 251.8206377 -72.22155566)
(1282.926673 -232.9155337 764.5906004)
(-7.326977978 -154.8032077 295.1777016)
(1042.745116 535.0349162 736.1587677)
(-54.53215485 174.6124323 -384.7705283)
(585.8577007 648.6213416 -3.662065784)
(142.7149038 331.3009772 58.54896336)
(1516.528733 0.7828697319 -440.5430366)
(593.0173002 392.7657311 251.5650085)
(217.4059304 328.6776959 -554.4220182)
(202.0708847 588.2350286 -953.2230684)
(498.3587266 100.1991329 334.0420938)
(388.0937214 -44.58394997 431.9196539)
(312.990128 1131.687658 -5.20236929)
(-32.54505264 335.4530651 -188.1443794)
(214.3554911 -444.8724986 98.94457762)
(584.8396336 1044.400059 254.268276)
(875.7622523 -243.1519573 228.7326235)
(-359.5424667 -480.9749145 -167.1153599)
(626.7747096 687.0580539 522.7269975)
(-23.59057827 -4.304822382 403.7232319)
(952.428884 494.6969747 -741.2982223)
(476.1014836 -125.6165884 -413.3106717)
(-766.4463706 692.2078538 -14.82183627)
(-886.0989645 655.3353878 -277.1434297)
(162.2019873 435.9692536 -210.3940116)
(-725.2626702 -266.8112025 466.9879609)
(581.6079651 635.8747274 -1098.419072)
(352.1520885 360.888851 962.532746)
(1102.941717 883.4186611 790.5013382)
(824.3636987 253.9134365 -630.8425569)
(71.6097177 121.0739886 761.4461566)
(100.4724387 1373.046102 280.200471)
(137.7653224 31.53774497 -811.8402915)
(-310.5362848 307.6489496 -199.4677132)
(1207.529168 584.3782368 -642.4801794)
(1326.769176 153.476685 727.943893)
(169.5818923 117.6034063 -49.18946156)
(347.7142774 590.4406472 -5.568242695)
(-131.6418406 290.6305234 -466.9451874)
(1384.326297 183.9875022 -252.2867173)
(989.1630463 -880.1487102 743.6513676)
(1091.243961 451.0130406 297.7214863)
(1421.662343 642.5453893 -32.88907488)
(-137.7330508 -616.841606 -565.9825416)
(638.4900466 350.6998638 12.20289505)
(675.9622417 1059.05648 389.732174)
(60.96064532 406.89354 384.3806212)
(725.2109549 347.7703144 971.7965339)
(465.2388085 512.602854 -239.2915917)
(1276.98586 240.3633561 822.0855116)
(214.4730952 571.8140806 28.84609339)
(1015.574953 201.1062661 -327.9144762)
(1075.558261 -389.3501449 131.5058373)
(1811.825796 270.8703162 -443.0413389)
(636.937086 697.4500985 432.5729312)
(98.80350458 309.0487155 383.5092624)
(284.8445412 408.4707964 461.9655281)
(311.0507063 673.5352591 271.3768981)
(204.6365966 -788.9722336 -421.4102561)
(225.4753681 487.0174129 1028.181733)
(782.0425338 625.3865433 676.8451249)
(1115.28793 740.9947307 -213.7237292)
(1320.389742 217.7016545 303.863934)
(58.2904352 928.824272 19.43549617)
(155.2732084 736.677454 399.0786828)
(515.5054453 185.8425995 -841.8937354)
(1574.444599 256.6018447 -73.45524143)
(283.2772232 -133.7321888 -190.3494913)
(872.8844356 136.5249952 80.5203207)
(-147.6610108 789.1406853 -1163.922749)
(419.4080819 266.0181586 -363.3189197)
(494.8559005 1114.179996 -415.3360762)
(394.8936788 -856.2851917 -209.6968432)
(-687.8165201 759.0894755 -491.4256206)
(-76.22348146 214.590747 -731.2566889)
(136.0843087 -135.4606569 -120.7760864)
(117.5009734 -64.63212618 -974.1749336)
(535.2677608 -376.3099064 22.09041599)
(1083.955231 28.70319791 61.87719917)
(1299.495254 -186.5310981 628.8726373)
(99.89481468 1438.955577 67.29786651)
(460.6243459 920.5037025 -1153.619582)
(537.3898233 640.9276641 134.6256088)
(1839.143639 -104.1484589 302.7012705)
(268.8204656 22.98385001 -100.2255833)
(1980.581145 367.0277868 -149.1496318)
(743.8978088 110.5122785 970.3468865)
(1292.526335 983.023382 345.3784852)
(774.2090851 -47.91368557 -241.675194)
(1637.429659 22.19726989 -638.7935207)
(-482.4928101 -73.50762197 -1401.766738)
(752.118425 377.0422167 -203.3224925)
(642.3211758 355.5028717 403.2458701)
(406.2826402 87.19474668 551.4832998)
(1354.951714 556.1684059 -703.8641876)
(1404.035632 621.3117546 235.3931154)
(1112.38437 754.0670609 129.0729248)
(1269.928183 935.5967438 -446.5137387)
(307.8767422 38.13423357 -393.9305629)
(420.3755457 -118.5730012 -267.4398018)
(1130.289238 -188.4379299 650.3329404)
(-324.4763648 -107.81643 -248.8630923)
(406.6502437 65.76493586 429.5417547)
(-137.3780969 55.51323292 -103.9824068)
(933.3085568 -784.329457 590.5799647)
(1793.782924 1369.244909 -332.9741115)
(1543.210856 -280.4942204 -373.6268366)
(1345.412361 384.1646756 -792.9231064)
(1275.910505 291.1408624 -275.8138207)
(527.9372015 786.0442962 -101.2653878)
(910.6957448 -54.17601768 -368.5141288)
(767.6725346 385.2137485 -15.43696355)
(99.02860944 70.76005088 -66.35458447)
(1019.71219 771.2814178 88.60005651)
(1365.318229 -396.2033859 -166.9113646)
(613.3975957 935.3002109 630.8897953)
(1202.308863 222.342186 -108.729734)
(-1119.13328 509.3092458 154.876338)
(480.0070894 122.8873351 -448.8684451)
(863.3167741 1012.456681 123.0220603)
(1066.976072 111.2837393 -159.4139293)
(-194.3631414 446.3218744 -138.0177668)
(823.3600429 -431.1207818 12.86425685)
(574.6139325 777.1683432 64.5023778)
(1166.918628 185.9060839 96.72489482)
(-1475.187906 703.9154511 -1171.101264)
(1816.4577 1009.090103 -528.7026196)
(202.5578425 311.8942153 155.4656318)
(-624.1677219 611.6872916 -273.1309507)
(1009.319283 356.5212214 -200.655768)
(62.01616768 -95.1520786 -288.5599503)
(-97.16234399 512.0336993 332.5590963)
(397.8597145 465.8646343 644.5957596)
(1421.296503 755.4676301 -375.1933885)
(1489.935572 171.2732887 -305.9539727)
(-809.8206274 420.3931299 -677.6140852)
(192.7752917 550.918751 -659.8797542)
(764.5242793 536.1055157 303.9671656)
(1209.88585 340.0304084 625.3296213)
(410.8816985 -372.4272241 -449.7266789)
(1369.396008 729.1558235 1022.370243)
(298.8079543 649.506229 658.0538035)
(-53.7725715 1102.479521 -144.0211726)
(1199.349483 36.17522544 44.74974493)
(141.8266498 321.1596297 -461.3389269)
(731.0265705 34.4167941 -729.728248)
(560.7273949 23.10500996 349.5865511)
(502.3942248 963.5245658 370.0461419)
(1022.300179 563.7625403 1563.122642)
(610.134256 -125.5660631 -271.4219413)
(-189.1298305 660.5306897 216.7408124)
(772.5241241 458.3127576 487.5344002)
(182.9789619 -25.2547403 268.0559376)
(270.5048643 619.1131284 184.8176381)
(418.5163468 -17.4363279 -409.6448914)
(547.3901559 759.4843412 863.0345465)
(692.692137 1382.573824 524.8980216)
(365.5038206 332.4004185 -117.0817685)
(1022.703192 630.8320738 136.0376684)
(-177.6268747 199.1663153 629.6809508)
(677.4243154 364.8952942 -108.8251327)
(-357.5326906 -343.933884 -498.536205)
(813.465136 394.2727173 1067.546865)
(-491.1540374 812.9266841 -91.96728754)
(1579.301455 -212.4651936 98.44889406)
(786.907813 -16.03854108 67.02054191)
(756.7222981 625.9462888 285.6290647)
(305.0541572 -34.27433722 -528.9041728)
(197.5176145 1649.281092 -621.2817501)
(548.6469849 1014.304388 -274.5702468)
(1316.336855 1237.003757 -713.0259657)
(56.43358029 431.2548038 -542.6940229)
(432.5003676 171.3320257 -618.9804023)
(317.6576638 -48.39051406 221.5095339)
(178.0468989 622.7971416 585.1922167)
(1670.529479 616.2971018 818.5375)
(1631.634278 193.3867059 480.9738907)
(-220.8881139 -96.86451138 -214.4715767)
(889.0028681 483.1637402 920.6827561)
(-242.4820535 -295.2179771 -255.5344685)
(71.97175788 -72.68656577 69.00898196)
(1125.324346 -7.151782595 -602.4965312)
(-161.6060732 -320.0413948 153.8560706)
(1193.512079 566.0797831 310.1008246)
(304.375128 616.6786168 -1101.100677)
(-627.233224 1214.915493 367.6200239)
(1076.351074 339.5423855 58.73804123)
(388.1981419 -77.0702894 -449.8026803)
(-701.7000325 482.2267433 -627.6710992)
(588.4973847 465.0689952 -119.9826199)
(-48.00388806 747.6041401 -374.3494409)
(1532.125738 141.1296651 -323.0306669)
(1059.408084 1069.568093 137.0275395)
(1159.826095 -12.32930017 194.9115345)
(85.35479319 434.7152725 -30.31737827)
(878.7968574 438.5628963 217.2331761)
(481.3775019 -109.2148175 145.9264133)
(1442.689684 208.7595754 622.6260685)
(1056.543922 185.5473038 141.614222)
(1142.355838 678.6810393 672.7946914)
(1698.834156 150.3611873 704.9624978)
(384.7959268 -313.9935425 -225.0111428)
(839.7065743 -133.6937051 141.3988719)
(-636.2563403 459.3426328 497.0051157)
(1899.34387 785.2193352 -576.2448956)
(1813.134016 149.8566285 207.4978328)
(-18.4410683 -338.1146321 -175.6153848)
(-39.67739493 305.5044963 215.869024)
(-230.7214912 592.861888 -513.6357788)
(843.966341 -834.102465 211.5906677)
(873.2441829 -819.8084689 -262.0629152)
(1195.954778 -133.4703358 98.82510074)
(1837.637174 -298.2909323 132.1355622)
(1059.550651 -347.7296061 139.5990046)
(248.4700851 1209.962586 151.1271663)
(1384.441992 194.2700715 -33.27365089)
(1301.349393 161.7156283 10.92091594)
(1463.925157 -654.5934748 -149.5854878)
(1050.059444 16.71983179 -27.85801628)
(745.7183736 577.2236275 -427.5085646)
(748.3119921 121.840984 170.2884997)
(1652.167804 1074.789128 -81.26339833)
(-140.5868751 793.2541018 -387.3073634)
(-184.4440492 87.99754726 -406.0828542)
(369.6639519 217.1755239 469.6102839)
(749.0077916 918.7751212 -115.263547)
(637.2973379 6.992508073 -10.44425709)
(359.2024899 383.281429 439.7379559)
(1122.296653 437.2055553 728.9180841)
(347.6527208 251.9501178 964.9889203)
(373.6663174 -519.0077234 322.9498131)
(1430.236671 -470.082291 -430.1905442)
(905.3324134 279.6008995 237.0373546)
(506.7048759 1471.721074 311.9984626)
(1218.782027 -113.0277488 537.6790225)
(442.2686208 -253.3926527 -422.3903441)
(736.3688187 -124.7881808 283.327677)
(1050.859265 -280.0699994 619.7766538)
(1123.523217 -771.0547972 -152.3472645)
(533.4087654 -416.3748079 -124.9744016)
(581.6247072 -39.46584805 -88.44914626)
(249.5129719 844.6082406 -294.8850656)
(782.9961637 -477.9645061 -932.7089093)
(902.6722186 -107.1974785 -947.4019771)
(777.7515655 443.4779237 394.0192506)
(877.0542636 -329.7447041 129.8862545)
(1945.622229 531.0292012 660.4988802)
(-169.2946927 229.8336114 155.316515)
(592.7685978 177.3391723 -429.0010216)
(127.8421183 321.6526349 -138.225154)
(234.709193 787.22625 69.01218071)
(726.2903318 479.0462078 121.0762782)
(913.6830596 1406.233848 -289.2697203)
(2169.408543 562.9415442 -840.0110245)
(1335.47578 19.90107214 -39.08769957)
(1512.675633 -320.1574045 127.4436138)
(1022.711497 339.371594 244.1405319)
(40.55772714 -384.2929954 -1054.18921)
(198.4593346 -172.1890093 -455.4937704)
(885.8760832 1028.986324 387.4118781)
(309.6937681 709.4219413 -296.316845)
(1350.477643 797.1539216 386.553123)
(1406.107703 409.8824161 34.55493365)
(385.2884972 248.0516299 258.3423325)
(99.76359704 658.6070731 246.5646028)
(42.50392155 738.4674209 -405.2396384)
(1349.07705 232.1879873 -14.58547509)
(1084.844592 810.7987914 -89.3919055)
(656.1964812 834.6008842 224.6525408)
(763.4046677 470.5966393 -504.3031518)
(575.1136636 -44.68783085 -784.4360889)
(1057.107264 59.61733473 112.8582339)
(-278.7919673 990.7924533 -75.28293857)
(-174.0444446 -280.3482441 -303.1703741)
(586.0440127 -113.8445733 123.7433332)
(492.4473917 203.4672689 -848.4114476)
(-216.6858176 618.1925045 -151.6561535)
(944.0292537 417.6174114 -526.3195804)
(1148.432809 -39.063959 416.4797446)
(383.4489863 547.1997424 338.9061399)
(1259.544357 -1550.047705 433.341394)
(1030.004759 -745.774887 59.10015152)
(1420.077549 750.2638776 303.1365217)
(334.1190217 873.8374868 117.3607218)
(973.2553238 -85.62889629 -502.4046719)
(-414.4290946 267.9443366 474.6041151)
(289.007102 760.2152685 -671.4660816)
(1163.033401 308.2814777 509.5209038)
(-101.0118743 826.3187325 777.9609839)
(2040.148887 88.19208832 -624.165493)
(799.514714 280.7367697 -247.1907653)
(1951.817448 -335.3657224 417.3208198)
(897.058952 268.5659729 442.2879772)
(1739.653483 543.6689028 435.8175572)
(318.9040012 -288.8120508 -167.1286058)
(1115.859246 245.9613149 120.5827173)
(2225.55729 1136.631591 -560.8064201)
(70.47430502 741.1952017 -296.1929914)
(715.3033117 -1185.181314 194.5097547)
(937.7265543 263.2264256 41.14551736)
(938.3954872 280.6159429 -516.0420102)
(1931.772263 298.5095072 459.3802537)
(685.3935832 986.6539101 444.6400416)
(377.1001072 135.7674165 31.17162238)
(1569.602565 336.6140959 -261.9831052)
(541.9397592 -4.500091388 20.89589878)
(657.301033 445.3001282 -435.9980123)
(1758.827749 742.9939082 -468.6424859)
(1334.575249 -973.838669 -377.8993924)
(159.7145857 743.9081887 -247.6786334)
(1471.731113 187.4211149 -126.9349598)
(1114.828071 -207.3436882 187.4092697)
(993.828191 -630.2687623 -497.5409064)
(1311.852216 -214.5750538 -297.1020206)
(353.9336312 335.5832263 -842.2124125)
(1472.881671 -216.7407099 23.8895868)
(1800.934993 231.2451765 397.7406453)
(1432.28726 -140.2915363 198.8156903)
(828.893535 -1.680917035 -528.5261188)
(-24.62805151 287.5595063 -815.2044331)
(841.1675985 1093.411716 -1079.293434)
(1335.873398 664.0503407 -150.1274884)
(920.4816581 872.6225573 -262.6417346)
(324.4201371 -149.6404444 -630.9370185)
(1386.478995 -258.8015296 -577.9351998)
(721.287055 700.0998405 574.0477048)
(1491.989639 175.9681578 -297.0385345)
(360.6601326 -44.76362888 -1086.772827)
(1363.101613 993.0272798 -400.572398)
(670.1956582 105.0069421 -908.2729813)
(1518.034151 374.5292699 -82.59377018)
(2065.626704 -188.8333835 -255.7652812)
(1260.4524 -24.89992392 -433.2233247)
(1098.112506 919.3136894 427.7325467)
(1307.197535 978.0695701 -212.4614694)
(776.1673224 1116.372736 -81.93955848)
(347.4074744 608.7008485 -78.70345062)
(1213.775741 325.1202104 217.4392843)
(1268.478189 -13.49687038 -54.9536294)
(1376.806535 79.90381226 -599.2357247)
(1933.733627 -477.5485424 -26.63335891)
(1087.353158 -197.2826552 573.3324397)
(188.4618898 429.8354763 -152.4478368)
(-369.7623029 851.0782446 -629.9900024)
(832.1985106 -749.7449118 -242.7378388)
(-454.917109 -557.1172923 73.19027995)
(234.6510541 -70.31432046 -521.3688946)
(2018.91861 -42.14474529 -580.5680343)
(1198.759419 337.9267996 320.3725215)
(1103.205059 153.7949753 7.977110393)
(1574.994959 224.4615283 233.5599096)
(1248.004744 -98.1004313 151.088235)
(1580.939214 763.879395 701.3006141)
(2245.677404 -385.7106638 491.3188283)
(1040.317692 27.86267355 368.987689)
(1554.859867 795.2614338 -235.6683962)
(242.6782901 574.649686 -405.9999713)
(-514.9722254 596.2843443 47.95538076)
(1277.302984 -107.7488494 193.9372067)
(754.5152006 12.88360412 -1147.040082)
(1763.392916 71.45918976 -466.469357)
(1372.712999 -191.1153389 477.1611495)
(1063.789924 427.1492222 -177.2926426)
(2101.225288 280.0634494 143.9844178)
(1302.199595 -289.6117653 -360.9235313)
(1755.479075 -366.9589495 -710.6899161)
(1481.224621 -34.81370483 311.3515805)
(1410.701559 -488.8427148 -646.1282764)
(1064.43102 261.581865 -1154.39745)
(1408.473469 180.5278205 -240.6578811)
(463.0069114 238.2625565 -240.8837854)
(633.8009379 250.1202296 824.3400634)
(1160.974072 219.3279815 -94.75899079)
(787.2331552 120.0997607 -98.02903252)
(589.6863077 -169.224842 373.868575)
(135.9020218 401.0679877 883.8191697)
(-133.040906 691.0219202 -44.35764489)
(1242.603157 -3.631279087 -286.0781034)
(201.0739746 638.8863833 986.7913435)
(1599.841781 154.4167167 357.1631528)
(695.6093208 348.6517436 -219.2545173)
(1671.953398 148.5326196 -519.388093)
(356.7113126 343.2686748 -331.9142573)
(2018.563911 -529.2386193 575.7589816)
(1236.503741 765.1322154 -125.8445519)
(1768.002659 79.70179062 206.4004165)
(1420.928367 409.3984894 192.541452)
(1634.783421 -102.1515198 213.5266228)
(1552.670311 384.7133438 262.580688)
(4.068263241 -103.5251197 636.4230386)
(647.1215454 -678.2911115 208.03413)
(1347.395358 830.8195052 601.1298516)
(1805.807892 -69.85492386 -30.46565191)
(1573.314824 -671.3521609 -600.0583736)
(1339.241576 -61.80358473 295.5901044)
(1441.372618 -37.08829362 -161.0701226)
(1152.500621 -130.6509293 93.69262064)
(1558.503665 -229.1436102 220.6688803)
(1444.761371 -502.5932925 2.11955989)
(1475.450913 -58.33818932 410.9630297)
(112.0513294 1081.912235 -239.2404762)
(1627.816699 1623.385533 461.6625433)
(1328.537689 464.6751287 -619.4004254)
(-839.270572 180.1756589 321.4856499)
(1064.728355 453.2106425 -256.3807548)
(1519.992956 865.8055021 -205.2866368)
(722.4741897 734.4749668 -304.2992149)
(2437.958261 469.2647723 32.55992332)
(-426.7559754 -824.5674299 -189.2285714)
(2046.756793 428.6982399 444.2406366)
(1150.88306 352.7760471 288.1329337)
(2007.320844 379.0858322 -352.335578)
(1391.260752 556.6622747 867.2295561)
(1341.340572 1232.256716 -22.36269173)
(193.3533386 219.2160757 810.5514406)
(759.3892338 623.6404729 458.3357289)
(577.9154201 90.16760021 284.5690256)
(985.3595868 638.8623689 -641.6971725)
(851.0410275 515.9523061 -764.3555102)
(802.5720935 393.1465978 -166.7192914)
(1736.466939 -38.29822325 385.0485064)
(551.1101012 -382.4008698 127.556937)
(1532.989887 -34.37033094 447.8040323)
(137.3057661 757.3986894 330.553958)
(1258.477262 -67.90118526 -59.77333135)
(1326.518057 608.9989402 -475.7250186)
(1678.918915 153.4416415 -348.725312)
(1289.327335 451.4487385 431.8431663)
(1422.885288 -389.0789978 29.43736581)
(1580.815074 289.7755226 -18.66472723)
(1769.717371 581.7556445 -31.36366114)
(-14.67326229 50.62998898 763.0055179)
(1211.316257 678.671594 -42.77833882)
(1390.641988 815.4231501 -328.5183527)
(1455.890572 13.67608056 -59.445505)
(1785.403546 -6.275740642 425.6262644)
(1732.319096 591.5406397 238.2271431)
(1716.890305 210.9650447 -266.6300269)
(1487.989994 154.336494 -619.5118581)
(1464.200894 -370.0830396 262.3831653)
(449.5443016 705.70994 -875.3510805)
(-408.1199155 1549.553105 123.805781)
(1399.28384 633.1896346 -111.0583978)
(1777.647401 647.9077277 -21.06247581)
(516.7020994 -471.8499943 63.25250611)
(1430.011621 109.9594427 196.2950863)
(1078.938002 -234.8408195 -990.8324318)
(1116.92166 -130.80225 -107.5466619)
(421.7411301 926.9147055 122.0031378)
(1179.931652 499.7087533 -16.20084462)
(769.6208798 -454.635469 360.3033899)
(2209.327142 1384.157037 -736.0093751)
(1075.702666 1504.075403 -54.16611789)
(1547.222776 289.9769418 503.5395879)
(1415.098672 430.1470885 -165.1462528)
(-202.7087393 325.4593734 -577.1051049)
(960.4781513 -3.304108303 -1161.468913)
(1138.187306 770.0185272 763.7979116)
(1640.435298 -402.6150884 161.7504959)
(1648.589306 -27.06477695 288.6678056)
(1532.028824 -254.4049459 62.09781519)
(2223.144964 -446.0697872 93.54887835)
(1330.142777 23.70238182 95.55416226)
(1702.107229 -693.0460605 -240.2860695)
(851.5010755 403.5548404 913.8184996)
(458.4213255 36.74137298 48.26439737)
(1277.549071 361.1677419 85.39603975)
(857.3249573 1331.52926 -352.588154)
(1419.376205 -334.129081 -549.4312318)
(802.1492348 -631.8747524 -10.01962791)
(1370.315234 -155.3127737 223.2753309)
(1424.466612 82.07493194 407.1017805)
(1421.768883 -21.54466168 213.711822)
(1388.913255 -622.3829136 151.1588298)
(1457.393797 -469.3134402 189.041069)
(1517.184597 -20.27287469 43.42069958)
(1210.812492 -170.6197774 100.4870604)
(905.2782604 -281.6561073 83.01877552)
(650.0905793 267.1238262 -7.583467825)
(1052.269912 446.350223 -381.7341159)
(-430.6130422 675.5293147 634.319708)
(716.4561591 380.6913029 -517.4620285)
(1552.440468 75.02187185 -155.4973952)
(843.1808712 -306.7662608 72.47290889)
(1230.658433 616.10335 400.9465768)
(444.9063477 -1011.500973 -28.30450449)
(431.6426441 727.1010325 -146.8343448)
(-120.5660878 109.8868611 1020.619033)
(391.4567886 761.58351 -221.3728058)
(1359.812818 627.5570819 -53.96783174)
(1684.073818 -234.3564758 -471.5760773)
(1289.501332 169.8815457 231.2721291)
(1685.710862 -111.7374045 221.9476404)
(-784.4130104 873.4950344 308.9945282)
(976.3457995 982.8917456 752.7489212)
(1540.892399 346.1940639 -42.41692882)
(1813.239727 84.41705801 -590.2485523)
(1228.500369 146.0922615 -412.6530171)
(306.9325501 -140.5578907 13.78245984)
(1741.392247 75.95711038 630.8297767)
(1458.069764 627.7902315 -446.7269281)
(1246.969133 591.6127091 -87.98446055)
(1341.151494 221.9960246 -173.7573748)
(1071.568297 -248.0354849 -254.0299198)
(1862.362676 153.3571116 -450.5756473)
(2041.927142 -6.173611841 187.1788637)
(1455.647827 -540.6859116 -122.2171282)
(911.1844422 -140.9879372 583.3559948)
(1676.466063 -88.18731925 -282.4338012)
(1936.307267 589.1179461 52.23738843)
(1672.230495 -308.2090542 403.6795069)
(1612.014804 -274.8481595 112.1415744)
(1490.064431 106.3049068 131.0530091)
(1782.310168 -198.3877814 35.56911652)
(1445.563354 -229.733623 -351.0136556)
(1716.702264 -476.6702468 177.8905338)
(1828.678647 254.0175831 360.2481664)
(1162.41659 -680.3456753 -559.7619445)
(-287.2612994 271.8161679 566.0248591)
(1438.976674 336.4443599 553.3204206)
(332.2725961 668.3974731 -140.2773873)
(203.6630151 -348.2837629 -601.2405254)
(358.7353483 552.2892921 704.8693252)
(746.9513961 769.8051807 -227.8127118)
(-5.617024012 485.8978125 694.6736981)
(741.7962604 662.0073286 755.3394875)
(1732.305644 -189.9618581 -106.0812341)
(2014.896637 374.0266974 -477.9568781)
(382.6733723 625.8539223 63.5772447)
(1329.958954 -27.22388976 488.2623746)
(1126.221699 298.3525621 733.3720948)
(1128.430817 551.49685 796.0363178)
(1560.643587 -237.0793263 -452.8674868)
(1811.949289 1208.852059 -217.7070153)
(1490.151224 619.6529622 253.7952702)
(324.6138126 241.0794774 -945.184073)
(1644.957662 436.2960645 -464.6401336)
(1384.093947 212.4460685 574.3386771)
(-231.7099519 610.9898912 -769.5177885)
(449.1480034 1399.183308 503.6030687)
(1512.163496 1091.572452 -481.9281883)
(2225.20122 953.8702492 -658.8105021)
(1310.815169 -297.5138148 10.90510608)
(1199.302644 915.8544499 -60.24419762)
(1202.292506 404.7052744 365.3477689)
(2014.123457 102.3153463 -177.4564281)
(1129.735529 -271.1587341 -555.774595)
(1764.824566 124.9318826 -144.9147131)
(1778.560247 244.7306786 148.4567568)
(1208.44383 14.69796097 -123.5555279)
(1672.561168 -258.2526035 137.7616862)
(1357.279349 526.6032019 -91.43972793)
(1536.628763 323.3147229 -62.96065915)
(1408.238671 47.55906344 -378.0360313)
(523.6257559 647.905682 -657.3080024)
(682.3972471 1266.03749 180.3169068)
(92.15073508 115.2501609 692.721441)
(-391.6923819 516.1146675 306.0063097)
(1546.608514 330.0276746 343.2239012)
(1442.35997 592.1131503 -271.2784809)
(909.8700977 802.1463661 -248.9676837)
(1631.940838 -521.1774185 327.6043908)
(1634.632285 279.1373878 -267.233299)
(1851.426393 535.2518546 132.348244)
(1882.446984 1031.008075 -378.9645759)
(403.6754148 -48.7200786 511.2047988)
(1282.095945 50.33887324 472.9632845)
(-121.4414446 426.7869552 -50.06257849)
(1322.46903 172.1495778 140.3927328)
(328.5994414 678.2406751 -81.02766071)
(1209.195401 -35.87444517 -476.2838458)
(1019.628543 518.5396343 -585.8376227)
(-164.620238 739.3573855 -140.6103683)
(688.7850856 364.451605 -221.2148923)
(1866.406241 -156.342369 -42.57273886)
(1439.330491 204.6126026 -286.9489059)
(529.6452706 -529.6461261 256.9978365)
(1154.513314 -46.28941498 211.5850754)
(-125.7240351 -220.5279792 -789.3399439)
(1352.967692 209.6215314 307.6803946)
(1273.275038 10.43100629 -248.5818976)
(1183.408164 273.4008745 721.1643562)
(1908.499215 -56.85471541 -94.176198)
(1243.872741 498.2715313 -66.56876456)
(2333.671493 -76.70944986 274.899018)
(1186.650731 -370.9955555 -98.85230748)
(1654.425085 -223.5741776 121.5336248)
(1677.008797 236.5232306 134.009375)
(1234.996354 1344.152194 -71.58963673)
(1711.20032 -163.1850235 -238.1420061)
(2174.425103 233.0893882 299.0587706)
(2058.22173 -314.5902861 -503.132153)
(1521.655862 0.5739947843 122.6218992)
(1432.832934 -303.5332773 542.9926179)
(2082.595435 671.4490895 -266.9674276)
(1696.951214 220.7038054 -231.5366556)
(1686.707524 -131.2296261 49.93546827)
(1621.833396 -4.742714461 38.71842738)
(1857.471339 412.1726634 114.6293278)
(1631.260345 276.6536971 -4.197698976)
(1303.045183 -507.1567047 142.607036)
(1914.301514 167.1966196 24.56801988)
(2000.343787 -169.5066689 573.709186)
(1448.255318 98.76231567 157.179047)
(962.9484089 1091.483104 575.4408966)
(1061.607877 -42.70557599 615.5144271)
(498.1467318 44.88193143 -449.3962548)
(573.4395807 41.65586584 131.2412262)
(1442.966132 89.01651665 -1110.757562)
(289.5518467 -347.3704783 285.9715549)
(1009.993206 148.8179488 166.9696919)
(1351.301029 148.1455568 170.1280559)
(571.9023955 1442.251628 487.3789354)
(43.96841529 370.1988332 -231.6173933)
(999.9239039 879.5368814 18.22623554)
(1646.869474 1042.990656 263.3097584)
(1817.828677 -1731.140061 305.3992489)
(970.3946055 -76.45632179 -504.1467947)
(1675.873529 460.1393638 454.1843582)
(1381.885927 114.277256 -698.3724352)
(1290.186175 662.8888498 -200.5146693)
(1684.839309 -210.6376108 345.2851352)
(640.1351607 108.9332828 -26.30744125)
(290.5149407 -227.7923651 971.3296826)
(-421.2796342 409.2939189 567.9521967)
(2318.555537 215.5866141 -316.6446735)
(1486.722406 276.5421067 18.22243561)
(-270.2957174 109.9406814 -595.0983544)
(614.4820673 698.1563721 -170.1444399)
(1392.930469 -266.2956055 -241.4499411)
(1685.255371 198.4054722 -1173.590972)
(1153.885561 -13.53809848 297.1192523)
(1593.738411 232.8731399 73.32330123)
(1694.60668 263.1850482 -436.213523)
(758.0791795 -475.1372076 290.9248307)
(1879.160036 -408.1922069 324.1712172)
(1081.151341 -167.8599672 919.2925176)
(1923.974702 62.44743374 -51.11877575)
(2637.750828 257.3501145 333.109659)
(1609.374756 662.7466219 -255.8062081)
(1575.692957 230.1525928 60.28285462)
(2169.495955 197.9825242 316.2955564)
(1521.022138 -381.9823503 92.19348884)
(1175.086419 271.2566203 -239.3884039)
(1618.47371 -514.6460404 228.8754527)
(1934.562368 21.63701232 -266.5717109)
(1472.061538 -1.063293022 34.46712358)
(1671.968395 -233.616406 -512.9606484)
(1576.045349 -150.8488164 249.7477248)
(1171.620596 356.6346865 329.7806037)
(1380.604044 -697.469199 367.4378834)
(1592.594879 93.74935375 203.2393098)
(1494.480635 189.6546238 -657.5779087)
(2049.664595 -159.2861982 -94.2346902)
(1286.866941 310.552182 -127.2489994)
(-272.0920957 -59.31680426 688.1532224)
(-246.2105119 -245.5546463 -885.0272375)
(1090.922568 1215.084611 -1255.63028)
(1311.709739 905.3857244 -818.2327522)
(49.19465482 560.8987167 433.6692445)
(86.92288561 468.2433646 229.4732006)
(1741.718574 510.0709074 -425.3451548)
(1171.791714 246.3703156 609.0906693)
(830.0692429 154.5250131 -40.46346554)
(947.2939618 241.9650998 -855.3364784)
(2098.425957 149.1128886 -368.7453939)
(808.0682496 780.9025961 -172.1230003)
(640.7792064 564.4654153 -691.031687)
(730.4423842 -645.9341893 -662.297053)
(-213.3280352 -214.9836316 -29.6982631)
(707.7934407 291.8939629 -915.19963)
(1260.846518 121.9453951 75.70030904)
(737.8240403 -291.4834343 567.3740954)
(1566.580186 -221.4920606 -71.13810094)
(1777.688764 192.6267611 -129.1704567)
(654.2673364 -241.8815685 -177.3613061)
(1696.139802 341.8773517 625.0470959)
(1550.726316 354.6799734 -313.1361971)
(758.9234443 830.8617548 426.033358)
(1346.244605 -25.88941924 -462.0574279)
(1182.959065 873.6156382 197.609168)
(2081.721452 -161.4162323 471.422382)
(1442.098057 337.2580363 -216.6508137)
(1559.847442 -190.640949 -82.00234369)
(1264.641407 637.3670481 -747.5204986)
(1872.385338 74.57412326 -300.5184275)
(609.8940054 690.7827429 225.6818468)
(1372.809477 188.5405386 294.241376)
(2449.848299 390.891361 21.88128505)
(-59.20966201 330.423691 -247.0975847)
(1406.904969 76.28004756 -343.7608019)
(1179.422944 882.1765194 990.5638536)
(1680.172176 392.8637368 396.2717992)
(1183.008144 545.643515 138.0838906)
(1589.035448 -109.7855327 -126.4365304)
(1366.637539 184.1678199 298.9310228)
(1548.240177 -211.4931642 748.7607402)
(1958.778809 -230.1627471 -137.6957257)
(2027.145792 0.847284675 241.0385176)
(1424.750861 -425.4827058 119.2660668)
(1284.063414 290.9674388 -178.8160833)