/*--------------------------------*- C++ -*----------------------------------*\
| =========                 |                                                 |
| \\      /  F ield         | OpenFOAM: The Open Source CFD Toolbox           |
|  \\    /   O peration     | Version:  2406                                  |
|   \\  /    A nd           | Website:  www.openfoam.com                      |
|    \\/     M anipulation  |                                                 |
\*---------------------------------------------------------------------------*/
FoamFile
{
    version     2.0;
    format      ascii;
    arch        "LSB;label=32;scalar=64";
    class       Cloud<dsmcParcel>;
    location    "0.007/lagrangian/dsmc";
    object      coordinates;
}
// * * * * * * * * * * * * * * * * * * * * * * * * * * * * * * * * * * * * * //

6265
(
(0.430212689 0.1511348712 0.1337587843 0.2848936555) 233 1263 1
(0.1208033294 0.01822000183 0.4395983353 0.4213783335) 83 161 2
(0.4102136312 0.07784022066 0.2948931844 0.2170529637) 172 334 1
(0.2888888655 0.3555555672 0.1889648364 0.1665907308) 381 745 2
(0.09718279626 0.3255019293 0.4514086019 0.1259066726) 353 690 1
(0.583218818 0.208390591 0.03041798689 0.1779726041) 532 1045 1
(0.4880592825 0.2559703588 0.2460374417 0.009932917114) 321 571 1
(0.4537084995 0.2731457503 0.2627919087 0.01035384155) 231 394 1
(0.5394247881 0.230287606 0.08863141015 0.1416561958) 323 574 1
(0.09134831685 0.4543258416 0.3381112827 0.1162145589) 558 1037 1
(0.2618270595 0.3690864703 0.1459411754 0.2231452949) 382 747 2
(0.03322960379 0.223152952 0.2602322461 0.4833851981) 381 689 2
(0.02928559894 0.2017783765 0.4853572005 0.283578824) 380 746 2
(0.1216421369 0.4391789316 0.2272277042 0.2119512274) 173 1261 2
(0.2443136075 0.2391027953 0.3778431963 0.138740401) 143 279 2
(0.6102998651 0.1040363148 0.1948500675 0.09081375261) 54 104 2
(0.7723321816 0.1138339092 0.04323295166 0.07060095756) 230 448 2
(0.6014527732 0.07660985324 0.1992736134 0.1226637601) 16 28 1
(0.4953684383 0.2042552895 0.2523157808 0.04806049135) 233 456 2
(0.3945457137 0.2603101491 0.04241699406 0.3027271432) 412 808 1
(0.3929524345 0.2260165428 0.3035237828 0.07750723998) 498 978 2
(0.0462372656 0.01796381532 0.4768813672 0.4589175519) 498 978 2
(0.356674637 0.02211796577 0.2995447157 0.3216626815) 200 333 2
(0.2914790586 0.3542604707 0.1899948867 0.164265584) 199 389 2
(0.005075935466 0.48649452 0.4974620323 0.01096751228) 293 574 2
(0.09331344634 0.4533432768 0.3559955954 0.09734768144) 412 808 2
(0.3988362051 0.3005818975 0.00206989886 0.2985119986) 262 513 2
(0.6730609995 0.1634695003 0.09079726189 0.07267223838) 112 219 1
(0.2215153954 0.3892423023 0.246370904 0.1428713983) 560 1097 2
(0.3001597058 0.1561352013 0.1937849458 0.3499201471) 472 926 1
(0.4431443067 0.2784278467 0.1374911118 0.1409367348) 441 863 2
(0.1042900766 0.3853408236 0.4478549617 0.06251413815) 31 57 1
(0.1847223615 0.1998980817 0.2077407376 0.4076388193) 533 987 2
(0.1086571717 0.07168503161 0.4456714141 0.3739863825) 440 864 2
(0.4561610486 0.2719194757 0.08142026182 0.1904992139) 262 455 1
(0.809573144 0.09521342799 0.08920268062 0.006010747361) 593 1105 1
(0.4899439279 0.1154502985 0.255028036 0.1395777376) 202 396 2
(0.6525813319 0.03149603735 0.173709334 0.1422132967) 382 747 1
(0.2586877763 0.3706561118 0.07970279663 0.2909533152) 412 806 2
(0.1612082545 0.4193958727 0.1217898297 0.297606043) 443 869 1
(0.3609540839 0.2368899791 0.08263297894 0.3195229581) 202 395 1
(0.5425451967 0.1763660078 0.05236139383 0.2287274016) 82 159 1
(0.1051285194 0.1596276519 0.2878080884 0.4474357403) 83 104 2
(0.5416751272 0.2291624364 0.1693158633 0.05984657312) 112 160 1
(0.05672189559 0.4716390522 0.08195048849 0.3896885637) 592 1162 2
(0.5588960381 0.220551981 0.04734274927 0.1732092317) 467 916 2
(0.8278270649 0.08608646753 0.009904430168 0.07618203736) 140 215 1
(0.06980369268 0.4650981537 0.1737865322 0.2913116214) 289 564 2
(0.5078305039 0.246084748 0.02732859138 0.2187561567) 292 514 1
(0.1682425791 0.331441811 0.0844368995 0.4158787105) 472 926 1
(0.1080924729 0.4459537636 0.1817078434 0.2642459201) 381 748 1
(0.536263567 0.1425815357 0.2318682165 0.08928668087) 201 391 1
(0.4760807866 0.2619596067 0.0928057064 0.1691539003) 228 446 2
(0.5365545923 0.2317227039 0.2040876704 0.0276350335) 141 217 1
(0.2857049002 0.09637566841 0.2607718815 0.3571475499) 652 1252 1
(0.09599478581 0.4520026071 0.3376044234 0.1143981837) 5 7 2
(0.03492910796 0.482535446 0.4724021591 0.01013328694) 50 94 2
(0.2171426438 0.312489676 0.07893900214 0.3914286781) 443 810 2
(0.0225392417 0.4887303792 0.2248414554 0.2638889237) 173 338 1
(0.1314974695 0.4341764829 7.478239681e-05 0.4342512653) 351 688 1
(0.01325144214 0.4933742789 0.382856833 0.1105174459) 621 1217 2
(0.5165056832 0.008708952982 0.2417471584 0.2330382054) 320 628 2
(0.2502050808 0.04662608867 0.3282713709 0.3748974596) 348 682 1
(0.1061790761 0.3645168703 0.08239359164 0.446910462) 352 632 2
(0.1249569045 0.4375215477 0.1046703571 0.3328511906) 349 684 2
(0.3997062736 0.1915264434 0.3001468632 0.1086204198) 173 336 1
(0.04044978764 0.4797751062 0.2577870145 0.2219880917) 530 1041 1
(0.6647447504 0.04854930717 0.1676276248 0.1190783176) 202 396 2
(0.3246002707 0.3376998646 0.1617411418 0.1759587229) 383 1268 2
(0.7873306669 0.1063346666 0.04909744536 0.05723722121) 53 100 2
(0.3595479321 0.1243045713 0.1959214627 0.3202260339) 443 1270 1
(0.5807789479 0.209610526 0.04258633983 0.1670241862) 652 1251 2
(0.8727109435 0.007982196369 0.05566233187 0.06364452824) 143 220 2
(0.6445833551 0.1388399402 0.1777083225 0.03886838224) 54 102 1
(0.5846056258 0.2076971871 0.08523775936 0.1224594278) 203 397 1
(0.7137425842 0.1431287079 0.02145204363 0.1216766643) 502 986 1
(0.6732460093 0.1633769953 0.147497955 0.01587904035) 262 511 2
(0.4616906726 0.2227143715 0.04644029217 0.2691546637) 112 160 2
(0.2160203801 0.3317279001 0.06026190989 0.39198981) 563 1274 1
(0.5620004948 0.2189997526 0.06592641139 0.1530733412) 410 802 2
(0.2781563213 0.2827792168 0.3609218393 0.07814262256) 443 869 2
(0.176448563 0.4117757185 0.02940066653 0.382375052) 383 751 1
(0.7830568424 0.01355712089 0.1084715788 0.09491445793) 413 808 1
(0.470730633 0.2646346835 0.04423497596 0.2203997076) 593 1164 1
(0.2711138258 0.3644430871 0.1981815858 0.1662615013) 317 563 1
(0.1281508065 0.4359245967 0.2215902464 0.2143343503) 351 630 1
(0.09364029786 0.4531798511 0.1631500312 0.2900298199) 292 573 1
(0.162966329 0.4185168355 0.3161151063 0.1024017292) 262 513 2
(0.6074095463 0.08782588196 0.1084693449 0.1962952268) 649 1249 1
(0.2621616544 0.3689191728 0.03739636878 0.331522804) 591 1160 2
(0.6871168338 0.1564415831 0.1513799863 0.005061596795) 12 20 2
(0.005481021559 0.4972594892 0.3747668863 0.1224926029) 353 692 1
(0.1363598708 0.3039114713 0.1279085933 0.4318200646) 261 453 2
(0.387622293 0.15071761 0.3061888535 0.1554712434) 54 104 2
(0.2162499474 0.1945853522 0.1972896741 0.3918750263) 173 279 2
(0.4579828687 0.1844448584 0.2710085657 0.0865637073) 51 99 2
(0.2837312028 0.3581343986 0.2400606841 0.1180737145) 143 220 1
(0.2846414719 0.349815258 0.007864006029 0.357679264) 560 1099 1
(0.006483548324 0.2619554498 0.234802776 0.4967582258) 412 808 1
(0.2026944077 0.1685236737 0.3986527961 0.2301291225) 203 397 2
(0.4061810698 0.1978040017 0.2969094651 0.09910546342) 54 102 1
(0.5276706524 0.08772915829 0.2361646738 0.1484355155) 46 86 1
(0.4480346059 0.2157199423 0.06026275472 0.2759826971) 203 1262 1
(0.3431085572 0.09188573488 0.2365599865 0.3284457214) 441 865 1
(0.2873146225 0.3563426888 0.004902326953 0.3514403618) 263 513 2
(0.4098831455 0.0439209343 0.2950584273 0.251137493) 498 978 2
(0.1721551043 0.3732244695 0.04069797838 0.4139224479) 347 622 2
(0.3161258793 0.3419370603 0.04329203587 0.2986450245) 199 331 1
(0.5422372085 0.2288813957 0.05476515139 0.1741162443) 470 922 2
(0.06044657489 0.4697767126 0.3624904913 0.1072862213) 202 395 2
(0.2023448032 0.2209425084 0.3988275984 0.17788509) 53 103 2
(0.04859060437 0.3170759236 0.4757046978 0.1586287742) 166 325 2
(0.4730471306 0.2634764347 0.04618094987 0.2172954848) 413 751 1
(0.8815731877 0.05921340617 0.01133903194 0.04787437423) 590 1158 2
(0.6494580173 0.08068951637 0.1752709914 0.09458147499) 110 212 1
(0.009009368201 0.426254178 0.06924113791 0.4954953159) 262 513 1
(0.4001166831 0.2999416585 0.06271664798 0.2372250105) 202 393 2
(0.008382453174 0.2733965673 0.2224122062 0.4958087734) 412 808 1
(0.2585787573 0.2104693907 0.3707106214 0.1602412306) 233 454 1
(0.04257394276 0.4787130286 0.3447616403 0.1339513883) 137 209 1
(0.3502740015 0.09515317187 0.2297098274 0.3248629993) 323 574 2
(0.1640984505 0.4179507747 0.2910866019 0.1268641728) 413 1269 2
(0.591132723 0.004321103292 0.2044336385 0.2001125352) 382 747 1
(0.859337914 0.07033104298 0.0421472623 0.02818378068) 198 329 1
(0.4760433343 0.2619783329 0.2133094914 0.04866884141) 12 20 2
(0.6237336409 0.1881331796 0.0370478095 0.1510853701) 651 1251 2
(0.01254657759 0.4937267112 0.365066733 0.1286599782) 293 1265 2
(0.1791812594 0.1931380681 0.4104093703 0.2172713022) 533 1046 2
(0.7278761954 0.1360619023 0.07410772238 0.0619541799) 501 925 1
(0.4403639915 0.06586242233 0.2139555819 0.2798180043) 263 1264 1
(0.1967730992 0.3149303935 0.4016134504 0.08668305688) 141 273 1
(0.6962407843 0.1317146532 0.1518796079 0.02016495463) 352 691 2
(0.8170748761 0.09146256197 0.01549588166 0.07596668031) 350 684 2
(0.5242065685 0.2378967157 0.2088309614 0.02906575432) 502 985 2
(0.255600776 0.372199612 0.3689577312 0.003241880847) 503 928 1
(0.2686926196 0.07695681289 0.2886968773 0.3656536902) 52 58 2
(0.2567552464 0.3097150676 0.3716223768 0.06190730926) 290 569 2
(0.4472117529 0.2763941236 0.1893071653 0.08708695829) 412 750 1
(0.2690348769 0.2212743946 0.144208167 0.3654825615) 173 279 2
(0.01927378773 0.3023507632 0.1880123429 0.4903631061) 53 102 1
(0.4460062063 0.2769968968 0.0654761929 0.2115207039) 231 394 1
(0.4645553809 0.03527966081 0.2324426487 0.2677223095) 82 159 1
(0.02198881138 0.4890055943 0.4874817233 0.00152387105) 202 395 2
(0.5725915104 0.1494754325 0.2137042448 0.06422881231) 201 394 2
(0.420935699 0.2895321505 0.1742772754 0.1152548751) 139 213 1
(0.05218504829 0.4739074759 0.4657063592 0.008201116696) 233 454 2
(0.2355908532 0.2193523818 0.1628521916 0.3822045734) 442 867 1
(0.6786064746 0.118427552 0.04226921065 0.1606967627) 471 866 2
(0.1450989798 0.1698167215 0.2576337886 0.4274505101) 528 978 2
(0.3349139665 0.1829442405 0.3325430168 0.1495987763) 27 52 2
(0.4694900372 0.2652549814 0.02913601865 0.2361189628) 81 155 2
(0.2905127169 0.3547436415 0.1819584924 0.1727851491) 140 215 1
(0.2474045194 0.1408558748 0.2354418655 0.3762977403) 52 58 2
(0.3259509619 0.2949688405 0.337024519 0.04205567848) 141 273 1
(0.2576510349 0.2282219968 0.3711744826 0.1429524858) 201 394 2
(0.1652502772 0.4173748614 0.07523247826 0.3421423831) 652 1251 2
(0.8107743429 0.04666237517 0.09461282856 0.04795045339) 171 332 1
(0.5563372329 0.04457081606 0.1772605675 0.2218313835) 230 392 2
(0.2250693812 0.3874653094 0.1769181076 0.2105472018) 320 625 2
(0.2231624501 0.0126155672 0.3884187749 0.3758032077) 529 1039 2
(0.4305022899 0.03809338447 0.2466554706 0.284748855) 232 396 2
(0.2552431573 0.1480158061 0.2243626152 0.3723784213) 350 686 1
(0.6533143743 0.001262533099 0.1720802797 0.1733428128) 29 55 1
(0.4200344682 0.09081836165 0.1991644043 0.2899827659) 16 9 2
(0.08274533848 0.04921192331 0.4094154074 0.4586273308) 112 218 1
(0.001923830551 0.4869685418 0.01206954291 0.4990380847) 173 279 2
(0.06150882964 0.05335114297 0.4692455852 0.4158944422) 83 159 1
(0.04555735808 0.05990458972 0.4173167312 0.477221321) 348 682 1
(0.498656047 0.2506719765 0.2352659335 0.01540604302) 410 805 1
(0.08263339696 0.3330516166 0.4586833015 0.1256316849) 323 633 2
(0.01079249908 0.2990326443 0.4946037505 0.1955711062) 411 807 2
(0.04270335895 0.04460653326 0.4340417873 0.4786483205) 141 217 2
(0.6582809163 0.1708595419 0.09701902048 0.07384052138) 344 675 1
(0.6042833713 0.05028404511 0.1978583144 0.1475742692) 528 1034 1
(0.0239507516 0.138942279 0.4880246242 0.3490823452) 141 276 2
(0.5505414733 0.2247292633 0.222073345 0.002655918357) 230 448 2
(0.03336443883 0.4833177806 0.1507064972 0.3326112834) 323 631 2
(0.140694968 0.429652516 0.2168469638 0.2128055522) 109 212 2
(0.1613928911 0.4193035545 0.3776163426 0.04168721187) 292 514 1
(0.1815509389 0.003893213834 0.4053313167 0.4092245306) 502 927 2
(0.2414370362 0.3792814819 0.3209928781 0.0582886038) 562 1045 1
(0.4424328987 0.2787835506 0.1732854097 0.1054981409) 347 678 2
(0.2563411647 0.3718294177 0.03767665235 0.3341527653) 261 512 1
(0.2876813917 0.3561593041 0.1843090173 0.1718502869) 320 627 2
(0.08448626309 0.4577568685 0.4371827909 0.02057407757) 383 749 2
(0.678094221 0.07478197916 0.1609528895 0.08617091035) 51 99 2
(0.3429046463 0.3285476769 0.265264743 0.06328293388) 500 982 1
(0.3452055428 0.3273972286 0.202577932 0.1248192966) 143 277 2
(0.6626878024 0.1686560988 0.02009071524 0.1485653836) 440 861 2
(0.1078630857 0.3067656649 0.1393027922 0.4460684571) 259 507 1
(0.4126568882 0.2936715559 0.1593262973 0.1343452585) 351 689 1
(0.3627960119 0.1660550132 0.1525469809 0.3186019941) 412 808 1
(0.04126377596 0.479368112 0.1795476358 0.2998204763) 501 984 1
(0.6761907267 0.1619046367 0.0935916876 0.06831294905) 226 384 1
(0.4244567398 0.2877716301 0.2042916121 0.08348001796) 469 862 1
(0.2751889802 0.3624055099 0.07656212821 0.2858433817) 29 55 2
(0.05068114318 0.4746594284 0.3772868893 0.09737253907) 353 1267 2
(0.2502041893 0.3748979054 0.3534981319 0.02139977348) 52 58 1
(0.329866335 0.3036743652 0.03139246725 0.3350668325) 620 1159 2
(0.1236743577 0.09282868521 0.4381628211 0.3453341359) 319 626 2
(0.341455659 0.3292721705 0.2636956518 0.06557651875) 110 215 1
(0.3211132096 0.3394433952 0.3132453822 0.02619801298) 233 456 1
(0.6735574476 0.1632212762 0.01640246798 0.1468188082) 260 451 1
(0.436570515 0.2817147425 0.2678952671 0.01381947541) 142 277 2
(0.2482280065 0.02070440088 0.3551815959 0.3758859968) 322 573 2
(0.9338919498 0.01408582057 0.01896820451 0.03305402508) 233 1263 1
(0.004771970274 0.07063773393 0.4976140149 0.4269762809) 77 147 1
(0.4872465869 0.2563767065 0.01288164629 0.2434950602) 560 1041 1
(0.4388555989 0.1229722853 0.1575999153 0.2805722006) 471 924 1
(0.4254491116 0.2872754442 0.1008372693 0.1864381749) 229 449 1
(0.3515484952 0.0165235457 0.3077022067 0.3242257524) 381 689 2
(0.1602322798 0.4198838601 0.3434244977 0.07645936239) 383 751 1
(0.5277764074 0.03604003912 0.2000717572 0.2361117963) 502 985 1
(0.7336206716 0.1331896642 0.0494900277 0.08369963652) 292 572 2
(0.06782159897 0.1070769985 0.4660892005 0.359012202) 108 211 2
(0.6342466596 0.1828766702 0.02606693257 0.1568097376) 353 633 1
(0.3872044017 0.3063977991 0.1346146027 0.1717831965) 437 799 1
(0.08688395362 0.4565580232 0.1126347179 0.3439233053) 81 158 1
(0.3637048859 0.3181475571 0.285730945 0.03241661206) 559 1097 2
(0.3357746792 0.3321126604 0.3230512406 0.009061419841) 200 391 2
(0.09184416519 0.309886362 0.1441915554 0.4540779174) 527 1034 1
(0.1086531508 0.2232626275 0.4456734246 0.2224107971) 260 507 1
(0.05145502759 0.4742724862 0.4625500034 0.0117224828) 647 1246 2
(0.4087479875 0.2956260063 0.2052221581 0.0904038482) 143 277 2
(0.2758894628 0.3620552686 0.3317218698 0.0303333988) 168 270 1
(0.3158454286 0.2622688941 0.3420772857 0.07980839166) 200 389 1
(0.2343469063 0.08118369538 0.3016428515 0.3828265469) 263 456 2
(0.4880279285 0.2559860358 0.04794431231 0.2080417235) 374 733 2
(0.2898110982 0.3550944509 0.1975017888 0.1575926621) 15 8 1
(0.2264497566 0.3867751217 0.36273804 0.02403708168) 499 980 1
(0.8684612348 0.06453987882 0.00122950378 0.0657693826) 231 452 1
(0.04882977093 0.4755851145 0.2570245802 0.2185605344) 200 389 2
(0.7926438459 0.1036780771 0.04511185024 0.05856622683) 171 334 2
(0.2600738884 0.1326354418 0.237327614 0.3699630558) 141 217 2
(0.5589788963 0.2205105519 0.08233962389 0.138170928) 290 568 2
(0.06340531963 0.002284223239 0.4682973402 0.4660131169) 563 1103 1
(0.7785955432 0.08993824357 0.02076398483 0.1107022284) 52 58 2
(0.6961382732 0.1392379432 0.01269292015 0.1519308634) 232 396 2
(0.2797239079 0.1250323956 0.2351056505 0.360138046) 83 1258 1
(0.4953555507 0.06131643164 0.2523222246 0.191005793) 231 453 2
(0.7272261016 0.1363869492 0.1257936009 0.01059334836) 112 218 2
(0.4287580361 0.285620982 0.266443433 0.01917754897) 83 159 2
(0.2353679525 0.08673169283 0.3823160238 0.2955843309) 172 337 2
(0.1122377217 0.2334763778 0.2104047613 0.4438811392) 350 686 1
(0.1781486626 0.4109256687 0.2623324869 0.1485931818) 231 450 2
(0.4902356188 0.1737383507 0.08114383989 0.2548821906) 468 918 1
(0.5379615946 0.1060246044 0.2310192027 0.1249945983) 143 277 1
(0.5643899628 0.2178050186 0.1591405011 0.05866451752) 293 1265 2
(0.7148651675 0.1425674163 0.06635172167 0.07621569459) 562 1045 1
(0.06062979119 0.4696851044 0.0055572332 0.4641278712) 411 804 2
(0.1421060646 0.007080300419 0.4218666673 0.4289469677) 561 1043 2
(0.1399770637 0.0721696735 0.3578417947 0.4300114682) 172 278 2
(0.1228065577 0.02658794632 0.4385967211 0.4120087748) 322 632 2
(0.6816321278 0.122632194 0.1591839361 0.03655174204) 442 868 2
(0.1542750623 0.3517010975 0.4228624689 0.07116137135) 13 22 1
(0.4928328078 0.169988425 0.08359517115 0.2535835961) 173 1261 1
(0.6436386686 0.1781806657 0.1610554337 0.01712523196) 531 1043 1
(0.05088930508 0.00630599042 0.468249357 0.4745553475) 621 1219 1
(0.01093338186 0.4945333091 0.2413430902 0.2531902189) 53 103 1
(0.09773467545 0.3094069995 0.4511326623 0.1417256628) 142 278 2
(0.04110418149 0.1136269128 0.3658209964 0.4794479093) 309 605 1
(0.4260316277 0.02020135899 0.2869841861 0.2667828272) 26 47 1
(0.498392056 0.2227399024 0.02806406958 0.250803972) 532 1044 1
(0.4477539612 0.2450950926 0.03102792682 0.2761230194) 233 397 2
(0.677525939 0.1612370305 0.1296326927 0.0316043378) 319 625 2
(0.1255581078 0.4372209461 0.3766737587 0.06054718738) 28 51 2
(0.06189131306 0.3435010469 0.4690543435 0.1255532966) 232 452 1
(0.1119486652 0.3411769436 0.4440256674 0.1028487239) 560 1097 1
(0.02943234068 0.4740482517 0.4852838297 0.01123557797) 54 102 1
(0.1247081398 0.124289912 0.3133560182 0.4376459301) 593 1275 1
(0.02841495633 0.0006530152742 0.4851395066 0.4857925218) 319 625 1
(0.5752516801 0.153900638 0.05847352195 0.21237416) 290 510 2
(0.01961608856 0.4901919557 0.2553131252 0.2348788305) 231 450 2
(0.9268759671 0.03656201644 0.02297172712 0.01359028932) 113 220 1
(0.4678757338 0.2219832152 0.2660621331 0.04407891791) 142 278 2
(0.6565379181 0.04411218586 0.171731041 0.1276188551) 203 395 1
(0.3357666254 0.2006047564 0.1315119309 0.3321166873) 261 453 2
(0.7720620742 0.01403089486 0.09993806806 0.1139689629) 113 161 2
(0.7496359381 0.01725395295 0.107928078 0.1251820309) 287 504 2
(0.1083388837 0.4458305581 0.3621238354 0.0837067227) 650 1249 2
(0.6540010346 0.1729994827 0.06522439374 0.107775089) 111 216 2
(0.1472769667 0.07487189603 0.4263615167 0.3514896206) 383 749 1
(0.1467426845 0.2467004353 0.4266286578 0.1799282224) 27 52 2
(0.5793258578 0.2103370711 0.1392781424 0.07105892869) 382 750 1
(0.7350495747 0.1324752126 0.0785167835 0.05395842914) 532 1044 2
(0.6335046645 0.1832476677 0.09171171717 0.09153595058) 30 58 1
(0.3104166535 0.3447916733 0.3142452819 0.0305463914) 291 571 1
(0.4901776022 0.2549111989 0.2490791699 0.005832029033) 112 218 2
(0.1578594357 0.4210702821 0.3696768108 0.05139347133) 227 445 1
(0.2231158944 0.3884420528 0.1589246932 0.2295173596) 527 1032 2
(0.7623814602 0.004635974619 0.1141732953 0.1188092699) 382 691 2
(0.3116624179 0.0957056729 0.2484631181 0.344168791) 437 857 1
(0.01513819321 0.4015685169 0.09086238653 0.4924309034) 171 276 2
(0.6102582311 0.145348964 0.1948708845 0.04952192049) 197 386 2
(0.08849890816 0.4557505459 0.444195568 0.01155497792) 143 277 2
(0.08525682612 0.4573715869 0.3463942138 0.1109773731) 81 157 2
(0.7328747538 0.05151073258 0.08205189052 0.1335626231) 500 923 2
(0.4869953575 0.1847382951 0.2565023213 0.07176402612) 442 865 1
(0.2045669674 0.3977165163 0.2134142141 0.1843023022) 261 511 2
(0.06436765688 0.4193839811 0.04843219048 0.4678161716) 622 1163 2
(0.2322790456 0.3005324483 0.08332802893 0.3838604772) 528 978 2
(0.1276468965 0.4326215135 0.003555038279 0.4361765518) 110 214 1
(0.5226056715 0.0005018630894 0.2386971643 0.2381953012) 4 5 1
(0.175204118 0.412397941 0.1201916009 0.2922063401) 167 327 1
(0.4221406378 0.1071463456 0.1817833355 0.2889296811) 262 455 2
(0.09202229637 0.19307226 0.4539888518 0.2609165918) 79 154 2
(0.6450857277 0.109254377 0.1774571361 0.0682027591) 563 1103 1
(0.2506623399 0.3319744594 0.37466883 0.04269437067) 112 216 1
(0.5983511953 0.2003629752 0.2008244024 0.0004614271529) 352 688 1
(0.1404439867 0.1744751811 0.4297780066 0.2553028256) 352 688 1
(0.3599087224 0.3200456388 0.2947543714 0.02529126745) 473 1271 2
(0.001309436378 0.4993452818 0.3838072358 0.115538046) 323 631 2
(0.5392916867 0.03391756185 0.1964365948 0.2303541567) 345 676 1
(0.0330167458 0.3577483383 0.1257432888 0.4834916271) 560 1099 1
(0.7480047351 0.03939337811 0.1259976324 0.08660425434) 171 335 2
(0.102442874 0.448778563 0.2301296268 0.2186489362) 199 331 1
(0.1442602438 0.2364420423 0.4278698781 0.1914278358) 442 868 2
(0.6502077344 0.1748961328 0.09675602045 0.07814011236) 563 1046 1
(0.4817292957 0.2138267096 0.04530864254 0.2591353521) 440 805 2
(0.2233009408 0.09752484627 0.3883495296 0.2908246833) 558 1096 2
(0.4727318215 0.1201794081 0.2636340893 0.1434546812) 199 387 1
(0.4462553517 0.114567894 0.2768723242 0.1623044302) 320 628 2
(0.5410020019 0.229498999 0.05980893469 0.1696900644) 352 690 2
(0.5925719736 0.06401999001 0.1396940232 0.2037140132) 83 104 2
(0.1748693697 0.1697381403 0.2428271749 0.4125653152) 138 269 1
(0.02889132474 0.4855543376 0.4613418723 0.02421246534) 203 395 2
(0.6011312294 0.1994343853 0.1666532114 0.03278117392) 259 449 1
(0.0007591976279 0.445087152 0.4996204012 0.05453324914) 200 389 1
(0.09175906256 0.275008458 0.4541204687 0.1791120107) 412 806 1
(0.4272511041 0.286374448 0.2034571364 0.08291731159) 407 798 2
(0.2623765397 0.1992991526 0.3688117301 0.1695125775) 532 1045 2
(0.04693285915 0.4765335704 0.2956576581 0.1808759124) 258 506 1
(0.234729585 0.3645774983 0.3826352075 0.01805770922) 198 388 2
(0.3899517435 0.06265066563 0.3050241283 0.2423734626) 22 39 1
(0.382097683 0.3089511585 0.156128301 0.1528228575) 291 568 2
(0.31266165 0.343669175 0.292767454 0.05090172106) 562 1045 1
(0.3864330801 0.30678346 0.2039253017 0.1028581583) 413 810 1
(0.03976308683 0.4801184566 0.1318667242 0.3482517324) 315 618 1
(0.08180345877 0.3009100621 0.1581882085 0.4590982706) 228 446 1
(0.003766540274 0.4981167299 0.2020084869 0.2961082429) 471 866 1
(0.2025303288 0.3987348356 0.2067785505 0.1919562851) 261 511 2
(0.01463486471 0.2184634723 0.2742190953 0.4926825676) 231 452 1
(0.1902900274 0.4048549863 0.3642870883 0.040567898) 533 1046 1
(0.0004107777404 0.4997946111 0.3816577941 0.118136817) 502 927 1
(0.08315399319 0.4584230034 0.2026102725 0.2558127309) 53 100 2
(0.2197812613 0.3190785323 0.3901093693 0.07103083701) 613 1204 2
(0.0974591225 0.4512704387 0.1578955825 0.2933748562) 322 632 1
(0.1491971614 0.4254014193 0.3542216093 0.07117981001) 382 691 1
(0.2625406292 0.3687296854 0.3316734123 0.03705627312) 170 333 1
(0.5756476003 0.01016613627 0.2020100636 0.2121761999) 142 219 2
(0.5871266173 0.2064366914 0.006380148786 0.2000565426) 320 625 2
(0.05982925189 0.4700853741 0.4479297511 0.02215562298) 112 218 2
(0.08868238811 0.4556588059 0.1816261291 0.2740326769) 192 375 2
(0.6994201247 0.01988770059 0.1502899377 0.1304022371) 323 633 2
(0.5172059582 0.2413970209 0.1210066469 0.120390374) 171 276 1
(0.1218330692 0.2329545842 0.4390834654 0.2061288812) 347 681 2
(0.01356819158 0.4932159042 0.2832926985 0.2099232057) 200 333 1
(0.6728647877 0.06542204555 0.1635676062 0.0981455606) 263 515 2
(0.4940416723 0.2529791638 0.2135831361 0.03939602776) 231 452 2
(0.4614215603 0.2692892198 0.2370060318 0.03228318807) 623 1221 2
(0.3837191498 0.3081404251 0.0904892234 0.2176512017) 113 220 1
(0.1977161772 0.4011419114 0.2943246297 0.1068172817) 411 748 1
(0.7338974353 0.06670157664 0.1330512823 0.06634970569) 533 1044 1
(0.6907249193 0.1546375403 0.02838097945 0.1262565609) 262 511 2
(0.2618424923 0.2919359869 0.3690787538 0.07714276691) 113 218 1
(0.07544797503 0.4622760125 0.2297132124 0.2325628001) 653 1223 1
(0.006815012315 0.4965924938 0.1616189281 0.3349735657) 139 269 2
(0.5481742881 0.2259128559 0.1793482943 0.04656456161) 170 333 1
(0.1977491876 0.4011254062 0.1617177737 0.2394076325) 317 563 1
(0.01737060296 0.4913146985 0.3312320652 0.1600826333) 82 157 2
(0.05351201381 0.01774744313 0.4732439931 0.45549655) 167 327 2
(0.4663038435 0.2668480783 0.252508442 0.01433963623) 437 858 1
(0.1139678106 0.4430160947 0.1129701225 0.3300459722) 473 928 1
(0.6688666389 0.1655666806 0.01949900668 0.1460676739) 52 98 2
(0.2851863451 0.3574068275 0.2984597888 0.05894703866) 112 216 2
(0.241714967 0.3791425165 0.07263194418 0.3065105723) 561 1101 2
(0.210822353 0.3945888235 0.3670572683 0.02753155521) 501 925 1
(0.3184852676 0.3407573662 0.08840132594 0.2523560403) 441 865 2
(0.1746614796 0.4126692602 0.04407955526 0.368589705) 413 751 1
(0.2338563711 0.3830718144 0.1192567929 0.2638150215) 198 385 2
(0.0356693877 0.4821653062 0.4802474149 0.001917891253) 322 631 2
(0.04015369492 0.4517850093 0.02813814326 0.4799231525) 321 571 2
(0.2222226682 0.1394754282 0.3888886659 0.2494132377) 261 509 1
(0.1102234299 0.4448882851 0.1727946645 0.2720936205) 262 514 1
(0.02099008599 0.270534318 0.2189706391 0.489504957) 347 680 1
(0.1942680991 0.3186847785 0.08418117196 0.4028659504) 111 158 2
(0.4858788853 0.2570605573 0.2382763989 0.01878415845) 413 808 2
(0.1664044603 0.4167977699 0.07651933902 0.3402784308) 28 53 2
(0.1860881953 0.1731147888 0.2338411135 0.4069559024) 173 1261 1
(0.5326290106 0.1742351034 0.05945039128 0.2336854947) 344 616 2
(0.1029041106 0.3885483426 0.05999960212 0.4485479447) 442 867 1
(0.3907450796 0.1143962119 0.3046274602 0.1902312483) 353 692 2
(0.1381005015 0.2369337204 0.1940160289 0.4309497493) 410 746 2
(0.4645331269 0.2056242571 0.2677334365 0.06210917948) 412 809 2
(0.3441100716 0.06417150207 0.2637734621 0.3279449642) 203 1262 1
(0.4928782896 0.1021574051 0.1514034501 0.2535608552) 231 394 2
(0.1237745921 0.1029145957 0.3351981082 0.438112704) 12 22 1
(0.5374124488 0.2312937756 0.06966973955 0.161624036) 48 93 1
(0.1361060856 0.2798601732 0.152086784 0.4319469572) 351 688 1
(0.08841959174 0.4557902041 0.3277671994 0.1280230047) 141 273 2
(0.3987095129 0.3006452436 0.002126650781 0.2985185928) 317 621 2
(0.5203716136 0.2398141932 0.2170996838 0.0227145094) 290 569 1
(0.1691209747 0.4154395127 0.2559862329 0.1594532798) 442 809 1
(0.6002096089 0.1998951956 0.1568188929 0.04307630265) 412 750 1
(0.1455802542 0.4272098729 0.2400819283 0.1871279446) 263 1264 2
(0.3592804763 0.3203597619 0.1094531382 0.2109066237) 473 928 1
(0.5496206407 0.2251896797 0.1388984989 0.08629118075) 262 511 2
(0.4563898407 0.2663483294 0.005456750301 0.2718050797) 558 1037 2
(0.4930897169 0.2534551415 0.1405377087 0.1129174328) 378 742 1
(0.2076687725 0.3961656137 0.2457173187 0.150448295) 167 326 2
(0.3183506053 0.0671839683 0.2736407291 0.3408246974) 319 567 2
(0.1209812533 0.4395093733 0.04153776951 0.3979716038) 167 268 1
(0.8338137446 0.0830931277 0.06334929143 0.01974383628) 651 1250 2
(0.6460929418 0.1709068801 0.1769535291 0.006046648968) 560 1100 2
(0.7916979779 0.05909314695 0.04505786411 0.1041510111) 586 1092 2
(0.3350938222 0.1472699687 0.3324530889 0.1851831202) 557 1091 1
(0.3649977333 0.2003529109 0.1171482224 0.3175011334) 529 980 2
(0.10837646 0.44581177 0.111145729 0.334666041) 503 987 1
(0.3426339249 0.3286830375 0.1715323318 0.1571507057) 440 864 1
(0.05415567341 0.4729221633 0.191997463 0.2809247003) 78 95 1
(0.2885534302 0.3557232849 0.06630002373 0.2894232612) 650 1249 2
(0.177683122 0.411158439 0.1475024938 0.2636559452) 173 1261 2
(0.2169883059 0.3915058471 0.322394423 0.06911142405) 201 393 2
(0.528988934 0.235505533 0.03551415939 0.1999913736) 51 98 2
(0.4199505618 0.2804652738 0.009559445245 0.2900247191) 500 923 2
(0.2290335713 0.3854832143 0.007659533132 0.3778236812) 468 860 1
(0.07340071703 0.4632996415 0.212551735 0.2507479065) 651 1251 2
(0.05550986871 0.3568030454 0.4722450656 0.1154420203) 591 1158 1
(0.3324851923 0.3337574039 0.1980773484 0.1356800555) 323 633 1
(0.120409905 0.09497909835 0.4397950475 0.3448159492) 620 1215 1
(0.4220229387 0.02637071604 0.2626178146 0.2889885307) 166 324 1
(0.1194182092 0.230902605 0.2093882904 0.4402908954) 621 1161 2
(0.7062636449 0.1468681775 0.05928038162 0.08758779591) 533 1273 2
(0.1939213311 0.4030393345 0.3481047885 0.05493454594) 173 338 1
(0.6138486674 0.1208642624 0.07221140383 0.1930756663) 140 215 2
(0.1725146599 0.2380517934 0.4137426701 0.1756908766) 589 1154 1
(0.3028407386 0.02262119824 0.3485796307 0.3259584324) 344 672 1
(0.4349640748 0.2825179626 0.1677435055 0.1147744571) 408 798 2
(0.1601140854 0.4199429573 0.3098845003 0.110058457) 470 923 1
(0.2980403066 0.2975968299 0.3509798467 0.05338301683) 650 1249 1
(0.05622187033 0.4718890648 0.2357673994 0.2361216654) 32 1256 2
(0.3340373553 0.3329813223 0.1192823764 0.2136989459) 351 688 2
(0.6080783824 0.1959608088 0.1320411182 0.06391969063) 78 95 1
(0.4568679291 0.2372026371 0.03436339839 0.2715660355) 378 741 1
(0.1966775853 0.4016612074 0.008726092204 0.3929351152) 442 809 1
(0.5040937971 0.2479531015 0.2247513863 0.02320171513) 528 1034 2
(0.2651746636 0.3674126682 0.01033883861 0.3570738296) 410 804 2
(0.3346741388 0.3326629306 0.2787378904 0.05392504023) 503 1272 2
(0.227206506 0.386396747 0.1177589565 0.2686377905) 109 212 2
(0.1316633503 0.4341683248 0.3371990262 0.09696929866) 322 573 1
(0.01948125142 0.4902593743 0.004805410549 0.4854539637) 379 743 2