/*--------------------------------*- C++ -*----------------------------------*\
| =========                 |                                                 |
| \\      /  F ield         | OpenFOAM: The Open Source CFD Toolbox           |
|  \\    /   O peration     | Version:  2406                                  |
|   \\  /    A nd           | Website:  www.openfoam.com                      |
|    \\/     M anipulation  |                                                 |
\*---------------------------------------------------------------------------*/
FoamFile
{
    version     2.0;
    format      ascii;
    arch        "LSB;label=32;scalar=64";
    class       scalarField;
    location    "0.007/lagrangian/dsmc";
    object      Ei;
}
// * * * * * * * * * * * * * * * * * * * * * * * * * * * * * * * * * * * * * //


6265
(
1.256632782e-20
1.517729044e-20
3.591632749e-21
2.645822465e-20
4.424934603e-20
2.344451529e-23
4.465749537e-21
1.612327132e-20
8.527578962e-22
2.683457459e-21
5.742362826e-22
2.115935735e-23
1.75703749e-22
3.945500841e-22
2.510097824e-21
1.991299263e-23
4.169572811e-21
1.118614954e-20
4.794275603e-21
1.225491096e-21
4.090637614e-21
5.870037276e-21
2.165491835e-20
3.431526382e-21
3.124688079e-21
2.788778588e-21
2.360313201e-21
1.489562659e-21
1.054974454e-20
1.597994819e-21
2.153464236e-21
1.719629822e-20
6.185149693e-22
1.120866265e-21
8.700768086e-22
3.551378358e-21
1.137667606e-21
1.522031645e-21
2.14016585e-22
4.456238871e-21
2.239828325e-21
1.391637482e-20
1.246701291e-20
1.571518614e-20
1.215648765e-21
4.351555662e-21
3.544351711e-21
7.199667398e-21
5.426922097e-21
9.580307917e-22
3.582126753e-21
5.261698019e-22
7.145129969e-21
4.524706349e-21
2.440005963e-21
1.641628256e-22
1.911909725e-21
1.441534249e-22
8.293395244e-22
1.428406266e-20
1.031454853e-20
1.326892285e-20
1.727045687e-20
9.950841309e-21
7.422513233e-22
2.540501126e-21
1.708611186e-20
1.706557563e-20
1.189398712e-21
2.957187871e-22
9.433048291e-22
1.314683454e-20
2.220231793e-22
1.197793497e-21
1.838177694e-21
1.115261775e-20
1.244965326e-21
2.680018796e-20
6.111545576e-21
5.486103606e-21
1.655940186e-21
2.656261858e-21
5.449186477e-21
1.481577032e-21
1.879246704e-21
2.221102217e-21
2.865640671e-20
1.016030814e-20
2.441356181e-21
1.872304444e-20
5.782730492e-21
8.229341634e-22
3.941957558e-21
1.212523446e-21
1.606767052e-21
5.110096728e-23
2.681879465e-21
5.7304768e-21
3.623266205e-21
3.823816353e-21
8.347293831e-22
6.030785564e-21
2.327417938e-21
1.085293494e-20
2.369809222e-21
5.702281268e-21
6.248640539e-21
4.330886654e-21
1.019482637e-21
9.353538424e-21
5.21950865e-21
6.639109349e-23
1.30915142e-21
1.558346445e-22
4.001340943e-23
5.914035458e-21
3.852828537e-22
2.442681337e-21
7.465258005e-21
1.531762057e-20
7.130941911e-22
2.327158246e-21
2.923550493e-20
1.743587841e-20
7.220713991e-23
1.366125135e-21
3.497811762e-20
2.386905563e-22
1.799642392e-22
1.45693144e-20
1.338958778e-20
8.552837464e-21
2.884105094e-20
4.897308625e-21
1.705798271e-20
3.282958548e-22
5.622922328e-21
6.200359242e-21
1.329230632e-21
2.160828339e-21
9.94502788e-23
3.013380121e-21
1.145073059e-21
1.866892036e-22
1.222756183e-22
1.714662502e-21
2.488588753e-21
3.398931997e-21
2.732337559e-21
3.643965271e-21
9.095901538e-21
1.618622823e-22
2.788278503e-21
1.493482297e-21
5.906148684e-21
4.451249981e-21
9.671925796e-21
3.402502368e-21
2.687757652e-21
6.300590509e-21
1.426915145e-20
3.018022793e-21
6.117676634e-21
1.75960126e-21
9.973835331e-21
1.194450435e-20
9.663331274e-21
8.753494242e-21
5.405861928e-21
1.072560586e-20
5.787993227e-21
1.950582006e-21
1.497513105e-20
7.204663185e-21
1.398915182e-22
5.145812647e-21
4.322823243e-21
1.929137119e-21
3.443184985e-21
3.754688496e-21
2.788714159e-21
2.546016256e-21
4.470180433e-21
1.057269226e-21
6.191475839e-21
6.089071394e-21
1.540149907e-21
2.314713724e-21
1.060008477e-20
6.430703047e-21
6.483077881e-22
9.858179827e-21
2.020418374e-20
1.9184913e-20
5.160178761e-22
2.376023801e-21
3.514500932e-21
4.256349899e-21
5.924548477e-21
2.232786086e-21
1.295972231e-21
4.722628209e-21
1.226691508e-20
4.530662643e-21
1.025848644e-20
1.228449933e-23
6.149793149e-21
1.31714596e-21
3.37692753e-21
8.829103926e-22
1.594895067e-20
6.514611639e-21
6.62020692e-21
8.276166204e-21
1.084737782e-21
1.050152172e-20
9.300606067e-22
8.777936738e-21
6.560685395e-21
3.342281606e-21
5.057615093e-21
2.295567194e-21
5.013556122e-21
4.03066225e-22
2.452882229e-21
2.955683023e-21
2.224136945e-21
1.194684763e-20
3.847688536e-21
5.670903144e-21
4.569510272e-22
8.332918745e-21
8.182518254e-21
2.478804316e-20
1.548038761e-21
3.28821841e-21
5.924172708e-21
5.160702595e-23
3.673108377e-21
4.498939222e-21
3.69701377e-21
7.314599453e-21
6.601245235e-21
1.45828997e-21
5.858931911e-21
1.097912723e-20
1.831138764e-21
6.506382571e-21
1.488444404e-21
4.253343671e-21
4.397676829e-22
7.939718412e-21
9.653037333e-21
1.043018466e-20
1.119544764e-22
8.959570385e-21
4.227477498e-21
1.749121729e-21
1.591560116e-20
1.839076019e-20
1.136077414e-20
8.215001381e-22
1.46082737e-20
1.094644085e-20
6.741925008e-21
6.055386746e-22
8.65441828e-22
8.914364372e-21
9.760324701e-21
1.471450847e-20
1.062280777e-21
1.466002265e-21
1.354300923e-20
1.088124951e-20
5.926064448e-21
1.047073363e-21
1.104378467e-23
2.454786089e-20
9.403803821e-21
5.189090339e-21
1.592398556e-20
1.318432366e-20
1.12960572e-21
4.98929025e-21
1.886366547e-21
4.98298778e-21
7.189913741e-21
3.993596565e-20
1.780550185e-21
5.011171014e-21
4.247382757e-21
1.887038211e-21
7.866660456e-21
2.802292323e-21
1.545794256e-20
8.546039491e-21
6.326037096e-21
2.948870063e-20
3.23145929e-21
1.555640644e-21
1.271884542e-21
9.279558167e-21
1.789732046e-20
4.426201432e-21
6.919912961e-21
6.111762107e-21
5.883128231e-22
2.216241521e-21
1.716392941e-20
7.105627836e-21
8.626975707e-21
9.452747644e-22
5.320406857e-21
9.742686068e-21
9.326534436e-21
6.406075946e-22
6.323690022e-21
2.096534543e-21
5.589163656e-21
1.940815043e-22
1.204302255e-21
1.948777041e-22
8.632551034e-21
1.129568304e-21
1.088191191e-21
7.944748575e-22
3.300655576e-21
1.78499199e-21
5.501422466e-21
9.399124761e-21
1.481088455e-21
9.060371608e-21
1.731864008e-21
1.121989679e-20
9.30312457e-21
7.192846775e-22
1.63322552e-21
1.900463973e-21
2.731826148e-21
1.094446034e-20
3.025953427e-21
1.477620027e-21
1.097253067e-20
1.915144691e-20
7.062339403e-21
3.871851985e-21
9.507297904e-22
5.528386208e-21
4.006237783e-21
1.07696339e-20
1.040700047e-21
5.301997632e-21
2.931413037e-21
4.613194679e-21
1.140802796e-20
6.713155802e-23
2.809908314e-21
5.755341912e-21
4.285230633e-21
3.416598576e-21
6.575064729e-21
4.495943139e-21
4.714354058e-21
2.168426604e-21
3.238473827e-21
2.074267205e-21
2.238168381e-21
3.807509616e-21
8.555253533e-22
1.520745836e-20
3.686908361e-21
2.051463409e-22
7.761255867e-22
6.732579903e-22
2.926243673e-21
3.747080245e-21
3.346974639e-21
3.779102249e-21
1.775190517e-20
2.872566319e-22
7.969945777e-21
1.840982273e-22
4.861725783e-22
2.410385019e-21
1.064220015e-20
8.463761533e-21
3.948532407e-21
1.666843125e-20
8.107375028e-21
8.979654697e-21
3.665716854e-21
1.794454198e-21
7.32007469e-21
7.448893512e-21
3.85285192e-22
3.320523788e-21
1.575702446e-20
8.070189975e-21
5.445595173e-21
2.221905647e-22
8.448741722e-21
3.098470746e-21
3.428259218e-21
5.344345932e-21
3.176334674e-21
4.395667563e-21
1.20534434e-20
2.131188038e-21
7.574722393e-21
6.483234701e-21
4.402594273e-21
1.809456178e-21
7.218740199e-22
3.571929055e-21
8.054313444e-21
1.155117701e-20
1.136628367e-21
6.79857143e-22
1.800065401e-21
1.491207471e-21
8.560947411e-21
9.529083764e-22
1.580501421e-20
4.394232408e-21
7.027848014e-22
3.381663979e-21
8.283935272e-22
1.942687184e-21
2.398118253e-21
5.239947482e-23
6.827702795e-21
1.098500178e-20
4.164286694e-21
6.345395769e-21
2.330521308e-21
1.550560977e-21
7.261506943e-22
2.766160734e-21
6.377094669e-21
8.729342324e-21
3.690509116e-22
1.085132654e-21
8.446219055e-21
2.568919658e-22
4.431362103e-22
1.184377728e-21
2.879352291e-21
1.436114895e-20
2.265453288e-20
9.619472341e-22
6.102762653e-22
6.213529588e-21
5.782731295e-21
1.454977112e-21
1.448256104e-21
2.841032136e-20
6.546636758e-21
7.339559023e-21
1.182300643e-20
4.431097565e-22
8.025510507e-23
1.870759178e-21
5.654562655e-21
2.879816512e-22
4.314074514e-21
2.09553707e-21
5.197222709e-22
2.700916891e-22
3.03856299e-21
1.624165222e-21
3.303319923e-22
5.455698262e-21
6.918165642e-21
1.983134267e-21
1.039409002e-21
2.012059502e-21
4.201742304e-21
8.393096078e-21
4.074870438e-21
3.10169243e-21
3.856714573e-20
1.26491839e-20
2.717894548e-21
3.323847999e-20
9.611087095e-22
1.294806922e-20
1.355671769e-21
5.224737754e-21
1.50938126e-21
3.665532376e-21
6.560346711e-21
3.022312581e-21
9.167623623e-21
6.597469123e-22
8.190036296e-22
6.415562089e-21
4.577242822e-21
2.012052159e-21
3.023878986e-21
6.739464227e-22
6.718236011e-22
3.998515679e-21
1.092791934e-20
9.310766035e-21
1.134044612e-20
2.970581036e-21
9.08401766e-21
2.104802371e-21
3.089795674e-21
5.858501902e-21
3.915787312e-21
2.266846661e-22
7.369801702e-21
1.477433823e-21
7.800100324e-21
6.126334698e-21
6.145464068e-23
6.85919685e-21
4.978390433e-21
7.507547698e-21
5.783349657e-21
2.641772145e-21
1.705475029e-21
5.883075744e-21
5.600357393e-21
9.129190735e-21
3.099740597e-21
5.138503149e-21
3.805000536e-21
3.584682392e-22
5.241643197e-21
2.722049357e-21
6.710496236e-21
6.763510997e-21
9.723751889e-22
7.586198184e-21
2.201232529e-20
3.299907627e-21
1.429945145e-22
8.726891226e-22
6.336422156e-21
3.954774272e-21
8.54594691e-21
5.696519722e-21
6.634834571e-21
1.099759163e-20
3.021501942e-21
4.516192262e-21
6.320516661e-21
3.966810221e-21
2.350733995e-21
1.98028541e-21
1.714216547e-21
2.667353765e-21
4.014182451e-22
7.025062418e-23
7.240198412e-21
7.969709064e-21
3.846544931e-22
1.216351078e-20
2.786496186e-22
8.249131292e-21
1.71378964e-21
2.517040717e-21
1.215016216e-22
4.206588616e-21
2.271116856e-20
5.065587755e-23
1.472224701e-21
7.351049559e-21
2.274631194e-22
1.051842759e-20
1.043555743e-21
4.34469065e-22
1.3758651e-21
4.144939314e-21
3.451041516e-22
3.196260753e-21
2.905670184e-21
6.541318203e-22
4.620353789e-21
2.761900635e-21
5.895518647e-21
1.452251691e-22
4.730458938e-22
4.594383824e-21
3.046656634e-21
2.125358701e-21
6.431108245e-22
2.780291134e-21
6.01456096e-21
7.139858561e-21
1.76296038e-21
5.067820466e-22
8.067958179e-21
1.907440906e-21
1.026784947e-20
9.444515432e-22
6.113390638e-21
2.829599269e-22
5.09806597e-21
1.48766704e-21
3.451891352e-21
6.456223343e-21
3.322373377e-21
1.991608024e-20
3.210061411e-21
3.350819243e-21
1.372205153e-21
1.001538169e-20
1.123540402e-22
6.298458388e-22
2.911955167e-21
1.879943018e-21
2.586615859e-22
7.593893072e-21
3.255353476e-21
7.255807632e-22
1.47641227e-21
2.629624587e-22
5.107345648e-21
2.200491341e-21
1.480171788e-21
3.646651908e-21
2.23938188e-22
5.933028207e-21
8.37428237e-21
1.960425327e-21
3.998384528e-21
3.465389639e-21
1.732559944e-22
2.792658238e-21
2.45351751e-20
3.114700451e-22
2.942494577e-21
5.543880174e-21
6.447271507e-22
8.278963929e-21
4.99227202e-22
2.349360797e-21
2.192999332e-21
3.761410831e-21
1.516688792e-22
4.377553486e-21
1.419144873e-20
3.53039804e-22
2.473063905e-23
5.31742984e-21
3.698050547e-21
4.29450079e-21
1.708854524e-21
2.21012889e-21
3.131801962e-21
1.556309062e-21
7.369260719e-22
1.628626646e-20
3.625263254e-21
3.030426986e-22
1.538630936e-21
1.792130451e-21
1.409898024e-21
1.137585025e-20
6.20691898e-21
1.365351059e-21
6.999855902e-21
4.593873785e-22
1.390348701e-21
2.824194848e-21
1.24664272e-21
7.113803004e-22
1.20853286e-20
1.947157222e-21
3.649091927e-21
1.536598658e-21
6.006147838e-21
5.08777603e-21
1.75723481e-21
6.956168125e-22
4.33909627e-22
7.999894258e-21
1.464235084e-22
3.912362314e-21
5.964302982e-21
2.771375201e-22
2.188940216e-21
1.061558179e-20
8.576255443e-22
3.194642983e-21
8.329180202e-22
1.290081043e-20
4.724145675e-21
6.000006497e-21
1.08184776e-21
1.4975707e-22
5.6522077e-21
2.51229197e-22
4.896084589e-21
1.866008899e-21
1.997586505e-21
3.371613956e-21
4.318330789e-22
1.897010576e-21
3.154580454e-23
4.830708177e-21
1.09904098e-20
3.532952153e-21
5.840062696e-21
1.377306584e-20
1.071728563e-20
7.731833e-21
8.71418202e-21
1.924094074e-22
1.495394632e-20
2.667231906e-21
6.517267809e-22
2.968628705e-21
8.06930033e-22
9.152622137e-21
1.21614262e-21
3.386466682e-21
6.906503572e-22
1.006181677e-20
2.682705737e-21
1.439968303e-21
1.933791818e-21
2.187307919e-20
4.081952009e-21
1.082859323e-20
1.039965394e-20
1.961427844e-22
1.314078025e-20
1.354573318e-20
3.156513214e-21
3.623109831e-23
2.487454775e-21
7.168204071e-21
6.272534535e-21
3.531979199e-21
1.442572293e-21
7.790441177e-21
1.746411165e-21
1.265532856e-23
4.310232938e-21
6.9405829e-22
6.329569459e-21
3.669419823e-21
2.840474206e-21
1.496112488e-20
3.938601631e-23
4.266556583e-22
2.56104081e-21
4.002492556e-21
2.633419708e-21
5.343988402e-21
2.4825526e-21
7.386245973e-21
3.702040579e-21
3.963014272e-21
7.023337603e-21
4.201679419e-22
3.984670689e-21
2.979401068e-21
3.908202175e-21
1.8013723e-22
1.978160618e-21
2.312555451e-21
8.317002136e-21
3.635595318e-21
2.9566871e-21
1.029601944e-20
6.04990554e-21
7.680518395e-21
1.73946459e-21
5.647800067e-21
5.363266062e-21
2.019321789e-21
2.123177349e-21
1.600924634e-21
2.370587791e-21
1.72482332e-20
6.294206963e-22
1.82343689e-20
4.7097555e-22
1.501853895e-21
2.414540691e-21
3.37146109e-21
6.039074283e-21
7.840408661e-21
6.817452522e-21
1.176350968e-20
4.904068425e-21
4.153595771e-21
1.453693897e-20
8.06807304e-21
1.066463568e-21
1.598451359e-21
4.871866088e-21
1.182269796e-20
1.693432325e-21
2.0632688e-21
8.85926593e-21
3.517050539e-21
4.132705454e-21
1.702021396e-21
8.159817848e-22
7.975478477e-21
2.756891158e-23
1.51949706e-21
2.239222252e-21
9.409268618e-22
3.099348703e-22
7.902086714e-22
1.127173721e-20
4.426573941e-21
1.950468878e-20
1.704749653e-21
1.260318209e-21
8.756938593e-21
7.460477407e-22
3.783586208e-21
4.275992191e-21
4.450194924e-21
2.551243951e-22
4.282674378e-21
3.266039587e-21
4.584803197e-21
4.680361246e-21
1.439692748e-20
4.841010944e-21
1.457282568e-20
3.401238918e-21
2.39918363e-22
2.32649907e-21
5.093152178e-21
8.5292497e-21
3.33209279e-21
6.170196712e-21
2.022089025e-20
1.479044372e-20
5.639522822e-21
2.676972121e-21
1.425561633e-20
1.202646227e-20
1.396484388e-21
8.67490777e-21
9.677986771e-22
4.618583282e-21
1.942477678e-21
4.554900778e-21
7.066927461e-21
3.029349426e-21
5.260697248e-21
4.289880038e-22
2.521193557e-20
9.776453459e-21
1.980171031e-20
1.319074839e-20
1.741760355e-20
8.048134332e-21
6.976399388e-22
5.840820324e-21
7.709130632e-21
2.018538105e-20
7.555594545e-21
6.223852205e-22
1.34227572e-20
4.082487509e-21
5.917374848e-22
5.47212385e-21
6.526399315e-21
5.411024005e-22
5.208382776e-22
2.807553558e-21
2.814054655e-22
1.176724727e-21
8.614934424e-21
6.05874624e-21
3.980254847e-21
2.246583511e-22
6.060764319e-21
1.590036837e-21
1.325288694e-22
6.907105653e-21
2.77878328e-21
5.187540089e-21
4.116060334e-21
8.031955413e-21
1.837570633e-21
1.159737207e-20
3.46359414e-21
1.92195056e-21
4.145038933e-21
5.696246244e-22
1.065897128e-20
7.869222467e-21
4.599352109e-21
9.092433805e-22
2.109671696e-21
1.058722246e-21
8.177008229e-21
1.380838604e-21
9.855707192e-22
2.266295888e-22
4.339115085e-21
1.079421041e-21
2.742276998e-21
5.511418792e-21
3.739084474e-21
5.748494352e-21
7.287197254e-21
3.586670582e-21
1.048005859e-20
2.490548642e-21
2.150813363e-20
5.412740846e-21
1.046581819e-20
1.436824702e-20
8.687574425e-22
1.712193608e-21
7.058510829e-21
3.902957998e-21
7.62395858e-22
8.265846205e-21
1.213573146e-21
1.314536859e-21
2.584120497e-21
1.547750266e-23
2.433670723e-21
7.491653184e-21
5.468274891e-23
2.229737369e-21
6.40862829e-21
3.833683686e-22
5.227778651e-23
4.896599509e-21
4.299692849e-21
2.964136221e-21
1.446954928e-21
2.345909787e-21
4.952727633e-21
1.345081241e-20
3.588409548e-21
1.189892222e-20
3.299927388e-21
6.14620055e-21
9.21762752e-21
8.61939868e-21
1.002637434e-21
2.330283044e-21
7.366778073e-23
2.813178487e-21
3.815119671e-21
5.703136763e-22
1.413645888e-21
6.096782757e-21
1.841140218e-21
3.109452279e-21
5.192229411e-21
1.289547888e-20
6.62473033e-21
2.909090777e-22
5.32390132e-22
3.044310456e-21
9.616452893e-21
5.053187879e-21
5.732069267e-21
1.332382582e-20
1.297414988e-20
7.011726744e-23
2.565947594e-21
6.291038127e-22
3.487239906e-21
5.378274717e-21
6.935470349e-22
1.56309955e-20
1.683729469e-21
1.106829154e-20
6.847781858e-21
2.184258181e-21
6.934688553e-21
2.073543476e-21
7.586546259e-21
1.686300699e-20
8.521606824e-21
3.755136006e-21
3.249307752e-21
5.853288204e-21
4.31640053e-21
3.363626518e-23
2.381174722e-21
1.806414835e-21
2.363148182e-21
2.115661809e-21
1.100864487e-20
1.705583168e-21
2.925738382e-21
9.297917107e-21
8.512902053e-21
4.536683627e-21
1.214547697e-20
5.127713156e-21
3.91028464e-21
7.743023869e-22
1.671451363e-21
1.62368724e-21
4.153434757e-21
7.457683296e-21
1.518477966e-20
9.691901822e-21
1.156818465e-21
3.047877981e-21
6.361347257e-21
4.045680442e-21
3.565956789e-22
4.305410984e-22
6.275966401e-22
3.821775588e-22
6.579709911e-22
6.093258723e-21
2.130329723e-21
3.541023221e-20
1.616129647e-21
9.366195493e-22
2.902851268e-21
7.039901985e-22
6.296039017e-21
5.382738487e-21
2.661398384e-21
2.976600558e-21
6.756417e-21
5.959359327e-21
6.411971991e-22
1.402093108e-20
4.550861251e-21
6.119650879e-21
3.192670682e-20
7.460431476e-22
1.239621357e-20
5.386062468e-21
3.454034733e-22
2.66879059e-20
9.29115301e-21
2.281043384e-21
8.808083032e-21
7.726369305e-21
5.281467725e-21
1.034947545e-20
3.275322853e-21
2.149450797e-22
1.006203461e-20
3.470499695e-21
4.844507542e-21
1.557967979e-22
9.374265716e-21
5.40142667e-23
3.836169124e-21
2.353730387e-22
4.289234386e-22
2.833895876e-22
4.284665971e-22
1.398399849e-21
7.590002466e-21
1.513945065e-22
8.371987642e-21
2.070743365e-21
5.445668874e-23
2.066524912e-23
8.907142125e-23
4.988426718e-21
8.808510381e-21
1.170073241e-20
1.787424037e-20
7.986254605e-21
1.735411091e-20
8.894227182e-22
3.838416444e-21
1.942316666e-22
3.213020715e-21
6.104304548e-21
8.552099391e-22
8.802047117e-22
3.831820508e-21
2.669601667e-21
5.588913866e-21
7.090947686e-21
2.166118735e-21
5.293839694e-22
3.029253429e-21
1.064924008e-21
3.084545808e-21
1.497517811e-20
1.677251899e-20
8.931836642e-22
1.439820122e-21
2.377687366e-21
4.205389513e-22
3.53201826e-21
2.503487111e-21
6.106436263e-22
8.590238222e-22
2.224688257e-21
6.031688645e-22
3.524339563e-21
2.411196857e-21
2.764747175e-21
4.167531675e-21
5.196814112e-21
1.931634766e-20
2.686190871e-21
5.659489614e-21
2.539575118e-20
6.137407264e-22
7.876420866e-22
9.976803788e-21
1.40164607e-21
4.751455564e-21
2.716387391e-21
7.98078854e-21
7.719854089e-21
2.56130694e-21
2.161062413e-21
1.43164008e-21
1.291289332e-21
1.727107287e-20
2.822012224e-21
1.162472135e-20
1.311302378e-22
2.122608795e-20
1.133314389e-21
4.869449417e-22
4.331821382e-21
3.791540227e-21
5.440939077e-21
2.345191578e-21
3.365960027e-22
1.66585718e-22
9.391853207e-22
7.334917706e-22
1.200848034e-20
1.405066709e-22
2.395952489e-21
1.698471627e-21
6.217854876e-22
4.004620642e-21
6.261420923e-22
8.552149557e-23
4.708567912e-21
6.864152417e-22
6.951279685e-22
4.527209555e-21
1.717495998e-21
1.504744515e-21
9.324215204e-22
6.099267717e-21
5.152614501e-21
1.699561794e-21
1.259976136e-22
2.984700179e-21
8.289349388e-21
2.578060313e-21
5.41298271e-21
1.817613182e-22
1.96364891e-21
5.915942459e-21
7.063693608e-21
1.544217352e-21
1.500536948e-21
4.091038443e-21
5.59620199e-21
1.574251752e-21
9.022329794e-21
1.336817962e-20
1.163426844e-21
1.501358132e-21
3.163185055e-21
2.77890112e-22
1.429335458e-21
3.596795982e-21
6.215730299e-21
1.12461063e-21
8.901755032e-22
3.59508955e-21
5.117099961e-20
7.700403631e-21
1.831916432e-21
6.015893828e-21
1.990365622e-21
1.371904836e-21
6.728434778e-21
1.565492947e-21
1.082698654e-20
2.934589477e-21
5.169048949e-21
2.83417261e-22
1.005698867e-20
4.820425661e-22
2.597630532e-21
4.462425964e-21
5.37542462e-21
1.500285145e-21
5.077533966e-21
3.596323241e-21
2.783631645e-21
5.494126357e-22
7.698522336e-21
8.554761939e-23
7.442741055e-21
1.927961003e-21
6.550639117e-22
2.17225307e-21
5.052314419e-21
2.082813777e-21
6.542378511e-21
6.93681015e-22
6.390330262e-21
6.003248568e-22
3.422385182e-21
6.249917478e-21
4.171379298e-21
3.048070149e-21
7.929785836e-22
1.071660128e-20
6.035401934e-21
1.109042083e-20
8.664183779e-22
6.72453783e-23
4.590323182e-21
6.384921548e-21
4.403021053e-21
3.563461789e-21
2.576662585e-22
1.040567023e-21
7.068513413e-21
2.108848599e-21
2.240642341e-21
1.892083127e-21
1.558115769e-21
2.360051557e-21
2.070140765e-21
2.697540045e-21
1.383846727e-20
1.167218203e-20
5.430761051e-21
2.017994761e-21
3.271823352e-22
4.162339371e-22
2.047185768e-20
1.700113974e-21
1.295169005e-21
5.441856457e-22
6.677197957e-21
9.163859022e-21
8.906298071e-22
3.817484807e-21
1.718961481e-21
5.17722312e-21
7.473798055e-22
2.254626811e-21
2.232959519e-21
1.573532215e-20
2.898464545e-21
3.094975509e-21
6.116840584e-21
2.929334427e-21
1.11895424e-20
6.763659423e-21
8.104656923e-21
4.673267323e-21
3.56834372e-21
9.972353187e-21
1.817728733e-21
6.778870052e-21
2.205753348e-21
3.156587838e-21
6.857194033e-21
1.888951019e-21
6.352885179e-21
1.964778319e-21
4.968773057e-22
1.557922363e-20
7.091670476e-22
1.265663493e-21
6.172847137e-22
2.916276698e-21
3.309419886e-21
4.732439374e-21
1.442294714e-21
4.487339524e-21
1.201149481e-20
3.907620985e-21
8.268794165e-21
1.018070727e-22
3.358014805e-22
3.908958541e-21
8.372570308e-22
1.192016343e-22
9.368148619e-22
5.382490713e-21
7.362561513e-22
2.971108261e-21
5.240626165e-21
2.240597726e-21
2.309753834e-22
6.709440155e-22
7.442006611e-21
1.336080034e-21
8.287775973e-21
3.267773093e-20
1.848335255e-21
5.453882248e-21
1.44660468e-21
6.755595436e-22
3.239364988e-21
1.533307398e-21
2.49866279e-21
7.273647574e-21
1.660389813e-20
3.253615378e-21
2.147418756e-22
6.145502005e-22
9.151216733e-22
6.933439952e-22
4.387512668e-21
1.540845422e-20
8.127050815e-22
2.371253685e-21
9.382412944e-21
5.292506104e-22
4.112736661e-22
1.190630952e-20
2.267672762e-21
3.876820442e-22
1.487604213e-20
6.248618897e-21
8.285321837e-21
3.537856583e-21
2.917789279e-21
4.730852753e-21
4.48161906e-21
2.433259981e-21
5.525477197e-21
1.738175437e-21
3.344909777e-21
5.765159058e-21
2.70349465e-21
1.500356759e-21
6.554530761e-21
9.225445009e-21
4.936856057e-21
5.012997133e-23
4.170877758e-22
3.601518753e-21
3.010613942e-21
1.639692295e-20
2.209009078e-21
2.64612109e-21
3.942611355e-21
3.44405781e-21
4.311816394e-22
6.119543328e-21
2.518425884e-21
7.289964435e-21
1.329355944e-20
6.108697563e-21
1.32329115e-22
1.407010532e-21
6.094852947e-22
5.86417681e-22
9.215162425e-22
3.130407839e-21
1.548551043e-21
1.533117404e-21
1.361496411e-21
6.81766442e-21
3.678619153e-21
2.603149238e-22
3.501174821e-21
2.800457383e-22
4.179169776e-21
1.704574694e-22
4.01175776e-21
1.66035254e-21
9.744686563e-21
1.914866698e-21
2.551482333e-21
7.886442562e-21
7.078373743e-22
6.711053037e-22
7.913216393e-22
1.231581214e-20
4.88164662e-21
2.752152645e-22
4.293828404e-21
1.197186707e-20
4.948222009e-21
4.988952537e-21
1.485809015e-21
2.175211306e-21
7.12444799e-21
5.325235797e-21
1.558804917e-20
1.194749189e-20
2.128452752e-21
1.051641218e-21
7.253174623e-21
3.748158935e-21
2.605920073e-21
2.026352231e-21
9.468935314e-21
8.323156216e-21
4.435285948e-21
3.345297342e-21
1.189252364e-21
3.906735124e-21
1.028362268e-21
1.027599585e-20
1.408486398e-20
3.602800484e-21
2.958905279e-20
7.575936947e-22
2.829763173e-21
1.086552422e-21
3.462418867e-20
3.547185699e-21
1.426307798e-20
1.763607929e-21
2.519997949e-20
4.283151141e-21
1.034716445e-20
2.57635697e-21
5.880646384e-21
6.48963857e-21
2.376669886e-21
9.273950146e-24
1.354219689e-20
2.446124337e-20
3.058062603e-21
3.841581512e-21
8.375719131e-21
1.51406809e-21
3.69196469e-21
7.968521552e-21
6.805720512e-21
9.215574913e-21
5.794792299e-23
1.361330834e-22
5.430865687e-21
1.298912611e-20
4.484373871e-21
1.532091415e-20
1.535978958e-21
4.767894262e-22
1.554765842e-21
7.94963646e-22
5.741845265e-22
1.611043265e-20
4.337857514e-21
5.051349424e-21
1.100154246e-21
3.63015777e-21
5.14080019e-21
1.086708708e-20
1.233233036e-20
3.944720611e-21
2.881413513e-20
7.057642104e-21
1.685075937e-21
3.466864979e-21
8.284195318e-21
2.276170539e-21
4.470161801e-21
1.43192823e-21
4.050703711e-23
2.296004961e-21
2.803607719e-21
1.314181948e-21
2.446209603e-21
7.09602577e-21
1.826058016e-20
1.176688702e-21
3.594503238e-21
7.137260471e-21
2.053159603e-21
1.277083091e-22
9.674036964e-22
3.920666939e-21
2.665861952e-21
2.723861766e-22
1.317583088e-22
9.006594605e-21
1.003762031e-20
2.63502985e-21
2.167705688e-21
5.504595567e-21
4.636557107e-21
4.92058111e-21
7.264263478e-21
2.556577509e-21
5.759205691e-21
1.229500621e-22
1.30093261e-21
2.455227818e-21
1.246353131e-21
7.067223729e-22
7.288791692e-21
1.333251456e-20
3.819554094e-22
1.409994931e-21
7.894605041e-22
1.086663312e-21
2.997902504e-21
1.006541358e-21
3.944424411e-21
2.476444772e-21
3.807039684e-21
3.43402734e-21
9.435490411e-21
1.775966936e-21
3.974663074e-21
9.846893163e-22
5.887063136e-21
4.067996462e-21
2.276462306e-21
2.390986035e-20
1.456697693e-22
4.138765351e-21
4.319235229e-21
3.610952789e-22
1.695457865e-21
7.541246206e-21
3.468265352e-21
5.67618674e-21
2.001507855e-20
1.494850649e-21
1.846019584e-20
6.048720077e-22
1.929790902e-21
3.375147274e-21
7.865422403e-21
1.731609203e-21
1.075602926e-22
5.746745656e-22
2.070332051e-21
1.112942423e-21
5.423680049e-22
1.931087018e-21
7.948849759e-21
3.630459229e-21
3.297431257e-21
8.879762286e-21
3.860974868e-21
1.462714812e-20
4.475435392e-20
1.721059201e-21
1.00693123e-21
5.575306725e-22
3.667711918e-21
6.293295624e-22
1.69255892e-21
2.745187134e-24
5.149396542e-21
5.979344531e-21
5.866987293e-21
7.789074825e-21
4.537785051e-21
4.535209853e-21
3.039681881e-20
2.881444704e-21
1.082047706e-20
1.8524894e-22
3.890816248e-21
9.855005037e-22
6.596590524e-21
1.526072684e-21
1.38509272e-22
1.960998322e-21
5.014122989e-22
8.35923468e-21
1.285980417e-20
4.950731338e-22
6.904460845e-21
4.195862168e-22
6.786218186e-21
1.232153388e-21
5.679225646e-21
2.31644794e-21
8.651357348e-22
5.331889803e-21
9.378953431e-21
1.487947529e-20
1.155807195e-20
2.706879817e-21
2.396400291e-20
2.921851648e-21
1.95875755e-22
4.050739447e-21
4.480509752e-21
7.323317482e-22
3.810590267e-22
1.096224201e-21
1.066421161e-20
7.390134508e-21
6.668369316e-21
4.080943156e-21
5.734683048e-21
8.531733731e-21
5.549574626e-21
7.632481312e-21
2.782253635e-21
3.151189604e-21
2.532003737e-22
6.286759131e-21
3.423716193e-21
1.695891775e-21
1.725618866e-21
1.003945059e-21
6.968907953e-21
7.188103658e-22
4.194534804e-21
1.437840094e-21
1.384912027e-21
7.781594596e-21
4.615467566e-22
1.553988305e-21
1.767086811e-20
2.053838492e-21
2.160173218e-20
5.060232763e-22
8.220822221e-22
5.970140504e-21
3.405998266e-22
6.741793502e-21
5.834684092e-22
7.102177203e-22
1.289289699e-21
1.016635595e-20
8.055791183e-22
1.924798642e-21
1.409376627e-21
7.467247997e-22
3.70178655e-21
1.8907286e-21
3.876723984e-21
6.606479799e-23
2.002080396e-21
9.413878326e-21
2.798031958e-22
2.444058714e-21
9.973175117e-23
4.199639455e-21
4.595129661e-22
4.972742471e-21
5.74213528e-21
2.815033472e-22
3.274786182e-21
1.349671206e-23
5.258912107e-22
2.243059158e-21
3.331587581e-21
7.895673297e-21
9.099402054e-22
2.009662762e-21
3.587499611e-21
2.665342574e-21
7.08519246e-21
2.591245421e-21
3.272445419e-21
5.420544489e-21
1.803455161e-20
1.710417564e-20
4.301035337e-20
2.592413552e-21
9.511449131e-21
1.203220028e-21
1.353202141e-20
1.771790489e-20
3.368441537e-22
2.03042917e-22
1.210744389e-20
9.025732486e-21
4.065136595e-21
7.41049606e-21
7.452845758e-22
2.989322314e-22
3.854685313e-21
4.457047443e-21
9.041768347e-21
2.188303673e-21
2.385707544e-22
1.585444651e-21
2.510887018e-21
6.947191899e-21
1.260494385e-21
3.01353904e-21
7.42895546e-21
7.923262793e-22
2.402646163e-21
1.006938761e-22
2.764820604e-21
1.339770142e-20
1.059527458e-20
1.490635781e-20
5.06210826e-22
7.464459283e-21
8.352145349e-21
2.03129032e-21
9.595244237e-22
8.732331719e-22
4.247940518e-21
8.676480337e-21
4.002977696e-21
4.52750259e-21
9.045972821e-21
5.743307616e-22
1.832295064e-21
3.01995756e-22
9.178511573e-21
5.488944267e-21
8.572787025e-21
7.735014053e-21
3.662584985e-21
1.664674537e-20
1.378701906e-21
2.743462331e-21
3.045268982e-21
3.598829708e-21
9.291615858e-22
7.139461302e-22
7.255744625e-21
1.598288003e-20
5.623750713e-21
4.658788689e-21
1.69998685e-20
1.896947349e-21
2.190708155e-22
8.755702455e-22
2.105309451e-21
1.731508981e-21
8.659169215e-22
1.528498745e-21
5.908844162e-21
3.556580934e-21
9.43633496e-21
6.988862738e-22
2.173239593e-21
7.983717367e-21
1.11714529e-20
1.204174325e-20
1.312114426e-20
3.719803144e-21
3.466340114e-22
7.229862403e-21
4.393998397e-21
3.982914288e-22
3.025742895e-21
8.534776724e-22
3.740260043e-21
3.478666361e-21
4.096211284e-22
1.32571215e-20
2.517123909e-21
1.463397302e-21
5.778825963e-22
5.107502115e-21
1.911441536e-21
1.302046395e-20
4.499929573e-21
5.323585732e-21
2.278053629e-21
4.904056607e-22
2.686023875e-21
9.527062915e-21
4.759154336e-22
4.715854866e-21
2.683347338e-21
1.012797699e-20
1.323705057e-22
6.14989707e-21
4.170153096e-22
3.947136688e-21
4.220244439e-21
3.131169073e-22
8.505115176e-22
1.331686189e-22
2.828438386e-21
1.326984848e-20
4.193681462e-21
1.973426923e-22
1.02317513e-21
5.286926692e-21
1.985920866e-20
1.149480949e-21
3.665574527e-21
6.706868295e-22
1.074881994e-20
7.726423474e-21
1.590588307e-21
2.555150703e-21
3.993359676e-21
5.694713628e-21
3.352374989e-22
1.933657151e-21
6.411500711e-21
8.742765357e-21
2.307796903e-20
3.069387005e-21
1.053009546e-20
1.388158594e-20
1.149741802e-20
1.908344561e-21
1.74643066e-21
1.608086106e-21
4.501826102e-21
4.871338796e-21
9.575288327e-22
1.06220475e-20
9.727543665e-21
5.405329642e-22
3.076621557e-21
6.673678921e-21
4.927993874e-21
2.891560257e-21
9.735618507e-22
1.156285087e-21
1.603251147e-21
1.346643218e-21
2.186874685e-21
1.63906629e-21
3.289434181e-21
7.411726931e-22
1.214313453e-20
1.201134865e-22
6.00777588e-21
1.574016906e-20
5.457137459e-22