/*--------------------------------*- C++ -*----------------------------------*\
| =========                 |                                                 |
| \\      /  F ield         | OpenFOAM: The Open Source CFD Toolbox           |
|  \\    /   O peration     | Version:  2406                                  |
|   \\  /    A nd           | Website:  www.openfoam.com                      |
|    \\/     M anipulation  |                                                 |
\*---------------------------------------------------------------------------*/
FoamFile
{
    version     2.0;
    format      ascii;
    arch        "LSB;label=32;scalar=64";
    class       labelField;
    location    "0.007/lagrangian/dsmc";
    object      origId;
}
// * * * * * * * * * * * * * * * * * * * * * * * * * * * * * * * * * * * * * //


6265
(
343714
297229
347699
296438
298875
298969
299569
297894
298513
298128
298161
298168
346983
297355
299152
299304
299649
348503
299129
299206
304278
35975
298173
299215
299236
301383
298695
300167
300300
348501
298021
298459
298882
299151
299232
299538
300429
297942
299311
299431
299561
350258
347364
298863
299387
299682
299947
299989
348930
299063
299140
299473
299559
299868
299872
349946
300712
350562
349438
298607
298706
299046
299148
299221
299515
299681
299839
299986
299990
300046
300200
300294
300691
299984
350350
305167
299897
299343
299553
299665
299962
300094
300193
300284
348117
301901
351274
298860
304811
334542
298321
299683
348823
300278
300341
300437
300606
300659
300840
350451
349335
349236
298948
299062
299421
299587
299620
299860
300049
300093
300176
300258
300411
300447
300452
300453
300622
300627
300635
300832
300969
301550
299731
300160
349226
36058
297808
298215
298424
298984
299099
299191
299606
299619
300078
300180
300459
300464
300725
300784
300817
300872
300933
300997
350150
301402
301469
303132
350358
299380
348053
349124
349230
298682
299280
299430
299592
299593
299648
299678
299901
299909
300085
300173
300213
300249
300345
300685
301255
301309
301367
350239
305860
36081
350255
350767
299224
299381
299517
299601
299686
299754
299756
299770
299892
300107
300212
300256
300381
300551
300626
300720
300752
300904
300917
301157
301177
301414
302793
350244
351073
350856
298861
299365
299464
299584
299679
299696
299697
299743
300131
300279
300344
300430
300440
300456
300535
300636
300658
300715
301106
350867
301257
301260
348820
349751
345954
346051
350423
298960
299199
299238
299748
299847
300113
300232
300277
300305
300334
300416
300446
300524
300531
300544
300692
300726
300799
300822
301100
301110
301194
301253
301457
301696
350453
350554
304628
304808
300873
343561
298934
350055
298344
299127
299474
299662
299691
299951
299992
300105
300118
300283
300287
300331
300465
300674
300698
300789
300814
300824
300825
300878
301064
301075
301111
301159
301244
301307
301587
302353
303482
303483
352412
301129
346317
349533
299535
300018
300032
300088
300115
300191
300195
300357
300559
300604
300653
300728
300744
300968
300987
301053
301077
301118
301472
301565
301661
301776
301896
302057
350672
350864
351892
352607
300595
350858
349636
299389
299577
299609
299850
300099
300181
300254
300280
300355
300377
300506
300542
300548
300638
300771
300852
300922
350151
300965
300982
300990
300996
301074
301154
301221
301229
301239
301326
301339
350556
301462
301598
301647
301948
302613
302791
351086
351272
305424
350138
298334
351329
300158
299991
300030
300031
300350
300359
300366
300367
300431
300442
300444
300515
300612
300625
300665
300721
300733
300742
300778
300785
300787
300790
300805
300913
300934
301069
301099
301139
301145
301166
301237
301334
301410
301538
301714
302040
302960
349548
304365
305074
349333
299906
350246
306574
36149
298443
299684
299876
300080
300174
300194
300203
300264
300362
300508
300652
300722
300748
300753
300781
300835
300887
300906
300910
300964
300967
300976
301004
301013
301015
301092
301093
301105
301133
301148
301175
301198
301256
301278
301301
301310
301330
301362
301508
301606
301628
301675
301687
301746
302307
351684
303756
351089
300414
304274
351484
304535
300963
301136
305858
306298
351279
349900
350763
299477
299608
299811
299915
299934
299938
300062
300187
300315
300370
300382
300423
300462
300475
300482
300519
300603
300613
300732
300745
300746
300804
300871
300882
300925
300962
300975
300979
301016
301059
301082
301087
301158
301185
301189
301210
301241
301242
301247
301252
301280
301286
301315
301325
301342
301371
301444
301465
301513
301570
301588
301613
301639
351193
301790
301803
301836
301859
301897
302263
302293
302521
346519
350770
303848
351890
304807
305251
301232
36170
344612
348382
350642
351571
351087
351171
299597
299692
299998
300074
300433
300536
300541
300572
300616
300706
300754
300881
300889
350974
300991
300998
301010
301083
301144
301170
301172
301205
301262
301279
301305
301338
301434
301454
301500
301586
301597
301602
301618
301621
301624
301781
301873
301919
301925
301931
301977
302207
302237
302258
299463
302416
302517
305073
351071
351372
351070
306489
306825
349242
350662
351381
299225
299658
299687
299745
299844
300134
300135
300330
300361
300364
300439
300539
300707
300815
300930
301112
301212
301269
301282
301303
301319
301369
301401
301440
301480
301533
301632
301671
301694
301703
301729
301740
301743
301767
301789
301828
301924
301944
301960
301969
302046
349545
302091
302095
302164
352416
302324
302459
302526
302540
302578
303128
350344
304709
305598
351373
301559
306211
306920
36179
342180
351379
298347
299910
300215
300618
300623
300747
300772
300806
300823
300877
300891
300914
300994
301009
301049
301153
301192
301251
301264
301268
301324
301327
301355
301361
301372
301418
301420
301433
301486
301490
301499
301510
301516
301520
301568
301630
301662
301668
301682
301693
301769
301794
301826
301878
301884
301928
302063
302113
302127
302148
351785
302546
302630
302657
352719
303308
304710
304983
301485
350743
299812
351196
299110
300127
300301
300630
300634
300689
300795
300879
300894
300989
300992
301088
301155
301179
301202
301357
301360
301498
301503
351387
301571
301611
301631
301672
301676
301708
301739
301760
301775
301791
301832
301854
302121
302213
302341
302421
302478
302491
303306
303755
351267
351376
302182
305766
305857
300866
350338
306487
347797
350863
350649
351035
300196
300198
300272
300312
349342
300454
300792
300890
300898
300920
300985
301055
301065
301072
301117
301132
301180
301261
301312
301333
301341
301363
301404
301446
301452
301459
301504
301530
301535
301591
301604
301622
301634
350872
301689
301697
301752
301847
301941
301945
301947
302133
302163
302181
302205
302211
302222
302246
302484
302492
302558
302601
302717
302744
302855
302860
352303
303478
351875
352300
301747
352608
352293
306488
36207
302031
300098
300165
300286
300304
300379
300510
300526
300599
300643
300697
300701
300711
300905
300924
300978
300999
301000
301094
301104
301130
301165
301275
301329
301349
301379
301394
301417
301419
301458
301497
301528
301539
301569
301594
301623
301638
301659
301692
301701
301710
301754
301757
301804
301851
301914
301933
301967
301991
302010
302045
351994
302111
302125
302190
302243
302253
302259
302315
302316
302321
349743
302377
302401
302461
302480
302522
351685
302663
351384
302844
304191
304192
352923
350962
306296
352307
307264
307347
36211
36217
299384
299572
300081
300369
300373
300615
300813
300846
301008
301058
301220
301399
301416
301476
301478
301505
301514
301577
301593
301742
301766
301772
301788
301810
301886
301920
301966
301982
302136
302152
351491
302217
302296
302297
302306
302332
302424
302465
302532
302697
302735
302750
302761
302765
302789
302858
302867
303005
303040
353008
304625
301829
305338
306297
301840
352076
307533
36225
347220
349325
299369
348617
300735
300797
300831
300977
300983
301050
301190
301204
301335
301354
301456
301521
301576
301702
301706
301756
301761
301771
301786
301798
301805
301852
301872
301876
301883
301949
301958
302007
302023
302053
302076
302124
302132
302143
302147
302280
302281
302330
302369
302385
302576
302642
302649
302753
302817
303118
303144
303391
351278
305163
306113
351681
306918
36236
348805
300019
300449
300467
300931
301020
301134
301231
301250
301313
301344
301345
301574
301636
301644
301711
350976
301773
301777
301782
301783
301850
301874
301913
301915
301927
301939
351894
302020
302034
302093
302140
302183
302196
302204
302291
302302
302331
302336
302342
302354
302371
302391
302477
302579
302628
302651
302662
352615
302816
302888
303060
351995
303162
303172
303626
352096
305596
305767
306572
352410
352890
307263
36252
299818
349857
352297
300436
300876
300900
300973
301073
301206
301248
301314
301318
301409
301424
301430
301474
301511
301573
301584
301595
301666
301667
301669
301686
301716
301751
301835
301848
301866
301867
301895
301926
302021
302027
302106
302118
302227
302235
302290
302323
302329
302395
302471
302490
302504
302514
302549
302567
302582
302629
302660
302671
302679
302707
302764
302825
302856
302945
302993
303039
303754
304103
304707
352606
304804
352605
305422
300775
306023
36261
36262
36263
346832
298761
350929
348987
350456
352520
352821
300338
300820
300883
301317
301352
301366
301422
301423
301690
301726
301816
301834
301868
301869
301899
351998
301951
302042
302078
302102
302130
302233
302292
302333
302370
302374
302404
302411
302429
302474
302599
302604
302614
302645
302664
302714
302781
302903
302904
302911
302934
302987
303063
303091
303096
303165
303390
305162
300863
307346
36269
36270
36271
36272
299907
301406
350760
300770
350643
352709
300352
300716
300885
301002
301193
301224
301228
301245
301441
301519
301541
301575
301704
301750
301778
301833
301843
301855
301857
301916
301943
301965
301990
302005
302044
302049
302090
302109
302120
302129
302131
302200
302206
302239
302285
302303
302313
302314
302334
302373
302384
302389
302390
302409
302412
302457
302502
302510
302516
302519
302533
302589
302622
302711
302729
302745
302756
302838
302906
303020
303053
303065
303078
303079
303083
351364
303175
303323
303336
303533
351081
352208
304364
352512
304805
306112
301222
354560
352295
302274
352492
352146
36279
36280
343626
347423
348496
348903
301395
353319
301230
301323
301102
301116
301200
301259
301450
301455
301660
301683
301721
301748
301839
301858
301871
301879
301907
301981
302003
302017
302018
302036
302066
302101
302105
302137
302138
302141
302219
302225
302244
302309
302312
302386
302398
302399
302400
302415
302433
302441
302454
302456
302483
302496
302529
302548
302555
302556
302562
302588
302592
352720
302652
302661
302683
302696
302713
302716
302738
302746
302762
302766
302862
302887
302900
302920
302931
302932
302999
303022
303027
303110
303285
303344
303357
351888
303677
352819
352402
352617
351984
306385
353018
307002
307436
353121
307978
36294
297622
350146
347963
350343
352080
351263
299858
300001
301183
301336
301426
301506
301527
301578
301620
301626
301677
301723
301831
301846
301862
301921
301936
302012
302016
302032
302048
302061
302215
302218
302228
302230
302310
302311
302317
302322
302325
302378
302380
302396
352718
302466
302473
302487
302523
302580
302590
302600
302602
302639
302665
302677
302680
302757
302824
302832
302885
302984
303001
303013
303073
351779
303147
303173
303186
303302
303416
303520
303557
303761
303762
304042
354244
353113
345281
306294
351992
306484
352413
353003
307435
349926
350655
351975
353099
300704
353620
300669
300810
301067
301169
301182
301432
301589
301607
301717
301780
301968
301970
301974
302014
302029
302052
302055
302056
302065
302103
302115
302123
302153
302223
302232
352209
302282
302288
302295
302300
302304
302361
302379
302408
302482
302506
302511
302534
302557
302587
302631
302635
302643
302655
302690
302721
302730
302740
302743
302777
302780
302826
302852
302948
302955
302978
302985
303047
303114
303197
303356
303445
303480
303847
304057
353118
352820
352713
351867
306293
352913
306824
352517
307173
307262
352914
36301
36302
347714
348455
349394
299212
350558
349714
353216
301842
349435
353735
300639
300981
301346
301364
301412
301725
301755
301762
301809
302013
302100
302107
302108
302198
302209
302286
302328
302394
302418
302432
302494
302500
302550
302564
302573
302596
302646
302682
302686
302723
302734
302815
302834
302835
302842
302851
302982
303059
303094
352098
303148
303182
303259
303270
303385
303454
303455
303552
303559
303607
303617
352922
303944
350970
303587
305594
305680
352195
353733
305940
353940
306295
301741
302099
36308
36310
36311
36312
36314
347277
348701
349547
352085
299855
300980
301156
301184
301356
301429
301685
301877
301880
301917
301953
302060
302151
302238
302241
302249
302283
302318
302320
302498
302503
302509
302545
302676
302774
302812
302918
302971
303014
303015
303028
303043
303054
303069
303089
303095
303150
303283
303338
303622
303782
303802
351786
303886
304073
351982
304268
351493
352907
306208
352206
352614
307705
352814
353313
36322
341995
345185
351039
299554
349634
350427
351761
352204
302467
351993
300843
301181
301413
301863
301882
302019
302026
302165
351490
302197
302202
302212
302220
302226
302242
302326
302359
302381
302387
302407
352717
302475
302479
302486
302559
302565
302584
302586
302626
302674
302759
302805
302979
303011
303098
303116
303171
303183
303198
303225
303288
303296
303346
303452
303461
303495
303502
303556
303570
303615
303723
303752
303828
353527
353231
306210
306384
306822
306916
353107
352514
307617
352906
307801
307977
308232
349409
349415
351077
342891
351083
351483
354447
301014
301427
301656
301745
301779
301784
301797
301838
301861
301875
301935
301956
302028
302037
302122
302150
302203
302348
302372
302375
302393
302403
302422
302431
302469
302489
302572
351582
302618
302659
302737
302808
302827
302848
302898
302908
302933
302949
302974
302986
303030
303104
352823
303166
303192
303194
303196
303212
303255
303355
303404
303438
303459
303476
351988
303530
303567
303621
303692
303695
303707
303742
303830
303905
304072
304221
352298
353016
305249
353102
306109
306110
306111
352414
353013
352711
307172
307618
36334
348223
348051
348876
348508
299575
300182
299460
352308
300179
352995
350751
353203
301063
301768
301870
301955
302033
302117
302231
302240
302351
302406
302414
302462
302481
302568
302585
302633
302656
302658
302669
302673
302681
302720
302741
302751
302788
302801
302803
302822
302869
302893
302897
302909
302913
302926
302983
302989
303055
303061
303080
303152
303158
303176
303241
303262
303275
303276
303279
303281
303301
303324
303369
303373
303421
303426
303447
303511
303515
303636
303640
303665
303791
303813
303846
303884
351672
304883
304981
305593
352695
307261
308147
352588
308666
36339
36340
347996
349431
350653
349902
300073
300694
353230
302703
300136
301068
301491
301680
301824
301908
301909
301946
302294
302299
302335
302392
302560
302574
302594
302632
302636
302667
302670
302710
302719
302739
302758
302773
302802
302849
302854
302859
302910
302927
302981
302988
302998
303057
303082
303084
303112
303167
303170
303189
303249
303300
303341
303352
303410
303507
303522
303532
303595
303645
303720
303743
303772
303808
303845
353526
304331
304443
305765
354054
354124
36350
36352
346030
345568
336481
347330
351178
348405
300776
347386
301735
301061
302814
301475
301890
302119
302187
302278
302327
302367
302410
302413
302470
302512
302520
302566
302603
302625
302637
302691
302718
302733
302820
302847
302880
302995
303002
303062
303071
303072
303081
303155
303188
303199
303228
303245
303257
303337
303374
303433
303510
303528
303555
303623
303624
303627
303635
303718
303719
303724
303764
303790
303807
303824
303843
303899
353426
303966
303985
304028
304056
353729
304211
304258
304269
304506
353626
304539
352407
305856
306292
306821
302543
307800
351386
36360
36361
36362
36363
36365
348284
348520
350118
350546
350663
352688
352824
302463
352985
351357
301407
353225
352503
354140
301585
301849
302210
302308
302339
302419
302553
302647
302712
302726
302830
302837
302857
302883
302892
302915
302944
302950
303016
303088
303226
303273
303287
303351
303353
303413
303417
303430
303439
303503
303518
303524
303531
303569
303659
303708
303751
303781
303862
303874
303932
303968
304032
304123
304143
304202
304247
304315
352397
353327
304775
304782
304803
305071
305160
303224
354759
353425
306571
354133
354145
308231
308746
308925
36369
36370
36371
36372
36375
344445
347788
347126
347966
350439
350772
350833
351559
350870
352082
300857
301922
300450
352808
351283
353115
352491
301337
302038
302144
302180
302208
302337
302668
302749
302783
302787
302833
302845
302861
302907
302922
302930
302942
302968
302996
303052
303087
303163
303202
303209
303214
303231
303244
303247
303252
303267
303268
303269
303274
303299
303359
303412
303428
303432
303435
303442
303443
303453
303460
303470
303498
303500
303513
303538
303548
303550
303551
303600
303614
303619
303646
303689
303706
303716
303721
303741
303776
303784
303788
303793
303817
303875
303876
303903
303911
303969
304043
304144
304146
304250
304321
304332
304333
304404
304623
355261
304949
354345
305763
353232
355376
307345
308062
353708
36385
36386
36387
36388
36389
349181
347432
351479
351360
352383
301758
302160
302298
302644
302760
302823
302864
302917
302940
302953
302956
302969
302991
303184
303187
303242
303250
303347
303366
303407
303427
303514
303549
353732
303609
303616
303618
303662
303678
303699
303728
303733
303749
303878
303890
303917
303986
303990
304055
304101
304217
304232
304241
304300
304303
304322
304326
304543
304620
304950
306483
306655
353428
36399
36400
36401
298317
344970
350238
351997
352817
351730
352679
301558
351286
300420
355368
352910
301022
302547
302571
302752
302755
302772
302829
302839
302901
303037
303097
303108
303120
303181
303191
303230
303258
303260
303294
303348
303440
303448
303526
303544
303608
303628
303647
352415
303701
303767
303797
353014
303908
303925
303957
303963
304007
304039
304063
304088
304209
304230
353935
304511
304555
304884
305161
354045
305404
306022
352799
307973
307975
354729
308404
36408
347542
350342
351244
300002
349025
350553
351378
353702
298525
353005
301267
301531
301774
302593
302654
302685
302732
302736
302914
302977
303008
303064
303168
303174
303240
303261
303303
303326
303333
303345
303372
303420
303450
303525
303535
303545
303632
303637
303663
303800
303809
303873
303881
303894
303897
303915
303955
303956
303959
303973
304004
304110
304122
304176
304234
304297
304323
304342
304370
304405
304431
304459
304476
304516
304531
304588
304648
354141
303401
304815
306482
306915
354863
307433
307434
354655
307799
303234
308745
309197
36416
36417
343116
349104
348990
299291
349933
349845
301679
302620
352205
300593
301603
302501
302689
302818
302959
302997
303007
303070
303099
303100
303206
303246
303278
303361
303364
303365
303375
303406
303418
303441
303449
303464
303467
303497
303523
303536
303540
303543
303598
303633
303639
303642
303812
303891
303896
303902
303958
304015
304025
304048
304049
304062
304069
304071
304094
304120
304128
304131
304134
304239
304252
304259
304308
304434
304474
304481
304512
304547
304562
304657
305069
355383
354349
306820
354245
308402
353598
309021
36422
346216
346845
348515
349395
349243
348500
349095
349108
350054
351776
351873
303042
352896
350454
301596
301923
301950
301957
302062
302305
302650
302742
302846
302937
302990
303075
303076
303102
303161
303195
303254
303265
303271
303295
303328
303358
303378
303414
303431
303529
303562
303574
303591
303594
303596
303641
354052
303697
303713
303732
303819
303833
303893
303901
304037
304051
304096
304111
304135
304147
304162
304212
304251
304337
304380
304430
304479
304509
304802
304835
305059
305147
305248
354051
306204
306206
354756
306913
355154
353522
302272
354738
308838
353925
309196
36428
36430
36431
36433
345883
345364
350422
350242
298806
350438
338428
351275
300248
350744
350955
353108
302706
350026
300619
354220
303068
352757
354852
301643
301700
301900
302813
302828
302912
302928
302964
303024
303086
303115
303201
303238
303256
303266
303313
303334
303424
303561
303588
303605
303643
303656
303680
303698
303722
303727
303734
303748
303900
303919
303970
304125
304145
304160
304163
304167
304170
304204
304229
304310
304320
304328
304329
304344
304399
304465
304485
304488
304591
304638
304729
304882
304912
304937
304960
305335
303239
307704
303946
353931
308322
353938
353595
309468
351683
36439
36440
36442
342517
348265
298764
346701
346613
350027
349624
349420
299570
350130
351080
299639
349494
302360
351574
300696
302896
353811
301841
302284
302577
302800
303101
303106
303107
303111
303143
303248
303291
303342
303349
303411
303463
303468
303496
303508
303509
303537
303542
303546
303611
303661
303696
303703
303714
303726
303737
303738
303783
303803
303831
303839
303859
303885
303887
303904
303952
303954
303961
303972
304029
304050
304175
304189
304223
304227
304341
304345
304349
304357
304381
304384
304395
304424
304498
304528
304579
304667
304681
304719
304734
304834
304854
304897
304955
305043
305245
305762
307001
307798
308320
308403
354233
353819
309020
36446
347885
348579
349024
349099
350836
349832
351885
350550
352600
351528
354643
354656
353838
352519
354049
302485
302708
302972
302992
303077
303339
303436
303444
303456
303620
303630
303736
303795
303805
303810
303823
303892
303895
303921
304053
304085
304154
304255
304299
304312
304316
304377
304396
304402
304423
304456
304470
304552
304610
304614
304683
304948
304993
305192
305421
353934
307527
354348
308663
308924
309195
309286
36449
36450
36452
36453
36454
36455
36456
36457
298159
347537
349622
351382
350044
348694
350652
351469
351266
350916
351870
353914
348916
354117
350774
353324
301487
304637
302201
302507
302886
303018
303164
303402
303462
303501
303539
303563
303687
303825
303854
303869
303872
303907
303965
304052
304087
304127
304130
304138
304233
304235
304291
304330
304339
304369
304376
304414
304532
304554
304557
304582
304590
304600
304606
304659
304689
304696
304745
304789
354457
305019
305106
305263
305316
305462
306205
306914
355382
304196
308321
309467
36462
36463
36464
36465
36466
36467
348704
345679
347145
348893
348974
350111
349841
350040
351883
300166
350541
302276
354227
349745
302811
304830
353827
354452
304468
304133
353111
301906
301753
301952
302134
302863
302938
303004
303092
303103
303153
303282
303371
303422
303475
303534
303625
303693
303717
303780
303796
303909
303910
303914
303945
303948
303978
303994
304060
304066
304067
304082
304084
304126
304132
304155
304157
304186
304231
304290
304335
304347
304355
304375
304410
304411
304462
304472
304504
304522
304567
304569
304687
304755
304800
304855
304959
304995
305026
305050
305120
305334
305419
305499
305716
305764
306480
354456
306912
307168
307432
355263
354958
309553
309891
36476
350102
348490
350561
351886
350201
352508
351170
352865
353397
348868
349440
354749
353901
302634
301616
302405
302929
303233
303305
303451
303564
303634
303710
303730
303735
303816
303821
303864
303924
303981
303998
304047
304070
304081
304091
304136
304148
304149
304166
304226
304236
304238
304248
304287
304296
304301
304348
304361
304386
304398
304437
304451
304452
304460
304525
304575
304598
304622
354352
304662
304731
304765
304767
304787
304818
304823
304836
304891
305042
305083
305122
305132
305281
305414
305853
306291
304893
303941
307526
307615
307886
304112
309019
354641
36477
36478
36479
36480
338925
346547
347750
348089
350129
351645
350428
351172
351561
351059
352825
352511
353823
354246
301787
301845
302388
302544
303179
303217
303335
303343
303425
303434
303437
303521
303702
303729
303745
303822
303827
303988
304033
304041
304044
304045
304054
304173
304257
304319
304327
304356
304374
304438
304466
304477
304496
304500
304505
304507
304517
304541
304564
304565
304592
304649
304671
304680
304739
304846
304859
304877
304976
305007
305054
305056
305110
305113
305123
305127
305185
305246
305271
305313
352516
305431
305553
305573
305672
305855
305168
355577
355569
307616
355879
307887
351586
309194
309375
355363
355352
36482
36483
36484
36485
36486
36487
36489
341183
349139
350466
348751
349749
349917
351031
350103
350226
351173
351442
351385
351444
345266
347544
301238
353719
304900
355162
302916
303056
303272
303277
303280
303362
303506
303547
303638
303650
303686
303705
303746
303792
303811
303857
303992
303993
303999
304036
304078
304080
304158
304161
304180
304190
304237
304317
304318
304403
304407
304421
354970
304453
304471
304513
304558
304563
304646
304665
304672
304682
304695
304746
304774
304876
304895
305004
305027
305029
305032
305048
305101
305207
305463
354750
354356
305761
355252
355256
307528
304634
354658
304195
308491
308572
354430
352271
305187
354834
354758
36493
36494
36495
36496
36497
36498
36499
36500
345918
347670
349307
343938
347887
347744
348258
350531
351118
350564
351184
351544
350348
301929
351534
353227
353930
302722
349854
304382
354732
354858
302768
303093
303151
303237
303329
303519
303744
303949
303967
303977
303983
303984
304006
304040
304059
304065
304076
304092
304140
304171
304222
304228
304245
304246
304283
304304
304388
304416
304422
304432
304484
304514
304574
304581
304585
304601
304613
304752
304816
304825
304844
304863
304906
304908
304921
304945
305006
305041
305062
305070
305129
305149
305186
305196
305228
305275
305283
305349
305478
305617
305854
306569
356089
355572
307701
353830
304537
309374
309466
309552
309983
36508
36509
36510
36511
36512
36513
36514
36515
343738
346950
347655
346854
346535
346615
350604
350290
299729
350417
350739
351771
350910
352077
352993
353829
300532
354838
353471
299985
298499
299005
301254
302194
302569
302843
303000
303227
303263
303446
303516
303712
303769
303786
303814
303866
303882
303888
303922
303976
304116
304117
304121
304156
304220
304249
304256
304378
304408
304425
304450
304526
304568
304651
304663
304668
304670
304673
304685
304736
304741
304744
304747
304750
304756
304773
304801
304822
304862
305009
305023
305036
305099
305153
305219
305306
305354
305398
305412
355474
305459
305548
305572
305758
305811
354862
306478
355993
307171
307260
356086
307972
308837
355371
309193
355346
354864
310336
302376
36519
348168
348569
351460
349914
350520
350973
300864
301051
299732
348815
352488
354630
354845
351595
303778
353204
302754
303340
303429
303458
303465
303652
303715
303731
303785
303840
353939
303855
303991
304035
304153
304305
304362
304393
304412
304413
304467
304480
304499
304546
304595
304608
304612
304616
304678
304751
304761
304777
304780
304858
304902
304913
304924
304927
304931
304952
304977
305022
305028
305033
305049
305082
305184
305212
305214
305221
305320
354351
305452
305479
305493
305557
305745
305782
305887
305890
356291
306021
306338
306424
306475
308319
309116
309117
354125
309982
310335
310431
36522
36523
36525
36528
36529
36530
36531
346343
349646
349343
349146
351038
301127
351456
345466
351969
352083
353057
353905
352061
353402
302004
302924
348988
349338
353937
355475
347981
303058
303193
303286
303700
303709
303960
303971
303975
304083
304118
304124
304152
304208
304216
304340
304428
304464
304510
304572
304621
304640
304653
304676
304677
304705
304730
304748
304764
304770
304785
304792
304857
304941
304947
304958
305031
305038
305046
305047
305051
305108
305145
355787
305199
305204
305208
305258
305260
305279
305301
305305
305311
305318
305446
305448
305453
305457
305494
305664
305727
305852
356095
305898
305906
305938
305954
305975
306223
307169
307613
354653
308660
309018
355671
355367
305001
309890
310334
36538
36539
36540
36542
36543
36544
335677
346773
346722
347371
347875
348195
349326
349430
350049
348400
349800
349379
350771
351277
351644
350527
350764
351593
351674
351862
302570
354746
303980
354048
356496
303354
303604
303801
303989
304030
304150
304240
304244
304254
304371
304482
304483
304487
304520
304550
304553
304573
304576
304589
304602
304607
304619
304635
304679
304684
304740
304743
304759
304791
304827
304841
304856
304861
304880
304928
304938
304946
305025
305065
305096
305102
305105
305109
305114
305121
305125
305133
305134
305136
305180
305183
305217
305277
305286
305287
305289
305299
305307
305377
305471
305550
305558
305614
305625
305659
305703
305713
305714
305718
305733
305752
305799
305828
305835
305845
305885
305901
305914
306057
306105
306175
306176
306276
306654
303045
355384
307167
307431
307702
307885
308318
309285
355883
356495
310069
310249
36547
36549
36551
36552
36553
338338
343854
348994
347539
349021
349171
350301
349610
349502
350123
350125
349906
350516
350747
350944
350549
350640
302110
350963
350749
352701
353325
300372
300503
300427
352378
304819
352567
303880
303913
303979
304001
304031
304038
304137
304266
304324
304385
304389
304490
304492
304508
304641
304656
304723
304724
304726
304753
304843
304851
304860
304905
304920
304943
304970
305037
305058
305060
305181
305242
305252
305264
305276
305296
305321
305392
305475
305511
305524
305530
305537
305576
305670
305690
305722
305736
305808
305902
305910
305970
305988
306061
306161
306181
306380
306510
354966
354330
309115
310430
325750
304372
301137
36560
36561
36562
36563
329001
342907
337480
346138
347645
347548
349519
300780
351675
299117
350326
349813
301135
300260
353080
353517
302366
352201
352991
350769
349225
351284
350601
302648
306046
302725
302973
303023
303159
303178
303704
304023
304169
304210
304298
304311
304397
304429
304458
304497
304515
304561
304661
304674
304706
304732
304735
304763
304766
304768
304824
304831
304847
304867
304917
304918
304922
304954
304991
305000
305107
305118
305152
305178
305206
305290
305295
305319
305325
305372
305382
305482
305490
305491
305520
305591
305628
305636
305649
305721
305742
305802
305812
305884
305893
305899
305937
305992
306034
306035
306172
306649
306910
307258
304889
356699
356800
309813
355257
356700
36565
36566
36567
36568
36569
36570
346714
347346
346903
348543
347676
348358
349995
349711
299747
300087
348493
351473
350359
351075
351166
301243
352797
352506
303397
352084
352210
348699
304996
304105
303251
352294
303317
303658
303691
303789
303962
304183
304390
304486
304593