/*--------------------------------*- C++ -*----------------------------------*\
| =========                 |                                                 |
| \\      /  F ield         | OpenFOAM: The Open Source CFD Toolbox           |
|  \\    /   O peration     | Version:  2406                                  |
|   \\  /    A nd           | Website:  www.openfoam.com                      |
|    \\/     M anipulation  |                                                 |
\*---------------------------------------------------------------------------*/
FoamFile
{
    version     2.0;
    format      ascii;
    arch        "LSB;label=32;scalar=64";
    class       Cloud<dsmcParcel>;
    location    "0.007/lagrangian/dsmc";
    object      positions;
}
// * * * * * * * * * * * * * * * * * * * * * * * * * * * * * * * * * * * * * //

6265
(
(0.3031583468 0.2214263357 -4.33680869e-19) 233
(0.3042001889 0.1958861126 0) 83
(0.2911205116 0.2096341543 0) 172
(0.2830389902 0.2457016666 -1.084202172e-19) 381
(0.297549692 0.2428723065 0) 353
(0.2931347995 0.2762405139 0) 532
(0.2856714791 0.2343267521 2.032879073e-20) 321
(0.285668471 0.2174714184 -4.133520783e-19) 231
(0.2999073914 0.2355870288 -2.168404345e-19) 323
(0.2620039291 0.2772824985 5.421010862e-20) 558
(0.2905560278 0.246428906 -2.168404345e-19) 382
(0.2877327769 0.2443672495 -4.33680869e-19) 381
(0.2802907022 0.2493157848 -2.168404345e-19) 380
(0.3043358245 0.2087310691 1.084202172e-19) 173
(0.3020457578 0.2062266075 -1.084202172e-19) 143
(0.3016783935 0.1887438631 2.710505431e-19) 54
(0.2772581446 0.2179357198 1.626303259e-19) 230
(0.29946798 0.1770620274 -1.084202172e-19) 16
(0.3013532929 0.221903332 -2.168404345e-19) 233
(0.2956744703 0.2533191555 -2.168404345e-19) 412
(0.2634783858 0.2701972739 -3.252606517e-19) 498
(0.2663866906 0.2712895843 0) 498
(0.2804104798 0.211059578 2.168404345e-19) 200
(0.2732078038 0.2111871133 1.084202172e-19) 199
(0.3010735424 0.2341878061 1.965116438e-19) 293
(0.2968239293 0.2526146033 -5.421010862e-20) 412
(0.2956580984 0.2238426216 -4.33680869e-19) 262
(0.2926741833 0.1984271749 0) 112
(0.2751626999 0.2788062903 1.084202172e-19) 560
(0.2960346337 0.2652074781 4.33680869e-19) 472
(0.2836258084 0.2572279828 1.084202172e-19) 441
(0.2899567344 0.1808579475 5.421010862e-20) 31
(0.3025718926 0.273140726 2.168404345e-19) 533
(0.2809791514 0.260369178 4.33680869e-19) 440
(0.2919157246 0.2236388916 -1.084202172e-19) 262
(0.3009394129 0.2857674996 1.93123512e-19) 593
(0.2944307131 0.2157287981 2.168404345e-19) 202
(0.2920425132 0.2481257328 0) 382
(0.2905440855 0.252350176 -2.168404345e-19) 412
(0.3000610086 0.2611281774 -2.168404345e-19) 443
(0.2958026511 0.2149185291 -2.168404345e-19) 202
(0.2951097255 0.1925872493 -1.084202172e-19) 82
(0.3031824762 0.1909070011 -4.33680869e-19) 83
(0.2929107969 0.1962795161 -1.084202172e-19) 112
(0.2969635574 0.2840762965 -2.168404345e-19) 592
(0.2569474773 0.2614394778 0) 467
(0.2775447327 0.2007987469 -1.626303259e-19) 140
(0.2669655543 0.227611206 2.168404345e-19) 289
(0.2917001041 0.2293076409 -3.252606517e-19) 292
(0.2965380105 0.2646269679 2.168404345e-19) 472
(0.284364759 0.2493420485 2.168404345e-19) 381
(0.2839800524 0.2137367572 5.421010862e-20) 201
(0.2648834433 0.2160120958 0) 228
(0.2855363076 0.2009277143 6.776263578e-20) 141
(0.2960897912 0.2986783758 0) 652
(0.2975451727 0.1687296515 -2.168404345e-19) 5
(0.2668328809 0.1801935027 8.131516294e-20) 50
(0.3015902317 0.256757554 0) 443
(0.2992765749 0.2120145664 0) 173
(0.2890582316 0.2415818072 0) 351
(0.2819904111 0.2894351188 -4.33680869e-19) 621
(0.2799027811 0.2366691733 -2.168404345e-19) 320
(0.2657453055 0.2418171996 2.168404345e-19) 348
(0.2939972174 0.2394573289 -2.168404345e-19) 352
(0.2738432021 0.238626479 2.168404345e-19) 349
(0.2987005183 0.2098635015 0) 173
(0.2761654304 0.2772858242 1.084202172e-19) 530
(0.2942734839 0.2152292529 2.168404345e-19) 202
(0.3035613543 0.2471075945 0) 383
(0.292555119 0.1861518305 -5.421010862e-20) 53
(0.3034279972 0.2600637501 2.168404345e-19) 443
(0.2917693666 0.2969904486 -1.084202172e-19) 652
(0.3014089886 0.2037359141 5.421010862e-20) 143
(0.2996320526 0.1876107968 -2.710505431e-20) 54
(0.3003370328 0.2160752226 -2.168404345e-19) 203
(0.2932023556 0.2703451938 -1.084202172e-19) 502
(0.2921211246 0.2243472114 4.065758147e-20) 262
(0.2937211713 0.1961613069 2.168404345e-19) 112
(0.3039756855 0.2812058016 -2.168404345e-19) 563
(0.2764579903 0.2516179958 -4.33680869e-19) 410
(0.3015838027 0.2608789236 3.794707604e-19) 443
(0.300764924 0.2501488833 -2.168404345e-19) 383
(0.3001588181 0.2538637135 1.626303259e-19) 413
(0.3006501471 0.2877372545 -4.33680869e-19) 593
(0.2540015696 0.2312027363 4.33680869e-19) 317
(0.2841160286 0.2387932989 2.168404345e-19) 351
(0.2921262484 0.233223356 0) 292
(0.2965581439 0.22500444 -3.794707604e-19) 262
(0.2720023082 0.2977752323 1.084202172e-19) 649
(0.2885596428 0.2842390862 0) 591
(0.2693139995 0.1709764868 -1.016439537e-19) 12
(0.2981342439 0.2449561791 1.084202172e-19) 353
(0.2867238722 0.2222704453 2.168404345e-19) 261
(0.3021723997 0.1894206058 2.168404345e-19) 54
(0.3024920691 0.2075402494 0) 173
(0.278786982 0.1860595668 -1.084202172e-19) 51
(0.3000886012 0.2019617853 -1.084202172e-19) 143
(0.2808538792 0.2803789026 4.33680869e-19) 560
(0.2971552597 0.254463376 0) 412
(0.3027423858 0.217364075 -3.252606517e-19) 203
(0.298725149 0.1878181196 -2.168404345e-19) 54
(0.2382275224 0.1798427329 3.252606517e-19) 46
(0.3030903399 0.2155488924 -2.168404345e-19) 203
(0.2882507654 0.2595472032 -2.168404345e-19) 441
(0.2982729705 0.2256966673 4.33680869e-19) 263
(0.2648013527 0.2701930021 -2.168404345e-19) 498
(0.2555791549 0.2368310063 -2.168404345e-19) 347
(0.2682325234 0.2096481316 0) 199
(0.2798709583 0.2624590406 1.084202172e-19) 470
(0.2969493446 0.2139912742 -4.33680869e-19) 202
(0.2947242994 0.1889255967 3.252606517e-19) 53
(0.2488584816 0.2065306605 -4.33680869e-19) 166
(0.2993314123 0.2518433076 0) 413
(0.278576137 0.2856466253 -2.710505431e-20) 590
(0.2767907005 0.1960872617 -1.084202172e-19) 110
(0.2971456215 0.2260031944 -4.33680869e-19) 262
(0.2910821014 0.2136244211 0) 202
(0.2971480138 0.2543947004 0) 412
(0.2981636567 0.2210939202 -2.168404345e-19) 233
(0.2542490521 0.1957798754 0) 137
(0.3027383185 0.2352959608 0) 323
(0.304173815 0.2528769612 1.084202172e-19) 413
(0.2918087538 0.2484327949 1.084202172e-19) 382
(0.2626703861 0.210618801 -5.421010862e-20) 198
(0.2685110123 0.1705016284 -2.710505431e-19) 12
(0.2871799555 0.2963717881 -3.252606517e-19) 651
(0.3047521234 0.2310658963 1.084202172e-19) 293
(0.3026445482 0.2776180401 -2.168404345e-19) 533
(0.2852736855 0.2684987414 5.421010862e-20) 501
(0.3031196103 0.2273297892 0) 263
(0.2826885637 0.2023753603 0) 141
(0.2935195796 0.2427352954 3.117081246e-19) 352
(0.2774283569 0.2406756409 1.084202172e-19) 350
(0.2951797031 0.2694651788 -2.710505431e-20) 502
(0.3009637861 0.2677972809 -3.726944968e-20) 503
(0.2879483111 0.1837570886 0) 52
(0.2786002573 0.2316715597 0) 290
(0.2927037784 0.2513843129 2.168404345e-19) 412
(0.302087276 0.2076388829 0) 173
(0.297106454 0.1880856462 0) 53
(0.2841356242 0.2172958845 2.168404345e-19) 231
(0.2954073234 0.1936182396 4.33680869e-19) 82
(0.2970960939 0.2145891847 0) 202
(0.286236101 0.2146620617 5.421010862e-20) 201
(0.2696293591 0.1987082698 -1.084202172e-19) 139
(0.2973785166 0.2175691431 -2.236166981e-19) 233
(0.2962810192 0.2595324957 0) 442
(0.2860681536 0.262809359 -1.084202172e-19) 471
(0.26485235 0.2717872338 -6.505213035e-19) 528
(0.2640280511 0.178680667 1.084202172e-19) 27
(0.2837260327 0.190648286 4.33680869e-19) 81
(0.2768117067 0.1991959615 1.084202172e-19) 140
(0.2875426314 0.1836405639 2.168404345e-19) 52
(0.2831799818 0.2021825478 -2.710505431e-20) 141
(0.2868378029 0.2156021307 2.168404345e-19) 201
(0.2901886358 0.2968036313 2.168404345e-19) 652
(0.2850243455 0.2080225351 2.710505431e-20) 171
(0.2794775265 0.217150181 1.084202172e-19) 230
(0.2751762201 0.2339465263 0) 320
(0.2733723487 0.2766903199 -6.505213035e-19) 529
(0.2952469936 0.2183580767 0) 232
(0.2809660559 0.2422711942 2.168404345e-19) 350
(0.2794471156 0.17996233 0) 29
(0.30250515 0.1752588963 2.168404345e-19) 16
(0.2968642557 0.2002949293 0) 112
(0.3010819585 0.2067920087 0) 173
(0.2974139851 0.194891046 2.168404345e-19) 83
(0.2665261692 0.2423808791 0) 348
(0.2763344062 0.2534032739 1.897353802e-19) 410
(0.301946825 0.2395226901 -5.421010862e-19) 323
(0.2872401892 0.2553630125 1.084202172e-19) 411
(0.2890571506 0.1999729514 -4.33680869e-19) 141
(0.2316671249 0.2385626122 -1.084202172e-19) 344
(0.2613789067 0.2749797709 1.084202172e-19) 528
(0.2884098685 0.2052767634 -6.505213035e-19) 141
(0.2764143973 0.2168410987 1.084202172e-19) 230
(0.2973069213 0.2358228725 0) 323
(0.2737831504 0.1939739969 -2.168404345e-19) 109
(0.2930513983 0.2284665791 1.626303259e-19) 292
(0.2964575614 0.2674177617 2.168404345e-19) 502
(0.2929244269 0.2785170432 1.626303259e-19) 562
(0.2531431926 0.2380474997 -2.168404345e-19) 347
(0.2854614164 0.2266430307 0) 261
(0.2808422797 0.2344204815 -1.084202172e-19) 320
(0.2975013933 0.2452738152 2.710505431e-20) 383
(0.2787827232 0.1854386211 1.626303259e-19) 51
(0.2761067109 0.2707813581 5.421010862e-20) 500
(0.2984931927 0.202625635 1.084202172e-19) 143
(0.2768410299 0.2575448627 1.084202172e-19) 440
(0.273908427 0.2243091091 0) 259
(0.2845335391 0.2429076077 -3.252606517e-19) 351
(0.2957956226 0.2539327898 -2.168404345e-19) 412
(0.2843816076 0.2719097306 -2.168404345e-19) 501
(0.247125703 0.2143062725 -1.084202172e-19) 226
(0.2698714635 0.2613617196 4.878909776e-19) 469
(0.2808899476 0.1776005559 2.168404345e-19) 29
(0.3046066053 0.2421435307 -5.421010862e-20) 353
(0.2855854819 0.1833730645 2.846030703e-19) 52
(0.2783673138 0.2896591301 2.168404345e-19) 620
(0.2731407413 0.2372749286 -2.168404345e-19) 319
(0.2761186757 0.19733122 4.878909776e-19) 110
(0.2986011722 0.2221230215 -1.76182853e-19) 233
(0.2770073676 0.2228767602 0) 260
(0.2955141097 0.2033163254 -4.743384505e-20) 142
(0.2960750301 0.2344868698 0) 322
(0.3012363516 0.2206130962 2.710505431e-19) 233
(0.2514781545 0.1890824887 0) 77
(0.2762717659 0.2787759648 0) 560
(0.2878854136 0.2646613382 2.168404345e-19) 471
(0.2697391956 0.2190867701 -2.168404345e-19) 229
(0.2880926509 0.2452804015 0) 381
(0.2983721582 0.2500490902 0) 383
(0.2951660811 0.2707270577 0) 502
(0.294380609 0.230438578 0) 292
(0.2656252899 0.1968337225 2.168404345e-19) 108
(0.2997913609 0.241329472 -1.084202172e-19) 353
(0.2539588444 0.2547305804 -1.084202172e-19) 437
(0.2848912193 0.1935171153 0) 81
(0.2729322118 0.279965491 -2.710505431e-20) 559
(0.2806587677 0.2128400405 -1.219727444e-19) 200
(0.2587295596 0.2748804086 4.33680869e-19) 527
(0.2747333437 0.2248542998 -1.084202172e-19) 260
(0.2516557556 0.2944029101 -1.76182853e-19) 647
(0.2987349138 0.2026394037 -1.626303259e-19) 143
(0.2626573013 0.203202661 -1.897353802e-19) 168
(0.2755215549 0.2128093964 -5.421010862e-20) 200
(0.3032871334 0.2240854943 -6.505213035e-19) 263
(0.2343579519 0.2424329426 0) 374
(0.2921674467 0.1733164961 0) 15
(0.2677446457 0.2708237261 5.421010862e-20) 499
(0.2862461232 0.2190603753 0) 231
(0.2745057606 0.2107966417 -2.168404345e-19) 200
(0.2865354274 0.2075948396 1.084202172e-19) 171
(0.2875569273 0.2003991613 -2.168404345e-19) 141
(0.2798070762 0.2289040732 -3.252606517e-19) 290
(0.2974211995 0.2832905977 0) 563
(0.2859037036 0.1848935943 -3.252606517e-19) 52
(0.2934626433 0.2189139089 -3.252606517e-19) 232
(0.3037325985 0.194708401 0) 83
(0.2872025897 0.2205509982 -2.168404345e-19) 231
(0.2944050097 0.1976762213 1.016439537e-19) 112
(0.2988110338 0.1913143512 -1.490777987e-19) 83
(0.2956209742 0.2110331994 -4.33680869e-19) 172
(0.2815117289 0.2422312525 -2.168404345e-19) 350
(0.2826177127 0.2172290635 4.33680869e-19) 231
(0.2648294335 0.2632447465 4.33680869e-19) 468
(0.2992264539 0.2045162796 -1.084202172e-19) 143
(0.3026463383 0.2312716213 1.084202172e-19) 293
(0.29278505 0.2798234814 5.421010862e-20) 562
(0.2821706477 0.2522853883 -4.33680869e-19) 411
(0.2889637994 0.2781396551 -2.168404345e-19) 561
(0.2960959347 0.2066063081 -2.168404345e-19) 172
(0.2965087877 0.2390086979 4.33680869e-19) 322
(0.2936445325 0.2593829577 -2.168404345e-19) 442
(0.2749069009 0.1730873032 -5.421010862e-20) 13
(0.302919394 0.2101876718 0) 173
(0.2845190227 0.2758260211 -4.065758147e-19) 531
(0.2893658165 0.2942611894 -4.33680869e-19) 621
(0.2915309016 0.1890274776 2.168404345e-19) 53
(0.2944493772 0.2057609534 0) 142
(0.1979631781 0.2312583285 0) 309
(0.2530807955 0.1767508627 -2.168404345e-19) 26
(0.2952782076 0.2753055628 -4.33680869e-19) 532
(0.3012237862 0.2189949455 -4.33680869e-19) 233
(0.2717347652 0.2345042378 -1.084202172e-19) 319
(0.2671776609 0.1750775395 5.421010862e-20) 28
(0.2897954435 0.220096406 1.084202172e-19) 232
(0.2747458807 0.2807739405 2.168404345e-19) 560
(0.2972919633 0.1871372098 -4.878909776e-19) 54
(0.3043241249 0.288056831 0) 593
(0.2742115771 0.2376210527 0) 319
(0.2785722604 0.2283803681 0) 290
(0.2820146235 0.2172098727 0) 231
(0.3008094769 0.1987293493 4.065758147e-20) 113
(0.2937031414 0.2046516388 -2.710505431e-20) 142
(0.2996775288 0.2155686983 2.168404345e-19) 203
(0.2867501725 0.2228298426 2.168404345e-19) 261
(0.3017469646 0.1980220191 5.963111949e-19) 113
(0.2560882154 0.2269712707 0) 287
(0.2747321482 0.2951196866 5.421010862e-20) 650
(0.2870644611 0.1962256309 5.421010862e-20) 111
(0.2977402547 0.2496340262 0) 383
(0.2642602243 0.1792532859 1.084202172e-19) 27
(0.2923053079 0.2485194326 5.421010862e-20) 382
(0.2943751565 0.2748264567 -5.421010862e-20) 532
(0.2850474807 0.1808292377 1.626303259e-19) 30
(0.2833536497 0.2319103399 -1.084202172e-19) 291
(0.2953095527 0.1978145495 3.320369153e-19) 112
(0.252452179 0.2182185179 1.897353802e-19) 227
(0.2523088225 0.2729314364 1.084202172e-19) 527
(0.2942355358 0.2468198705 0) 382
(0.2578908215 0.2581388209 2.168404345e-19) 437
(0.2864422835 0.2051618709 0) 171
(0.2556439407 0.2114206316 -2.439454888e-19) 197
(0.2975166577 0.2011800209 6.776263578e-21) 143
(0.2892346768 0.1909142773 -5.421010862e-20) 81
(0.2787510212 0.2682692451 0) 500
(0.2914126003 0.2587897377 0) 442
(0.2887794128 0.2238403671 0) 261
(0.2937386763 0.2891134842 -4.33680869e-19) 622
(0.2635236477 0.2719928943 0) 528
(0.2814529313 0.1961494257 2.168404345e-19) 110
(0.2915480671 0.1709699817 0) 4
(0.2543531592 0.2067542689 -2.168404345e-19) 167
(0.2947527169 0.2238108023 2.168404345e-19) 262
(0.27249766 0.191920666 0) 79
(0.2996339637 0.2811508319 -2.168404345e-19) 563
(0.2905135556 0.1974897228 -2.168404345e-19) 112
(0.291836214 0.2417793511 5.505714157e-21) 352
(0.2900942691 0.2430738271 0) 352
(0.3034266204 0.2643236787 1.355252716e-20) 473
(0.2971849812 0.2345292635 -1.084202172e-19) 323
(0.241782332 0.2394085738 -2.168404345e-19) 345
(0.2818140163 0.2810628767 0) 560
(0.2864055839 0.2086077268 -2.710505431e-19) 171
(0.2688433113 0.209105885 0) 199
(0.2948278353 0.2609255759 3.252606517e-19) 442
(0.3003907291 0.2798317463 4.33680869e-19) 563
(0.2784724818 0.2562810303 0) 440
(0.2651048229 0.2821868337 2.168404345e-19) 558
(0.2684984143 0.2124478951 3.252606517e-19) 199
(0.2793641937 0.2368274847 0) 320
(0.2951156141 0.2410725789 1.084202172e-19) 352
(0.3020509659 0.192091926 3.252606517e-19) 83
(0.2660327601 0.2013238083 2.168404345e-19) 138
(0.2972899052 0.212076046 2.846030703e-19) 203
(0.2702567819 0.2220548869 1.355252716e-19) 259
(0.2743228882 0.2125418204 -2.981555974e-19) 200
(0.2899090647 0.2537531105 -1.084202172e-19) 412
(0.2574497815 0.2504310092 -5.421010862e-20) 407
(0.2946601493 0.2771692897 -4.33680869e-19) 532
(0.2606368236 0.2250624896 -2.168404345e-19) 258
(0.263026274 0.2132555716 -2.439454888e-19) 198
(0.2224636075 0.1722488265 -2.168404345e-19) 22
(0.283393575 0.2291036203 1.084202172e-19) 291
(0.2929802979 0.2787156484 1.355252716e-19) 562
(0.2994338051 0.2549870505 -1.626303259e-19) 413
(0.2390249568 0.2349956548 0) 315
(0.2663878668 0.2180284752 0) 228
(0.2834936333 0.2608038505 0) 471
(0.2887871842 0.2237985113 2.168404345e-19) 261
(0.2895041562 0.2208947416 0) 231
(0.2982130076 0.2774688383 8.131516294e-20) 533
(0.292469795 0.2667561936 -2.168404345e-19) 502
(0.2898763297 0.1849303888 0) 53
(0.2253300665 0.2933507156 -2.710505431e-19) 613
(0.2921662649 0.2387588616 -2.168404345e-19) 322
(0.2928267361 0.2450285625 -5.421010862e-20) 382
(0.2756011389 0.2087988807 -8.131516294e-20) 170
(0.2949059455 0.2021519711 -2.168404345e-19) 142
(0.2765535763 0.2350182864 4.33680869e-19) 320
(0.2969517002 0.197928124 1.490777987e-19) 112
(0.2206416446 0.2050096923 0) 192
(0.3019795309 0.237833936 -2.168404345e-19) 323
(0.2848296241 0.2063804682 0) 171
(0.25684002 0.241852309 0) 347
(0.2765303072 0.2096766704 -1.084202172e-19) 200
(0.301733892 0.2269311154 1.084202172e-19) 263
(0.2876748344 0.2189732575 -2.439454888e-19) 231
(0.2989352888 0.2904479995 0) 623
(0.300298204 0.2001569802 1.084202172e-19) 113
(0.284934905 0.2502305266 0) 411
(0.2999718113 0.275657974 1.626303259e-19) 533
(0.2921876169 0.2250155525 1.084202172e-19) 262
(0.2981760722 0.1986269179 0) 113
(0.2992174255 0.294711247 -2.168404345e-19) 653
(0.2667259264 0.1990942845 0) 139
(0.2767602139 0.2081180628 -8.131516294e-20) 170
(0.2534446068 0.2309455724 -4.33680869e-19) 317
(0.2896260803 0.1897407189 0) 82
(0.2587405841 0.2075768135 4.33680869e-19) 167
(0.2533432752 0.2580295851 -2.913793339e-19) 437
(0.300128494 0.2667503905 0) 473
(0.2844845006 0.1852071226 0) 52
(0.2906448899 0.1956090737 -5.421010862e-20) 112
(0.2886376634 0.2788129744 -4.33680869e-19) 561
(0.2855389862 0.267065305 -1.897353802e-19) 501
(0.288344723 0.2568333961 0) 441
(0.2981803141 0.2509557675 -2.168404345e-19) 413
(0.259969672 0.2100552772 0) 198
(0.2970438907 0.2366223266 -4.573977915e-19) 322
(0.2859641797 0.2330993081 -4.33680869e-19) 321
(0.2827853789 0.225722636 -2.168404345e-19) 261
(0.2920526592 0.22762793 0) 262
(0.2589999103 0.2407294441 -4.33680869e-19) 347
(0.2863903332 0.1944931567 0) 111
(0.2990283266 0.2519637053 -1.76182853e-19) 413
(0.2736850507 0.1762400634 0) 28
(0.3040899041 0.2111371236 0) 173
(0.2328601071 0.2362412927 -2.168404345e-19) 344
(0.2967873327 0.2589912903 2.168404345e-19) 442
(0.3024372525 0.2441880727 1.084202172e-19) 353
(0.279607608 0.2497463732 -2.168404345e-19) 410
(0.2938405515 0.2544613111 3.252606517e-19) 412
(0.3034869067 0.2167008757 -4.33680869e-19) 203
(0.2869008342 0.2177046463 0) 231
(0.2738477135 0.1744227437 -2.168404345e-19) 12
(0.2547361081 0.182572344 0) 48
(0.289040646 0.242425805 6.505213035e-19) 351
(0.2822763656 0.2000014096 -2.168404345e-19) 141
(0.2575586847 0.2318703261 2.168404345e-19) 317
(0.2764727082 0.2307575449 1.490777987e-19) 290
(0.2921539756 0.2561245125 -1.084202172e-19) 442
(0.2930382436 0.2518278861 1.897353802e-19) 412
(0.3042444787 0.2252423092 -2.168404345e-19) 263
(0.3001538435 0.2660787879 1.084202172e-19) 473
(0.2916508359 0.2243524975 2.710505431e-19) 262
(0.2629290028 0.2783547741 -4.33680869e-19) 558
(0.2618163177 0.2468696079 -2.168404345e-19) 378
(0.2582876194 0.2039310249 1.084202172e-19) 167
(0.2725933282 0.2328177321 0) 319
(0.2522367791 0.2015745665 2.168404345e-19) 167
(0.285111992 0.2968494684 -4.065758147e-20) 651
(0.2781723603 0.2812692171 1.558540623e-19) 560
(0.2479889476 0.2847958251 4.878909776e-19) 586
(0.2527348316 0.2807524476 2.168404345e-19) 557
(0.2714005895 0.2726282432 -4.33680869e-19) 529
(0.300142429 0.2722557083 6.505213035e-19) 503
(0.2768209534 0.2595147413 1.084202172e-19) 440
(0.2607490479 0.1850891484 -2.168404345e-19) 78
(0.2754177293 0.2967970569 0) 650
(0.3041219771 0.2084252167 2.168404345e-19) 173
(0.2887320154 0.213344854 5.421010862e-20) 201
(0.2799215104 0.183567707 2.168404345e-19) 51
(0.2782004282 0.267365151 2.168404345e-19) 500
(0.26000969 0.2603493554 0) 468
(0.2892799173 0.2958246665 4.33680869e-19) 651
(0.2821511705 0.2866229229 0) 591
(0.2994786854 0.2386557555 1.084202172e-19) 323
(0.2747780694 0.2934634835 -2.168404345e-19) 620
(0.2498497507 0.2053929173 0) 166
(0.2873448458 0.2891832187 2.168404345e-19) 621
(0.302104961 0.2748786637 5.421010862e-20) 533
(0.2983362953 0.2114438759 2.168404345e-19) 173
(0.2786767212 0.2003321492 -1.084202172e-19) 140
(0.2673562978 0.2867311698 2.168404345e-19) 589
(0.2297521716 0.2393555395 0) 344
(0.2607347565 0.2501290731 1.084202172e-19) 408
(0.2757677594 0.2656324871 -2.168404345e-19) 470
(0.2754538198 0.2974748716 3.794707604e-19) 650
(0.3045854624 0.1813284122 0) 32
(0.2882853793 0.2403387979 1.084202172e-19) 351
(0.2623994976 0.1868997503 1.626303259e-19) 78
(0.2649567528 0.2458076337 -2.168404345e-19) 378
(0.2903746826 0.2561054211 0) 442
(0.2609977503 0.2728220125 -2.439454888e-19) 528
(0.2809281597 0.2502421557 -8.67361738e-19) 410
(0.3035229134 0.2696383638 6.776263578e-19) 503
(0.2734530485 0.1936169438 0) 109
(0.2926303229 0.2338873849 0) 322
(0.2742456654 0.2434535906 8.67361738e-19) 379
(0.2771749898 0.2521715027 1.355252716e-19) 410
(0.297115933 0.2344135837 0) 322
(0.2860553117 0.2807333995 -1.355252716e-19) 561
(0.290541441 0.2187883762 2.168404345e-19) 232
(0.2986916087 0.2116619745 4.33680869e-19) 173
(0.275342638 0.2791977868 1.084202172e-19) 560
(0.2802173506 0.1790369893 6.776263578e-20) 29
(0.3044154332 0.2053477226 -2.168404345e-19) 143
(0.2899175955 0.18178629 3.252606517e-19) 31
(0.2909317324 0.254372088 4.33680869e-19) 412
(0.2724663326 0.2000835142 1.626303259e-19) 139
(0.2713551258 0.2815181696 -2.168404345e-19) 559
(0.2762025656 0.2169766346 1.084202172e-19) 230
(0.286142531 0.1848866463 -1.084202172e-19) 52
(0.2981582794 0.2543563526 1.084202172e-19) 413
(0.2977965825 0.2228676916 -3.794707604e-19) 233
(0.2716824589 0.2005275877 4.743384505e-20) 139
(0.2770062874 0.2442245027 2.168404345e-19) 380
(0.2930580809 0.2837292601 -2.168404345e-19) 592
(0.2601698305 0.1895451573 2.168404345e-19) 78
(0.2596473716 0.1950322958 2.168404345e-19) 108
(0.2969467268 0.202660541 3.252606517e-19) 142
(0.2731620912 0.2222629892 4.33680869e-19) 259
(0.2597873143 0.2895811904 -2.710505431e-19) 618
(0.2736308237 0.1805912514 2.168404345e-19) 28
(0.248022931 0.194296744 2.168404345e-19) 106
(0.2959654821 0.2256122508 0) 262
(0.2556109075 0.2636096903 5.421010862e-20) 467
(0.283895069 0.266323165 0) 471
(0.2960620298 0.2644986596 -2.168404345e-19) 472
(0.2888441338 0.2432925284 -4.33680869e-19) 351
(0.2869155995 0.2524063404 2.710505431e-20) 411
(0.2187809906 0.201629462 3.252606517e-19) 162
(0.2739619965 0.1859674049 0) 50
(0.2765156097 0.1779775258 0) 29
(0.2824451696 0.2975628113 2.168404345e-19) 651
(0.2666457991 0.2696329317 -8.67361738e-19) 498
(0.2930577506 0.2009737426 -1.355252716e-19) 142
(0.2578942543 0.1947419515 2.168404345e-19) 107
(0.2719988806 0.2027471799 -2.168404345e-19) 139
(0.2963940313 0.1986559546 2.168404345e-19) 112
(0.255861241 0.2411244564 -3.252606517e-19) 347
(0.2789174165 0.2868630607 5.421010862e-20) 590
(0.288773689 0.2667575209 4.33680869e-19) 501
(0.2530285852 0.2333254647 2.710505431e-20) 317
(0.3018413101 0.2538945754 -5.421010862e-20) 413
(0.2222573889 0.2406536693 0) 373
(0.2931777935 0.2058595763 0) 142
(0.2872322423 0.2724856567 4.33680869e-19) 531
(0.2697223491 0.2566363314 -3.252606517e-19) 439
(0.2713498394 0.2441983906 2.168404345e-19) 379
(0.2647703843 0.2099222503 2.168404345e-19) 198
(0.300505923 0.2382406787 1.084202172e-19) 323
(0.3010390125 0.2609197515 -2.371692252e-20) 443
(0.2826612826 0.2477774503 -1.084202172e-19) 381
(0.2188609962 0.281487645 4.33680869e-19) 552
(0.2919117505 0.2297489688 -1.897353802e-19) 292
(0.2894896385 0.244020111 4.33680869e-19) 351
(0.2782122717 0.2248911697 -1.897353802e-19) 260
(0.3001424005 0.1903242549 -5.421010862e-20) 83
(0.2742582862 0.2817906767 0) 559
(0.2605111525 0.2626350822 -6.776263578e-21) 468
(0.3000398087 0.252354697 0) 413
(0.2824844365 0.2494718784 5.421010862e-20) 381
(0.3014273536 0.2118959907 3.252606517e-19) 173
(0.2498373027 0.2870693551 -2.168404345e-19) 586
(0.2769826507 0.224669257 3.455894425e-19) 260
(0.2742119349 0.2353105211 4.33680869e-19) 319
(0.2777901788 0.2297168032 0) 290
(0.2384548362 0.2715798309 -1.084202172e-19) 525
(0.2691012953 0.2783869439 -1.084202172e-19) 559
(0.2962486299 0.1952929107 0) 112
(0.2573407727 0.2447342944 0) 377
(0.3025143096 0.2028660973 2.168404345e-19) 143
(0.2725717536 0.2858729 2.168404345e-19) 589
(0.247137834 0.2230332147 -2.168404345e-19) 256
(0.2867984941 0.2179251651 1.084202172e-19) 231
(0.2750432476 0.2662826731 -2.168404345e-19) 500
(0.2898871352 0.2027670008 4.031876829e-19) 142
(0.2831338065 0.2515024205 2.168404345e-19) 411
(0.2946102074 0.2654378748 -2.168404345e-19) 472
(0.2755309364 0.2724212416 0) 530
(0.2671288486 0.2242417243 0) 259
(0.2884304561 0.2679451923 2.168404345e-19) 501
(0.2190869566 0.2088083468 2.168404345e-19) 192
(0.2708827053 0.2029522161 -2.439454888e-19) 139
(0.2981920075 0.2874727896 4.33680869e-19) 593
(0.284409524 0.2344068259 -2.168404345e-19) 321
(0.2776784818 0.286960433 -1.084202172e-19) 590
(0.2944479621 0.2897924563 2.168404345e-19) 622
(0.2698971281 0.181338784 0) 50
(0.2844173333 0.2771341928 0) 531
(0.2865711612 0.2375360433 -1.626303259e-19) 321
(0.2475745136 0.2628652152 -1.084202172e-19) 466
(0.272006489 0.2156019203 4.33680869e-19) 229
(0.2098676426 0.1812340559 -2.710505431e-20) 71
(0.2376690632 0.1936197753 -2.168404345e-19) 105
(0.2968098007 0.1897161304 4.33680869e-19) 53
(0.2835513305 0.234058467 1.626303259e-19) 321
(0.2909482762 0.2282772969 -2.168404345e-19) 292
(0.2565671686 0.1932878356 -1.084202172e-19) 107
(0.2574917613 0.2011457332 2.168404345e-19) 137
(0.2642357383 0.2257648454 0) 288
(0.2651511096 0.1921284278 0) 108
(0.289154431 0.2247587731 -2.710505431e-20) 261
(0.2800430865 0.2424788361 -2.168404345e-19) 350
(0.2671009583 0.2441538054 -2.168404345e-19) 379
(0.2606385247 0.2022693268 0) 168
(0.2603682668 0.2979764767 4.33680869e-19) 648
(0.2759145512 0.2265138963 -1.084202172e-19) 260
(0.2652756945 0.2197795722 0) 228
(0.2700111342 0.1991912407 -4.878909776e-19) 139
(0.2994640122 0.2385680427 1.084202172e-19) 323
(0.2854741297 0.2186124328 -5.421010862e-20) 231
(0.30234321 0.2261598652 -2.168404345e-19) 263
(0.3037267151 0.2224926841 -2.168404345e-19) 233
(0.2383759202 0.2264593468 3.523657061e-19) 285
(0.2727422341 0.2285120869 2.710505431e-19) 289
(0.2902878535 0.2915870335 4.33680869e-19) 622
(0.2659142845 0.2621329597 0) 468
(0.3046311574 0.2277160731 4.33680869e-19) 263
(0.2576803779 0.2447379604 1.626303259e-19) 377
(0.3024386598 0.2429726406 -3.252606517e-19) 353
(0.2503334738 0.259131811 2.168404345e-19) 436
(0.2691160082 0.2551509468 2.168404345e-19) 439
(0.2669684063 0.28450075 2.168404345e-19) 589
(0.244789691 0.2835200596 0) 586
(0.2930134586 0.243115843 0) 352
(0.2676618693 0.2266570019 1.219727444e-19) 289
(0.3006841296 0.2818146431 0) 563
(0.2954873874 0.2400965398 0) 352
(0.3024563529 0.2075105471 0) 173
(0.277185426 0.1895786965 -5.421010862e-20) 80
(0.2840743969 0.2206651266 2.168404345e-19) 231
(0.2879723377 0.2047202086 0) 141
(0.2448226321 0.257487489 6.505213035e-19) 436
(0.2914704414 0.2304801081 -3.252606517e-19) 292
(0.2554407635 0.2088962892 -2.168404345e-19) 197
(0.2709156992 0.2448925567 -4.33680869e-19) 379
(0.2651787698 0.1765143622 -2.168404345e-19) 27
(0.2914998727 0.2424073824 0) 352
(0.2930645446 0.2773338876 -4.33680869e-19) 532
(0.2458532708 0.20998619 -1.084202172e-19) 196
(0.3011563629 0.2632656602 2.168404345e-19) 473
(0.288633829 0.2892903075 0) 621
(0.2679242275 0.2566908646 0) 439
(0.282156128 0.2096960744 0) 171
(0.2726418965 0.1894456271 2.168404345e-19) 79
(0.2868411679 0.1932737557 0) 81
(0.2672753631 0.2419008645 0) 349
(0.2969466782 0.2916827106 1.423015351e-19) 622
(0.2824701227 0.1812521739 4.33680869e-19) 30
(0.2490074317 0.1798202877 -5.421010862e-20) 47
(0.2857181763 0.1969756329 3.252606517e-19) 111
(0.2519065696 0.2066635716 4.023406499e-20) 167
(0.2514806368 0.1991451125 -2.168404345e-19) 137
(0.2218599049 0.2281613975 -2.168404345e-19) 313
(0.2219414674 0.2150911266 1.253608762e-19) 223
(0.2614796394 0.2355853213 -2.168404345e-19) 318
(0.2921071909 0.2471681783 -1.084202172e-19) 382
(0.2945339149 0.2111290128 -2.168404345e-19) 172
(0.2685051576 0.2245886854 1.829591166e-19) 259
(0.2706817954 0.2988337755 3.388131789e-19) 649
(0.2727114499 0.218731819 2.168404345e-19) 229
(0.2796427092 0.2839199363 0) 590
(0.231756151 0.2600224346 7.047314121e-19) 464
(0.2898818172 0.221315577 2.168404345e-19) 232
(0.2836516683 0.2186723126 0) 231
(0.2560002036 0.2583180968 0) 437
(0.2821029143 0.242234559 2.168404345e-19) 351
(0.211077024 0.2052783873 -5.421010862e-20) 191
(0.2487690014 0.2312076113 2.168404345e-19) 316
(0.2584518325 0.2870858214 2.168404345e-19) 587
(0.293539505 0.2172218768 0) 232
(0.2589539259 0.2161017518 6.234162492e-19) 227
(0.2741114265 0.2258707658 0) 259
(0.2398524059 0.2247224487 -4.743384505e-19) 285
(0.2731190106 0.2466607568 2.168404345e-19) 379
(0.2846234162 0.2075168201 2.710505431e-19) 171
(0.2989429033 0.2830467485 -3.252606517e-19) 563
(0.2692734653 0.294915889 3.252606517e-19) 649
(0.3025124272 0.2139251493 -2.168404345e-19) 203
(0.2654787354 0.2404526529 0) 348
(0.2626535889 0.240054354 2.57498016e-19) 348
(0.2827293275 0.244588346 -1.965116438e-19) 381
(0.2438261172 0.1754824627 0) 24
(0.2922764864 0.1984055118 1.084202172e-19) 112
(0.2532606599 0.2303046264 3.252606517e-19) 287
(0.2957426133 0.2163423486 2.168404345e-19) 202
(0.2884070214 0.1834427429 0) 52
(0.2747802169 0.2810583982 0) 560
(0.2625849737 0.2614807676 3.523657061e-19) 468
(0.2925491206 0.2012160487 -4.878909776e-19) 142
(0.2978616058 0.2744795846 0) 533
(0.2902678188 0.1807537875 -3.252606517e-19) 31
(0.2258245687 0.2406801336 2.168404345e-19) 373
(0.2943265905 0.2019531473 2.168404345e-19) 142
(0.2705476894 0.2157079483 0) 229
(0.2993755177 0.2481968798 -2.710505431e-19) 383
(0.2760469942 0.1956649911 -8.131516294e-20) 110
(0.2631151591 0.2776499307 6.505213035e-19) 558
(0.2624313121 0.2342137184 -8.131516294e-20) 318