/*--------------------------------*- C++ -*----------------------------------*\
| =========                 |                                                 |
| \\      /  F ield         | OpenFOAM: The Open Source CFD Toolbox           |
|  \\    /   O peration     | Version:  2406                                  |
|   \\  /    A nd           | Website:  www.openfoam.com                      |
|    \\/     M anipulation  |                                                 |
\*---------------------------------------------------------------------------*/
FoamFile
{
    version     2.0;
    format      ascii;
    arch        "LSB;label=32;scalar=64";
    class       vectorField;
    location    "0.007/lagrangian/dsmc";
    object      U;
}
// * * * * * * * * * * * * * * * * * * * * * * * * * * * * * * * * * * * * * //


6265
(
(498.976992 8.127003287 196.5806013)
(752.4049028 1276.650833 -160.517642)
(164.3920066 721.6590199 559.1666345)
(1578.201481 369.2828598 -456.703253)
(663.0859081 523.0886578 408.8784428)
(940.7883873 337.3969575 26.13690241)
(1188.424855 731.538666 -747.7174055)
(1958.402045 814.7116203 592.6707242)
(806.6923276 305.9728218 -116.2319157)
(791.1626176 -61.39978648 259.3675422)
(1135.987086 794.6995182 78.45292376)
(977.1822839 384.7729596 -203.1844368)
(576.3959735 126.7824404 150.5808053)
(1408.481537 -100.9230023 -90.79394996)
(669.4893629 424.5587566 -704.7597056)
(712.5020949 13.55473048 -874.8742328)
(1237.886576 731.7311711 -32.79651496)
(674.6972666 692.8471128 -1074.994378)
(1198.180779 -224.6745715 -351.8740453)
(1276.045058 -456.4767701 510.1455636)
(1096.032986 205.7609769 189.359046)
(1522.336071 98.94250443 46.98743295)
(1327.949419 -37.45134884 -93.50984148)
(570.6983277 -9.99315601 -81.21037332)
(863.363201 310.6700846 91.68639288)
(1331.388136 -295.3399808 -182.3927099)
(1043.243991 394.6329732 301.7526309)
(974.8275617 -498.9139897 -289.8657724)
(1514.097476 161.6481216 581.8236188)
(895.6052133 375.9656366 -97.69609301)
(1151.437468 15.71227104 385.3467641)
(1559.16316 -446.3477799 -599.7463465)
(1872.931465 -43.75325839 -379.3517774)
(1700.512403 0.01721098524 240.3466537)
(420.3591742 -21.921477 -280.5333834)
(1276.020272 -38.46684046 91.6735593)
(565.413455 217.361167 -587.7745765)
(1509.445353 156.3671449 -482.2279759)
(862.0856665 -16.07790699 -61.82290258)
(1232.85185 -201.874826 -78.53119562)
(923.733212 329.304746 867.3764725)
(1307.240979 104.652439 -529.7251183)
(334.0031603 452.5643417 -382.4043777)
(878.9110446 -79.22849787 440.4104576)
(1928.091225 18.88803897 -103.6232552)
(1240.21963 616.4359063 185.4035257)
(1362.011582 58.82058459 909.866828)
(1849.117998 725.3595035 306.1027876)
(1395.988955 399.405094 -455.1622476)
(1568.082347 251.9804084 188.2018697)
(957.8453363 -60.13910329 -386.8160922)
(1124.025194 68.84060668 -313.4932324)
(1623.035107 147.9532901 68.97484853)
(1004.21517 557.6840343 -83.44772974)
(1427.223207 221.280933 -196.9468069)
(1338.685729 -33.13456702 708.8216668)
(874.9719135 187.2048339 67.02582459)
(994.7179987 557.0938266 81.51852845)
(2274.110457 156.5858217 105.4479479)
(832.5023413 891.8585844 -648.3465275)
(1357.314508 346.7875938 -207.8987367)
(1354.784747 451.132834 -19.89971523)
(843.0537632 281.552874 138.5941646)
(1973.282878 405.2574409 284.1589969)
(1495.859375 -449.2890714 568.7812175)
(1440.704078 104.0377801 403.6194309)
(1336.295068 388.631737 658.3286163)
(411.2985315 1138.142274 163.0609584)
(1683.449723 -112.6279549 -139.5619112)
(1190.943646 242.0963689 -201.5528132)
(1662.998899 -140.5992839 128.4108366)
(1328.658703 399.8965625 -414.9469664)
(1549.907635 395.675034 -104.0941219)
(998.0417918 256.0065784 -358.14223)
(1822.685632 448.6750609 -249.0055049)
(1835.420965 514.6172763 -198.1847782)
(1168.960718 268.4515971 -851.4403016)
(1622.315073 339.6548885 -376.6897891)
(1431.630192 219.3371342 -385.7713868)
(2021.152522 -73.60192989 272.3082195)
(1560.56354 -187.5754735 45.77426068)
(1034.168026 1112.707346 -96.54448753)
(2528.576487 -450.0306596 -225.9031878)
(1259.764848 -42.09799612 321.6879289)
(1245.440778 212.4803845 97.71153134)
(2245.456223 553.53138 791.4713089)
(1561.294279 -224.6658554 -513.8153753)
(1706.862136 -498.6514396 -483.0867605)
(1051.735548 80.75666604 -150.0776988)
(1162.448341 72.68866449 742.9108128)
(1087.286808 -414.2620773 201.0644267)
(1644.173666 545.048158 447.3003052)
(1178.729582 475.4339308 -219.1624184)
(1954.664276 397.8949158 867.9789063)
(1177.148012 681.6386673 234.4128626)
(768.331292 -105.1368924 829.7533083)
(1346.174994 -325.7664386 -137.2749562)
(1034.336737 100.4690442 304.9242645)
(1418.555561 46.17964389 282.1033305)
(1558.658557 587.5852105 -132.4278977)
(2000.038212 16.66402782 981.0219972)
(1403.935794 -132.0009832 205.4118358)
(1911.215494 1206.716606 -767.1614633)
(1380.073924 426.1730598 154.1032296)
(1775.637018 -111.7463769 -414.4923454)
(1340.718276 -248.6957657 -379.1497778)
(1190.238078 -11.67508834 -401.2822927)
(1059.645185 -98.47136883 -799.8370507)
(1674.764616 -330.2901112 881.5871843)
(1322.986268 393.2237215 -612.1679043)
(716.0790742 313.3683859 -4.74788567)
(1778.033734 -10.85451917 -176.9880395)
(1672.292371 -132.9698861 33.32301763)
(1292.550683 -315.9475654 -408.230316)
(1553.712955 -397.6935879 709.9125025)
(1842.417152 -531.2988451 366.7561251)
(921.9717892 658.9309297 278.3470205)
(1932.284862 -174.8525292 -546.6055443)
(1324.423406 -182.2796284 365.8018428)
(1320.493656 501.8040967 43.79037089)
(871.9863896 1045.545123 909.7061964)
(1854.295384 -440.8657845 247.6558904)
(2625.671104 478.0438245 -1.723814706)
(578.6844264 531.4149904 -924.1135475)
(1399.563358 -465.2734945 967.0126626)
(1203.627607 270.6434477 423.0319517)
(1333.071417 -279.9289014 -177.6675465)
(2220.350702 544.1422346 185.8702191)
(1030.376906 -38.59840551 -265.9537266)
(1791.827006 -183.1620896 -819.3683171)
(2110.010882 -43.6133908 80.37655717)
(1354.426823 688.3965162 63.04775438)
(1487.486221 719.5807898 37.72632473)
(2264.61901 -43.03679096 -658.8332976)
(1626.919606 -274.9702791 -128.8727313)
(1105.213209 184.694882 -70.49342317)
(1342.652166 -654.4989361 -126.0933068)
(918.5647289 -36.3856853 -171.3812426)
(1679.318238 408.0439974 40.08970409)
(1525.507917 1358.199868 -948.9764662)
(1392.028056 -50.71471631 244.6764092)
(708.2762014 -403.0548555 -184.1846083)
(963.0136866 -159.8697896 442.1527985)
(1275.299536 204.330335 -649.9864415)
(1322.545693 465.5612773 -440.7205853)
(683.4272408 575.6368138 -118.3447523)
(1564.942388 805.1789392 -407.0448123)
(1409.116536 191.7263175 12.73370045)
(924.2027454 1192.68786 -318.3846893)
(1907.507261 340.091183 753.4854573)
(1315.385079 178.1974757 526.2071791)
(1036.523521 -139.0519209 564.8267477)
(2243.35473 129.0339493 410.7123978)
(1274.371551 146.6177166 -371.5629763)
(1010.507682 361.6264214 516.9951923)
(1985.080679 101.3260145 88.29188682)
(1166.923973 209.9430051 107.3202834)
(1246.43396 -5.108524525 94.1415899)
(1782.648417 -81.02986911 231.3465246)
(1274.915926 76.54192105 -214.0670047)
(1913.696689 599.7981676 -627.845041)
(1310.482985 347.3938196 439.259243)
(1456.639032 -344.346242 677.6924918)
(1053.359625 707.3479038 515.2277967)
(1745.237188 -232.5656278 297.335108)
(398.0808257 385.1609455 611.0616531)
(1474.050402 1257.670748 -385.7607602)
(1683.025765 213.2407417 68.03378064)
(1424.293362 -365.8539693 -830.4444972)
(1518.465728 411.7721546 224.7597273)
(1959.92566 194.8674023 -215.5725532)
(1141.737677 664.2002077 115.7536029)
(1644.849902 62.41272033 -75.0348877)
(1519.915635 11.17677058 -446.8602732)
(1132.753504 -403.3338725 272.5543438)
(2181.924496 188.7456645 -871.2692244)
(1951.918199 149.03705 -303.9852041)
(1256.098753 365.3976027 310.5996832)
(2474.06618 -89.62654391 166.0084261)
(1824.436187 -22.39706718 81.43311295)
(1509.877895 282.4132304 -221.8564861)
(1350.341797 209.9194905 -25.86864107)
(1289.839885 224.3607577 -31.47650201)
(1467.190308 918.5455845 352.2046912)
(1348.115656 -287.7915267 -51.80803602)
(1617.209233 84.03705893 643.0204043)
(1630.960617 -69.05217357 -330.4995378)
(1707.481846 252.8849163 372.3014381)
(1703.599263 192.4167587 -567.1770809)
(1272.569509 -238.4815516 373.4648522)
(1421.565832 849.0802173 561.2918378)
(1385.705101 52.78093769 220.3822811)
(1519.351575 -112.5768402 -160.4754525)
(1011.512765 -63.4279231 -405.0403007)
(1359.658469 625.854713 65.31348666)
(1033.185516 -156.0835335 -171.3666419)
(1605.98908 433.7948539 -93.66281058)
(938.7804502 -149.3104129 -271.7454683)
(1038.827694 516.0812652 -535.7034836)
(1527.129348 237.7603209 1027.798038)
(2022.916539 897.8525016 479.9900215)
(749.8396731 -20.67182268 -327.1489279)
(1315.672505 217.3611814 549.3731112)
(1785.972968 625.7659496 -353.8972505)
(1619.860529 -52.21206285 -241.3261169)
(1676.548823 64.93454176 -73.66183641)
(2182.362766 300.444966 735.401909)
(1484.403018 823.9734428 -322.2567368)
(1885.059901 499.2382744 -541.7253446)
(1347.886027 63.4569888 155.0734974)
(1849.061234 152.8223384 260.4533973)
(2092.607324 274.3770016 401.9446254)
(1717.523685 475.1362497 439.4209222)
(1278.769062 -46.89793422 67.06426022)
(901.6753765 84.81135143 -91.96790326)
(1398.138226 -97.02653158 -26.90808433)
(1613.633767 77.91668972 -30.61495315)
(1767.679167 -593.9725724 27.65399161)
(1454.315263 -138.4322022 -532.5452675)
(718.8851084 292.5675785 -15.67651873)
(1365.616743 308.1035703 -304.8048313)
(735.9753171 769.4114154 204.1459769)
(989.0789878 134.33852 -63.63182524)
(1480.297434 682.2947027 -20.69143063)
(854.4435829 9.038967887 48.60524433)
(1191.84562 251.8587271 -25.13050346)
(1668.959458 -74.38219977 438.5307562)
(585.3167892 323.5032067 -256.999911)
(1258.71058 56.47484255 -239.9272442)
(1307.116491 118.9345906 -181.6744308)
(1539.031545 176.3304094 -185.0020485)
(1099.08632 799.2951132 -33.26176628)
(1755.633603 117.3538831 89.11076632)
(2131.711755 440.6906409 -405.669777)
(1144.969711 23.4920026 307.2762862)
(1648.807801 -17.80833466 59.64321269)
(1708.784736 192.9605421 -10.51924921)
(1587.058482 -55.85823566 203.047211)
(1625.548659 486.9086772 -382.1539839)
(1611.545254 916.9727812 -380.672026)
(1856.986871 323.8419423 -405.6090488)
(1976.627444 804.0714803 -127.0969939)
(2116.315594 -523.4932429 -4.839038297)
(1362.096822 581.1735188 153.3038355)
(1705.518214 260.0787059 -890.4247616)
(1506.538075 185.6028464 77.58927734)
(367.2387256 33.70221902 -32.37927491)
(1258.077641 -297.2412795 179.5328972)
(1808.602125 453.0069521 182.4241347)
(1553.224715 38.78757071 161.7983584)
(1991.044074 610.5676673 -2.333142067)
(1275.533472 1070.494254 653.9531753)
(2199.863055 125.9892455 -271.8083546)
(1642.74412 -144.6660276 103.3644773)
(1421.778813 -536.8716301 128.3402331)
(650.3764146 683.3670436 -839.9740914)
(2355.912649 254.0521459 523.3833956)
(1686.867667 120.4865611 439.3717373)
(795.3526805 777.7077847 -89.23853447)
(788.3212431 351.3868331 728.6141693)
(1684.629795 1185.502625 19.82919051)
(2218.602714 -324.5793752 167.1779989)
(2031.488745 302.4197146 198.885775)
(1388.057868 104.1726056 -54.40919989)
(1047.085768 680.9690046 -81.92487857)
(1928.544093 208.6511323 -490.9864158)
(1556.530802 -44.12499696 379.4767057)
(1165.533968 -233.8792542 170.2452285)
(1052.822291 194.7411443 -710.110757)
(1860.017069 216.2977479 441.7938411)
(1808.119879 130.5803629 -331.7461449)
(1522.773961 240.7156926 -133.9435463)
(1513.248783 -269.7878115 64.75604078)
(1270.507429 -391.1198859 184.5549385)
(1311.171287 457.8355647 -244.8272016)
(2402.934402 92.37279768 2.372625328)
(1782.117186 299.371631 456.4311294)
(2420.768588 505.8304678 -227.0805067)
(819.1005783 100.4215006 -499.6410213)
(1606.409505 -2.257353768 -387.5501637)
(674.7394704 661.8255893 607.4741612)
(1030.724972 539.651606 253.4501018)
(813.3472918 173.5402589 -264.7014235)
(1467.544604 438.6206851 106.9610198)
(1805.61095 437.8225735 171.5690054)
(903.9683373 -667.0351124 -374.2169644)
(1498.999093 60.40863694 244.4715498)
(1703.85549 145.6452976 24.12453506)
(1793.313216 157.8001593 656.7955762)
(753.6675803 292.1714467 137.2842726)
(382.4123377 -218.0897147 -269.2353738)
(1645.863514 -288.3658863 -533.8555256)
(1002.611941 382.0687368 99.30343043)
(1239.057127 452.116244 177.5857331)
(1127.056385 1172.185232 754.1917834)
(1357.827123 88.41834497 -14.79479694)
(1201.441515 -89.83434926 -67.28482946)
(1788.055532 183.5380915 382.4792377)
(1476.223568 216.8890235 205.6649487)
(1765.953483 -530.249039 -146.3221222)
(1748.882523 461.5281203 -86.21348767)
(808.4603819 462.9607463 -1116.904262)
(1963.566006 -286.5886676 153.0900874)
(1291.343061 933.0969872 -62.31667)
(1923.07103 -123.6266815 -163.114667)
(1822.42371 -24.92956614 641.4003216)
(1798.625511 487.6507585 -216.2011372)
(1432.341126 482.0765675 45.86603436)
(1826.005629 36.95104347 -34.4943686)
(1788.550261 -9.904166048 3.847326664)
(1866.478087 6.665174491 359.1858094)
(1617.424446 917.070831 -257.7182026)
(1219.784776 1.895889935 -271.1440106)
(1555.083795 1044.88341 -527.2941234)
(1177.967612 393.638654 -317.0698572)
(1470.619596 -61.91426234 -41.75057814)
(1642.709153 320.8119757 494.9705399)
(990.5481551 56.49967961 448.8533746)
(1376.794636 -108.6156348 258.8263513)
(1620.941678 -24.69194365 -226.3246146)
(1666.08469 802.8652159 -390.5987115)
(1664.441417 663.0926259 24.67839407)
(2025.744998 695.8420989 290.0070871)
(1717.825118 900.1707607 341.3895619)
(2009.266336 129.6417096 -159.1765475)
(1292.261139 1067.28862 -40.32052466)
(898.4988516 869.7241729 107.2382503)
(1697.905189 -275.0576281 -272.4952077)
(1781.920353 837.4199065 -446.6277345)
(984.3326829 807.7220259 39.81819292)
(1665.034821 -39.51899696 111.2349302)
(1487.475317 166.6420133 116.7335321)
(1359.106948 75.58114647 -26.98661371)
(1467.236388 113.8441305 275.9134518)
(1613.723664 465.5471799 -479.4556592)
(1685.521751 154.1370911 291.5475395)
(1823.007474 -299.7930293 407.1300083)
(1757.628802 13.40378861 -99.75500635)
(1170.678078 -153.5729007 330.4899052)
(1602.29366 -716.617881 -452.4385813)
(1413.016921 374.2147393 433.108955)
(1680.66369 34.42870453 -359.0299458)
(2214.935522 -223.6073423 -37.55647061)
(1245.593243 127.4743905 -172.2554843)
(2204.929695 1665.547855 -633.358509)
(1382.21384 1225.849797 794.5294658)
(854.1504899 615.4595102 231.1152393)
(1596.31076 169.1416303 75.15722992)
(1100.553743 -744.8127126 460.4959281)
(659.1622681 609.6966901 1149.207774)
(1660.871906 836.362944 -3.345999166)
(798.7908855 752.7782623 -627.6607253)
(1363.103824 -24.36659006 -463.9435754)
(1780.190219 234.1583881 526.0486871)
(919.3333094 180.5596399 1115.043468)
(1245.859459 -303.1350685 -103.4866048)
(1690.60203 426.0900529 725.2039759)
(2088.482881 791.0930282 202.8979097)
(1233.685257 279.9202273 -236.0765783)
(1934.018664 40.99987182 -126.9191182)
(1259.575429 171.8671276 -217.584061)
(255.9686588 775.6508904 -201.5251992)
(1716.281482 226.7167053 -84.15854762)
(1164.811689 861.9783218 -241.0234692)
(1353.025683 220.5319932 -291.7033341)
(1717.734644 -80.49711449 354.7459424)
(986.338879 455.7236166 -185.4680318)
(1033.090573 304.3651542 269.4391318)
(1166.013402 985.3710067 394.1354104)
(1907.205745 930.7504973 -488.3399707)
(987.0292889 764.0000715 -174.157461)
(1258.12056 378.0711954 34.87176356)
(1918.931277 321.9683541 246.3042449)
(417.8085416 310.9354729 -434.1371876)
(554.7166386 94.28835232 774.4880737)
(1908.555773 132.992135 91.44554039)
(1506.61281 -346.0952828 346.3247945)
(868.6498749 142.9295347 -99.75809873)
(1947.131155 -351.3047977 1158.828695)
(1344.041808 326.7024187 220.275949)
(1834.173762 391.3816833 -471.1631646)
(1611.921459 76.50977871 -401.8702178)
(1773.465362 286.2126106 359.3205595)
(1480.470318 -550.6989528 382.0945941)
(1132.083607 158.9990238 244.0134668)
(1507.168224 421.3645804 -267.6702606)
(1603.797727 500.7235082 -74.18884596)
(401.8913488 316.3280033 261.1104305)
(1704.890006 -161.5459551 375.3155506)
(1510.978171 -84.03805938 -168.506239)
(2261.80869 138.5080063 -126.252582)
(2233.352034 -299.5356037 84.69395874)
(672.24625 1241.917365 271.2166379)
(1471.181323 121.5828458 -177.4933384)
(1289.639341 453.0100796 -872.1056027)
(759.4350464 293.609296 -736.6631384)
(1655.018356 876.9337207 183.7800238)
(1218.629807 -377.2258006 -366.3036841)
(1529.684044 -154.5385707 56.11785733)
(1268.238585 473.0836987 -324.6740892)
(1832.611762 -212.5952587 -397.8639352)
(1289.105249 120.8319496 592.8598125)
(1525.079046 282.1786074 520.9455441)
(1447.970692 -314.6445675 884.7859208)
(1864.452363 252.4596152 297.0081212)
(2045.882359 505.4463644 -346.6066622)
(1265.486338 947.4434406 -1001.20011)
(1470.250719 -176.9272671 75.99361073)
(1553.689976 355.9384133 601.9050602)
(1527.230008 -101.0392085 -421.0297004)
(1521.594304 -15.65441729 211.3795778)
(1318.863252 155.7090266 -145.5459151)
(1649.896803 220.0137764 -156.5303792)
(1473.927339 22.03402974 -380.3645259)
(1628.010808 -161.4594492 11.95188801)
(1397.281366 -19.91243443 -401.0178023)
(1374.013353 1096.86575 315.3198034)
(1838.394978 -192.3012697 -284.7307008)
(1617.213898 445.0833705 106.234869)
(1822.527243 705.2955838 133.3975392)
(1457.549868 422.5723161 -304.8431176)
(1700.817221 183.7380093 210.221104)
(1432.257516 629.4230597 -962.0207938)
(1143.112475 -79.07785719 -905.6865839)
(1595.210634 141.5769865 334.8795453)
(1925.11054 82.3273352 16.76709234)
(1585.174006 26.84168702 256.8023611)
(1587.258882 313.4007523 560.2291053)
(2412.352339 642.5983825 -206.7493105)
(1915.707017 70.16863978 -98.4568319)
(1297.268029 325.1598701 393.407197)
(887.5081935 597.8839124 -1001.679466)
(778.2962484 669.264613 -92.33684525)
(2926.034752 594.0264873 -209.4519503)
(2243.628594 -108.2439526 217.7656488)
(1648.315501 761.1609056 39.35949103)
(1744.939991 -256.3976752 -249.5697021)
(1444.070339 -2.092762117 -347.0849781)
(1646.519885 615.2193186 -272.9919693)
(1617.400073 524.1318684 10.43247907)
(1329.747676 353.8831745 -476.8361361)
(1801.574334 -91.37746487 333.2936395)
(1133.770079 637.5763252 -301.63958)
(1751.245287 -299.1287222 97.59106543)
(1559.308008 304.1129099 100.7009723)
(1625.604347 429.3477847 -86.24155246)
(1674.29358 344.8733276 -64.76854842)
(1721.024018 -223.9754803 -96.41634145)
(1979.397163 -149.1768157 -308.3375554)
(1616.718169 41.8155131 60.999446)
(1911.330038 116.6463711 701.3282366)
(2197.070259 45.15309724 -153.0192841)
(1439.292746 -232.9689578 41.43505217)
(1937.449065 538.4916072 -116.578573)
(1179.875939 125.9618362 197.8746335)
(1459.546166 -93.49785521 33.49314859)
(2179.80793 940.0626641 493.9455339)
(520.3184329 791.4309838 706.6585587)
(1404.137201 -215.4904276 294.4548942)
(1213.512221 -4.048356233 333.4316424)
(1683.442168 -125.2006358 -318.9375805)
(1284.975072 191.7552364 -477.3779252)
(1505.186055 100.813942 239.4063379)
(1743.049202 -199.9871295 -77.45171601)
(798.0144528 -545.0281019 -289.53314)
(1974.399102 -174.9290218 -211.102883)
(2017.103603 -122.6171936 -335.9630553)
(1290.396746 1030.599488 187.3629659)
(721.1018233 129.5100693 -319.3271543)
(1616.911171 -326.5686731 203.1940528)
(1876.938613 658.4443315 511.0068539)
(1841.226549 482.664869 -188.1089825)
(2003.80795 1233.723987 -386.2387133)
(1619.783941 505.2303308 -793.7867374)
(1345.004562 264.1719843 -79.37126488)
(1370.003481 109.7560803 610.2902743)
(1535.308153 379.1836692 352.2164261)
(1921.395943 97.92914581 -176.8707864)
(967.2811974 307.5855363 -124.8398067)
(1891.499812 145.6716519 -196.9250392)
(1978.203876 942.2128484 -72.6562313)
(1738.849174 231.292582 -150.0539036)
(1535.634408 417.3756215 405.2208789)
(1217.115108 251.8449331 121.9876493)
(1395.021526 10.12678233 -405.5701283)
(1224.778522 -304.44386 -245.4827052)
(1283.232813 -98.3817274 -83.12136139)
(1484.850632 -425.9515743 -482.0270466)
(1987.991 600.3691817 250.9680431)
(2228.215091 170.2790445 -411.8111505)
(1857.518062 137.3128018 -203.3974634)
(1616.540632 -437.4986365 -379.3538446)
(2249.672557 263.6082621 135.9789155)
(1721.260213 79.38347325 -813.6751131)
(1991.402126 389.3222177 -47.50688282)
(897.0149703 432.8826435 -413.726788)
(1865.004584 751.3556 -686.309474)
(533.3413921 575.9034535 165.4109625)
(2194.562527 1349.834385 1074.849862)
(1266.22635 -317.0792512 -244.9963592)
(1266.715228 50.25676545 -453.0735865)
(1840.2749 253.1771613 -396.0252418)
(1599.776189 309.6210253 -449.485256)
(2055.609935 1410.190375 -138.7098117)
(1712.74629 190.3251319 -314.7897191)
(1173.031721 425.8611229 -585.9391552)
(1416.136636 -557.2141738 233.9884782)
(1470.494847 55.36527821 -181.863921)
(1862.327278 -188.8384613 205.5410124)
(1447.256924 610.3210943 -408.6789954)
(866.7861477 800.3285539 -443.865061)
(1452.321462 -167.1333063 -209.6439195)
(1715.423422 350.5336161 556.8042148)
(1896.783413 -359.5195617 248.0345563)
(874.6637035 606.5881222 98.68278915)
(1783.200767 787.6707057 -220.362159)
(1846.666179 215.1814532 217.902835)
(1402.802547 692.4499908 -465.0868593)
(1335.613583 432.9573835 188.5169509)
(1340.709337 -172.2840446 414.0732815)
(1163.936254 -137.7727371 201.4587677)
(1707.296132 -207.4559699 378.3285535)
(1909.382065 2.893637111 191.4105191)
(1480.025563 298.115757 -250.6066831)
(1914.470119 -143.9827207 327.5554193)
(1688.256579 320.23465 125.4908223)
(859.6861912 772.6137381 114.9261436)
(1408.028019 -17.53478232 -135.8644584)
(1558.587166 -85.07600016 304.1371953)
(591.4235966 235.9912889 -704.614231)
(1416.979578 -115.4339516 724.859955)
(1518.782788 -491.1374996 269.1568455)
(2309.969777 58.11167197 55.18296125)
(1942.381552 312.9992262 697.2219823)
(1333.091937 -169.6036231 -41.87683737)
(1505.058934 645.6879066 107.7693631)
(1293.312861 320.8758208 -289.1300775)
(1857.066004 -64.01999399 -191.1865375)
(1818.467006 426.4687203 -123.388958)
(1721.649085 -84.92450885 0.3031149289)
(2245.184399 -103.8330535 -380.2842784)
(610.3802893 1549.931602 801.052577)
(1905.510984 296.073962 -384.8771935)
(859.2117887 611.6373219 -627.3353949)
(1470.624614 816.634922 152.947875)
(2250.941059 -270.438198 662.4399138)
(553.9147542 270.903879 305.3748492)
(1143.322439 241.1168971 -463.550605)
(1620.275298 1117.438414 699.6737624)
(1575.144722 -267.1691585 284.8833801)
(1837.320501 -673.9925095 -221.3206845)
(1621.957822 -73.55494147 284.7090703)
(1631.535714 19.19293913 340.0320195)
(1521.000993 40.23769278 578.8103448)
(1572.009097 -374.4846629 -724.1209367)
(2165.877524 56.35594312 55.36142323)
(2062.414335 81.7327064 376.1085477)
(1573.487706 172.7245076 371.0093315)
(2059.270837 -110.5205284 -45.68309785)
(1904.135264 177.7528379 21.68470939)
(1625.911459 302.5449832 334.5265269)
(1799.743144 -260.5558852 -342.7105987)
(1590.027712 83.36401712 -3.482363384)
(1735.737358 -29.63287028 337.7244121)
(2357.988946 89.7228713 -316.1903378)
(1387.592654 635.067001 -180.630053)
(1625.070342 1106.267403 -176.6700343)
(163.8955981 1556.996953 57.62752841)
(1629.35155 457.2059525 169.1858334)
(1438.847759 306.3892598 -351.1489625)
(1526.947821 -516.2111255 527.1872032)
(1129.05224 47.80662481 195.5352842)
(2208.067171 -247.0670747 -61.01552895)
(2163.148115 222.6288968 159.2995839)
(1402.085444 -18.04772865 -242.110673)
(1532.055927 -362.6424939 -524.0937947)
(1330.307108 156.8303189 159.6328557)
(1332.926713 551.6170597 251.4592776)
(2284.099586 194.4885285 -719.01569)
(783.2931162 525.580341 791.282078)
(1967.834574 127.2570924 -9.552680959)
(1612.330467 -452.9436357 42.04486104)
(1553.798642 726.0204473 670.3858138)
(2204.136872 -146.7630013 436.8392961)
(2001.959826 -193.746878 230.8349124)
(2422.579355 260.7439766 -358.0578029)
(815.3075522 824.8575967 -938.4991533)
(2308.306727 497.9744344 -174.7650693)
(1343.728343 -120.5485512 -143.6153694)
(1184.111312 -346.6630408 -148.8868924)
(547.1555185 416.7522717 -369.4198723)
(1211.625056 56.34996456 -447.0451057)
(1436.510477 693.8610485 -356.6781339)
(1294.391273 6.845783329 308.7186027)
(1950.664092 276.8517234 157.6255492)
(1317.045787 -19.81473082 3.179568202)
(1581.644828 -263.4151063 -184.5440551)
(1935.776126 382.1205229 -91.11302071)
(1560.111205 477.237698 -1162.787848)
(1165.262195 927.2461536 -521.1136434)
(1421.268352 -568.8842447 -36.58003547)
(1915.162459 462.3975666 -240.6890605)
(830.4357188 -62.96910109 -573.7013163)
(1551.317853 103.6690669 381.3477118)
(1422.518063 -265.3756003 648.239801)
(2074.180049 350.1854417 -154.6710443)
(1321.566553 1002.325139 -355.7511034)
(874.2682221 -279.448119 -52.96826889)
(1184.601717 114.7138056 -111.3591482)
(1247.359517 405.7971432 -100.0887197)
(1822.331021 -81.83873881 275.7456653)
(1200.150233 326.5349343 283.6939797)
(1758.697914 -451.9517128 113.7157029)
(1684.028798 417.545831 301.8139909)
(512.6499237 497.9937523 324.7716906)
(980.0106355 1148.16279 343.1830574)
(1795.291443 62.09349255 22.69636715)
(1824.217466 -143.1788711 219.9545487)
(1863.401584 -96.64691146 84.41239565)
(1473.554126 -80.30893004 142.4075592)
(1725.690161 -416.373435 -201.2019494)
(1139.546601 -405.446759 428.5947266)
(1129.785354 -260.4741195 -155.5779238)
(1700.368002 -98.00121268 17.51217384)
(1774.231862 513.3969758 -44.94956711)
(2136.598752 282.7852088 -543.9485479)
(2107.392349 -24.40543242 -741.9184213)
(1447.103768 -271.2073883 -305.7181235)
(1587.952914 -86.66605724 -493.0450196)
(1752.852631 287.6639079 679.477044)
(1938.251746 251.834376 -177.1537211)
(1508.286603 188.6711386 636.632948)
(2401.443384 192.4524474 -63.00686218)
(1675.350167 -67.32657039 -378.5648415)
(1629.944982 -23.77513525 -336.1497243)
(2084.840196 -261.6838725 111.4149243)
(1336.12359 -21.297861 -587.1302037)
(1133.689276 -174.5384922 544.3785711)
(1498.68068 215.5768869 147.6563002)
(1836.249995 -266.5213021 -343.6022951)
(2035.132197 80.2520228 -548.3052514)
(1871.420234 613.2682684 128.160969)
(1157.671565 -281.3483479 231.8659013)
(2839.631872 764.6255851 417.7713392)
(2296.128987 -274.3456276 -102.7585311)
(1436.95788 -420.1228843 223.1333715)
(1146.272423 160.9258801 -627.5646303)
(906.1220704 522.0305132 138.1800207)
(1659.064663 -129.0444725 -191.8079393)
(1932.43445 195.5733486 663.4715799)
(1366.121631 565.1172161 -505.651747)
(2001.658376 -335.6149373 101.9387268)
(1564.026064 371.4893599 428.6601389)
(1484.18604 40.26402627 -236.8055545)
(1122.576336 3.05718991 -276.5948544)
(1692.020356 465.9895558 -52.56162078)
(1930.750663 -170.2801476 508.7547501)
(1363.125396 82.48200864 -81.43357218)
(416.4488449 174.0704031 -433.2568903)
(2368.61422 -279.0591798 -137.3356083)
(1850.719832 503.5401961 524.3918586)
(2296.744289 -635.7875432 -108.2890456)
(1660.144836 78.89123978 426.899985)
(1716.35819 -521.8863401 -83.55652283)
(1329.900485 209.8466665 -616.1870643)
(1808.858537 870.7826539 652.8888401)
(973.1446384 1396.996295 442.6732221)
(1436.283605 51.97708693 -528.4442974)
(831.652211 1185.85634 -152.7222773)
(2104.981521 -54.1286381 -183.9910633)
(1263.546772 108.0004474 429.5820368)
(1422.416593 -48.45591576 -169.2333855)
(1746.991099 -90.28193764 109.6251642)
(1047.226739 451.9399001 977.5602554)
(1188.840663 -331.9965729 457.1676872)
(1445.984454 -67.7292223 -128.896765)
(1897.064837 363.8593678 80.10572172)
(1110.97789 449.4219298 23.97675946)
(1080.386913 588.1019436 -150.2328521)
(949.1127902 -310.2252106 -512.5749229)
(1947.42576 547.3425008 105.7983724)
(1223.643831 712.856904 906.6675888)
(1435.149099 65.04124297 -170.9868198)
(1825.516946 -201.4111898 161.8252916)
(1669.126988 125.9991558 20.24659447)
(1618.668251 84.356084 351.6819781)
(1625.092912 401.7583801 -608.0236096)
(1753.779954 254.4635885 176.4209292)
(1516.738002 382.3395966 141.7067066)
(1789.936127 -157.0368105 -212.2908227)
(1592.210907 335.377228 8.45120416)
(1823.052165 129.9039206 187.3482351)
(1996.923514 482.7235389 -172.9535946)
(1575.318971 -171.8724408 -150.7769597)
(1286.191349 104.9106904 -51.09867143)
(1565.386698 300.3753676 359.0607191)
(1822.816536 731.1073121 658.8769993)
(1348.838611 474.8924601 50.92303645)
(1665.788707 -170.3908976 22.61544303)
(1900.765633 -114.4022349 355.5624857)
(1543.129835 457.2960406 -236.5343513)
(1264.635105 -28.15393612 221.9359944)
(1119.852051 -265.3749558 -263.3558441)
(1667.665262 53.30306916 649.6185442)
(1721.124117 401.894276 -489.7844626)
(1604.06347 437.4503404 -96.07925661)
(1823.271312 -432.8249763 -61.88824408)
(1257.952388 1270.929657 420.9882281)
(1612.671466 32.05047003 -312.3558639)
(1172.172102 947.1492721 174.4322582)
(1678.034255 304.8527124 447.132904)
(1736.628265 -259.1350175 339.7075752)
(1601.282531 -225.4627844 192.56279)
(1473.272106 -180.1310284 -196.6116488)
(1799.113287 -111.1267017 169.7050425)
(1324.878864 82.7698557 -400.0453217)
(1909.935585 761.2552454 166.0027524)
(1489.554468 1116.375693 1071.968202)
(1217.222319 539.0128383 172.8447958)
(928.3992851 732.3103904 -100.6049014)
(1752.794965 -112.3671732 -294.8607187)
(1869.688605 205.4838347 60.01254499)
(1856.490425 38.98961864 -154.3795896)
(1426.262649 -267.4480102 -194.2571207)
(1755.035042 482.4917426 367.4105777)
(904.6973058 1549.844584 -302.851458)
(904.7106009 46.87884713 101.6293282)
(1306.88623 531.4787621 461.6499803)
(1354.350906 829.2989165 -414.3462153)
(2247.370704 353.2533765 687.0589613)
(1577.072375 407.5155329 288.902706)
(2111.932085 407.8144512 51.07753015)
(1636.593126 409.5870059 -172.0527103)
(2103.522817 142.0565982 203.8370032)
(2021.89744 -72.65619937 32.77902181)
(1590.629152 -594.5650292 -542.0602665)
(1516.98178 1054.501541 -264.676716)
(1482.231418 -347.8599145 210.9818266)
(655.2579609 770.6370672 329.8279445)
(1596.308094 -0.5186696717 -38.97970553)
(1497.296436 -5.146417626 -1.047963965)
(1987.911042 88.97307008 -272.9474764)
(1390.566295 -179.9854078 -735.6754008)
(1919.515612 -315.775439 245.9889269)
(1874.019626 -714.3703638 336.4467033)
(1794.472795 645.1717755 132.9619499)
(1912.088932 383.0314396 15.18860833)
(1322.513375 -318.525693 1216.021054)
(2047.78752 139.6190715 616.1738814)
(1559.578262 346.6430664 -17.40272042)
(2163.339516 396.4264578 -109.6689997)
(1594.403643 266.1461053 -44.18144268)
(1012.915286 -43.80967734 -58.25485244)
(1934.566123 152.7695716 -265.8538916)
(1428.019904 -49.66473583 -16.08927585)
(834.5996764 46.45195073 424.0944665)