/*--------------------------------*- C++ -*----------------------------------*\
| =========                 |                                                 |
| \\      /  F ield         | OpenFOAM: The Open Source CFD Toolbox           |
|  \\    /   O peration     | Version:  2406                                  |
|   \\  /    A nd           | Website:  www.openfoam.com                      |
|    \\/     M anipulation  |                                                 |
\*---------------------------------------------------------------------------*/
FoamFile
{
    version     2.0;
    format      ascii;
    arch        "LSB;label=32;scalar=64";
    class       volScalarField;
    location    "0.012";
    object      dsmcRhoNMean;
}
// * * * * * * * * * * * * * * * * * * * * * * * * * * * * * * * * * * * * * //

dimensions      [0 -3 0 0 0 0 0];

internalField   nonuniform List<scalar> 
654
(
7.326333333
9.433333333
9.4905
9.491333333
9.510166667
9.509666667
9.491666667
9.512
9.478833333
9.443166667
9.480333333
9.472666667
9.454333333
9.473666667
9.507666667
9.5635
9.555666667
9.727166667
10.3015
13.048
7.407833333
9.529333333
9.617666667
9.578333333
9.573666667
9.598833333
9.590333333
9.5825
9.582666667
9.578333333
9.5825
9.612166667
9.661
9.688666667
9.697666667
9.791333333
9.889333333
10.17266667
10.79716667
12.488
7.461166667
9.605833333
9.603166667
9.573333333
9.593166667
9.578
9.602333333
9.597
9.620333333
9.6005
9.633333333
9.608666667
9.573833333
9.6235
9.638
9.632166667
9.748333333
9.953
10.398
11.41483333
7.471
9.5745
9.6595
9.644
9.593833333
9.578666667
9.578
9.565666667
9.565833333
9.595666667
9.5795
9.5945
9.625
9.556166667
9.579333333
9.571833333
9.642
9.830333333
10.207
10.956
7.4555
9.560833333
9.540666667
9.5475
9.590333333
9.601
9.582833333
9.579333333
9.561
9.543333333
9.5345
9.538833333
9.573833333
9.587666667
9.617
9.709
9.7425
9.908
10.12516667
10.48466667
7.404833333
9.504166667
9.612666667
9.525333333
9.522833333
9.504
9.508
9.567
9.545166667
9.6
9.5895
9.560166667
9.484666667
9.490333333
9.580833333
9.569833333
9.634166667
9.7435
9.8655
10.12066667
7.451833333
9.5815
9.634166667
9.629166667
9.691
9.666333333
9.657833333
9.622333333
9.666666667
9.681333333
9.647
9.683833333
9.7165
9.658833333
9.665333333
9.657333333
9.6945
9.744
9.874666667
10.04966667
7.4345
9.5515
9.5875
9.551166667
9.556166667
9.568833333
9.577833333
9.572333333
9.571333333
9.536666667
9.5405
9.485333333
9.525
9.558166667
9.5775
9.621833333
9.6835
9.738833333
9.829333333
9.912333333
7.476166667
9.615333333
9.6485
9.657
9.586833333
9.567833333
9.592
9.611833333
9.550833333
9.5505
9.622166667
9.655833333
9.6075
9.595333333
9.594166667
9.6525
9.699333333
9.7375
9.765666667
9.892333333
7.425833333
9.489166667
9.592833333
9.560166667
9.596166667
9.603833333
9.568
9.5765
9.640166667
9.636
9.609333333
9.6075
9.628833333
9.608
9.615333333
9.638166667
9.665833333
9.646833333
9.731166667
9.747833333
7.471
9.5825
9.590333333
9.5815
9.553
9.536
9.5185
9.537166667
9.528166667
9.548333333
9.598833333
9.583
9.626333333
9.630666667
9.6065
9.539
9.553333333
9.638166667
9.707666667
9.785333333
7.459333333
9.63
9.694666667
9.6855
9.711
9.715333333
9.7325
9.740833333
9.725833333
9.6795
9.637666667
9.589666667
9.545666667
9.628666667
9.650666667
9.732666667
9.756833333
9.710833333
9.685333333
9.718833333
7.464833333
9.589
9.618833333
9.599833333
9.569666667
9.555833333
9.601333333
9.565833333
9.549
9.5545
9.617666667
9.654833333
9.668
9.666
9.6125
9.6215
9.6735
9.698166667
9.732333333
9.743833333
7.487333333
9.601833333
9.679666667
9.691666667
9.710833333
9.717666667
9.675166667
9.696833333
9.723
9.696833333
9.663166667
9.696
9.683166667
9.6895
9.681
9.6535
9.603833333
9.555166667
9.592666667
9.6475
7.408333333
9.572333333
9.604666667
9.581166667
9.612166667
9.648333333
9.671666667
9.658166667
9.67
9.688
9.690833333
9.666166667
9.704166667
9.637
9.6125
9.589
9.598666667
9.600833333
9.5885
9.570333333
7.477666667
9.594333333
9.633166667
9.6165
9.537333333
9.54
9.564333333
9.565833333
9.574166667
9.548166667
9.547333333
9.515166667
9.417166667
9.469833333
9.507
9.558833333
9.588666667
9.572166667
9.6065
9.557
7.441833333
9.4815
9.516
9.539666667
9.577666667
9.601666667
9.528833333
9.5295
9.503666667
9.493166667
9.514
9.547833333
9.588166667
9.633333333
9.568833333
9.588333333
9.596833333
9.639666667
9.605333333
9.619833333
7.418666667
9.5705
9.611833333
9.619
9.576
9.5265
9.5615
9.564166667
9.579666667
9.601
9.625
9.604166667
9.6095
9.5905
9.6285
9.6045
9.630833333
9.599
9.605333333
9.600833333
7.4565
9.6085
9.618333333
9.559
9.591833333
9.636166667
9.615166667
9.644
9.5955
9.587
9.574833333
9.583333333
9.542166667
9.567
9.553
9.540166667
9.584
9.593666667
9.5825
9.576666667
7.435833333
9.58
9.716
9.7055
9.683166667
9.667
9.647166667
9.623
9.625333333
9.626
9.631833333
9.677666667
9.673333333
9.646333333
9.646666667
9.627666667
9.645
9.655166667
9.670833333
9.664166667
7.431
9.514
9.498166667
9.509
9.526666667
9.545833333
9.5415
9.482333333
9.524333333
9.563833333
9.577333333
9.553666667
9.5555
9.612166667
9.6345
9.648
9.6335
9.6515
9.650833333
9.642
7.435
9.574666667
9.614
9.554166667
9.582
9.564666667
9.617
9.6575
9.691166667
9.656666667
9.637333333
9.617833333
9.619166667
9.617333333
9.589
9.6035
9.575
9.561
9.602833333
9.598333333
23.197
26.43483333
27.648
28.32316667
28.23816667
28.48833333
28.5355
28.64883333
27.61733333
27.502
15.82383333
18.829
20.97466667
22.4335
23.53016667
24.202
24.35116667
24.72516667
24.77516667
24.4445
13.15966667
15.204
16.86433333
18.4605
19.69116667
20.89683333
21.73183333
22.5065
22.74166667
22.927
11.86733333
12.98866667
14.266
15.74
16.90766667
18.14916667
19.2435
20.10533333
20.79833333
21.377
11.07616667
11.86616667
12.72233333
13.71733333
14.86433333
15.7815
16.84883333
17.6995
18.728
19.7115
10.54733333
11.03166667
11.56533333
12.3305
13.1285
14.13333333
15.2215
16.1445
17.03533333
17.851
10.30866667
10.66316667
10.9725
11.57716667
12.15083333
12.827
13.60616667
14.448
15.38366667
16.193
10.05266667
10.2815
10.53683333
10.89633333
11.299
11.75516667
12.39233333
13.0895
13.862
14.61583333
9.9735
10.0665
10.20666667
10.45866667
10.76433333
11.1035
11.49216667
11.9605
12.5505
13.27783333
9.885166667
9.981166667
10.10766667
10.19766667
10.37
10.58083333
10.9465
11.25216667
11.594
12.0515
9.810166667
9.807
9.920333333
10.046
10.17066667
10.28866667
10.44233333
10.739
10.934
11.3345
9.712333333
9.686333333
9.649333333
9.705
9.738833333
9.877833333
10.00416667
10.259
10.5425
10.754
9.719166667
9.709166667
9.6735
9.665
9.681166667
9.764333333
9.906166667
9.931333333
10.01083333
10.28683333
9.658
9.619833333
9.602
9.577666667
9.564166667
9.525
9.487666667
9.616
9.7555
9.905666667
9.5445
9.495166667
9.473666667
9.446333333
9.392833333
9.471166667
9.471333333
9.473666667
9.533166667
9.589166667
9.611166667
9.568166667
9.495833333
9.442833333
9.479166667
9.421833333
9.4015
9.4045
9.455333333
9.4635
9.560833333
9.5355
9.471333333
9.443333333
9.355
9.355
9.377333333
9.365833333
9.3025
9.384333333
9.620333333
9.476166667
9.448166667
9.386333333
9.4035
9.3665
9.3185
9.276833333
9.249
9.224666667
9.593
9.596833333
9.557333333
9.532833333
9.423833333
9.308
9.244166667
9.213166667
9.182
9.201166667
9.603333333
9.545
9.48
9.359833333
9.342166667
9.323666667
9.318833333
9.274333333
9.158833333
9.103166667
9.588666667
9.541333333
9.481833333
9.4165
9.323833333
9.2565
9.18
9.159333333
9.195
9.155
9.575833333
9.446666667
9.401333333
9.365333333
)
;

boundaryField
{
    flow
    {
        type            calculated;
        value           nonuniform List<scalar> 
42
(
7.326333333
7.407833333
7.461166667
7.471
7.4555
7.404833333
7.451833333
7.4345
7.476166667
7.425833333
7.471
7.459333333
7.464833333
7.487333333
7.408333333
7.477666667
7.441833333
7.418666667
7.4565
7.435833333
7.431
7.435
7.326333333
9.433333333
9.4905
9.491333333
9.510166667
9.509666667
9.491666667
9.512
9.478833333
9.443166667
9.480333333
9.472666667
9.454333333
9.473666667
9.507666667
9.5635
9.555666667
9.727166667
10.3015
13.048
)
;
    }
    obstacle
    {
        type            calculated;
        value           nonuniform List<scalar> 10(23.197 26.43483333 27.648 28.32316667 28.23816667 28.48833333 28.5355 28.64883333 27.61733333 27.502);
    }
    frontAndBack
    {
        type            empty;
    }
    procBoundary0to1
    {
        type            processor;
        value           nonuniform List<scalar> 
21
(
27.24666667
24.59316667
23.00216667
21.50716667
20.20033333
18.78033333
16.99833333
15.36383333
14.01333333
12.63733333
11.7955
11.07666667
10.47833333
9.977666667
9.762333333
9.5115
9.418333333
9.244
9.180333333
9.08
9.034833333
)
;
    }
    procBoundary0to2
    {
        type            processor;
        value           nonuniform List<scalar> 
31
(
7.418
9.579
9.6465
9.6245
9.606666667
9.6105
9.611333333
9.598833333
9.557166667
9.617166667
9.621666667
9.666
9.651166667
9.586333333
9.5945
9.586
9.587333333
9.603333333
9.546833333
9.525
9.331833333
9.2885
9.233
9.147833333
9.091166667
9.076166667
9.498666667
9.4655
9.405666667
9.331833333
9.296
)
;
    }
}


// ************************************************************************* //
