/*--------------------------------*- C++ -*----------------------------------*\
| =========                 |                                                 |
| \\      /  F ield         | OpenFOAM: The Open Source CFD Toolbox           |
|  \\    /   O peration     | Version:  2406                                  |
|   \\  /    A nd           | Website:  www.openfoam.com                      |
|    \\/     M anipulation  |                                                 |
\*---------------------------------------------------------------------------*/
FoamFile
{
    version     2.0;
    format      ascii;
    arch        "LSB;label=32;scalar=64";
    class       volVectorField;
    location    "0.012";
    object      fDMean;
}
// * * * * * * * * * * * * * * * * * * * * * * * * * * * * * * * * * * * * * //

dimensions      [1 -1 -2 0 0 0 0];

internalField   uniform (0 0 0);

boundaryField
{
    flow
    {
        type            calculated;
        value           uniform (0 0 0);
    }
    obstacle
    {
        type            calculated;
        value           nonuniform List<vector> 10((4.455948464 -2.609183567 0.0323449136) (3.958595598 -2.766073247 -0.004757291822) (3.58773988 -2.82972258 -0.02158122799) (3.334337913 -2.806787586 -0.003229015445) (3.109908291 -2.810765904 0.003105202772) (2.847990819 -2.817063188 -0.0153585828) (2.81055486 -2.82963361 0.01301141642) (2.718695069 -2.856696002 -0.02412062686) (2.564204577 -2.753718608 0.01358732931) (2.482390718 -2.741948732 -0.01418633299));
    }
    frontAndBack
    {
        type            empty;
    }
    procBoundary0to1
    {
        type            processor;
        value           uniform (0 0 0);
    }
    procBoundary0to2
    {
        type            processor;
        value           uniform (0 0 0);
    }
}


// ************************************************************************* //
