/*--------------------------------*- C++ -*----------------------------------*\
| =========                 |                                                 |
| \\      /  F ield         | OpenFOAM: The Open Source CFD Toolbox           |
|  \\    /   O peration     | Version:  2406                                  |
|   \\  /    A nd           | Website:  www.openfoam.com                      |
|    \\/     M anipulation  |                                                 |
\*---------------------------------------------------------------------------*/
FoamFile
{
    version     2.0;
    format      ascii;
    arch        "LSB;label=32;scalar=64";
    class       volScalarField;
    location    "0.012";
    object      iDof;
}
// * * * * * * * * * * * * * * * * * * * * * * * * * * * * * * * * * * * * * //

dimensions      [0 -3 0 0 0 0 0];

internalField   nonuniform List<scalar> 
654
(
1.457959731e+20
1.457959731e+20
1.666239693e+20
2.707639501e+20
1.874519654e+20
3.124199424e+20
2.291079578e+20
8.331198464e+19
3.749039309e+20
1.457959731e+20
2.291079578e+20
1.457959731e+20
1.041399808e+20
3.124199424e+20
8.331198464e+19
2.291079578e+20
8.331198464e+19
1.041399808e+20
1.457959731e+20
3.124199424e+20
1.041399808e+20
1.457959731e+20
2.915919462e+20
1.666239693e+20
1.041399808e+20
8.331198464e+19
3.124199424e+20
2.082799616e+20
2.082799616e+19
1.041399808e+20
2.499359539e+20
1.666239693e+20
2.707639501e+20
2.499359539e+20
2.082799616e+20
3.540759347e+20
2.707639501e+20
2.291079578e+20
1.666239693e+20
4.165599232e+20
1.041399808e+20
2.915919462e+20
1.874519654e+20
2.707639501e+20
2.291079578e+20
1.874519654e+20
1.24967977e+20
1.457959731e+20
8.331198464e+19
2.499359539e+20
1.24967977e+20
3.124199424e+20
1.874519654e+20
1.666239693e+20
1.457959731e+20
2.915919462e+20
1.874519654e+20
2.082799616e+20
3.540759347e+20
1.666239693e+20
1.874519654e+20
2.291079578e+20
2.707639501e+20
1.874519654e+20
1.874519654e+20
2.291079578e+20
1.24967977e+20
2.915919462e+20
2.499359539e+20
1.457959731e+20
2.915919462e+20
1.666239693e+20
1.874519654e+20
2.499359539e+20
1.666239693e+20
2.499359539e+20
1.874519654e+20
2.291079578e+20
1.041399808e+20
1.457959731e+20
1.041399808e+20
2.499359539e+20
8.331198464e+19
2.499359539e+20
1.041399808e+20
1.24967977e+20
2.707639501e+20
1.874519654e+20
2.915919462e+20
1.874519654e+20
2.082799616e+20
2.499359539e+20
8.331198464e+19
2.499359539e+20
1.24967977e+20
1.457959731e+20
2.707639501e+20
2.499359539e+20
2.915919462e+20
1.041399808e+20
1.041399808e+20
2.082799616e+20
2.707639501e+20
1.666239693e+20
2.082799616e+20
2.499359539e+20
1.24967977e+20
1.666239693e+20
1.666239693e+20
1.874519654e+20
1.24967977e+20
2.291079578e+20
1.666239693e+20
2.082799616e+20
1.666239693e+20
1.041399808e+20
1.24967977e+20
2.291079578e+20
3.332479385e+20
1.874519654e+20
1.666239693e+20
1.874519654e+20
3.332479385e+20
1.666239693e+20
2.082799616e+20
1.874519654e+20
1.666239693e+20
2.082799616e+20
2.291079578e+20
1.874519654e+20
3.332479385e+20
2.707639501e+20
1.874519654e+20
1.874519654e+20
1.666239693e+20
2.082799616e+20
1.041399808e+20
8.331198464e+19
2.291079578e+20
3.95731927e+20
1.457959731e+20
1.874519654e+20
1.24967977e+20
8.331198464e+19
2.707639501e+20
1.666239693e+20
2.291079578e+20
1.874519654e+20
1.874519654e+20
1.041399808e+20
2.707639501e+20
2.082799616e+20
2.082799616e+20
1.24967977e+20
1.457959731e+20
1.457959731e+20
1.666239693e+20
2.499359539e+20
1.041399808e+20
2.082799616e+20
1.041399808e+20
3.124199424e+20
1.666239693e+20
1.457959731e+20
1.874519654e+20
1.666239693e+20
1.24967977e+20
1.874519654e+20
2.499359539e+20
1.666239693e+20
2.082799616e+20
2.499359539e+20
1.457959731e+20
8.331198464e+19
1.874519654e+20
2.915919462e+20
1.874519654e+20
1.666239693e+20
1.874519654e+20
2.291079578e+20
1.874519654e+20
1.874519654e+20
1.666239693e+20
2.082799616e+20
1.666239693e+20
1.24967977e+20
3.332479385e+20
2.707639501e+20
1.666239693e+20
1.874519654e+20
1.874519654e+20
2.291079578e+20
3.124199424e+20
1.24967977e+20
1.874519654e+20
2.707639501e+20
2.082799616e+20
8.331198464e+19
2.291079578e+20
1.24967977e+20
1.666239693e+20
1.874519654e+20
1.041399808e+20
3.124199424e+20
1.666239693e+20
1.874519654e+20
1.457959731e+20
2.499359539e+20
1.457959731e+20
1.041399808e+20
2.499359539e+20
1.874519654e+20
3.124199424e+20
3.124199424e+20
1.457959731e+20
2.082799616e+20
2.499359539e+20
2.499359539e+20
1.874519654e+20
2.291079578e+20
1.457959731e+20
2.291079578e+20
2.291079578e+20
2.915919462e+20
2.082799616e+20
1.666239693e+20
2.499359539e+20
2.915919462e+20
2.291079578e+20
1.874519654e+20
1.666239693e+20
2.082799616e+20
1.666239693e+20
3.332479385e+20
1.874519654e+20
2.499359539e+20
2.291079578e+20
2.499359539e+20
1.457959731e+20
3.749039309e+20
2.082799616e+20
2.707639501e+20
1.666239693e+20
2.499359539e+20
2.499359539e+20
1.666239693e+20
3.332479385e+20
1.457959731e+20
2.915919462e+20
2.707639501e+20
1.457959731e+20
1.24967977e+20
1.457959731e+20
2.291079578e+20
1.874519654e+20
1.24967977e+20
2.499359539e+20
2.291079578e+20
1.24967977e+20
1.666239693e+20
1.457959731e+20
1.666239693e+20
2.499359539e+20
8.331198464e+19
2.291079578e+20
2.291079578e+20
2.291079578e+20
1.874519654e+20
2.082799616e+20
1.666239693e+20
1.874519654e+20
2.291079578e+20
2.499359539e+20
1.24967977e+20
2.291079578e+20
2.291079578e+20
2.707639501e+20
1.457959731e+20
2.499359539e+20
2.915919462e+20
1.874519654e+20
2.291079578e+20
1.041399808e+20
2.915919462e+20
2.499359539e+20
1.457959731e+20
2.082799616e+20
2.291079578e+20
2.082799616e+20
1.24967977e+20
2.082799616e+20
8.331198464e+19
1.874519654e+20
2.499359539e+20
2.291079578e+20
1.666239693e+20
2.499359539e+20
1.041399808e+20
1.666239693e+20
2.499359539e+20
1.24967977e+20
1.874519654e+20
1.24967977e+20
1.666239693e+20
2.707639501e+20
1.041399808e+20
1.666239693e+20
1.041399808e+20
1.666239693e+20
1.874519654e+20
1.041399808e+20
2.082799616e+20
2.499359539e+20
2.291079578e+20
2.082799616e+20
8.331198464e+19
1.666239693e+20
1.666239693e+20
1.874519654e+20
3.749039309e+20
1.457959731e+20
1.457959731e+20
3.124199424e+20
2.082799616e+20
1.874519654e+20
2.291079578e+20
1.874519654e+20
3.540759347e+20
2.291079578e+20
2.707639501e+20
2.082799616e+20
1.24967977e+20
2.499359539e+20
2.291079578e+20
2.707639501e+20
1.666239693e+20
1.874519654e+20
1.666239693e+20
1.666239693e+20
2.082799616e+20
1.666239693e+20
1.666239693e+20
2.082799616e+20
2.707639501e+20
2.499359539e+20
2.082799616e+20
1.666239693e+20
1.24967977e+20
2.499359539e+20
2.291079578e+20
2.291079578e+20
1.666239693e+20
2.291079578e+20
2.291079578e+20
8.331198464e+19
1.041399808e+20
2.707639501e+20
3.540759347e+20
1.874519654e+20
8.331198464e+19
1.457959731e+20
1.666239693e+20
2.082799616e+20
1.457959731e+20
1.457959731e+20
2.291079578e+20
1.874519654e+20
2.915919462e+20
2.082799616e+20
2.291079578e+20
2.915919462e+20
2.082799616e+20
1.666239693e+20
1.041399808e+20
2.082799616e+20
1.874519654e+20
1.041399808e+20
2.915919462e+20
2.499359539e+20
2.499359539e+20
1.666239693e+20
2.915919462e+20
1.874519654e+20
2.707639501e+20
1.666239693e+20
2.499359539e+20
1.666239693e+20
1.666239693e+20
2.291079578e+20
1.874519654e+20
2.915919462e+20
2.499359539e+20
2.291079578e+20
2.499359539e+20
1.457959731e+20
2.082799616e+20
6.248398848e+19
2.915919462e+20
1.666239693e+20
6.248398848e+19
1.666239693e+20
1.666239693e+20
3.124199424e+20
1.874519654e+20
6.248398848e+19
2.082799616e+20
2.291079578e+20
1.666239693e+20
1.666239693e+20
1.041399808e+20
1.24967977e+20
1.457959731e+20
2.291079578e+20
2.082799616e+20
2.499359539e+20
1.874519654e+20
2.291079578e+20
2.082799616e+20
3.749039309e+20
1.874519654e+20
1.666239693e+20
1.666239693e+20
1.041399808e+20
2.291079578e+20
3.332479385e+20
2.082799616e+20
1.24967977e+20
2.082799616e+20
1.457959731e+20
1.666239693e+20
2.499359539e+20
1.457959731e+20
1.041399808e+20
1.24967977e+20
2.707639501e+20
1.24967977e+20
3.124199424e+20
1.666239693e+20
1.874519654e+20
1.24967977e+20
5.643501543e+20
3.577748765e+20
6.357388371e+20
4.9079792e+20
7.735989617e+20
6.708647608e+20
7.192317429e+20
7.68292501e+20
6.632935708e+20
5.790372824e+20
3.135278636e+20
4.630027814e+20
2.754868295e+20
5.761540802e+20
4.942437813e+20
5.1937917e+20
6.320521382e+20
7.682925016e+20
5.306348567e+20
4.231426294e+20
2.090185757e+20
3.577748764e+20
3.814433022e+20
2.133904001e+20
2.578663208e+20
3.895343772e+20
5.884623351e+20
3.951218579e+20
3.316467854e+20
5.790372824e+20
2.508222908e+20
2.735925527e+20
2.754868295e+20
4.694588798e+20
3.438217607e+20
2.596895848e+20
4.79487829e+20
6.804876442e+20
5.306348567e+20
5.567666177e+20
2.299204332e+20
1.052279048e+20
2.754868295e+20
2.987465603e+20
4.082883413e+20
2.59689585e+20
4.358980263e+20
5.048779296e+20
3.537565714e+20
5.122252886e+20
1.881167181e+20
2.104558097e+20
1.907216511e+20
3.627636799e+20
3.223329006e+20
2.380487859e+20
2.615388154e+20
2.414633573e+20
4.421957136e+20
4.676839592e+20
1.254111454e+20
1.262734858e+20
2.331042404e+20
1.920513602e+20
3.223329011e+20
2.380487862e+20
3.051286184e+20
2.195121433e+20
2.432076426e+20
3.563306353e+20
1.46313003e+20
1.473190669e+20
1.483390621e+20
2.774075199e+20
3.438217607e+20
2.813303835e+20
1.961541118e+20
2.853657863e+20
8.843914278e+19
4.008719647e+20
1.672148605e+20
2.525469716e+20
3.178694185e+20
1.2803424e+20
3.00844041e+20
2.596895848e+20
2.615388156e+20
2.195121433e+20
1.105489285e+20
2.672479765e+20
1.881167182e+20
2.104558098e+20
2.119129458e+20
2.560684801e+20
1.719108804e+20
1.947671887e+20
2.397439145e+20
2.195121433e+20
1.326587142e+20
2.227066471e+20
1.881167181e+20
2.104558097e+20
1.271477674e+20
1.066952e+20
2.578663207e+20
1.514855911e+20
2.615388156e+20
2.414633575e+20
1.989880713e+20
1.781653177e+20
2.299204332e+20
2.735925527e+20
8.476517832e+19
3.200855999e+20
3.008440408e+20
2.380487862e+20
1.961541125e+20
2.853657881e+20
1.989880722e+20
2.449773128e+20
1.881167181e+20
1.894102292e+20
2.331042412e+20
2.560684801e+20
1.933997397e+20
3.029711819e+20
3.487184203e+20
1.756097132e+20
3.31646784e+20
1.781653177e+20
1.25411145e+20
2.525469701e+20
1.695303554e+20
1.707123195e+20
2.363774608e+20
2.81330383e+20
2.615388143e+20
1.317072858e+20
2.432076416e+20
2.4497731e+20
2.926260075e+20
3.156837153e+20
1.059564728e+20
1.493732806e+20
2.793551828e+20
3.678935803e+20
2.615388162e+20
2.634145734e+20
2.432076433e+20
1.336239882e+20
1.672148603e+20
1.683646482e+20
2.542955365e+20
1.707123206e+20
1.289331604e+20
2.164079884e+20
1.089745067e+20
1.756097132e+20
1.326587136e+20
1.55894653e+20
2.299204329e+20
1.894102279e+20
2.331042386e+20
2.560684792e+20
2.363774608e+20
8.656319476e+19
1.743592108e+20
2.634145734e+20
1.326587145e+20
3.117893059e+20
2.299204329e+20
2.525469723e+20
1.907216524e+20
2.774075191e+20
1.933997393e+20
1.947671882e+20
1.525643084e+20
8.78048572e+19
1.547685003e+20
2.004359824e+20
2.090185768e+20
3.788204584e+20
8.476517826e+19
2.77407521e+20
1.289331604e+20
1.514855908e+20
1.089745067e+20
2.853657859e+20
1.547684992e+20
1.113533243e+20
1.672148603e+20
1.262734861e+20
1.271477674e+20
2.774075191e+20
2.363774608e+20
1.731263907e+20
1.961541121e+20
2.19512143e+20
1.768782861e+20
1.336239882e+20
2.299204329e+20
3.367292941e+20
8.476517826e+19
1.920513607e+20
2.363774608e+20
1.514855908e+20
1.525643094e+20
2.853657879e+20
1.989880718e+20
2.895186412e+20
3.344297206e+20
1.894102279e+20
1.907216511e+20
1.920513607e+20
)
;

boundaryField
{
    flow
    {
        type            zeroGradient;
    }
    obstacle
    {
        type            calculated;
        value           nonuniform List<scalar> 10(82.16496991 189.2510174 531.3776909 275.1224601 389.7340932 348.5133666 265.0462876 323.033867 1e-300 170.5689126);
    }
    frontAndBack
    {
        type            empty;
    }
    procBoundary0to1
    {
        type            processor;
        value           nonuniform List<scalar> 
21
(
4.711119443e+20
4.935458468e+20
6.730170633e+20
6.281492591e+20
5.384136507e+20
4.038102386e+20
2.916407275e+20
3.140746296e+20
2.916407277e+20
1.794712169e+20
2.01905119e+20
1.794712175e+20
2.916407266e+20
2.243390205e+20
1.12169511e+20
2.467729225e+20
1.346034123e+20
1.794712177e+20
2.692068265e+20
1.794712164e+20
2.243390221e+20
)
;
    }
    procBoundary0to2
    {
        type            processor;
        value           nonuniform List<scalar> 
31
(
1.24967977e+20
2.291079578e+20
2.499359539e+20
1.874519654e+20
2.499359539e+20
1.457959731e+20
1.874519654e+20
1.874519654e+20
1.457959731e+20
3.749039309e+20
2.499359539e+20
1.457959731e+20
3.332479385e+20
1.666239693e+20
2.915919462e+20
3.124199424e+20
1.457959731e+20
1.666239693e+20
1.457959731e+20
2.707639501e+20
2.578663208e+20
1.514855908e+20
1.743592096e+20
1.975609287e+20
2.653174291e+20
1.55894653e+20
2.090185754e+20
2.104558102e+20
1.271477674e+20
2.578663208e+20
2.560684792e+20
)
;
    }
}


// ************************************************************************* //
