/*--------------------------------*- C++ -*----------------------------------*\
| =========                 |                                                 |
| \\      /  F ield         | OpenFOAM: The Open Source CFD Toolbox           |
|  \\    /   O peration     | Version:  2406                                  |
|   \\  /    A nd           | Website:  www.openfoam.com                      |
|    \\/     M anipulation  |                                                 |
\*---------------------------------------------------------------------------*/
FoamFile
{
    version     2.0;
    format      ascii;
    arch        "LSB;label=32;scalar=64";
    class       volScalarField;
    location    "0.012";
    object      iDofMean;
}
// * * * * * * * * * * * * * * * * * * * * * * * * * * * * * * * * * * * * * //

dimensions      [0 -3 0 0 0 0 0];

internalField   nonuniform List<scalar> 
654
(
1.525928425e+20
1.964774304e+20
1.976680976e+20
1.976854542e+20
1.980777148e+20
1.980673008e+20
1.976923969e+20
1.981158995e+20
1.974251043e+20
1.966822391e+20
1.974563463e+20
1.97296665e+20
1.969148184e+20
1.973174929e+20
1.980256448e+20
1.991885413e+20
1.990253886e+20
2.0259739e+20
2.145596024e+20
2.717636939e+20
1.542903242e+20
1.984769181e+20
2.003167244e+20
1.994974899e+20
1.994002926e+20
1.999244638e+20
1.997474258e+20
1.995842732e+20
1.995877445e+20
1.994974899e+20
1.995842732e+20
2.002021704e+20
2.012192709e+20
2.017955121e+20
2.019829641e+20
2.039338531e+20
2.059749967e+20
2.118762623e+20
2.248833459e+20
2.60100016e+20
1.554011507e+20
2.000702598e+20
2.000147185e+20
1.993933499e+20
1.998064385e+20
1.994905472e+20
1.999973618e+20
1.998862791e+20
2.003722657e+20
1.999591771e+20
2.006430297e+20
2.001292724e+20
1.994037639e+20
2.00438221e+20
2.00740227e+20
2.006187303e+20
2.030382492e+20
2.073010458e+20
2.165695041e+20
2.377481048e+20
1.556059593e+20
1.994176492e+20
2.011880289e+20
2.00865195e+20
1.998203238e+20
1.995044325e+20
1.994905472e+20
1.992336686e+20
1.992371399e+20
1.998585085e+20
1.995217892e+20
1.998342092e+20
2.00469463e+20
1.990358026e+20
1.995183179e+20
1.993621079e+20
2.00823539e+20
2.047461449e+20
2.125913568e+20
2.281915259e+20
1.552831254e+20
1.991329999e+20
1.987129687e+20
1.988552933e+20
1.997474258e+20
1.999695911e+20
1.995912159e+20
1.995183179e+20
1.991364713e+20
1.9876851e+20
1.985845294e+20
1.98674784e+20
1.994037639e+20
1.996918845e+20
2.003028391e+20
2.022190147e+20
2.029167526e+20
2.063637859e+20
2.108869324e+20
2.183745971e+20
1.542278402e+20
1.979527468e+20
2.002125844e+20
1.983936061e+20
1.983415361e+20
1.979492755e+20
1.980325875e+20
1.992614393e+20
1.988066947e+20
1.999487631e+20
1.997300692e+20
1.991191146e+20
1.975466009e+20
1.976646262e+20
1.995495599e+20
1.993204519e+20
2.006603863e+20
2.029375806e+20
2.054785961e+20
2.107932065e+20
1.55206756e+20
1.995634452e+20
2.006603863e+20
2.005562464e+20
2.018441108e+20
2.013303535e+20
2.011533156e+20
2.004139217e+20
2.013372962e+20
2.016427735e+20
2.009276789e+20
2.016948435e+20
2.023752247e+20
2.011741436e+20
2.013095255e+20
2.011429016e+20
2.019170088e+20
2.029479946e+20
2.056695194e+20
2.093144187e+20
1.548457374e+20
1.989386053e+20
1.996884132e+20
1.989316627e+20
1.990358026e+20
1.992996239e+20
1.994870759e+20
1.993725219e+20
1.993516939e+20
1.986296567e+20
1.987094974e+20
1.975604862e+20
1.983866634e+20
1.990774586e+20
1.994801332e+20
2.004035077e+20
2.016879008e+20
2.028403833e+20
2.047253169e+20
2.064540406e+20
1.557135706e+20
2.002681257e+20
2.009589209e+20
2.011359589e+20
1.996745278e+20
1.992787959e+20
1.997821392e+20
2.001952278e+20
1.9892472e+20
1.989177773e+20
2.004104504e+20
2.011116596e+20
2.001049731e+20
1.998515658e+20
1.998272665e+20
2.010422329e+20
2.020176774e+20
2.028126126e+20
2.033992678e+20
2.060374807e+20
1.546652281e+20
1.976403269e+20
1.997994958e+20
1.991191146e+20
1.998689225e+20
2.000286038e+20
1.992822673e+20
1.994593052e+20
2.007853543e+20
2.00698571e+20
2.001431578e+20
2.001049731e+20
2.005493037e+20
2.001153871e+20
2.002681257e+20
2.007436983e+20
2.013199395e+20
2.009242076e+20
2.02680702e+20
2.030278352e+20
1.556059593e+20
1.995842732e+20
1.997474258e+20
1.995634452e+20
1.989698473e+20
1.986157714e+20
1.982512814e+20
1.986400707e+20
1.984526187e+20
1.9887265e+20
1.999244638e+20
1.995946872e+20
2.004972337e+20
2.005874883e+20
2.000841451e+20
1.986782554e+20
1.9897679e+20
2.007436983e+20
2.02191244e+20
2.038088851e+20
1.55362966e+20
2.00573603e+20
2.019204801e+20
2.017295568e+20
2.022606707e+20
2.023509254e+20
2.027084726e+20
2.028820393e+20
2.025696193e+20
2.016045888e+20
2.007332843e+20
1.997335405e+20
1.988171087e+20
2.005458324e+20
2.010040483e+20
2.02711944e+20
2.032152872e+20
2.022571994e+20
2.017260855e+20
2.024238233e+20
1.5547752e+20
1.997196552e+20
2.003410237e+20
1.999452918e+20
1.993169806e+20
1.9902886e+20
1.999765338e+20
1.992371399e+20
1.988865353e+20
1.990010893e+20
2.003167244e+20
2.010908316e+20
2.013650669e+20
2.013234109e+20
2.002091131e+20
2.00396565e+20
2.014796208e+20
2.019933781e+20
2.027050013e+20
2.029445232e+20
1.559461499e+20
1.999869478e+20
2.016080602e+20
2.018579961e+20
2.022571994e+20
2.02399524e+20
2.015143342e+20
2.019656074e+20
2.025106067e+20
2.019656074e+20
2.012643982e+20
2.019482508e+20
2.016809581e+20
2.018128688e+20
2.016358308e+20
2.010630609e+20
2.000286038e+20
1.990149746e+20
1.997960245e+20
2.009380929e+20
1.543007382e+20
1.993725219e+20
2.000459604e+20
1.995565025e+20
2.002021704e+20
2.009554496e+20
2.014414362e+20
2.011602582e+20
2.014067229e+20
2.017816268e+20
2.018406394e+20
2.013268822e+20
2.021183461e+20
2.00719399e+20
2.002091131e+20
1.997196552e+20
1.999209925e+20
1.999661198e+20
1.997092412e+20
1.993308659e+20
1.557448126e+20
1.998307378e+20
2.006395583e+20
2.002924251e+20
1.98643542e+20
1.986990834e+20
1.992058979e+20
1.992371399e+20
1.994107066e+20
1.988691787e+20
1.98851822e+20
1.981818548e+20
1.961407112e+20
1.972376523e+20
1.980117595e+20
1.99091344e+20
1.997127125e+20
1.993690506e+20
2.000841451e+20
1.990531593e+20
1.549984761e+20
1.974806456e+20
1.981992115e+20
1.986921407e+20
1.994836045e+20
1.999834765e+20
1.984665041e+20
1.984803894e+20
1.979423328e+20
1.977236389e+20
1.981575555e+20
1.98862236e+20
1.997022985e+20
2.006430297e+20
1.992996239e+20
1.997057698e+20
1.998828078e+20
2.007749403e+20
2.000598458e+20
2.003618517e+20
1.545159608e+20
1.993343372e+20
2.001952278e+20
2.003444951e+20
1.994488912e+20
1.984179054e+20
1.991468853e+20
1.992024266e+20
1.995252605e+20
1.999695911e+20
2.00469463e+20
2.000355464e+20
2.001466291e+20
1.997508972e+20
2.00542361e+20
2.000424891e+20
2.005909597e+20
1.999279351e+20
2.000598458e+20
1.999661198e+20
1.553039534e+20
2.001258011e+20
2.003306097e+20
1.990948153e+20
1.997786678e+20
2.007020423e+20
2.002646544e+20
2.00865195e+20
1.998550371e+20
1.996779992e+20
1.994245919e+20
1.996016299e+20
1.987442107e+20
1.992614393e+20
1.989698473e+20
1.987025547e+20
1.996155152e+20
1.998168525e+20
1.995842732e+20
1.994627766e+20
1.548735081e+20
1.995322032e+20
2.023648107e+20
2.021461167e+20
2.016809581e+20
2.013442389e+20
2.009311503e+20
2.00427807e+20
2.004764057e+20
2.00490291e+20
2.006117877e+20
2.015664042e+20
2.014761495e+20
2.009137936e+20
2.009207363e+20
2.005250044e+20
2.00886023e+20
2.010977743e+20
2.014240795e+20
2.012852262e+20
1.547728395e+20
1.981575555e+20
1.978277789e+20
1.980534155e+20
1.984213767e+20
1.9882058e+20
1.987303254e+20
1.974980022e+20
1.983727781e+20
1.991954839e+20
1.994766619e+20
1.989837326e+20
1.990219173e+20
2.002021704e+20
2.00667329e+20
2.009485069e+20
2.00646501e+20
2.010214049e+20
2.010075196e+20
2.00823539e+20
1.548561514e+20
1.994211206e+20
2.002403551e+20
1.989941466e+20
1.995738592e+20
1.992128406e+20
2.003028391e+20
2.011463729e+20
2.018475821e+20
2.011290162e+20
2.007263417e+20
2.003201957e+20
2.003479664e+20
2.003097817e+20
1.997196552e+20
2.000216611e+20
1.994280632e+20
1.991364713e+20
2.000077758e+20
1.999140498e+20
4.8486039e+20
5.563364254e+20
5.858969122e+20
6.043891864e+20
6.068060115e+20
6.165102879e+20
6.219284061e+20
6.288766804e+20
6.106133215e+20
6.124878208e+20
3.307475106e+20
3.962672441e+20
4.444803401e+20
4.78709354e+20
5.056364586e+20
5.237506113e+20
5.307312744e+20
5.427474328e+20
5.477736255e+20
5.443952634e+20
2.750614783e+20
3.19977013e+20
3.573770553e+20
3.93929348e+20
4.231407251e+20
4.522241643e+20
4.736431626e+20
4.940450053e+20
5.028133763e+20
5.105995297e+20
2.48049311e+20
2.733540362e+20
3.023150085e+20
3.358764895e+20
3.633264826e+20
3.92762463e+20
4.194101835e+20
4.413364812e+20
4.598466928e+20
4.760799994e+20
2.31512458e+20
2.497303713e+20
2.696027134e+20
2.92714725e+20
3.19417579e+20
3.415242655e+20
3.672186598e+20
3.88525518e+20
4.140720668e+20
4.389882077e+20
2.20458859e+20
2.32167834e+20
2.450843854e+20
2.631210326e+20
2.821164991e+20
3.058566219e+20
3.317510899e+20
3.543913793e+20
3.76647569e+20
3.97553636e+20
2.154702824e+20
2.244125374e+20
2.325214798e+20
2.470456228e+20
2.611075572e+20
2.775865256e+20
2.965450598e+20
3.171511446e+20
3.401295732e+20
3.606288736e+20
2.101194068e+20
2.163801408e+20
2.232891391e+20
2.325172928e+20
2.428026296e+20
2.543911959e+20
2.700896821e+20
2.8733042e+20
3.064858493e+20
3.255043236e+20
2.084646764e+20
2.118553408e+20
2.162924799e+20
2.231779064e+20
2.313132528e+20
2.402886087e+20
2.504706382e+20
2.62547499e+20
2.774888654e+20
2.957061742e+20
2.066183458e+20
2.100594514e+20
2.141945419e+20
2.17608417e+20
2.228394788e+20
2.289776848e+20
2.385778873e+20
2.469987222e+20
2.563408553e+20
2.683949157e+20
2.050507064e+20
2.063940125e+20
2.102247059e+20
2.143719959e+20
2.185560327e+20
2.226549646e+20
2.275896244e+20
2.357340905e+20
2.417483968e+20
2.524268491e+20
2.03005808e+20
2.038545126e+20
2.044818652e+20
2.070953831e+20
2.092764266e+20
2.137642032e+20
2.18039826e+20
2.251975092e+20
2.330924168e+20
2.394987293e+20
2.031486373e+20
2.043350537e+20
2.049939888e+20
2.062418217e+20
2.080372348e+20
2.113079721e+20
2.159039245e+20
2.180048247e+20
2.213373787e+20
2.290946161e+20
2.018701397e+20
2.024549801e+20
2.03478809e+20
2.043782115e+20
2.055230392e+20
2.061286075e+20
2.067827576e+20
2.110828767e+20
2.156920134e+20
2.206057795e+20
1.994977806e+20
1.998312994e+20
2.00759261e+20
2.015756856e+20
2.018412826e+20
2.049636126e+20
2.064267756e+20
2.079584887e+20
2.107762726e+20
2.135571157e+20
2.008912364e+20
2.013676268e+20
2.012290027e+20
2.01500999e+20
2.036964861e+20
2.038959999e+20
2.04904765e+20
2.064401934e+20
2.090553928e+20
2.107584355e+20
1.998391763e+20
2.006801365e+20
2.007098132e+20
2.015116671e+20
2.01028286e+20
2.024496717e+20
2.043780549e+20
2.05591416e+20
2.05676282e+20
2.089953412e+20
2.010828368e+20
1.994314334e+20
2.002188843e+20
2.002953418e+20
2.020704943e+20
2.026985409e+20
2.030957868e+20
2.036377565e+20
2.044934085e+20
2.054394584e+20
2.005115207e+20
2.019709335e+20
2.025322659e+20
2.034215126e+20
2.025074358e+20
2.014325542e+20
2.014757005e+20
2.022401959e+20
2.030120514e+20
2.049160992e+20
2.007275052e+20
2.008800709e+20
2.008934725e+20
1.997298573e+20
2.007525123e+20
2.017715948e+20
2.031030532e+20
2.035828785e+20
2.024998428e+20
2.027335726e+20
2.004209446e+20
2.008029024e+20
2.009323232e+20
2.009390709e+20
2.003585498e+20
2.003180531e+20
2.000771944e+20
2.010584903e+20
2.0329948e+20
2.038879354e+20
2.001527041e+20
1.988105874e+20
1.99226424e+20
1.998472234e+20
)
;

boundaryField
{
    flow
    {
        type            calculated;
        value           nonuniform List<scalar> 
42
(
1.525928425e+20
1.542903242e+20
1.554011507e+20
1.556059593e+20
1.552831254e+20
1.542278402e+20
1.55206756e+20
1.548457374e+20
1.557135706e+20
1.546652281e+20
1.556059593e+20
1.55362966e+20
1.5547752e+20
1.559461499e+20
1.543007382e+20
1.557448126e+20
1.549984761e+20
1.545159608e+20
1.553039534e+20
1.548735081e+20
1.547728395e+20
1.548561514e+20
1.525928425e+20
1.964774304e+20
1.976680976e+20
1.976854542e+20
1.980777148e+20
1.980673008e+20
1.976923969e+20
1.981158995e+20
1.974251043e+20
1.966822391e+20
1.974563463e+20
1.97296665e+20
1.969148184e+20
1.973174929e+20
1.980256448e+20
1.991885413e+20
1.990253886e+20
2.0259739e+20
2.145596024e+20
2.717636939e+20
)
;
    }
    obstacle
    {
        type            calculated;
        value           nonuniform List<scalar> 10(278.816409 286.7534654 298.1277459 291.0849006 294.5191722 285.575288 284.1230149 289.1099072 280.5695235 271.085636);
    }
    frontAndBack
    {
        type            empty;
    }
    procBoundary0to1
    {
        type            processor;
        value           nonuniform List<scalar> 
21
(
6.112490529e+20
5.51720694e+20
5.160283554e+20
4.824896717e+20
4.531723006e+20
4.213161602e+20
3.813389461e+20
3.446707331e+20
3.143737485e+20
2.83504699e+20
2.646190924e+20
2.484928566e+20
2.350699036e+20
2.238379967e+20
2.190072313e+20
2.133800593e+20
2.112899674e+20
2.07378992e+20
2.059507002e+20
2.036998306e+20
2.026865675e+20
)
;
    }
    procBoundary0to2
    {
        type            processor;
        value           nonuniform List<scalar> 
31
(
1.545020755e+20
1.995113752e+20
2.00917265e+20
2.00459049e+20
2.000876164e+20
2.001674571e+20
2.001848138e+20
1.999244638e+20
1.990566306e+20
2.003063104e+20
2.004000364e+20
2.013234109e+20
2.010144623e+20
1.996641138e+20
1.998342092e+20
1.996571712e+20
1.996849418e+20
2.000181898e+20
1.98841408e+20
1.983866634e+20
2.005304607e+20
2.010105586e+20
2.012323227e+20
2.008060499e+20
2.010037473e+20
2.021322647e+20
1.985397775e+20
1.992069472e+20
1.993182529e+20
2.005304607e+20
1.983677152e+20
)
;
    }
}


// ************************************************************************* //
