/*--------------------------------*- C++ -*----------------------------------*\
| =========                 |                                                 |
| \\      /  F ield         | OpenFOAM: The Open Source CFD Toolbox           |
|  \\    /   O peration     | Version:  2406                                  |
|   \\  /    A nd           | Website:  www.openfoam.com                      |
|    \\/     M anipulation  |                                                 |
\*---------------------------------------------------------------------------*/
FoamFile
{
    version     2.0;
    format      ascii;
    arch        "LSB;label=32;scalar=64";
    class       volScalarField;
    location    "0.012";
    object      internalE;
}
// * * * * * * * * * * * * * * * * * * * * * * * * * * * * * * * * * * * * * //

dimensions      [1 -1 -2 0 0 0 0];

internalField   nonuniform List<scalar> 
654
(
0.1411689224
0.2830772904
0.5727317406
0.8723716511
0.3993229
0.5495324152
0.4042524092
0.1535726405
0.9192421482
0.128015636
0.3218156309
0.2890775053
0.2355394447
0.4123592877
0.1392944098
0.396014512
0.2093357228
0.2562298662
0.2311450258
0.4892967091
0.2657250666
0.2145696416
0.7913561776
0.2383386337
0.1669086944
0.1914646304
0.6305503082
0.4195470488
0.08347851006
0.1814729123
0.4432527614
0.5576817964
0.4925051223
0.5411700772
0.5016701461
0.6254034779
0.6439961256
0.4522611212
0.2666307488
0.9668044079
0.1535826794
0.579845593
0.4867449819
0.5456165929
0.3025317377
0.1974588424
0.3827219691
0.6228189339
0.1961980126
0.8502524143
0.1921513867
0.4472877414
0.4491059336
0.3448212405
0.4078116771
0.5327657792
0.3261026006
0.2010082892
0.9208752194
0.5391647553
0.5434892438
0.2521043918
0.6496448355
0.4382456814
0.2817268448
0.4193820502
0.2881604274
0.7079072465
0.4821838079
0.3470228858
0.4018071157
0.2978585611
0.3174329176
0.5212070393
0.08987290899
0.6338742887
0.2339878853
0.4831925315
0.2840655961
0.3085519612
0.2125489539
0.5284558869
0.1684231232
0.3900674164
0.1827976736
0.2287650406
0.5691962521
0.3537562445
0.4916149958
0.7013052054
0.4582347818
0.3827306129
0.1033165616
0.5696719369
0.2309019405
0.2130882085
0.3643505952
0.30523086
0.6886769821
0.3043356949
0.09000824734
0.3795593433
0.4807832299
0.4834648855
0.357569459
0.514459221
0.1272148425
0.2768304048
0.3608580416
0.2650600044
0.2806739574
0.4932969546
0.2777859033
0.336654841
0.4579460757
0.1667954133
0.2305339612
0.4877291023
0.9907577404
0.1555764314
0.8260014245
0.446738863
0.8033574257
0.3530882935
0.3770062622
0.2334020689
0.3300330055
0.5392293325
0.3039419199
0.2112464069
0.5481285006
0.5869764267
0.3326265366
0.3806993751
0.3313418186
0.2504392455
0.3684288485
0.1161958388
0.3560769922
0.7846046061
0.1750638204
0.3191145663
0.1597517097
0.08812621958
0.3877609495
0.2919719693
0.5364841122
0.4883029393
0.2699468328
0.1071228257
0.627378275
0.5448099183
0.2887395483
0.253583699
0.2311545711
0.2291352797
0.1761144912
0.4920784117
0.1570087611
0.9942691427
0.3184481061
0.4306845061
0.4021577279
0.274835657
0.6128230232
0.6523873995
0.3421312322
0.4410295435
0.5208126142
0.2881847941
0.3677579202
0.6704394229
0.1655346335
0.1294750575
0.1562094949
0.4113550375
0.2138483464
0.3407558023
0.5090357206
0.4413703296
0.1086924914
0.27246796
0.1752167944
0.326004272
0.2351374906
0.1642230793
0.8838365473
0.4199319166
0.2098731845
0.3766479675
0.3583132818
0.3974376639
0.4043715258
0.3983020671
0.3703105482
0.4937667222
0.2930336919
0.1048291281
0.5449938142
0.2055621311
0.2066893475
0.3896781056
0.1399470756
0.5327378705
0.3746879727
0.3159532764
0.2497474523
0.412952989
0.4357170454
0.3260648871
0.3312029254
0.5718927291
0.5989095099
0.5062394847
0.4083668382
0.3542290419
0.3536728184
1.064301844
0.2328865467
0.517477733
0.1553931399
0.7517582757
0.4241063967
0.5910246241
0.4234498256
0.3428398992
0.3742033997
0.4593296343
0.4661585918
0.2219934964
0.4506757592
0.5885140705
0.677177588
0.7927213246
0.203854328
0.4332055007
0.5037845094
0.4195926114
0.3491600866
0.8301168697
0.2676095096
0.9002380018
0.3284064137
0.6051800724
0.8088612503
0.3060492033
0.7738353775
0.325895844
0.7125048317
0.3841993035
0.2168984855
0.2015687112
0.1188553135
0.2732535457
0.1599530998
0.1257863788
0.6387313128
0.4266268754
0.1434146503
0.3534450454
0.3177542453
0.4403603643
0.4893849788
0.1664652325
0.4132308113
0.3694151763
0.4119401191
0.3049785287
0.4718405399
0.3507153868
0.5701216389
0.4703447308
0.7022546289
0.3384607413
0.5139093311
0.537785157
0.5243763358
0.2415416721
0.2245114625
0.3909511166
0.3399922023
0.2698248286
0.1957850393
0.6637331321
0.4244362841
0.4916463136
0.3501448902
0.551655014
0.4212114037
0.3032513277
0.466872257
0.2367121883
0.1796263115
0.4422517192
0.2380619297
0.3629261407
0.6803247737
0.1705282438
0.2738190179
0.5633613106
0.2175043914
0.5568503636
0.2093231741
0.457672655
0.6087532319
0.4105169576
0.2788764523
0.1657990673
0.4522641921
0.2620531129
0.1278358101
0.4602755986
0.6115983863
0.4732304747
0.73404757
0.04667668741
0.3916425768
0.2931682373
0.2528157251
0.9102014617
0.4605324125
0.4229006587
0.435063298
0.4170612306
0.2902210078
0.4883072354
0.4506848941
0.8875827883
0.4523951989
0.6781649794
0.7270092648
0.06945526379
0.6147890959
0.3080955101
0.4892587547
0.4271534467
0.4391350157
0.4365452287
0.4226285648
0.3718359225
0.3456428133
0.5314651726
0.3610921398
0.7243553668
0.5622077493
0.4122757634
0.5945536161
0.1738547933
0.4838004309
0.7273654545
0.4386820154
0.3119282376
0.2376195377
0.3568219103
0.2461240328
0.3081959082
0.813776774
0.730272408
0.230363192
0.1193098244
0.2727348232
0.4160326083
0.4684228256
0.1467147808
0.3891032615
0.3979883533
0.2224718042
0.5402018426
0.3829029288
0.3184405698
0.4454589604
0.3189527856
0.3671169202
0.3082048696
0.3600933848
0.3740747196
0.1265387382
1.032376063
0.2891815974
0.6618140149
0.4847196892
0.5188996877
0.3609749764
0.6077868543
0.291309441
0.5111315849
0.2548981821
0.5090108097
0.6115973196
0.2217396731
0.5891631734
0.3489484885
0.285187382
0.8753033747
0.2867830984
0.4624759638
0.0419539509
0.7521585786
0.3935977433
0.04052397512
0.2796100933
0.2215841934
0.5033795257
0.1897770703
0.1245119465
0.5899929974
0.4888876339
0.5466021505
0.3866957889
0.6382162174
0.2283205558
0.5415451064
0.299141969
0.5984571023
0.4347116318
0.3202669344
0.424238101
0.4686712971
0.7859800523
0.4505011156
0.2557961308
0.3201441977
0.3291007376
0.4163795431
0.8121399683
0.375020286
0.3207500443
0.6321208354
0.1795527594
0.5035803857
0.4760023417
0.1814546794
0.1517686294
0.2758478492
0.9220725181
0.3228951104
0.9104564639
0.5157397602
0.2111567487
0.2039039565
1.825570878
1.268905732
2.475450479
2.984525625
3.563447117
3.214748519
4.063882954
4.229031966
3.253901511
3.162251181
0.5669289572
1.03482627
0.679458359
1.995229483
2.340481027
3.470986504
3.85840349
4.276290939
3.020650102
2.133939767
0.3275902429
1.791250089
1.530067329
0.2962876909
1.226781817
1.735610879
3.401639963
1.215453635
1.740802162
2.663295001
0.5192067537
0.6287350215
1.418025719
1.454707534
1.234776167
0.731497511
2.99240283
2.746817946
1.766865301
3.535443807
1.362737968
0.2112566279
0.590878975
0.959974256
0.7841023954
0.878229532
1.888129033
2.06177166
1.534504431
2.964174479
0.4927167922
0.3730827334
0.7335389576
1.211636012
0.7911764482
0.8373049401
1.237386515
0.8752331188
2.333977957
2.363373285
0.3234616654
0.2223971164
0.359504456
0.3174371277
0.6413321502
0.9964632581
2.032591783
1.582448487
0.4527712969
1.493122451
0.2080958938
0.3323235474
0.4791004377
0.3103037958
0.8177867691
0.5544054564
0.3977492561
1.142847483
0.2579224634
2.118039031
0.3373492014
0.6274826605
0.4393672277
0.3281114639
1.197032885
0.8907166976
0.4145497927
0.8825111968
0.2846426777
0.6527583217
0.4464949428
0.2483376441
0.3313923853
0.4997333892
0.4529034498
0.513153648
0.6670254072
0.295773591
0.3151779875
0.7488105517
0.3378920321
0.3739983443
0.2422402212
0.2407019417
0.4793375948
0.4111141043
0.3510758348
0.6748586723
0.3101693436
0.6070412004
0.5013398378
0.5074015355
0.1006084685
0.7391019711
0.7186068399
0.4987417528
0.4073431818
1.01797359
0.7238038834
1.103785054
0.4278391101
0.3168405572
0.4251001641
0.2480113915
0.3984081216
0.5690635099
0.9128458782
0.3849769705
0.7057085186
0.4155679952
0.1379746809
0.6438299017
0.508854566
0.1715174573
0.4165718348
0.5932868433
0.3883033987
0.277667028
0.6294544283
0.5105551916
0.3755557903
0.7187730593
0.1274098764
0.2026083844
0.4363280619
0.6874787119
0.6825918766
0.7111576429
0.4613444833
0.6838487127
0.5210940579
0.4023779731
0.4987079179
0.6564470772
0.2467223805
0.6736939244
0.2688299952
0.4001979087
0.234432264
0.3019791252
0.3230359821
0.2639584157
0.3462741586
0.3716841834
0.5059483237
0.09193865552
0.4554375514
0.6974491747
0.232572327
0.7006650185
0.5624657464
0.7847135987
0.484764021
0.5536868407
0.5331370476
0.3211957138
0.3914317071
0.2795803833
0.6055338262
0.3856004399
0.3683211172
0.6674245833
0.1872776851
0.424317713
0.1935073306
0.1887994993
0.1812953164
0.5223904287
0.2599319658
0.1997931093
0.237191813
0.2226990058
0.3019690018
0.6288162156
0.3851155819
0.4771192634
0.5285839073
0.6454961051
0.3275370224
0.2507585216
0.614376381
0.6700164912
0.203795652
0.9166643821
0.4891068156
0.4512172397
0.1691863535
0.5219026427
0.4947129289
0.6086328602
1.080458309
0.3348354372
0.407076825
0.2881900357
)
;

boundaryField
{
    flow
    {
        type            zeroGradient;
    }
    obstacle
    {
        type            calculated;
        value           nonuniform List<scalar> 10(1.312294818e-19 5.061798437e-19 2.60466253e-18 1.834447084e-19 2.891524664e-18 1.736767788e-18 3.921532577e-19 1.728115345e-18 0 7.199944025e-19);
    }
    frontAndBack
    {
        type            empty;
    }
    procBoundary0to1
    {
        type            processor;
        value           nonuniform List<scalar> 
21
(
2.031718448
2.050864404
2.898371201
3.017819772
2.541449472
2.509791128
1.53473712
1.057545827
0.8134171185
0.3810474961
0.5555032496
0.3566265714
0.5646428261
0.5667666268
0.1103350167
0.747122568
0.4270598103
0.2961387305
0.4190090383
0.3635520146
0.4819268085
)
;
    }
    procBoundary0to2
    {
        type            processor;
        value           nonuniform List<scalar> 
31
(
0.2305505041
0.5163886089
0.4040182153
0.4149722114
0.4560609598
0.4736293485
0.2897870815
0.1812252402
0.2584078379
0.756781972
0.6299119639
0.342883764
0.8028148438
0.6821948754
0.5668302015
0.7613191734
0.7868515169
0.3433004913
0.3867664279
0.7080898484
0.4041910835
0.1321098791
0.4072943368
0.4228842908
0.5036332366
0.7106166714
0.9000033884
0.2576474963
0.2551251525
0.4041910835
0.5624033224
)
;
    }
}


// ************************************************************************* //
