/*--------------------------------*- C++ -*----------------------------------*\
| =========                 |                                                 |
| \\      /  F ield         | OpenFOAM: The Open Source CFD Toolbox           |
|  \\    /   O peration     | Version:  2406                                  |
|   \\  /    A nd           | Website:  www.openfoam.com                      |
|    \\/     M anipulation  |                                                 |
\*---------------------------------------------------------------------------*/
FoamFile
{
    version     2.0;
    format      ascii;
    arch        "LSB;label=32;scalar=64";
    class       volScalarField;
    location    "0.012";
    object      internalT;
}
// * * * * * * * * * * * * * * * * * * * * * * * * * * * * * * * * * * * * * //

dimensions      [1 2 -2 0 0 0 0];

internalField   nonuniform List<scalar> 
654
(
299.4495087
301.7543151
301.3066928
299.4621346
298.9852279
298.3257127
298.3683579
298.3919976
298.4807806
299.4099707
299.504168
301.0832854
300.5292746
300.7911088
301.0313844
302.1286847
303.6875682
309.3754722
339.8053584
428.0053921
301.1767823
299.6363538
301.28304
300.8638191
302.4435457
301.4856649
301.7686336
301.0846553
302.6686441
302.9837993
301.7322972
299.135268
300.3593057
300.6118351
300.9686884
304.6204721
310.5565216
324.5409665
354.8527937
423.1427031
298.4236104
298.5021309
298.301587
297.7052888
298.7660801
299.9425957
299.0697996
297.9943616
297.0098588
297.8267948
298.4455376
300.0958238
301.3830169
301.837937
304.350146
305.2821465
311.093744
321.9293216
348.1067993
398.5995618
299.0130345
299.6684967
300.1346058
299.4391537
299.1685645
297.2651052
298.2355673
299.3802848
300.3078709
296.7907142
297.5907553
298.3605298
298.5410619
299.9778467
300.9466989
304.428792
308.2962604
316.5916889
334.8313732
374.2922981
297.76773
299.7283851
298.3713432
300.6220631
300.8484635
299.8067868
299.3840372
300.4575116
301.2983122
301.6520538
302.3502367
301.3823957
301.5845642
302.212878
303.2145674
305.2349075
307.6324568
317.4804358
335.9259908
356.0037501
299.7500669
299.4242633
298.1793256
297.0094503
297.7597405
298.7630804
298.5171035
298.1837926
297.7543298
299.5599936
299.6895662
300.0550765
301.2618745
300.9309293
300.1483085
304.7605434
306.5259261
317.2254585
318.6108328
337.238361
297.9297305
299.5362025
298.9061366
298.3364629
298.5802369
300.6421187
299.3547109
298.5198088
300.0101133
299.5215319
300.1522034
298.947829
301.3259263
301.9728063
304.4856422
306.4626228
308.9132734
309.8598056
313.3726747
325.4818871
299.0077619
299.2771134
300.4270967
301.1393798
299.2162036
299.2759395
299.4940859
299.4166377
300.6031567
300.5724718
299.7902676
300.3641775
300.7108865
300.1386126
299.5075672
301.6504607
305.6342814
312.128722
318.0083591
322.1803404
302.4540678
301.7573488
301.2499676
300.9025412
301.0505292
300.6870677
299.6448241
299.6626163
301.2315052
301.5106849
300.835864
300.0897227
300.8959731
301.0363612
302.560049
302.7403571
304.533365
307.1829375
308.2433943
316.3276462
303.563295
304.7467169
304.5377897
304.4943912
304.1729227
304.6090144
302.9316922
302.2444283
300.318897
301.3762131
301.0648927
300.280507
302.2032328
302.0254498
300.5882216
302.2543552
302.8763237
305.919983
309.5604044
312.8736537
301.0772179
301.17234
301.443548
301.3162991
301.1009758
301.0295022
301.6569184
301.0705703
301.3846804
300.6283745
300.1764851
300.8196225
299.9209255
299.312607
299.2497033
300.0214867
301.8363576
303.3008162
302.9588113
306.1658955
300.4196666
301.8157988
300.4528866
301.9996605
302.2888462
302.5509413
301.2684654
300.7430622
300.4155752
301.0182201
300.7794119
302.7854686
302.4953485
302.4256066
302.1787049
302.0549325
300.7362705
302.4301056
304.9087091
308.8858342
296.8819225
296.7907045
297.3884024
296.8910875
295.5016628
296.3276177
298.885623
302.0189776
301.8509712
301.4700823
298.9350472
298.9523699
299.2434777
299.9088458
300.4655071
299.8973947
301.6472453
302.3880871
301.3333835
303.1701614
297.1076484
296.6853836
296.5982249
298.1741055
299.9844724
299.740209
298.9278764
298.3209142
297.867305
299.06193
300.6370902
300.002182
301.061655
302.3905088
303.4728362
304.7141996
302.9594636
303.216389
304.0487437
304.2191276
300.2948594
301.1251913
301.9671354
301.2488066
299.4633242
299.6274698
297.4152193
299.0466919
297.5886142
299.4413749
300.3678643
300.0133178
298.9792218
298.2915226
298.148155
298.3114174
298.5033467
300.0240139
300.3513924
303.2027355
301.5020316
300.6973425
299.6553567
297.8116442
297.1167981
298.7167595
300.2139725
300.8002065
297.9295576
298.2576503
297.3224031
298.3202413
298.850384
298.6084639
297.695053
299.4197489
300.967585
300.757403
300.9137173
304.1324977
300.122657
300.1865806
300.2772993
300.3154671
302.1218821
300.7114048
300.904307
299.749558
300.8997923
301.0155968
301.5151424
301.5805791
301.7820565
301.2122586
301.5734407
300.7893185
301.7224255
302.9026714
302.8014159
303.6348047
303.2547359
302.3084396
302.6196839
302.7758211
303.3503813
302.7979077
303.5373442
303.1830575
303.9440465
303.4343685
302.2979377
301.4225093
301.8920761
302.7056604
303.1584945
301.258137
301.0534589
301.4369559
303.3996214
302.513465
298.2860273
299.6562424
299.8914932
300.0047094
299.148484
299.4050564
299.2615233
298.5298761
299.4736522
299.8156425
299.6816037
299.6236974
298.8397438
298.102894
298.835523
300.4195312
301.3290794
300.5622659
299.7998559
301.7922018
298.9355545
299.1433996
299.2140213
298.7139397
300.1974328
299.4088058
298.402175
298.926
298.3917439
296.1819519
297.4695694
300.0188021
301.0363889
301.5324925
301.2580943
301.0108969
301.3058575
302.386324
302.5243333
300.5834502
300.4078615
300.8479113
301.205484
299.706404
299.5636964
300.7963987
301.9869526
303.8171164
304.3357885
305.1048735
303.6222344
301.6833082
301.0026353
299.5807012
299.6314186
300.110999
300.650189
300.4370224
300.9419094
301.5004554
299.8949516
299.8501239
299.1998021
300.1013729
300.661523
300.8557309
301.1235386
301.7334372
302.0409147
301.7943151
302.9344972
302.360663
301.6359731
302.0059781
301.7411339
301.359499
301.1877552
300.9469161
300.6105449
299.5696053
547.5101653
604.067744
628.994499
657.1794457
670.8882125
681.276606
696.4271368
702.5804568
700.1912698
703.6169897
510.5888449
569.2699544
620.2049407
652.4447771
683.4718053
702.9908234
726.3923186
743.2365525
748.814569
754.3536941
458.5693042
517.3298117
561.8323307
602.1574938
636.4584925
666.024517
696.0930111
718.9425194
737.9566064
751.397476
412.3069943
456.924635
505.0906808
541.3382477
583.5631547
621.0642179
641.140832
667.3392517
692.0524689
716.8240273
387.8281675
415.9455016
454.6858067
492.7785963
529.0371166
568.5233424
601.0544798
619.3643698
647.3918913
673.9837733
363.5901719
383.2976225
412.4425289
449.0572572
478.3545067
511.6496969
554.7146164
575.4572313
603.5918871
629.776412
343.1953309
368.9027635
380.1871343
409.2677266
434.8287994
456.8574771
490.6906391
519.7173407
544.7322088
571.2491052
331.1778723
346.693972
358.3351174
377.4912718
401.5279705
422.9124429
447.0003733
479.907458
498.1211478
519.8129926
326.393088
335.3911218
342.3710121
357.6461906
379.9072642
395.6438891
411.2280225
435.807513
456.0900798
478.3930823
316.8239089
324.6217003
332.0373225
343.0645771
355.2918304
369.9587218
385.7727593
404.7136082
420.630703
442.5748586
311.8471806
320.078854
322.7964056
331.4436569
340.999799
354.7045897
366.1420581
379.0315114
395.9143296
414.8682773
309.8979618
312.1353312
316.4024098
319.5305568
326.3702546
332.671853
344.7740473
355.5766407
368.1766463
385.8822148
304.3035841
307.3152412
309.7622943
317.7626117
320.5703591
325.9160901
334.3027053
340.550176
350.5149086
359.5325659
306.3634728
307.206287
309.299752
311.8870503
316.3454752
318.3036453
323.1942948
332.6163853
338.4707528
345.1672192
304.9076359
306.793915
308.5000002
310.8566704
315.4186911
316.2629656
320.0343215
325.3074272
333.0893994
339.593782
303.9864619
305.7998251
305.2319215
307.2647061
310.2067533
317.327595
318.7634084
318.3205792
322.6393609
327.7458049
304.4022026
304.4657717
307.3392973
306.884675
306.2861895
310.0583108
311.3949556
314.5002668
316.2540176
319.2152236
304.8113603
304.8730655
305.2128724
303.5727566
304.0108322
305.8641585
308.6514453
312.3326116
316.6723564
319.4448166
301.1111477
302.0216853
303.1700058
303.4484191
304.3288245
304.56731
304.4388536
308.2170129
309.5090187
313.5062052
301.2419947
299.6377223
301.8309357
302.9760392
303.3331055
304.8616904
306.4803531
307.8751443
309.5326578
311.9221836
302.2820722
302.496208
302.1664908
301.7999018
302.2769884
301.6597532
304.0186932
304.0695039
305.1486959
306.6284961
301.0485368
298.7960359
299.4965633
300.9310835
)
;

boundaryField
{
    flow
    {
        type            calculated;
        value           nonuniform List<scalar> 
42
(
299.4495087
301.1767823
298.4236104
299.0130345
297.76773
299.7500669
297.9297305
299.0077619
302.4540678
303.563295
301.0772179
300.4196666
296.8819225
297.1076484
300.2948594
301.5020316
300.122657
303.2547359
298.2860273
298.9355545
300.4078615
299.8949516
299.4495087
301.7543151
301.3066928
299.4621346
298.9852279
298.3257127
298.3683579
298.3919976
298.4807806
299.4099707
299.504168
301.0832854
300.5292746
300.7911088
301.0313844
302.1286847
303.6875682
309.3754722
339.8053584
428.0053921
)
;
    }
    obstacle
    {
        type            calculated;
        value           nonuniform List<scalar> 10(533.2753596 575.5239603 579.6272962 584.5258911 600.4066569 616.4425453 622.0246678 627.1027709 628.0101938 618.0648629);
    }
    frontAndBack
    {
        type            empty;
    }
    procBoundary0to1
    {
        type            processor;
        value           nonuniform List<scalar> 
21
(
705.8536909
755.4478966
768.6711014
731.8261035
688.4580393
650.2926193
601.8901121
552.9720542
504.0019582
460.7745238
433.9124266
407.2752345
374.3256822
357.1881933
341.9933244
334.4369835
325.0690989
322.3242011
313.8462853
313.6421457
307.0334199
)
;
    }
    procBoundary0to2
    {
        type            processor;
        value           nonuniform List<scalar> 
31
(
300.5559892
302.8562538
302.4529723
301.3381413
299.7895037
297.89103
296.3152269
296.4371117
296.7769395
297.7332395
297.3870349
299.5366539
299.9603258
299.7036571
300.4306819
299.3590495
297.794957
297.2927178
297.2068777
298.1122779
302.0939246
303.24247
304.0932809
303.4849572
304.6918967
303.7800595
296.9928594
298.1696121
300.453818
302.0939246
301.5133489
)
;
    }
}


// ************************************************************************* //
