/*--------------------------------*- C++ -*----------------------------------*\
| =========                 |                                                 |
| \\      /  F ield         | OpenFOAM: The Open Source CFD Toolbox           |
|  \\    /   O peration     | Version:  2406                                  |
|   \\  /    A nd           | Website:  www.openfoam.com                      |
|    \\/     M anipulation  |                                                 |
\*---------------------------------------------------------------------------*/
FoamFile
{
    version     2.0;
    format      ascii;
    arch        "LSB;label=32;scalar=64";
    class       volScalarField;
    location    "0.012";
    object      internalEMean;
}
// * * * * * * * * * * * * * * * * * * * * * * * * * * * * * * * * * * * * * //

dimensions      [1 -1 -2 0 0 0 0];

internalField   nonuniform List<scalar> 
654
(
0.315436082
0.4092792816
0.411148739
0.4086676237
0.4088264164
0.4079031618
0.4071892769
0.4080939007
0.4067919493
0.4065228898
0.4082512928
0.4100718827
0.4085251365
0.4097171896
0.4115160834
0.4154415336
0.4172430354
0.4326864816
0.5033056206
0.8029606799
0.3207848005
0.4105424907
0.4166251627
0.4143439494
0.4163165861
0.416088975
0.4161107055
0.4148284568
0.4170180981
0.417263546
0.4157207648
0.4134185907
0.4172191791
0.4187657745
0.419652349
0.4288466414
0.441579354
0.4746849141
0.550882688
0.7597677178
0.3201407898
0.4122717467
0.4118803951
0.4097800597
0.4120921762
0.4130608827
0.4129052721
0.4111919769
0.4108299303
0.4111106335
0.4133736296
0.4145951047
0.4148639797
0.4176456525
0.4217562498
0.4227917321
0.4360363938
0.4606972596
0.5204313018
0.6541953943
0.3211958663
0.4125326087
0.4168423256
0.4152091149
0.4126760049
0.4094021158
0.4107100773
0.4117556154
0.4130385764
0.4094742088
0.4098862672
0.4115899932
0.4131482352
0.4121677329
0.4145013603
0.4189690508
0.4274019255
0.4474750699
0.4913889083
0.589608865
0.3191945703
0.4120260851
0.4092954555
0.4126782769
0.4148418769
0.4138653047
0.4124997274
0.4138275904
0.4141914289
0.4139114786
0.414485485
0.4133464688
0.4151414165
0.4166074037
0.4192670849
0.4260982895
0.4309269532
0.4522765349
0.4890428097
0.5366736729
0.3191359044
0.4091684357
0.4121188711
0.4067724591
0.4076929967
0.4082577584
0.4080933168
0.4101671722
0.408641709
0.4134815506
0.413207958
0.4124464148
0.4108349073
0.4106287787
0.4134664507
0.419337985
0.4246024139
0.4444102977
0.4519399458
0.4907351672
0.3192111606
0.4126519617
0.4140474143
0.413043822
0.4160358374
0.4178425672
0.4156874318
0.413004366
0.4169785633
0.4169311197
0.4163273143
0.4162399882
0.420966412
0.4193663674
0.4231406467
0.4255355292
0.4305891428
0.4341138181
0.4449227975
0.470304975
0.3196210092
0.4110041214
0.4141384638
0.4135471819
0.4111212398
0.4117483653
0.412436048
0.4120926163
0.4136824232
0.4121420211
0.4112347026
0.4096394968
0.4118273884
0.4124749326
0.4124402587
0.4173139603
0.4255352216
0.4370607013
0.4494316877
0.4591726633
0.3251168622
0.4171798181
0.4179149434
0.4178007136
0.4149690081
0.4136465838
0.4132539762
0.4141330483
0.4136592582
0.4140281849
0.4162014365
0.4166217834
0.4156500712
0.4153173867
0.4173687522
0.4201566286
0.424695693
0.4300764382
0.4328094804
0.4499217438
0.3241123251
0.4157844094
0.4200385793
0.4185485593
0.4196811115
0.4206185835
0.4167417087
0.4161656271
0.4162634632
0.4175484283
0.4159627727
0.4147998819
0.4183828422
0.4172320144
0.4155634986
0.4188592298
0.4209259668
0.4243202051
0.4331231596
0.4385086649
0.3234131848
0.414949267
0.4156624428
0.4151042874
0.4135738122
0.4127398418
0.4128410699
0.4128466528
0.41288738
0.4127229613
0.4142821386
0.4144849259
0.4151153129
0.4144598367
0.4133329294
0.4114871695
0.4145983536
0.4203093987
0.4228628516
0.4307581736
0.3222029149
0.4178970902
0.4188035484
0.4205615752
0.4220726077
0.4226270641
0.4215792027
0.4212043237
0.420097753
0.4189351477
0.4167936539
0.4174838025
0.4151700881
0.4186834586
0.4192974888
0.4226869816
0.4218866535
0.4222625946
0.4246053792
0.4316315846
0.3186434238
0.4091897099
0.4112894012
0.4097905547
0.4065910645
0.4071381384
0.4126080179
0.4153920049
0.4144303584
0.4141458127
0.4133782727
0.4149997855
0.4159703979
0.416809066
0.4152714423
0.4148743334
0.4195503523
0.4216532106
0.4216628247
0.4247343566
0.3198468594
0.4095919427
0.412790829
0.4154985229
0.4188479233
0.4188013705
0.415839713
0.4159247104
0.4164129358
0.4169578488
0.4176986965
0.4182328206
0.4191543158
0.4212797784
0.4224167532
0.4229398278
0.4183408055
0.4165738735
0.4193567687
0.4219902282
0.3198670486
0.41444413
0.4170067326
0.4149968693
0.4138719795
0.4156569213
0.4135857808
0.4152740454
0.4137555913
0.4171065683
0.4185194843
0.4169614491
0.417157777
0.4133175634
0.412068645
0.4112863392
0.4119658393
0.4141579841
0.4140772903
0.4172163027
0.3241585156
0.4148064333
0.4150421559
0.411774834
0.407432115
0.4097406524
0.4128446826
0.4137157269
0.4101244544
0.4094611235
0.4081415509
0.4081315907
0.4046459196
0.406579558
0.4069267147
0.4115157121
0.414934012
0.4139307291
0.415631317
0.4179126384
0.3211292112
0.4092318375
0.4108450181
0.4119191575
0.4160475703
0.4151429
0.4122581267
0.4107047789
0.4111631398
0.4108669374
0.4124519539
0.4140085314
0.4160352016
0.4172057844
0.4149093021
0.4146738261
0.4163289712
0.4198229834
0.4181878713
0.4199718586
0.3234703961
0.4159929684
0.418219709
0.4187474794
0.4176666252
0.4147508953
0.4172912227
0.4169204083
0.4186442486
0.4188729639
0.418347341
0.4162329523
0.4171128752
0.4174100316
0.4196908171
0.4160204098
0.4168776183
0.4160289738
0.4190140308
0.4175944626
0.3197930512
0.4139806235
0.4147296269
0.4123268577
0.412562282
0.4148246199
0.4137221656
0.41394829
0.4131686102
0.4132740209
0.4125650151
0.4128514781
0.4100024422
0.4100558921
0.4104621254
0.4120834914
0.4152302074
0.4145912876
0.4130582857
0.4155501806
0.3196011322
0.4120463054
0.4179944713
0.4168449018
0.4179510989
0.4161571667
0.4139070811
0.4135949878
0.4129558964
0.4099260698
0.4119576711
0.4174651462
0.41869352
0.4182129467
0.4178468062
0.4166816295
0.4178408507
0.4197812253
0.42065427
0.4176673884
0.320966455
0.4115392277
0.4113426591
0.4097622641
0.4103280829
0.4128455144
0.4142914063
0.4142175981
0.416762566
0.4195485596
0.4180991316
0.4144025858
0.4135469339
0.4140341998
0.4150664418
0.4163133117
0.4164344726
0.4169167605
0.4175885462
0.4179806627
0.3205909204
0.4127898277
0.4135866485
0.4122511594
0.4142238587
0.4137416274
0.4163757346
0.4189760977
0.4208651157
0.4190244703
0.4197654628
0.4181225847
0.4171782658
0.4176103937
0.4160149397
0.4161170552
0.4146457179
0.4137083686
0.4150540851
0.4134230303
1.832578111
2.319939948
2.544026659
2.741916713
2.810306174
2.899461898
2.989989617
3.050107579
2.951457731
2.975002783
1.165793174
1.557256093
1.903011354
2.15610186
2.385682178
2.541720551
2.661334872
2.78470016
2.8315811
2.834934055
0.8707397177
1.142720155
1.386075843
1.637502736
1.859124668
2.079206302
2.275999421
2.451965097
2.561481652
2.648522971
0.7060124
0.8622310652
1.054102068
1.255168177
1.463654322
1.683914687
1.856290787
2.033153178
2.196876743
2.355841632
0.6198224692
0.7170697407
0.8462316377
0.9957492955
1.166537107
1.340366201
1.523674437
1.661190228
1.850532817
2.042470988
0.553341563
0.6143159292
0.6978027642
0.8156632319
0.9316053143
1.080299588
1.270385621
1.407828661
1.569394636
1.728366029
0.5104842568
0.5714952518
0.6102588634
0.6979724233
0.7837748865
0.8754527671
1.004504919
1.137855446
1.279030941
1.422131086
0.4803757542
0.5178658718
0.5523451853
0.6059206781
0.6730119741
0.7426875464
0.8334306752
0.9519030281
1.053899041
1.168039403
0.469706998
0.4905062896
0.511201369
0.5510086345
0.6066409388
0.656283139
0.711038514
0.7898710565
0.8736747591
0.9765598955
0.4518980109
0.4707316253
0.4909631589
0.5153534275
0.5465513319
0.5847901268
0.6353533839
0.6900747163
0.7443417866
0.8200014597
0.4414247638
0.4560449798
0.4684530223
0.4904913638
0.5144824007
0.5451961655
0.5752487439
0.616809865
0.6607214786
0.7229352078
0.4342909553
0.4392551492
0.4466302991
0.4568108545
0.4715030246
0.4909131202
0.5189481827
0.5527775632
0.592431284
0.6379866302
0.4267510345
0.4334914913
0.4383522903
0.452410977
0.4603816848
0.4754176329
0.4982577118
0.512508197
0.535568294
0.5685998212
0.426935894
0.4293506899
0.4344625635
0.4400332954
0.4488236591
0.4529324989
0.4613511525
0.4846745831
0.5039747909
0.5256540698
0.4199136291
0.423217732
0.4275474874
0.4325655594
0.4394920504
0.4474852326
0.4560539131
0.4670079062
0.4846588339
0.5006421118
0.4215691635
0.4250896061
0.4240080745
0.427408823
0.4362027378
0.4466528891
0.4508936524
0.4536412884
0.4656207493
0.4768433265
0.4199349517
0.4217901809
0.425833969
0.4269027958
0.4250482047
0.4333253087
0.4393386753
0.4463541711
0.4490284578
0.4605468345
0.423116298
0.4197263841
0.4218533329
0.4197466561
0.4240778247
0.4279892029
0.432735805
0.4390654237
0.4470365873
0.45303662
0.4167923762
0.4210955005
0.4238713424
0.426123377
0.425439358
0.4235128078
0.4234248613
0.4303062815
0.4337592302
0.4434818217
0.4174226426
0.4155152251
0.4185845336
0.4177388598
0.4203726009
0.4246356786
0.4297072616
0.4326826497
0.4326978813
0.4365415013
0.4182241402
0.4193180159
0.4191309272
0.4186364949
0.4180869076
0.4171488623
0.4199054178
0.4220354033
0.4282539602
0.431576355
0.4159600141
0.4100793887
0.4119005619
0.4151631218
)
;

boundaryField
{
    flow
    {
        type            calculated;
        value           nonuniform List<scalar> 
42
(
0.315436082
0.3207848005
0.3201407898
0.3211958663
0.3191945703
0.3191359044
0.3192111606
0.3196210092
0.3251168622
0.3241123251
0.3234131848
0.3222029149
0.3186434238
0.3198468594
0.3198670486
0.3241585156
0.3211292112
0.3234703961
0.3197930512
0.3196011322
0.320966455
0.3205909204
0.315436082
0.4092792816
0.411148739
0.4086676237
0.4088264164
0.4079031618
0.4071892769
0.4080939007
0.4067919493
0.4065228898
0.4082512928
0.4100718827
0.4085251365
0.4097171896
0.4115160834
0.4154415336
0.4172430354
0.4326864816
0.5033056206
0.8029606799
)
;
    }
    obstacle
    {
        type            calculated;
        value           nonuniform List<scalar> 10(1.026416083e-18 1.13926744e-18 1.192902167e-18 1.174564937e-18 1.220710475e-18 1.215253359e-18 1.220021893e-18 1.251570435e-18 1.216356245e-18 1.156629227e-18);
    }
    frontAndBack
    {
        type            empty;
    }
    procBoundary0to1
    {
        type            processor;
        value           nonuniform List<scalar> 
21
(
2.97842378
2.877248628
2.738216114
2.437527472
2.153745751
1.891344078
1.584462526
1.315713083
1.093785342
0.9017835775
0.7926416061
0.6986433227
0.6074356203
0.5519306434
0.5170465984
0.4926309924
0.4741417139
0.4614357894
0.4462044191
0.4410407172
0.4295999473
)
;
    }
    procBoundary0to2
    {
        type            processor;
        value           nonuniform List<scalar> 
31
(
0.3205629353
0.4171169227
0.4194968615
0.4169974243
0.4140857024
0.411627612
0.4094856615
0.4091213225
0.4078123766
0.4116949652
0.4114086592
0.416291799
0.4162408719
0.4130909295
0.4144457793
0.4126015987
0.4105029256
0.4104945215
0.4079616001
0.4082685608
0.4181922156
0.4207871778
0.4224333195
0.4206952069
0.4227841134
0.4238854468
0.4070494198
0.4100355031
0.4134075469
0.4181922156
0.4128869317
)
;
    }
}


// ************************************************************************* //
