/*--------------------------------*- C++ -*----------------------------------*\
| =========                 |                                                 |
| \\      /  F ield         | OpenFOAM: The Open Source CFD Toolbox           |
|  \\    /   O peration     | Version:  2406                                  |
|   \\  /    A nd           | Website:  www.openfoam.com                      |
|    \\/     M anipulation  |                                                 |
\*---------------------------------------------------------------------------*/
FoamFile
{
    version     2.0;
    format      ascii;
    arch        "LSB;label=32;scalar=64";
    class       volScalarField;
    location    "0.012";
    object      linearKEMean;
}
// * * * * * * * * * * * * * * * * * * * * * * * * * * * * * * * * * * * * * //

dimensions      [1 -1 -2 0 0 0 0];

internalField   nonuniform List<scalar> 
654
(
5.800432817
7.797986955
7.775393452
7.785392832
7.788645873
7.786033916
7.774555767
7.787186394
7.754201459
7.704329175
7.73801056
7.722890819
7.710764102
7.728527609
7.744119998
7.78366264
7.736849388
7.756121322
7.860414578
8.329353895
5.880208972
7.889424977
7.86678545
7.82992549
7.82885404
7.845411364
7.833463179
7.824096188
7.847740766
7.861134528
7.874256443
7.890173854
7.930434188
7.930211115
7.931144675
7.986782745
8.011854575
8.096937077
8.206722699
8.474160205
5.920411325
7.957520157
7.86795565
7.833057897
7.846545696
7.837084666
7.868857461
7.879482254
7.884866158
7.858835774
7.87479963
7.84987242
7.821510716
7.849134691
7.855055715
7.83021394
7.872431004
7.939289149
7.999640632
8.224902681
5.91384225
7.897625114
7.881207152
7.878142415
7.861364454
7.859673625
7.859325731
7.83845102
7.837441762
7.854149335
7.833942176
7.846598994
7.875539101
7.805094185
7.808179047
7.781795755
7.785979871
7.853956317
7.978699198
8.21356794
5.89414535
7.901791879
7.821551514
7.831873699
7.85875374
7.845434602
7.834271093
7.838777824
7.827033769
7.825993317
7.819052057
7.803864012
7.82616495
7.828621982
7.853684362
7.906107442
7.883014039
7.941795721
7.973836595
8.057999349
5.877613847
7.880232179
7.872332345
7.791121302
7.791925757
7.769821774
7.768319413
7.821537628
7.788074562
7.839065894
7.831944701
7.825655443
7.766591384
7.781106699
7.841023145
7.806602379
7.822038491
7.844158769
7.854580513
7.942853477
5.907533942
7.928498467
7.876898927
7.871348348
7.920075494
7.895226106
7.902672882
7.859311238
7.903464199
7.9099135
7.871764741
7.879661978
7.906439658
7.858297825
7.856117947
7.825723284
7.843541435
7.854863227
7.92309319
7.972712071
5.896152964
7.910541209
7.845079831
7.811731466
7.816724742
7.84111772
7.843319625
7.824363759
7.811665808
7.787549053
7.781182127
7.755489566
7.779700385
7.804462301
7.806109204
7.850066647
7.900352026
7.896151021
7.92387844
7.939050697
5.905157319
7.936559623
7.885279287
7.88966589
7.826738915
7.82682911
7.832476133
7.868446731
7.82661731
7.826849044
7.878569399
7.904953163
7.854593433
7.842975469
7.844958846
7.866054519
7.879742806
7.891981011
7.881071865
7.956391734
5.882243093
7.842397853
7.831838657
7.811403626
7.836259271
7.827893493
7.804729549
7.801055368
7.862692363
7.858105856
7.831562007
7.828259889
7.858327416
7.838277119
7.850150466
7.880676258
7.884348428
7.876707545
7.911113367
7.894998828
5.894938173
7.89029916
7.822545653
7.813482743
7.791056551
7.78553007
7.768567186
7.798001139
7.785293056
7.790023844
7.8318218
7.823170127
7.84802832
7.84934906
7.837130088
7.771031635
7.786289647
7.850868161
7.897115662
7.949457923
5.905842316
7.954076721
7.917654014
7.899528138
7.922620013
7.93064693
7.930917816
7.925982094
7.909684303
7.880541461
7.849981538
7.821041189
7.799535648
7.873249894
7.887144082
7.939882889
7.953332178
7.891264194
7.857820289
7.881028415
5.893624083
7.897147863
7.835506451
7.835320937
7.804127399
7.799253881
7.841997936
7.819067161
7.814790295
7.823795049
7.861137891
7.880634759
7.890343757
7.869924185
7.831019851
7.836645653
7.892808442
7.931778564
7.956853754
7.950544347
5.899810598
7.915839721
7.90677113
7.899145223
7.926983854
7.93449441
7.907033725
7.931783762
7.949116632
7.917201582
7.890872801
7.915065513
7.906844441
7.92031187
7.918375751
7.885954709
7.839058503
7.783670161
7.800655703
7.845548866
5.882372668
7.926016044
7.856930054
7.841967269
7.863392648
7.878238778
7.893019807
7.864765923
7.877411921
7.895094147
7.9065306
7.887985899
7.919730133
7.868845268
7.848202677
7.826745645
7.83876356
7.833028377
7.828383747
7.815290332
5.901043505
7.906964881
7.848681948
7.824932087
7.758740972
7.777887805
7.80658398
7.818582108
7.828929848
7.809485557
7.809473702
7.802494358
7.729216202
7.764819446
7.781833543
7.834060777
7.842795633
7.839458395
7.859332735
7.814407182
5.884108459
7.851241428
7.792084108
7.811962024
7.845548154
7.86143149
7.793214661
7.797121566
7.767250993
7.76065111
7.774293798
7.798975224
7.826935562
7.869072332
7.820377495
7.822683705
7.828225921
7.869184691
7.839143103
7.850842498
5.899171723
7.940290357
7.883331093
7.880533477
7.852446873
7.819470746
7.837767335
7.843429746
7.850132207
7.858044228
7.849848446
7.838773668
7.820817933
7.816404502
7.864479511
7.849093016
7.877597408
7.849825544
7.856525668
7.861019031
5.899119993
7.926107017
7.856850589
7.791114215
7.828505568
7.846764266
7.83935997
7.865215821
7.827356849
7.831989481
7.820995831
7.827900583
7.799437128
7.817681932
7.798909975
7.787300299
7.827406041
7.826309587
7.826067486
7.813402153
5.903677618
7.931099273
7.958227539
7.94898049
7.942798753
7.918687743
7.898195617
7.869496705
7.879127016
7.87783192
7.888825007
7.928818536
7.927247095
7.894021248
7.886906351
7.886999275
7.885240977
7.911740309
7.899050937
7.895723349
5.896523458
7.882829996
7.779023519
7.785600371
7.796720474
7.818462097
7.831845694
7.774866984
7.8165629
7.850773395
7.870790224
7.852217883
7.848237838
7.895523194
7.898471812
7.910535753
7.88226459
7.884476076
7.883470452
7.873306206
5.88295102
7.927105864
7.869402148
7.83286842
7.849158698
7.828215917
7.858534593
7.902967468
7.917811539
7.885071728
7.855950271
7.830956888
7.823816489
7.840006114
7.817607521
7.846149199
7.827937154
7.823336501
7.865891254
7.861840217
9.741807095
9.874430639
9.647912447
9.220624811
8.786033241
8.477004987
8.157692131
7.787384409
7.410378634
7.195876796
9.142973975
9.800912471
10.26963082
10.4674932
10.4852655
10.36067466
10.00191454
9.737160514
9.393834169
9.060309005
8.691496042
9.345239689
9.855991821
10.37159098
10.66825829
10.96818921
11.06370253
11.05460982
10.8507625
10.49581001
8.477985721
8.810640683
9.272105918
9.842522343
10.28224285
10.70849854
11.08804772
11.33004319
11.53639247
11.56562555
8.245716872
8.577929441
8.95303102
9.344297454
9.906385773
10.27511355
10.70668522
11.04974768
11.44162797
11.76057902
8.127972162
8.343211858
8.61771591
8.971550619
9.346792405
9.824543505
10.34248867
10.79375814
11.2222899
11.62160769
8.094256028
8.279914132
8.43045236
8.728254106
9.017279721
9.429062769
9.838755729
10.28236884
10.77964339
11.21255479
7.988777798
8.108164836
8.29218356
8.452248087
8.715281426
8.954637381
9.341899286
9.741995103
10.19658278
10.56450508
7.990683107
8.064091369
8.154649048
8.304213912
8.503500573
8.739010456
8.974648166
9.258350647
9.630714305
10.03444364
7.992644716
8.07423998
8.178009244
8.227052646
8.33727126
8.496163156
8.755304382
8.953217902
9.200433952
9.493514018
7.9662392
7.978340521
8.087252592
8.191442239
8.289700636
8.370852864
8.483645313
8.666366622
8.828165273
9.114239286
7.894495594
7.926140088
7.924183966
7.989022099
8.040417437
8.148787491
8.239769096
8.420730355
8.653774525
8.831603287
7.928996518
7.945765671
7.943558231
7.976747886
7.998828234
8.099276925
8.239376656
8.307187646
8.393686375
8.598001943
7.876484231
7.88585106
7.907354433
7.941891584
7.971875692
7.976187946
7.987825998
8.131249324
8.260342139
8.395873688
7.806911451
7.805131937
7.869450525
7.884587923
7.889390401
8.005826793
8.026171543
8.065330703
8.149923
8.221896504
7.891989395
7.910805211
7.894533193
7.910471492
7.974495951
7.960150866
7.983731123
8.011623708
8.066588131
8.103014417
7.827944133
7.861469267
7.85534915
7.866308335
7.844363983
7.891805308
7.944462809
7.989355984
7.991271326
8.1296747
7.88890114
7.81593051
7.833799432
7.832079478
7.896499607
7.9126656
7.922202991
7.94316947
7.956149821
7.957690834
7.855638695
7.921979184
7.936550258
7.964763282
7.947774493
7.890307848
7.878246726
7.907216154
7.919107586
7.978251823
7.871210684
7.859347708
7.858433975
7.810460296
7.842013617
7.884968229
7.924572659
7.941435201
7.912696135
7.916947772
7.865321489
7.887477044
7.895233186
7.895014148
7.880252145
7.869079606
7.864668991
7.890020501
7.958765465
7.969891094
7.864800061
7.819634581
7.815490123
7.850127041
)
;

boundaryField
{
    flow
    {
        type            calculated;
        value           nonuniform List<scalar> 
42
(
5.800432817
5.880208972
5.920411325
5.91384225
5.89414535
5.877613847
5.907533942
5.896152964
5.905157319
5.882243093
5.894938173
5.905842316
5.893624083
5.899810598
5.882372668
5.901043505
5.884108459
5.899171723
5.899119993
5.903677618
5.896523458
5.88295102
5.800432817
7.797986955
7.775393452
7.785392832
7.788645873
7.786033916
7.774555767
7.787186394
7.754201459
7.704329175
7.73801056
7.722890819
7.710764102
7.728527609
7.744119998
7.78366264
7.736849388
7.756121322
7.860414578
8.329353895
)
;
    }
    obstacle
    {
        type            calculated;
        value           nonuniform List<scalar> 10(4.111507698e-18 3.63768653e-18 3.405844707e-18 3.160664208e-18 3.00684536e-18 2.837820599e-18 2.745273732e-18 2.65301055e-18 2.536526584e-18 2.45037519e-18);
    }
    frontAndBack
    {
        type            empty;
    }
    procBoundary0to1
    {
        type            processor;
        value           nonuniform List<scalar> 
21
(
6.989065898
8.787884549
10.26413371
11.36446967
11.90371211
12.00758821
11.62698868
11.00912704
10.51700204
9.844974639
9.448475042
9.06762383
8.771778891
8.453851005
8.386352173
8.171946457
8.176340817
8.024642355
7.993984578
7.960161651
7.927212152
)
;
    }
    procBoundary0to2
    {
        type            processor;
        value           nonuniform List<scalar> 
31
(
5.879792473
7.902554112
7.878963384
7.853409471
7.843467758
7.847276386
7.852485279
7.839087919
7.824382549
7.873183367
7.882616644
7.928911198
7.915798447
7.846112265
7.861393778
7.85581724
7.847668352
7.860385321
7.819454046
7.797699676
7.876852139
7.891376363
7.904770412
7.883106591
7.893772194
7.931948889
7.806223373
7.843212125
7.861161154
7.876852139
7.817458887
)
;
    }
}


// ************************************************************************* //
