/*--------------------------------*- C++ -*----------------------------------*\
| =========                 |                                                 |
| \\      /  F ield         | OpenFOAM: The Open Source CFD Toolbox           |
|  \\    /   O peration     | Version:  2406                                  |
|   \\  /    A nd           | Website:  www.openfoam.com                      |
|    \\/     M anipulation  |                                                 |
\*---------------------------------------------------------------------------*/
FoamFile
{
    version     2.0;
    format      ascii;
    arch        "LSB;label=32;scalar=64";
    class       volScalarField;
    location    "0.012";
    object      linearKE;
}
// * * * * * * * * * * * * * * * * * * * * * * * * * * * * * * * * * * * * * //

dimensions      [1 -1 -2 0 0 0 0];

internalField   nonuniform List<scalar> 
654
(
5.812937947
6.142524695
6.774303836
10.46307917
6.99265639
14.12362846
8.653848164
3.833026661
13.82766816
6.264391836
10.09676223
6.541457532
3.699849725
12.10607627
3.338965267
8.990873832
3.153748201
4.293083058
5.555902158
11.47195229
3.850642941
6.405009192
11.92529326
7.182340641
3.702160111
2.784321887
11.05594826
9.16129156
0.4133758334
4.508032797
10.80737988
5.409183854
12.16591373
10.42393025
8.861946371
13.42538056
9.552556296
8.258841027
7.365561499
18.20337857
3.735783435
12.181586
8.085044074
11.05093023
9.568331409
7.033723255
4.20527271
5.859964913
3.082697348
9.580971903
5.613674828
11.37381914
7.659264064
7.073390448
5.98188733
12.612683
7.672802879
7.024516952
12.73678772
6.742450308
7.070881169
8.156575744
11.48124424
8.311245066
7.944740869
8.695207354
4.241354907
11.96158483
8.855394036
6.220379992
11.77623048
7.451950133
7.946353083
9.655187773
5.542339061
9.909294692
7.569618002
9.1141139
3.500998704
4.027762261
4.897157582
10.32213138
3.088763409
7.865968051
3.51313331
4.698538692
9.461958639
8.254561726
11.66283092
8.171036449
7.22281383
10.49503711
3.108831197
10.01249307
5.459122605
6.119631003
11.76753661
7.922908985
11.71013362
4.888651213
3.45580565
7.228702063
10.72106293
5.899111851
6.788092577
8.97586174
6.372900999
6.903684177
8.376264929
6.926604479
5.299325019
10.05258722
5.491417565
7.440982839
6.044924473
3.697013788
4.691163334
9.846534282
11.64084785
8.761684609
7.120754773
8.944875796
12.19675333
6.071682807
8.664297797
8.495650193
6.016164037
8.285860714
9.977739633
5.913613543
13.37326347
10.43671997
6.107243151
6.363477582
7.559460954
9.075165577
4.189372755
3.519388953
8.591409824
15.7190659
5.019976934
5.97793704
5.650539561
3.788116321
11.36910631
7.504577201
7.875630146
7.160553459
7.786000571
3.354638463
10.6498955
8.529965676
8.655910459
4.388834572
5.21278216
5.665670071
6.303683257
11.02227772
4.645700619
6.901289455
3.709503815
12.61794656
5.757155226
5.735908607
8.289550037
5.816056465
4.117255608
9.137152678
9.984396349
7.002335769
8.412542467
10.47424745
5.492486064
3.781375832
6.676338522
11.50483912
6.325693281
6.017988935
8.427908357
7.228475111
6.582696066
7.584011622
6.372542076
7.764585794
6.904038988
5.141640555
11.74454289
10.55509462
6.260407368
6.727324348
8.329517803
8.812333516
11.27148084
4.753507153
7.415451058
10.60574515
7.881351528
3.179436699
7.824017887
4.497029944
8.033139209
8.408283102
4.393390932
13.72159267
7.148380873
7.643045494
7.22900901
9.455484248
6.426938665
3.895277437
9.580787061
7.095886087
11.91927408
12.73860431
5.322692022
8.18876031
9.078280318
10.49999974
8.511662215
8.272852271
6.624359846
8.055921632
8.50812324
9.820810794
8.314433951
5.361019162
11.84988774
10.60444486
10.04476449
8.692222555
6.423086256
8.575211387
5.846400632
14.65126275
6.766221247
10.59071608
9.435270918
8.951107294
6.691919845
15.59113861
8.607969346
9.003408174
7.374959488
8.739016464
8.874617455
7.807933812
11.92671556
5.593169219
10.94986155
10.65242799
5.23773725
4.217330013
5.260203112
9.836076663
7.451478955
5.495270949
11.45239451
8.331923689
4.668952604
5.65416124
5.391854445
6.020426061
9.925818296
2.574008653
8.691994539
7.813551214
9.051239132
7.741623825
9.284891005
6.885947931
7.81796749
8.300007232
10.36995523
5.071988333
8.967978478
7.861313657
10.27367141
4.840519026
9.292904245
13.4558397
7.462893756
9.106937406
3.868636686
13.14029121
9.982038065
6.079055631
7.847470263
7.932209684
8.60635161
4.584447291
8.465621776
3.05957568
7.064371675
9.324893954
8.564300472
6.553772806
9.928203824
4.793905694
6.927278985
9.996930143
4.707199927
6.946240581
5.267815025
5.802580034
8.483393951
4.27492373
5.283192081
3.742536667
5.989587311
7.249603567
3.294722109
8.984080806
8.577028262
9.166953858
9.962027001
2.713722615
6.295428695
5.895339303
7.348795616
14.66601103
5.077373476
4.806945314
12.77204359
8.23756151
6.983338051
8.624495847
8.532166253
15.10676857
9.184941173
10.99650839
7.38490499
3.947845197
10.79213065
11.03230209
9.967012945
6.199660032
7.877113701
6.195732322
7.080226259
6.817225137
6.242731581
6.414186352
8.229659612
12.40742319
9.040183686
8.380034789
5.77982686
6.050479791
9.861262237
8.197236246
8.401643588
5.799109393
8.09525605
9.136522027
3.544876604
4.757607752
9.865411911
14.40732422
6.829317363
3.064261285
5.822710803
6.732395605
8.892822777
6.057234245
4.736436355
8.78538258
8.284567804
13.34915553
7.490167164
8.989200733
11.99222133
7.47400424
7.116929435
4.792248565
9.200990672
6.584380555
4.034273928
10.57799937
9.605072354
10.17631408
7.550026547
11.57648492
7.182287546
10.2164584
5.258108448
10.06511686
6.594013329
6.444836803
8.917945748
7.373897649
11.82790243
10.08831103
7.815619149
9.405440581
4.956265215
8.046562198
2.533222263
10.8714717
5.587627259
1.650812675
5.650871165
6.87658533
12.34385095
7.876824441
1.941526376
7.717826333
8.727650576
6.185598854
6.164047314
3.122506448
6.734944661
4.847342438
9.86846959
8.707443086
10.43442244
8.222412769
8.551449147
9.88040244
14.98929026
6.145513028
6.172745303
6.741677611
3.571429255
9.96280342
12.62952896
6.177797473
4.610622206
8.356853269
6.089060831
7.534708189
10.75324489
6.102466073
3.224285477
4.102289676
10.30690544
4.338234992
12.01163245
5.889236455
7.928246545
4.538312186
15.68619586
8.76217208
8.18184913
6.056570047
9.578225471
11.87260772
9.665115092
9.780269253
8.278878233
5.466891392
9.372122706
10.19854047
8.217304165
12.72577685
8.639580156
8.797468046
12.87327864
14.06114477
7.574093289
6.284535302
7.310640961
9.95680817
10.69391548
7.697240669
5.517793802
8.328992943
16.85629927
9.288439855
8.421664966
11.85867681
10.63085977
12.26702005
9.471421713
14.3223332
12.35624619
10.73801024
11.52549532
13.82562958
14.67319924
14.85712327
7.573840211
3.004604208
10.225733
7.469716042
16.1849182
9.503129085
11.16234647
15.75431038
8.286320049
14.84566095
6.439564818
6.55294886
5.87575669
13.09634991
8.852464458
7.445565631
10.45988217
6.210418111
11.2094627
13.61584902
3.544186526
4.664385006
9.414710748
7.383924294
10.43611758
7.384724102
8.112075617
5.161777921
7.158370834
11.17727331
5.003116438
5.848556141
5.002602818
8.708951102
12.83389978
10.78893203
4.955322047
9.282368435
4.519180824
13.66561637
6.173811694
8.570981241
12.86229408
5.528370481
10.89054831
9.710910612
8.870696333
9.180558413
2.208654783
10.09405144
6.777035294
8.532843555
7.755710188
8.708780096
6.624049411
7.502430803
8.230634618
8.085852291
4.660679787
6.922779616
7.8790716
8.935951292
4.881139101
4.4437417
9.550810496
6.312039459
8.364750548
10.94239063
9.530140805
6.610249031
10.88819413
11.08748604
3.441114337
11.21525497
12.07403569
9.850837259
7.654218957
10.45134944
8.112718694
8.056481955
6.582039004
7.00581525
10.2548688
10.39144768
7.900110965
10.28457414
13.54058113
7.443938071
13.56866739
6.843350642
4.631115721
10.03150557
5.886340878
5.461666195
10.773361
11.13287132
9.985435319
6.542307233
10.19786772
8.518869709
11.80068101
11.57056366
3.128901698
5.906348859
10.50035934
15.52530677
11.38015372
10.99649458
7.794060312
6.106055159
7.484036428
5.477526343
9.71356803
7.469279341
5.195193122
8.501599269
5.096225902
7.579187996
4.074399227
6.059322563
9.816567848
5.966074944
9.405480459
10.74195885
8.929549599
3.743204969
6.709995878
10.09388315
5.682507328
12.49904269
8.249092045
9.607229282
7.002056201
10.88916081
7.422370439
6.888665088
6.686432411
3.460168169
6.905040418
7.160510455
8.265027912
15.88541097
2.308843992
10.54569783
4.369589126
6.241396279
4.197997124
10.36875463
5.286761312
4.564440755
6.307281758
4.508760682
5.123173696
10.66655027
9.127643597
6.03454077
7.340515059
7.893400353
6.60694784
5.48693394
8.509959361
12.51825129
3.935806762
7.416144494
7.902866155
6.038017672
5.34613451
11.24584561
8.51631014
11.32860584
12.96271616
8.106088239
6.379092136
5.993224901
)
;

boundaryField
{
    flow
    {
        type            zeroGradient;
    }
    obstacle
    {
        type            calculated;
        value           nonuniform List<scalar> 10(1.01359379e-18 5.299171865e-18 5.174727445e-18 3.337186559e-18 4.772027839e-18 6.085090519e-18 2.27199452e-18 4.759715592e-18 0 7.347213915e-19);
    }
    frontAndBack
    {
        type            empty;
    }
    procBoundary0to1
    {
        type            processor;
        value           nonuniform List<scalar> 
21
(
5.759261023
8.794295899
14.86880204
13.36292383
12.43176662
12.50658933
7.962689271
9.86673231
8.981523489
7.664432611
9.1090727
6.755793238
10.33669592
7.755215268
5.781570484
8.579172178
5.92847527
6.408506793
12.02203435
6.681344615
6.206276291
)
;
    }
    procBoundary0to2
    {
        type            processor;
        value           nonuniform List<scalar> 
31
(
4.414646029
9.435956629
9.03489542
6.337972646
10.431501
5.515763316
7.169214199
6.326208757
5.445451493
13.90172206
9.883025502
6.63632073
13.0906777
5.751257736
11.81654453
13.87425174
6.478473399
5.452630727
6.290719014
8.890852293
12.06199661
6.593520427
6.804919717
8.316638202
9.577751675
5.971921993
7.344147753
8.562654143
5.287588307
12.06199661
9.226245204
)
;
    }
}


// ************************************************************************* //
