/*--------------------------------*- C++ -*----------------------------------*\
| =========                 |                                                 |
| \\      /  F ield         | OpenFOAM: The Open Source CFD Toolbox           |
|  \\    /   O peration     | Version:  2406                                  |
|   \\  /    A nd           | Website:  www.openfoam.com                      |
|    \\/     M anipulation  |                                                 |
\*---------------------------------------------------------------------------*/
FoamFile
{
    version     2.0;
    format      ascii;
    arch        "LSB;label=32;scalar=64";
    class       volVectorField;
    location    "0.012";
    object      momentumMean;
}
// * * * * * * * * * * * * * * * * * * * * * * * * * * * * * * * * * * * * * //

dimensions      [1 -2 -1 0 0 0 0];

internalField   nonuniform List<vector> 
654
(
(0.006254712022 -3.265727295e-05 -7.277381349e-06)
(0.008226774078 -3.298058396e-05 -1.207356113e-05)
(0.008245969863 -3.953465342e-05 -8.588486867e-06)
(0.008249679737 -4.073160818e-05 -8.131553813e-06)
(0.008257468855 -4.106851725e-05 -8.588826563e-06)
(0.008255913911 -4.26446334e-05 -7.065473277e-06)
(0.008240888153 -3.673914615e-05 2.82922344e-07)
(0.008257442824 -3.691975853e-05 -8.44577641e-06)
(0.008224098524 -2.890745495e-05 -1.555203314e-07)
(0.008182708361 -2.051327893e-05 3.790930496e-06)
(0.008218620202 -2.094050496e-05 2.429596781e-06)
(0.00820582411 -2.022380977e-05 -2.155461573e-06)
(0.008192138539 -2.43553546e-05 -5.137792438e-06)
(0.008200515535 -2.973081943e-05 -8.844864012e-06)
(0.008212444322 -2.76893878e-05 -9.465708909e-06)
(0.008238594844 -4.325822514e-05 -9.424530683e-06)
(0.008170134523 -4.611834068e-05 -8.225465233e-07)
(0.008137460137 -7.287528186e-05 -5.987954469e-06)
(0.008057124256 -0.0001085786823 -6.329415013e-06)
(0.007747027923 7.047364949e-05 1.343090574e-05)
(0.006331790298 -9.968106996e-06 8.078167711e-06)
(0.008314736546 -1.94204797e-05 7.878041931e-06)
(0.008343544157 -1.349666818e-05 9.68357691e-06)
(0.00830578157 -1.645266263e-05 1.699266671e-06)
(0.008305665379 -3.373944016e-06 -1.249731076e-06)
(0.008324642805 -8.32986113e-06 -9.12768135e-06)
(0.008314679611 -8.739262939e-06 -2.165572319e-05)
(0.008304728806 -6.619229019e-06 -1.222992414e-05)
(0.008317969449 -3.560285218e-06 -5.487623686e-06)
(0.008323840408 -6.480051407e-06 -1.732515988e-06)
(0.008333352691 -9.040588679e-06 -1.901403344e-06)
(0.008351222483 -5.467728915e-06 -1.270104663e-06)
(0.008385830269 -8.757363884e-06 4.289927172e-06)
(0.008392257716 -1.020489721e-05 -1.295799288e-06)
(0.008391534241 -9.135347183e-06 -4.19866663e-06)
(0.008436058038 -1.193397426e-05 -9.047144711e-06)
(0.008430750959 -9.50662836e-06 -6.099796689e-06)
(0.00844008954 2.773959429e-06 -2.396578861e-06)
(0.008345245355 7.833614466e-05 -4.232375457e-06)
(0.008172139016 0.0004189647363 1.320096549e-05)
(0.006375669565 1.792051382e-06 1.201618498e-05)
(0.008381593019 -6.52888159e-06 1.347551962e-05)
(0.008341373259 -1.230075778e-05 5.745838535e-06)
(0.008307467429 -1.73491909e-05 5.353342163e-06)
(0.008323808097 -2.547976704e-05 8.288470373e-06)
(0.008312515929 -1.58622649e-05 7.23935898e-06)
(0.008341431166 -7.033035521e-06 1.406622979e-05)
(0.008343418193 -3.469672137e-06 7.12633071e-06)
(0.00835657912 -5.244350962e-06 1.915280474e-06)
(0.008333738897 -8.273564249e-06 2.107872169e-06)
(0.00835502544 -1.751438112e-05 3.372552651e-07)
(0.008332601066 -2.308439575e-05 -4.827105359e-06)
(0.008300665051 -1.869517721e-05 -4.390217477e-06)
(0.00832479434 -1.545910152e-05 -4.2114641e-06)
(0.008322519749 -1.322241626e-05 -7.741426058e-06)
(0.008285345721 -1.831344238e-06 -1.988618969e-06)
(0.008276263359 8.435710636e-06 6.468348823e-07)
(0.008277482691 4.270667131e-05 -2.810184647e-06)
(0.008194461231 0.0001517718871 8.74095162e-06)
(0.008225169243 0.000379794778 9.029413558e-06)
(0.00637899733 -1.168801539e-05 2.121665537e-06)
(0.008339347401 -1.275100247e-05 4.584863991e-06)
(0.008369525015 -6.052178323e-06 9.845673295e-06)
(0.008361968533 1.941806953e-07 1.146022233e-05)
(0.008334933298 4.640217207e-06 5.955321966e-06)
(0.008326067742 -1.726076667e-06 7.369229052e-06)
(0.008326156014 -1.469223292e-05 2.454204108e-06)
(0.008308958841 -2.219015865e-05 -1.51128417e-07)
(0.008305376999 -1.921920264e-05 5.490154479e-06)
(0.008327121177 -1.158697617e-05 4.36413472e-06)
(0.008305229392 -4.120225933e-06 5.401629666e-06)
(0.008318063935 6.139614813e-06 6.028101919e-07)
(0.008344291467 1.083458793e-05 -2.09721249e-06)
(0.008273800955 9.756179397e-06 8.826050976e-06)
(0.008270409413 9.216449889e-06 6.990911792e-06)
(0.008226911651 -1.028352377e-06 2.593631622e-06)
(0.008212019482 2.050887358e-05 3.051562157e-06)
(0.008221686156 5.207290088e-05 8.33816811e-06)
(0.008258512382 0.0001269715942 1.129681225e-05)
(0.00836208132 0.0003078288692 -1.666396867e-06)
(0.006358924653 -7.856095838e-06 2.550475978e-06)
(0.008335022664 -1.009731874e-05 8.781052299e-06)
(0.008290978289 -9.292966796e-06 4.969001322e-06)
(0.008300456921 -7.923912185e-06 3.583116667e-06)
(0.008329054427 -8.988483647e-06 8.616805589e-06)
(0.008323719121 -7.795816379e-06 6.199124574e-06)
(0.008310122388 2.703511673e-06 1.189000681e-05)
(0.008312177815 4.240533106e-06 1.180503196e-05)
(0.008299018704 1.75387811e-06 2.115752362e-06)
(0.008292553698 1.366018326e-07 -1.32456278e-06)
(0.008285036355 -7.49477584e-06 7.95327087e-06)
(0.008274790539 -2.510974308e-06 1.507385163e-05)
(0.008299459139 -4.284330718e-06 8.662193329e-06)
(0.008301667497 -2.405230206e-06 4.583690901e-06)
(0.00831921545 5.3579316e-06 3.202988033e-06)
(0.008359298077 1.74170466e-05 1.599717324e-06)
(0.008323276119 3.073970655e-05 9.095502703e-06)
(0.008346732844 5.6828273e-05 6.661971625e-06)
(0.008331562712 0.000117631285 5.182760309e-07)
(0.008325839957 0.0002500667849 5.277021971e-06)
(0.006330025699 9.713025691e-06 -4.617628597e-06)
(0.008297568838 1.079140543e-05 -3.476496129e-06)
(0.008342827053 4.980851668e-06 2.046968193e-06)
(0.008260790946 -4.386953802e-06 -3.276316556e-06)
(0.008263044815 2.720896434e-07 8.503354635e-07)
(0.008246518659 -9.290968322e-06 3.281810545e-06)
(0.008245679865 -8.242000325e-06 1.052350096e-07)
(0.008297210471 -4.27966273e-06 -6.988637287e-07)
(0.008271036028 2.103719158e-06 8.465638898e-06)
(0.008316835122 3.289376081e-06 1.228822336e-05)
(0.008309773072 5.973583957e-06 1.154630583e-05)
(0.008295852342 1.688164689e-06 -5.590143739e-07)
(0.008230256979 -6.262992808e-06 2.215290066e-06)
(0.008240090144 -1.3141858e-05 4.255205227e-06)
(0.008297242744 4.799752188e-06 7.142237239e-06)
(0.008253890573 6.417480439e-06 7.174583095e-06)
(0.008260574152 2.66694152e-05 1.410225473e-06)
(0.008251623656 5.38702684e-05 -7.47790084e-07)
(0.008236980338 9.875560671e-05 3.527817576e-06)
(0.008266449202 0.0002018314041 1.314645096e-05)
(0.006364340293 -2.82390393e-06 -1.219799156e-05)
(0.008357782371 -3.190111265e-06 -1.695195168e-05)
(0.008357872349 1.012717481e-06 -1.632662578e-05)
(0.008350301187 2.926406556e-06 -1.957808485e-05)
(0.008401134981 -9.731456256e-07 -2.001867694e-05)
(0.008376599888 6.742458392e-06 -1.305492385e-05)
(0.008379960484 -4.598415383e-06 -9.657628079e-06)
(0.008343997375 -1.106179592e-05 -1.498400943e-05)
(0.008385949948 -1.008972231e-05 -1.529654256e-05)
(0.008394051754 -8.756046254e-06 -1.528469303e-05)
(0.008358515781 -6.394999351e-06 -2.013932758e-05)
(0.0083737885 -1.34178837e-06 -1.158717869e-05)
(0.008401099272 1.01983443e-05 -7.979832187e-06)
(0.008350722063 1.57421253e-05 -1.222121962e-05)
(0.008339057763 1.81653924e-05 -8.943379141e-06)
(0.008303458047 1.663701005e-05 -1.035457525e-05)
(0.008300430949 4.068961932e-05 -1.276265618e-05)
(0.008298868249 4.713254017e-05 -9.367320754e-06)
(0.008338290382 8.666547861e-05 -4.816145558e-06)
(0.008350819967 0.0001480778545 -3.659939735e-06)
(0.00635313787 -6.776159275e-06 -1.287845657e-05)
(0.0083361819 -7.390385437e-06 -1.929542326e-05)
(0.008321437441 -1.143594034e-05 -1.443715245e-05)
(0.008284942307 -9.323935561e-06 -1.238323864e-05)
(0.008291221408 1.557192699e-06 -1.197055275e-05)
(0.008309308189 -1.941814375e-06 -2.572999159e-05)
(0.008314484606 8.111362742e-06 -2.660992282e-05)
(0.00830127284 7.519280541e-06 -2.216357834e-05)
(0.008294837846 6.586455723e-06 -2.120450691e-05)
(0.008267812205 -3.614728726e-08 -2.252169402e-05)
(0.008263793232 -1.429031211e-06 -2.104674565e-05)
(0.008227551695 4.779656668e-06 -2.225803631e-05)
(0.008256080631 9.555727259e-06 -2.303551635e-05)
(0.008280636337 9.953901034e-06 -1.579022968e-05)
(0.008275626141 1.526421663e-05 -2.360533274e-05)
(0.008316888618 1.774579133e-05 -1.886596663e-05)
(0.008351161615 1.795368062e-05 -5.272181253e-06)
(0.008342418432 4.519757689e-05 -1.65372888e-05)
(0.008363938937 6.424332482e-05 -1.563205736e-05)
(0.008355607258 0.0001079889597 -1.881955896e-05)
(0.006370545066 -2.560641624e-06 -1.092318473e-05)
(0.00837198778 -1.125112571e-06 -1.447319401e-05)
(0.008366965143 2.574814942e-06 -2.029072349e-05)
(0.008372397418 1.468865472e-06 -1.806985985e-05)
(0.008310469297 -1.38771028e-06 -1.514337858e-05)
(0.008301753837 5.409454914e-06 -5.153266097e-06)
(0.008313293176 1.48602623e-06 -1.97591009e-06)
(0.008340103906 9.045888251e-06 -5.008701037e-06)
(0.008292182586 1.109461797e-05 -7.355362848e-06)
(0.008294320393 1.722328952e-05 3.615170579e-06)
(0.008350728027 7.801042684e-06 1.087796198e-06)
(0.008381177846 1.14828649e-05 -1.129618946e-05)
(0.008331543581 -1.049739067e-05 -5.67998574e-06)
(0.008315908947 -9.239529882e-06 -3.877302389e-06)
(0.008311773935 -5.858501805e-06 -1.713810144e-06)
(0.008341165003 4.1301737e-06 -7.638969645e-06)
(0.008348374813 2.495202692e-05 -3.754668176e-06)
(0.008352118176 4.154771852e-05 -1.109448323e-05)
(0.008334979553 4.998318112e-05 -1.785494017e-05)
(0.008396774692 8.597684011e-05 -8.251525744e-06)
(0.006341582775 6.684514337e-06 9.708976961e-07)
(0.008272749119 7.856848609e-07 1.755677293e-06)
(0.008313858551 3.977932946e-07 4.599538811e-06)
(0.008289696474 2.623137399e-06 -8.980638918e-07)
(0.008317968012 -4.336698829e-06 -8.297747767e-06)
(0.008315904227 -2.230530009e-07 -8.06683705e-06)
(0.008288470818 -2.819240777e-06 -5.9118078e-06)
(0.008290179082 -3.819536704e-07 -1.355953962e-05)
(0.008348008788 8.004600343e-06 -1.370384291e-05)
(0.008343715458 4.291369264e-06 -1.909141937e-05)
(0.008315203068 8.758680244e-06 -8.625714731e-06)
(0.00831148548 5.064038105e-06 -3.079539061e-06)
(0.008335352917 5.500073116e-06 -4.866440147e-07)
(0.008314760342 8.697625925e-06 -7.648397093e-06)
(0.008325701787 7.191179255e-06 -7.563978651e-06)
(0.008346453572 4.874311043e-06 -3.84419755e-06)
(0.008351753575 1.073675535e-05 4.55713207e-08)
(0.008325342058 2.799591841e-05 5.139696005e-06)
(0.008360937082 4.815492629e-05 4.262679158e-06)
(0.008329172453 7.461255228e-05 1.227810589e-06)
(0.006363214393 1.920008195e-05 -2.371998201e-06)
(0.008335837999 2.726504894e-05 -5.046111358e-06)
(0.008307357242 1.840878395e-05 -1.087311364e-05)
(0.008298171286 1.159891311e-05 -6.281577431e-06)
(0.00827508234 1.386066428e-05 -3.477159167e-06)
(0.008265013539 7.143642935e-06 -3.076466801e-06)
(0.008248699518 -3.8304406e-07 2.781453332e-07)
(0.008270518306 -5.449645731e-06 -5.637309017e-06)
(0.008261204992 -1.052640943e-05 -2.064275318e-06)
(0.00827215485 -1.18728348e-05 -1.213591734e-05)
(0.008315738958 -9.913941353e-06 -1.426695129e-05)
(0.008305237055 -5.887331815e-06 -1.348186276e-05)
(0.008335835412 2.008688372e-06 -8.977932408e-06)
(0.008337821289 1.081467125e-05 -1.389869263e-05)
(0.008314940241 1.587055267e-05 -1.629418025e-05)
(0.008250226883 1.226124065e-05 -1.221674831e-05)
(0.008258930526 1.337995877e-05 -1.492932724e-05)
(0.008316057611 6.818693961e-06 -1.275237061e-05)
(0.00836235575 1.186309142e-05 -1.515482947e-05)
(0.008397854054 3.738958333e-05 -1.138333953e-05)
(0.006366048904 4.216037996e-06 9.092655374e-06)
(0.008389130121 4.229170715e-06 1.653616901e-05)
(0.008403908978 8.255426443e-06 2.487618712e-05)
(0.008389334887 8.515294448e-06 2.125721331e-05)
(0.008412460821 -1.950566939e-06 1.570600891e-05)
(0.008421009092 -3.08148958e-06 1.18361147e-05)
(0.008428643131 8.418694064e-06 6.771944103e-06)
(0.008432864542 -9.871462666e-08 8.812388116e-06)
(0.00841357285 3.915187717e-06 8.079442787e-06)
(0.008378384051 2.906809911e-06 7.691254424e-06)
(0.008344412938 5.703415291e-06 4.928051646e-06)
(0.00830865042 9.905290165e-06 4.881595753e-08)
(0.008280720098 3.94680759e-06 -3.243937538e-06)
(0.008352261942 -2.858934709e-06 -4.73693441e-06)
(0.00836860622 -6.284202439e-06 -7.415163746e-07)
(0.008422994291 -2.832522362e-06 -8.961613662e-06)
(0.008435125435 9.730192935e-07 -2.091134379e-06)
(0.008373695408 1.320895306e-05 8.694188733e-07)
(0.008341538878 1.759118951e-05 -6.224349161e-06)
(0.008349300693 2.54408305e-05 8.832360265e-06)
(0.006362610635 6.613977337e-06 9.197108496e-06)
(0.008340034614 1.874635845e-06 -9.935999517e-07)
(0.008326311031 -2.752601346e-06 -3.909243097e-07)
(0.008317629529 1.512252403e-06 2.617597313e-06)
(0.008289171033 5.460296439e-06 7.585231097e-07)
(0.008280114219 9.42643466e-06 6.25719018e-06)
(0.008320662887 2.18451943e-06 2.33507093e-06)
(0.008291443642 7.246626234e-06 -4.212403435e-06)
(0.008283246974 1.205122628e-05 1.864960144e-06)
(0.008292699882 6.091504131e-06 5.482597638e-06)
(0.008339441851 1.361844009e-06 7.386323163e-06)
(0.008366257133 -1.088180917e-05 6.356223485e-06)
(0.008373239913 -1.386993775e-05 1.136307993e-05)
(0.00836076267 -1.381634875e-05 1.209396836e-05)
(0.008318391396 -4.475887404e-06 1.082223252e-05)
(0.008320424133 4.598366844e-09 1.520284709e-05)
(0.008370426976 -1.065797641e-06 1.112916148e-05)
(0.00839837554 8.986855207e-06 1.051833476e-05)
(0.008416859434 8.482178125e-06 3.264491137e-06)
(0.008411834603 2.932835989e-05 -1.385600582e-07)
(0.006374585769 -9.113185601e-06 -3.706124328e-06)
(0.008359519876 -5.280359769e-06 -6.171182737e-06)
(0.008391693372 3.705126793e-06 -1.260937991e-05)
(0.008390714202 3.924448558e-07 -1.941209311e-05)
(0.00841514633 -2.589460954e-07 -1.254520467e-05)
(0.008419709307 3.088366673e-06 -9.698128274e-06)
(0.008388976656 1.397069895e-05 -2.530841555e-06)
(0.008411724109 8.790655943e-06 2.254044765e-06)
(0.008432323795 -2.785083916e-06 3.142340883e-06)
(0.008404166958 -3.802351163e-06 9.896761044e-06)
(0.008371656489 -7.61501045e-06 5.441085536e-06)
(0.008398865099 5.031423555e-06 9.046806362e-06)
(0.008389593026 7.551432667e-06 9.726422145e-06)
(0.008401884097 -3.012102844e-06 9.379306518e-06)
(0.008394345369 -6.968039649e-06 7.296171239e-06)
(0.008360915756 -1.084966366e-06 -2.498455467e-07)
(0.008312971242 -3.741309424e-06 -9.063107994e-06)
(0.008261616878 -1.383484573e-06 1.90189432e-06)
(0.00828017806 1.010109516e-05 -5.650985884e-07)
(0.008322205826 1.384441638e-05 -6.583300262e-07)
(0.00633286252 -6.875215252e-06 -6.287208254e-06)
(0.008349678761 -1.087881208e-05 1.746167902e-06)
(0.008333032986 -1.248574332e-05 8.796357762e-06)
(0.008316936322 -1.223137986e-05 9.750206941e-06)
(0.008338580239 -1.057852863e-05 3.410873243e-06)
(0.008363561926 -9.802728231e-06 -9.670747473e-08)
(0.00838169011 -9.226903505e-06 3.691417699e-06)
(0.008361139938 -9.35062723e-06 -9.252578042e-06)
(0.008371197413 3.366610793e-06 -4.413965862e-06)
(0.008386917791 4.146650066e-06 -4.682559599e-06)
(0.008395093132 4.659605834e-06 9.814346708e-07)
(0.008374283198 -9.85720199e-06 -2.382924729e-06)
(0.008408683012 -1.514019929e-06 -3.414178127e-06)
(0.008352374761 1.407854655e-05 -8.930376806e-06)
(0.008328945179 1.516050026e-05 -2.543359438e-06)
(0.008305144668 1.953747908e-05 -4.241371211e-07)
(0.008313389628 1.938801679e-05 7.124447018e-06)
(0.008308375151 1.491376652e-05 3.006814422e-06)
(0.008300922051 2.528595668e-05 6.012627391e-06)
(0.008281626654 1.928937324e-05 2.058572119e-06)
(0.006372781651 -1.159017797e-05 7.72049449e-06)
(0.008352061403 -1.597964008e-05 4.304690872e-06)
(0.008341766501 -9.232491353e-06 5.215404939e-06)
(0.008321555446 -2.973635597e-06 8.508847402e-06)
(0.008253711697 -2.340970595e-07 9.170521661e-06)
(0.00826521326 -5.25102483e-06 1.016383191e-05)
(0.008291606233 2.150308728e-06 6.492965525e-06)
(0.008296719951 -1.630156317e-06 9.337206377e-06)
(0.008306320199 -7.952431799e-06 9.671642806e-06)
(0.008284107957 -3.668487985e-06 1.913697654e-07)
(0.008280306527 6.10564249e-06 -3.973457677e-06)
(0.008266480687 1.825203991e-05 -6.114272913e-06)
(0.008184921978 2.363985186e-05 -7.556749429e-08)
(0.008224502407 1.518066186e-05 8.695529105e-06)
(0.008247802332 8.75661066e-06 1.113671132e-05)
(0.008297096754 8.487276712e-06 7.096755418e-06)
(0.008312639294 1.253055333e-05 5.553376211e-06)
(0.008304763191 1.604852896e-05 5.574923617e-06)
(0.008327709813 1.5556361e-05 -2.470168187e-06)
(0.008278493526 1.393561043e-05 -9.882600658e-07)
(0.006346814119 4.436294478e-06 -2.686394125e-07)
(0.008272450954 1.128890892e-05 3.446248353e-06)
(0.008263667706 1.300934148e-06 -3.688830425e-06)
(0.008281191667 2.675035961e-06 -1.250723377e-05)
(0.008314798384 -4.959543559e-07 -1.318857922e-05)
(0.00833359215 -4.580227274e-06 -1.553198938e-05)
(0.008265037763 2.989710604e-06 -1.689263266e-05)
(0.008270626064 5.113211035e-06 -1.204753817e-05)
(0.008243007168 8.346498428e-06 -9.153109588e-06)
(0.008236877316 1.419084265e-05 -8.628457474e-06)
(0.008252500926 7.709635999e-06 -3.781989033e-06)
(0.008278170131 6.328197233e-06 -2.16796609e-06)
(0.008310061538 6.938055268e-07 -9.735951937e-06)
(0.008352504699 3.264652959e-07 -2.09732117e-05)
(0.008299469204 5.671413548e-06 -1.692180334e-05)
(0.008306713047 1.008494552e-06 -1.163768736e-05)
(0.008311246779 7.848852746e-06 -1.590670056e-05)
(0.008346863115 2.356385331e-06 -1.406639406e-05)
(0.008315910294 1.455793039e-05 -1.126960208e-05)
(0.008323037311 1.752141599e-05 -8.378679591e-06)
(0.006349420932 8.654706746e-06 -2.703138513e-06)
(0.008361601987 -5.328260891e-07 -2.388161959e-06)
(0.008351164297 5.908928909e-06 7.788140781e-06)
(0.008353777725 1.247639549e-05 4.883638541e-06)
(0.008319807893 1.263562566e-05 1.260291661e-05)
(0.008281989875 3.154020243e-06 6.280165817e-06)
(0.008307250235 -2.159420105e-06 1.122438971e-05)
(0.008311621249 1.676694492e-06 6.092099259e-06)
(0.008324454016 -5.7683524e-06 2.804230029e-06)
(0.008336367301 -9.569387375e-06 -5.776808157e-06)
(0.008340137621 -4.265629349e-06 -1.253142656e-05)
(0.008326172704 -8.410676894e-08 -8.122397503e-06)
(0.008315531866 9.18330085e-06 -4.18128037e-06)
(0.008305404349 4.80344825e-06 -1.445305078e-08)
(0.008346119964 4.052967291e-06 -2.880543333e-06)
(0.008327945471 1.15728809e-05 -2.550424958e-06)
(0.008355903483 8.706034989e-06 5.336707161e-06)
(0.008325459804 9.021716953e-06 2.64081658e-06)
(0.00833323245 7.448178618e-06 9.638222444e-06)
(0.008330593761 1.207592496e-05 9.230399589e-06)
(0.006362951295 1.042960949e-05 -5.837033881e-07)
(0.008366737379 1.073148982e-05 -6.823838664e-06)
(0.008340501012 1.218945139e-05 -1.077929749e-05)
(0.00828045301 1.41795824e-06 -5.186062651e-06)
(0.008313674414 -3.955713563e-06 -1.348029034e-05)
(0.008341631207 8.760902896e-06 -1.291758072e-05)
(0.008326262552 9.66079648e-06 -1.194686088e-05)
(0.008350910484 6.368605782e-06 8.878352152e-07)
(0.008309650395 6.920515248e-06 5.233218102e-07)
(0.008309333593 6.27877687e-06 3.425211743e-06)
(0.008299007792 1.827650955e-07 7.66582407e-06)
(0.008306454375 -9.44676322e-07 5.995371116e-06)
(0.008272872412 -3.045822429e-06 9.222157186e-06)
(0.008294396676 -4.234561329e-06 7.364006492e-06)
(0.008278144402 -3.786596433e-06 7.45899018e-06)
(0.008266635202 -5.561453726e-06 3.139089972e-06)
(0.008308800141 -7.946722866e-07 2.638299477e-06)
(0.008310662 3.816225741e-06 4.095320376e-06)
(0.008305769912 5.139347359e-06 5.950634994e-06)
(0.00829849918 7.548490397e-06 8.731749258e-06)
(0.006358037956 -9.97635806e-07 -8.931076643e-06)
(0.008360359447 -2.781669036e-06 -1.54330769e-05)
(0.008437512509 -4.270494119e-06 -1.265867764e-05)
(0.008427760174 7.231628094e-06 -1.259747879e-05)
(0.008414463541 1.086967196e-05 -9.982332215e-06)
(0.008396367003 7.660688625e-06 -2.50821654e-06)
(0.00837683311 -1.02372151e-06 -5.088665679e-06)
(0.008351896352 9.636312042e-06 -5.660453859e-06)
(0.008359612884 7.290487234e-06 -3.425509497e-06)
(0.008360221981 8.592799782e-06 -4.228619606e-06)
(0.008366803738 6.493173833e-06 -2.32109956e-06)
(0.008408298551 3.026040755e-06 -1.738137883e-06)
(0.008402125056 4.263342381e-06 -5.083230336e-06)
(0.008372516344 9.428585476e-06 -6.875646947e-06)
(0.008367618051 6.42713581e-06 -3.741448542e-06)
(0.008361326924 1.326452972e-05 -2.225085851e-06)
(0.008367270371 8.512810809e-06 2.762206337e-06)
(0.008386186763 -3.658743711e-06 -3.596112773e-06)
(0.008380447895 4.921417713e-06 -4.773453921e-06)
(0.008374799593 -4.191420841e-06 -1.31225356e-05)
(0.006349143734 -1.432769321e-05 4.258118737e-06)
(0.008303034475 -6.070033561e-06 8.98121463e-06)
(0.008248220188 4.732893853e-06 8.57414426e-06)
(0.008255087719 2.350027143e-06 9.937308421e-06)
(0.008267379201 5.143161695e-06 2.440676946e-06)
(0.008285438307 6.547890333e-06 8.159813097e-07)
(0.00829179147 1.149970969e-05 5.812215796e-06)
(0.008237294304 6.880133021e-06 -2.600589871e-06)
(0.008277452741 1.748941538e-06 8.51419139e-07)
(0.008310067187 2.407038068e-06 -7.433519215e-06)
(0.008325832443 5.979629534e-06 -7.422091511e-06)
(0.008306662236 8.98672325e-06 -1.054820706e-05)
(0.008308089861 1.972855366e-06 -7.091933281e-06)
(0.008360671176 3.115346191e-06 -4.502858727e-06)
(0.008370266366 8.479160407e-06 1.365462109e-06)
(0.008381313464 1.801529267e-07 -3.320104403e-07)
(0.008357478063 -1.438313214e-06 -3.763015586e-06)
(0.008366665224 -5.272577819e-06 -2.82180788e-06)
(0.008365713382 -8.423906042e-07 -6.110764031e-08)
(0.008355269668 -4.983869975e-07 -1.750189318e-06)
(0.006346177866 1.49326579e-05 6.29648722e-06)
(0.008354037324 1.305261622e-05 4.739364775e-06)
(0.008346376166 -3.661379794e-06 -1.721208764e-06)
(0.008300614815 4.18124997e-07 1.414299878e-06)
(0.008322234562 -8.017079306e-07 -3.242028247e-06)
(0.008302881931 4.909530001e-06 -1.857611264e-06)
(0.008341308192 4.832825694e-06 -6.710598862e-06)
(0.0083809486 5.530781886e-06 4.923793119e-06)
(0.008402494917 1.303899075e-05 6.839790803e-06)
(0.008370996863 1.079866982e-05 2.494690486e-06)
(0.008347251046 5.966728244e-06 1.243420393e-05)
(0.008325118863 -6.108473779e-06 1.075417579e-05)
(0.008317294192 -6.931363136e-06 9.731254885e-06)
(0.008326109347 -1.119399402e-05 3.460871124e-06)
(0.008302257422 -1.753188142e-05 -7.762770574e-06)
(0.008327098833 -1.703750551e-05 -3.247872358e-06)
(0.00830643939 -6.008609888e-06 1.589717626e-06)
(0.008295246652 9.855802686e-06 -3.890375969e-06)
(0.00833419323 7.358955446e-06 -4.660917557e-06)
(0.008328962786 8.075077919e-06 -4.903428431e-06)
(0.007793551204 0.001769204931 -5.94698287e-05)
(0.008085732783 0.00227965362 -2.13475001e-05)
(0.007987820941 0.002289436546 -2.601370274e-05)
(0.007666307377 0.002244390076 9.451419251e-06)
(0.007311201039 0.002152470124 1.158345844e-05)
(0.006986192124 0.002006127895 -2.06491571e-07)
(0.006616457094 0.001912293514 -8.558002379e-05)
(0.006270994106 0.001844666585 -5.968435103e-05)
(0.005907907252 0.001686435099 -7.045593057e-05)
(0.005699214467 0.001653951629 -7.149739433e-05)
(0.008388727047 0.001284840229 -2.01518102e-05)
(0.008945566729 0.002108017542 -5.448654218e-05)
(0.009442860189 0.002592089811 8.028383882e-07)
(0.009779028071 0.002841845062 -1.427394043e-05)
(0.009881001336 0.002973613824 -8.881179752e-05)
(0.009771080109 0.003064983496 -3.289720177e-05)
(0.009546472185 0.002946570264 -2.543118724e-05)
(0.009260697877 0.002947970829 -2.521459422e-05)
(0.009010469124 0.002797437527 -5.491951299e-06)
(0.008725961347 0.002633969932 3.377077101e-05)
(0.008418398237 0.0009116493463 3.326557457e-06)
(0.008936809581 0.001514854961 -4.824659966e-05)
(0.009430360379 0.002088539931 -3.665529316e-06)
(0.009908111989 0.002565915052 -4.399156591e-05)
(0.01025965696 0.002907103145 -1.147096335e-05)
(0.01061296284 0.003201132085 1.294266564e-05)
(0.01080296766 0.003381247681 -2.189611447e-05)
(0.0108691282 0.00347833924 -2.008343799e-05)
(0.01076302496 0.003417464355 2.355020646e-07)
(0.0104888202 0.003380560165 -1.431600247e-05)
(0.008459993326 0.0006378133438 2.517852189e-05)
(0.008671757827 0.001063915807 9.16259309e-06)
(0.009065607523 0.001518373578 4.807255224e-05)
(0.009586898975 0.002036607552 -1.263953882e-05)
(0.01002240182 0.002465108636 7.41081399e-06)
(0.01050035457 0.002832719828 -3.439624761e-06)
(0.01089039999 0.003156237183 8.357743368e-06)
(0.01121947661 0.003426376166 -9.211953767e-06)
(0.01142790155 0.003620512127 8.891595681e-06)
(0.01151898539 0.003709757713 -9.286661077e-06)
(0.008422527964 0.0004677241791 -9.789544774e-06)
(0.008642874987 0.0007674621551 7.088126596e-06)
(0.008947927426 0.001120809666 1.268327152e-05)
(0.009266727655 0.001485834621 1.802168497e-05)
(0.00977975796 0.001934585036 2.21075068e-05)
(0.01012539763 0.00234750068 3.325044233e-05)
(0.01053908744 0.002717082504 1.193426608e-05)
(0.01094166793 0.003020813691 3.121094006e-06)
(0.01134649016 0.003357432338 3.181321704e-06)
(0.01171731588 0.003638583573 2.840965308e-05)
(0.008376010094 0.0003494783371 1.458609493e-05)
(0.008508607774 0.0005476835701 1.924971089e-05)
(0.008721097175 0.0007856349493 1.721278385e-05)
(0.009000171722 0.001117869856 -4.48371451e-06)
(0.009335851938 0.001447326779 -1.057298512e-05)
(0.009784903727 0.001804141895 -1.362407431e-05)
(0.01027615741 0.002240377557 -1.845995754e-05)
(0.01072690669 0.002569176389 -4.14197131e-06)
(0.01112435235 0.002911582231 1.127894875e-05)
(0.01156305021 0.003220512719 -1.908356474e-05)
(0.008426710714 0.0002502039218 -9.274117724e-06)
(0.008545207171 0.0004013586483 -3.818820065e-06)
(0.008662067031 0.0005790882482 -1.861139692e-05)
(0.008893474051 0.0008284897496 -1.655220414e-05)
(0.009152171102 0.001057437353 1.083987423e-06)
(0.009493813536 0.001373431488 -4.699292356e-05)
(0.009882243465 0.001697459501 -4.207867283e-05)
(0.01027861056 0.002071113599 -3.186060429e-05)
(0.01075228685 0.002434366025 -3.256501776e-05)
(0.01118722226 0.002727212302 -1.065983405e-05)
(0.008371859088 0.0001823758479 -1.276734228e-05)
(0.008448683906 0.0002982283748 -8.574255624e-06)
(0.008595578315 0.0004109164757 7.012712027e-06)
(0.008703752691 0.0005745427285 8.305586729e-06)
(0.008917781484 0.0007665845929 1.896122373e-05)
(0.009111065759 0.001014039649 1.477173175e-05)
(0.009478829731 0.001243766286 9.405230338e-06)
(0.009824849877 0.001559375644 9.450370809e-06)
(0.01023907155 0.001905029513 6.639783457e-06)
(0.01060426921 0.002246922861 8.672423057e-06)
(0.008395072714 0.0001484962073 -9.919896027e-06)
(0.008429621813 0.0002097489537 9.127876275e-06)
(0.008505032984 0.000301177797 7.216007066e-06)
(0.008610475287 0.0004138140761 -1.611950631e-06)
(0.008779690905 0.0005701644132 1.484587405e-05)
(0.008973946859 0.0007254473384 3.852917982e-05)
(0.00915762712 0.0009387727465 1.02372992e-05)
(0.009407036388 0.001178961364 -5.12751717e-07)
(0.009753024359 0.00143567167 -7.655168026e-06)
(0.01014161932 0.001754003497 1.019687726e-05)
(0.008416093509 9.572802767e-05 9.039301359e-06)
(0.008489969277 0.0001574481457 -6.507475714e-06)
(0.008556553414 0.0002265251488 2.663489558e-06)
(0.008573819333 0.000311174852 3.801741102e-06)
(0.008671596307 0.0004037831786 -3.884670922e-06)
(0.008804537587 0.0005289235545 9.719308443e-06)
(0.009022333639 0.0007178463863 -7.577133986e-06)
(0.009191479717 0.0008764712522 1.52852509e-05)
(0.009390183806 0.001082389582 -1.207621746e-06)
(0.00964663176 0.001333737591 -1.054377612e-06)
(0.008408257909 7.072996996e-05 -2.094707734e-05)
(0.008409612729 0.0001047485731 -1.098730456e-05)
(0.008500547865 0.000151760913 -2.368798305e-05)
(0.008582840679 0.0002253036589 -8.991457953e-06)
(0.008664966678 0.0003147316808 -9.993216372e-06)
(0.008715156686 0.0004063978494 -7.71315889e-06)
(0.008792495293 0.0005332209245 1.864055647e-05)
(0.008968915699 0.0006675073953 1.021122983e-05)
(0.009098976963 0.0008459035448 1.262393853e-05)
(0.00935874779 0.001024352893 -6.86289486e-06)
(0.008347440616 3.383375033e-05 1.005670554e-05)
(0.008359889864 5.108353079e-05 2.203493958e-06)
(0.00834755952 8.981131028e-05 2.865113812e-06)
(0.008387445674 0.0001608930834 1.04310772e-05)
(0.008436525462 0.0001999405176 3.418439302e-06)
(0.008526085509 0.0002840735388 3.700244583e-06)
(0.008596956758 0.0003918469122 6.794388167e-06)
(0.00877630312 0.0005027496114 9.747587075e-08)
(0.00897972992 0.000612672888 2.094886687e-05)
(0.009133343964 0.0007611982723 1.199849903e-05)
(0.008389897633 4.326412274e-05 8.722329305e-06)
(0.008404821906 7.335819647e-05 9.352970383e-06)
(0.008393396919 9.838895013e-05 1.501231166e-05)
(0.00841933516 0.0001206958852 3.1209088e-06)
(0.008437803271 0.0001603452048 -2.537726894e-06)
(0.008516569148 0.0002139899487 -4.910221113e-06)
(0.008643878001 0.0002634934177 -6.297722655e-06)
(0.008674042946 0.0003565613011 -7.04036397e-06)
(0.008745057593 0.0004512584574 -1.601445574e-05)
(0.008920513998 0.000570718647 -1.825539712e-05)
(0.008341833228 3.77658742e-05 4.920613248e-06)
(0.008349841626 4.797582587e-05 7.27166675e-06)
(0.008364480178 6.918165165e-05 6.542813138e-08)
(0.008386530932 9.446871193e-05 2.847962902e-06)
(0.008404397413 0.0001177180148 -7.280067534e-06)
(0.008403731284 0.0001467016929 -1.518526111e-05)
(0.008396734358 0.0001861250745 -5.194121466e-06)
(0.008514142073 0.0002546902309 -4.638489909e-06)
(0.008629497523 0.0003161744239 -2.715974344e-05)
(0.008750783279 0.0004070816804 -1.28691403e-05)
(0.008265080958 2.920919854e-05 -1.387014035e-06)
(0.008266729112 3.456042219e-05 1.139571932e-06)
(0.008310811424 4.323526944e-05 6.910119061e-06)
(0.008332332065 4.941170911e-05 4.823505139e-06)
(0.00831809725 8.805832842e-05 9.767423816e-06)
(0.008422169542 0.0001171025539 7.268717519e-06)
(0.00844539531 0.0001362693266 3.348221722e-06)
(0.008464588273 0.000179831418 1.340977439e-06)
(0.008534629978 0.0002452910279 -2.744993712e-06)