/*--------------------------------*- C++ -*----------------------------------*\
| =========                 |                                                 |
| \\      /  F ield         | OpenFOAM: The Open Source CFD Toolbox           |
|  \\    /   O peration     | Version:  2406                                  |
|   \\  /    A nd           | Website:  www.openfoam.com                      |
|    \\/     M anipulation  |                                                 |
\*---------------------------------------------------------------------------*/
FoamFile
{
    version     2.0;
    format      ascii;
    arch        "LSB;label=32;scalar=64";
    class       volVectorField;
    location    "0.012";
    object      momentum;
}
// * * * * * * * * * * * * * * * * * * * * * * * * * * * * * * * * * * * * * //

dimensions      [1 -2 -1 0 0 0 0];

internalField   nonuniform List<vector> 
654
(
(0.006163820325 -0.0007018405791 0.0002858025014)
(0.006407928479 -0.0004171488974 -0.000440091631)
(0.007061925912 -6.479143386e-06 0.0004165225866)
(0.0110631294 -0.0009569719499 0.0004893484455)
(0.007581912057 -0.0007398004994 0.0002496930785)
(0.01427007893 0.0003454739462 -0.0001251107974)
(0.009265666568 -0.0009087180514 0.0002266818328)
(0.003719908269 6.35092318e-05 3.51649421e-05)
(0.01539998675 -0.0004653359755 -0.0004729245561)
(0.006128644803 0.00017847244 -0.0002145043239)
(0.01002372188 -0.000135099358 0.000179635204)
(0.00654220383 0.0009263849255 0.0007069962686)
(0.004075208343 0.000672147718 0.0007795237297)
(0.01307477647 -0.0001052053649 -8.560624608e-05)
(0.003513426971 -0.0004985732715 -0.0002144836894)
(0.009497943143 -8.52700236e-05 0.000900105932)
(0.003492442299 0.000482306543 -0.0003789274129)
(0.004527758467 3.302260896e-05 5.522204263e-05)
(0.005640464 -0.0006605460293 -0.0005083623557)
(0.01103389748 -0.001228640249 -0.0007942680028)
(0.004203535772 0.0005808893323 -0.0007309392245)
(0.006500492547 0.0001432818138 -0.0006151321301)
(0.01251722757 0.0009657075854 0.0007125356324)
(0.007312377253 -0.000140491845 -0.0003918557869)
(0.004043842642 1.382745202e-05 -0.000325132511)
(0.003203427569 -0.0003837928458 1.817525735e-05)
(0.01233421734 -0.0001532379844 -0.0001624201819)
(0.009389047786 -0.0005209581233 -0.0003412062346)
(0.0005839572459 0.0002077352303 -0.0001272605853)
(0.004644120029 -0.0002934292127 -1.679056168e-05)
(0.01087798784 -0.0001071512814 0.0005413580596)
(0.006565535397 9.472712196e-05 -0.0002716877727)
(0.01215070973 2.81283839e-05 0.0002085564997)
(0.01097824706 0.0001452186063 0.0003681948299)
(0.008928182893 -0.0002628565241 0.0004383780297)
(0.01433904739 0.0008951363941 -6.479979824e-05)
(0.01051377171 0.0003946970013 0.0002847701609)
(0.00910741854 0.0001826716815 7.57980929e-06)
(0.007460607562 -0.0004252787934 -0.0003560194621)
(0.017686246 -0.0006277997479 0.001016541656)
(0.004219015373 -0.0001432849644 0.0001951154632)
(0.0126003578 -0.0005154802501 0.0005233669115)
(0.008083713411 7.669971778e-05 -0.0004081889654)
(0.01150482044 -0.0002703780959 -0.000254903062)
(0.01001915341 -1.135747094e-05 -0.0004877138013)
(0.007644528613 3.433302081e-05 -0.0005767393172)
(0.004749551402 -0.0001462331274 0.0004940148707)
(0.006060707989 -0.0004205165921 -0.000404794051)
(0.00340411672 7.76064445e-05 -0.000236956308)
(0.0103465956 -0.0001915945484 -0.000585988166)
(0.005421870688 -0.0001793669661 0.001003677133)
(0.01235021193 -0.001241641946 0.001253018326)
(0.00797133651 2.478806067e-05 0.0003845540095)
(0.007075118056 -0.0007543567173 0.0001181770949)
(0.006292266111 0.0002697524472 -0.0005045151114)
(0.01284989509 0.0007291145655 -0.0001788631431)
(0.007969408149 0.0002116397902 5.587997714e-05)
(0.007926494012 0.0002682451518 -0.0002304371146)
(0.01307063308 -0.0002690029014 -0.0003238978942)
(0.006929970601 2.397427891e-05 -5.965779531e-05)
(0.007401169048 -0.0002457526651 0.0004725517209)
(0.009044193653 -0.000717010638 -0.0003466496849)
(0.01172189292 0.0002665811804 -0.0001203857988)
(0.008246704499 0.000565826127 0.000331316994)
(0.008191228045 -0.0002845327718 -0.0003468722714)
(0.009451199402 0.0001252060359 -0.0006297262365)
(0.004873556374 -9.634079213e-05 -5.337371909e-05)
(0.01232432607 -0.0001175368778 1.218001768e-05)
(0.009805009836 -0.0002031629422 -0.0002518592641)
(0.006508600387 0.000555040854 -0.0002879883712)
(0.01209207246 0.001073437787 -6.055747754e-06)
(0.007380954689 -0.0004911559589 0.0006149827923)
(0.008195554477 -0.0003709796015 0.0002296741107)
(0.01003420245 -0.0002341035037 5.243886517e-05)
(0.006211976933 -0.0004289369566 -0.0001422961905)
(0.01049971055 0.0001832338711 9.291537e-05)
(0.007702784941 -0.0003920858905 -0.0003603328053)
(0.009616684365 -0.0002360380671 0.0001194962529)
(0.00395204643 -0.0006325059501 0.0001545566964)
(0.005093823972 -0.0001304791436 0.0006201871149)
(0.004670109371 -0.0002648807871 -0.0007047573138)
(0.01090183384 -0.0002820936579 -0.000291134969)
(0.003365786876 0.0003025442287 8.63393896e-05)
(0.009325566085 0.0003183410693 -0.0008351698555)
(0.004158661774 -0.000110645797 7.744118721e-05)
(0.005015093104 0.0004750682997 -2.258211693e-05)
(0.01059473568 0.0003844454722 -7.135988213e-05)
(0.008389951468 -0.0008962927455 9.336503057e-05)
(0.01250391682 0.0002380509064 0.0001079361931)
(0.008279204195 -0.0001166458284 0.0002097057392)
(0.008358493217 0.0002229522179 -5.82129028e-05)
(0.01004839668 0.0003684452227 -0.0003462874186)
(0.003356688377 -0.0003350761323 0.0001950736768)
(0.01077606974 0.0003188676676 -0.0001419127873)
(0.005693748919 0.00032526976 -5.452903653e-05)
(0.006141763786 0.0005466955805 0.0002402556706)
(0.01187700799 -0.0002163509763 -0.0004661110621)
(0.009037422038 2.556377559e-05 -4.741880433e-06)
(0.01193584985 0.0009637036449 0.000441408547)
(0.004694218497 0.0002629829068 -0.0004910795085)
(0.003941787565 0.0001355674843 -0.0008503089941)
(0.008093923008 0.0002532505289 -0.0001934626497)
(0.01131805473 -0.000873150829 0.0007871406253)
(0.006717173044 0.0005182001129 -0.0008070049514)
(0.007869292668 -0.0001773421348 -0.000205253173)
(0.01001688269 -0.0001329279225 0.0001691855662)
(0.005919811557 -0.0007387806799 0.0001578219987)
(0.007334626992 7.522957237e-05 0.0003098731877)
(0.007935534248 0.0009270705501 -5.025195034e-05)
(0.007486988459 0.0002407838437 -8.816172016e-05)
(0.00559652592 4.261780551e-05 0.000435216662)
(0.01005253831 -0.000249996143 0.0005477486465)
(0.00641767524 0.0002867388606 -0.0005784187059)
(0.008100803783 0.0004604578951 -0.0002013170169)
(0.006585181423 -0.0001805149579 -0.0004101853438)
(0.004046939349 0.0005211870702 -1.129680733e-05)
(0.005210263603 -0.0004272609943 0.0001324780165)
(0.01005550044 -0.0001961753491 -0.0002872200301)
(0.01294542683 4.465760445e-05 0.0001129576626)
(0.008734688103 -0.0002352572481 0.0002987792262)
(0.00740546859 0.000188129193 0.0002184126129)
(0.008657849594 -2.207996339e-06 0.0009842454798)
(0.01325075402 -0.0002273780824 6.841508879e-05)
(0.006516654669 -0.0001608606477 0.0001132834353)
(0.009048736918 0.0006469299665 -0.0002633324628)
(0.00854398545 -0.0003280918711 -0.0001714997293)
(0.006705301652 0.0003775395356 -0.0001694048586)
(0.008895490312 -0.0003341347709 -0.0003543759882)
(0.009890464311 -9.708093893e-05 0.0009963038525)
(0.006976168954 -0.0002311326824 -0.000342926954)
(0.01378134105 0.0001410653145 -0.001273696909)
(0.01099344503 0.0005849485951 0.000398599804)
(0.007033233759 0.0001819950487 0.0004290579175)
(0.007130824019 -0.000237025765 0.0001900071267)
(0.007472566391 0.0001849805142 -7.776531493e-06)
(0.009481072607 0.0002339690626 0.0001409048534)
(0.004533793262 -4.550610495e-05 -0.0003796182056)
(0.003563550628 6.68314978e-05 0.0001507163074)
(0.009222356519 0.0001820037521 0.00086585363)
(0.01663573474 -2.893732542e-05 0.0006769633003)
(0.005585122293 0.0003366338161 -0.0002803773048)
(0.00686574906 0.0004707582508 -0.0001900946593)
(0.005708802532 0.0002005099773 -0.0005721099179)
(0.00378400648 7.234154266e-05 -0.000346185554)
(0.01162131468 -0.000126287549 0.0004651543731)
(0.007569067327 -0.0007521349552 9.034595051e-05)
(0.008869002664 -0.0004126894487 0.0001844781759)
(0.007707003815 -0.0004871219755 0.000120859788)
(0.008036171629 0.0009096827956 0.000669081794)
(0.004041364932 -2.640618311e-05 4.800696201e-05)
(0.01130870345 -9.222668591e-05 -0.0004434919517)
(0.008785852258 -7.930614873e-06 -0.0007889014739)
(0.008969170572 -0.0005516371983 -0.0003542444499)
(0.00496272673 6.145681607e-05 0.0002412113453)
(0.005765061053 -7.675956261e-05 -0.0003282022579)
(0.006032135243 0.0005796647495 -0.0003474913723)
(0.006282985878 0.0002716718361 0.0003199425294)
(0.01089872683 -0.0002404812167 0.0001657327861)
(0.004566450463 0.0005137258594 -0.0002243323231)
(0.007138705199 0.0009228404668 0.0009822292968)
(0.00413933239 0.0001995168381 -7.383007309e-05)
(0.01303395641 0.0003233543462 -0.0005589563443)
(0.006609704925 -8.340503156e-05 -4.429209776e-05)
(0.006108397671 -0.0006011519963 -7.469798139e-05)
(0.00804098132 0.0003545901979 -0.001175590677)
(0.006493927054 2.833267158e-05 0.0008694584013)
(0.004676657257 -0.0003527883555 -0.0003374668773)
(0.00863927034 0.0001888584974 4.814896953e-05)
(0.01040461144 0.0008163378124 -0.0004853211166)
(0.007303985765 0.0001438024299 -0.0002926877744)
(0.008803441894 0.0004913221569 -0.0005906331185)
(0.01102265057 -0.0001072738655 0.0003294541369)
(0.005955886503 -0.0006729343007 0.0007515700704)
(0.00383898673 -0.0001473510321 9.736389672e-05)
(0.007459340823 -0.0009083357651 7.602965432e-05)
(0.0122939344 0.0006048428224 0.0001960603106)
(0.007105771338 -6.490585772e-05 -0.000793516431)
(0.006666587352 -0.0002199820912 4.679492281e-05)
(0.008461983118 -0.0001030845435 -0.0001047820867)
(0.008519048572 0.0001044827347 0.0007429522867)
(0.007241183257 0.001428382939 -0.000584073628)
(0.007994714681 0.0007677330705 -0.0006696997873)
(0.006867615663 0.000566988396 -0.0001789886809)
(0.008479359691 0.0008443124751 2.14661403e-05)
(0.007259090276 4.5382019e-05 -0.0002777393946)
(0.005339709025 -0.000203528112 9.855829943e-05)
(0.01283666961 -0.000110928032 -9.432606626e-05)
(0.01100935242 0.0003993645313 -0.0006446882486)
(0.006805050985 -0.0001520735531 -6.482280904e-05)
(0.007492281504 0.0002628211766 5.043176559e-05)
(0.008492544441 0.0002664828985 -5.716807337e-06)
(0.009340100965 0.0004329110534 -0.000260026752)
(0.01220323436 -0.0002274996517 0.0005396639739)
(0.005141069118 0.0005694871765 -0.0004631881675)
(0.007803126545 -0.0001656435298 -0.000401538408)
(0.01115658473 0.0003188760616 -0.0004635238223)
(0.008303830965 0.0003189101537 0.0004986725371)
(0.003372561701 0.0001948598494 -0.0001037158406)
(0.00821876561 0.0002107321689 0.0004424131786)
(0.004957691069 0.0002902517658 -0.0003535335113)
(0.007573256125 -0.000583249676 -0.0005451312672)
(0.008568328648 0.0002202056109 -0.0001174390289)
(0.004483804902 0.0003608352142 5.036107607e-05)
(0.01388156524 2.603280493e-05 0.0001599276474)
(0.007323852057 0.0007597740768 -0.0004900635664)
(0.007970898407 0.0009294135833 0.0003103974971)
(0.006718509663 0.0003041797694 -0.0009593630006)
(0.01033410511 -0.0004691040047 -0.0002346617528)
(0.006437702051 0.0004400166563 0.0003759062251)
(0.004164169255 0.0003898173226 -0.0003367460836)
(0.010202418 -0.0004253964503 -0.001016316935)
(0.007513881447 -0.000173191864 0.0006907904869)
(0.01310667315 0.001252130009 -0.0004467737748)
(0.01310225082 -0.0001483651622 4.41843458e-05)
(0.005935701631 -0.0002876843343 0.0006061990204)
(0.008775376266 0.0005058798098 -0.0008361569703)
(0.01011651803 -0.0001281205244 -1.688075492e-05)
(0.01091586097 0.001064746822 0.0002840882473)
(0.008376731946 -0.0001525971431 -0.0008553790506)
(0.009174543463 -0.0003723694455 -0.0006622110092)
(0.006471662088 0.000404259165 0.0003084106427)
(0.00872658626 0.0009853825684 -6.650346631e-06)
(0.009337735672 0.0001689286954 0.0003846048337)
(0.01106524134 0.0003443336209 0.0004041239894)
(0.008659143319 6.426083728e-05 -0.0003587944068)
(0.006136179109 0.0001717131824 0.0005225856526)
(0.01163904747 0.0004212336316 -0.000300294887)
(0.01156792803 -0.0001674852984 0.0009505476116)
(0.01016896983 -0.0002268267751 0.0003990107503)
(0.008779705514 0.0005280535972 0.0005861497351)
(0.006790746299 -0.0004642461515 -0.0005229058319)
(0.008976574971 -1.82111838e-05 0.0001164452437)
(0.006512474387 0.000754847023 -0.0004065328793)
(0.01458843069 -0.0005312616119 0.0004202793416)
(0.007525410737 -0.001244302005 0.0003743212846)
(0.01097558628 -4.235968362e-05 0.000178176265)
(0.009770062199 -0.0003576057135 8.818183178e-05)
(0.01001479049 1.250742684e-05 -2.179951164e-05)
(0.00664245893 0.0004067126276 0.0001614300174)
(0.01581864122 0.0002346007459 -0.0003901850388)
(0.008998999068 0.001058291932 0.0005327479432)
(0.01015100022 0.0003876809996 -0.0001395767509)
(0.007245542166 0.0002959542733 3.113011899e-06)
(0.009917629159 -0.0004265188304 0.0001229055683)
(0.009842561471 0.0007602197259 -0.0007520236632)
(0.007470072034 0.000454986765 -0.0005442320529)
(0.0132525003 -0.0004535771382 -4.954641916e-05)
(0.005978237872 -4.091164852e-05 -0.0003036328794)
(0.01186553357 -0.0002102227219 -0.001378051303)
(0.01146449599 -0.0003679383414 -0.0005048519596)
(0.005788366157 0.0003907812652 -0.0002021645927)
(0.004793797439 -0.000136241457 0.000246632604)
(0.005787429879 -7.306285352e-05 -0.0003160011334)
(0.01018915506 -0.000543528794 -0.0002200827373)
(0.007946195772 0.0007137473383 0.0001771079778)
(0.005622042799 8.58337952e-06 -0.0008983281189)
(0.01112527962 -1.550510161e-05 -0.000828424204)
(0.009246541423 0.0005683600296 0.000815363729)
(0.005051473521 0.0001862822644 0.0006144530726)
(0.006378467856 -0.0006351097684 -0.0004933524408)
(0.005961866379 0.0003433051997 0.0002040517612)
(0.006832468681 0.0001492241813 0.0001727884879)
(0.01047501889 -0.0001867839094 -0.0001566479269)
(0.003071211017 8.751320956e-06 -1.112925273e-05)
(0.009197591866 0.0001058310538 -0.001358587517)
(0.008777769462 -0.0005585098932 -0.0004021450944)
(0.009654498273 0.000117458384 -6.512262186e-05)
(0.007915609101 -0.000146825506 0.0006068101038)
(0.009266269419 -0.0005244822733 -0.0003907222813)
(0.007074992784 -2.187255241e-05 -0.0002327228396)
(0.008071034778 5.873163805e-06 -0.0004676724258)
(0.009205693516 -2.88301469e-05 -6.837908846e-05)
(0.0106331019 0.0001307666179 -0.0004204617201)
(0.005502470516 0.0001451497784 -0.0003235111236)
(0.009343379922 -0.0001040910887 -0.0001851206913)
(0.008969474212 -0.0002124164061 0.0005335365109)
(0.0111003246 0.0001525654432 -0.0009092461062)
(0.00561943973 -0.0003451987595 0.000747260476)
(0.01023187356 0.0006019672753 -0.001018497089)
(0.01322731418 -0.0009837844861 -0.0007227463774)
(0.007915191613 -0.0001242192701 -0.0002171290093)
(0.009701028457 0.0002099894805 0.0004349912825)
(0.004271516289 0.0004626210961 0.0001929579972)
(0.01313344358 -0.0001619413799 -0.0002081335617)
(0.01072046962 -3.58692714e-05 5.386222956e-06)
(0.006237262379 7.312983122e-05 -0.0004681680603)
(0.008477360219 5.389066251e-05 0.0005670301232)
(0.008746555059 -7.563279668e-05 -0.0001231942907)
(0.008902573446 -0.000279031602 0.0005772049646)
(0.004883194403 -0.0003190956726 0.0001821697202)
(0.008885936227 0.0005236902607 -0.0004764451229)
(0.003283949668 -0.0001077604218 0.0001170252169)
(0.007810428362 0.0002848344206 -9.530715837e-05)
(0.01003758932 -5.307313347e-05 -0.001058806699)
(0.009289336732 0.0006784617083 -0.0003426181921)
(0.006833149283 0.0004442019187 -0.0003224683838)
(0.01033960513 0.000685838949 -6.490036761e-06)
(0.004613481709 0.0001105810931 -0.0004644223755)
(0.007377908527 9.021636304e-05 0.0005897684885)
(0.01050127686 0.0005517060621 -8.317085927e-05)
(0.005215469705 -5.768410904e-06 -2.4730833e-05)
(0.007591024916 -0.0002881709067 -0.000188216606)
(0.005507309814 -0.0003462728444 6.708700204e-05)
(0.006610431743 0.0003747767693 -0.00025486556)
(0.01005099949 0.0002811048683 -0.0003727820312)
(0.004347692151 -0.0001660952143 -0.0003641688228)
(0.006309058841 -9.562130559e-05 -0.000565555907)
(0.003948182113 -0.0008535300731 -8.252623558e-05)
(0.006704355267 0.0005114153022 0.0001478753635)
(0.007650149632 0.0005945108991 0.0002904529803)
(0.003938696593 0.0002924980653 0.0006936057245)
(0.009035109497 -0.000289561188 0.0001350375154)
(0.009413945192 3.772593816e-05 0.0003874761987)
(0.00990332782 0.0003324706096 -0.0001622056149)
(0.009499264507 -7.748300603e-05 -0.0001620687508)
(0.003185161828 5.671884116e-05 0.0001228372037)
(0.006631920917 -0.0003135540653 -0.0002690717342)
(0.006725802603 -4.308780513e-05 0.0003096363842)
(0.007885832755 0.000229176387 -0.0006573937246)
(0.01585793748 -0.0006246488115 -0.0001405532629)
(0.005748100238 -0.0001626493026 0.0002286459171)
(0.005482426934 3.041852621e-05 -2.223966498e-05)
(0.01314826317 0.001058986228 -0.0006036214757)
(0.008595189885 -5.219327249e-05 -0.0001402315702)
(0.007683371201 0.0003355468148 -0.0006754912556)
(0.009338551118 -0.0008010260822 -0.0005677359898)
(0.008562916391 -0.0004693359709 4.695443482e-05)
(0.01558318094 0.0002430129735 9.820963452e-05)
(0.009783442334 0.0001125067141 0.0003857850632)
(0.01154086203 -0.0002635200011 0.0001581537987)
(0.008202448948 -1.001961807e-05 0.0009972366445)
(0.004596271511 0.0009855400755 -0.0001198432919)
(0.01097770148 0.0002734725104 0.0007866696133)
(0.01053020891 0.0004296008067 -0.0006747146305)
(0.01093749508 0.0007782468784 0.0003691582452)
(0.006813428864 0.0001563874901 0.0001713150103)
(0.008164250494 -0.0008834663763 6.174073876e-05)
(0.006667782546 0.0001347241527 -0.0002407917137)
(0.007367423511 0.0002248392337 -0.0002729018061)
(0.00791462669 -0.0004864149106 -8.015056821e-05)
(0.006740765046 1.247596409e-05 -0.0009431979604)
(0.006902838942 0.0003195183518 -0.0006252851749)
(0.008762872468 -3.217166868e-06 -0.0001449513128)
(0.0122641207 0.0009070810813 0.00148795805)
(0.01002254934 -0.0004432313823 -0.0003350894487)
(0.008744167044 -0.0001060728613 0.0001396029872)
(0.006507615016 0.000452160934 -0.0003006961832)
(0.005953131211 -0.0001160009859 -0.0005653825771)
(0.01038198145 -0.0003040630888 -0.0005857288016)
(0.009146481833 0.0005346412193 0.0004062641279)
(0.009252648653 6.75475998e-05 -0.0002796482195)
(0.006645265723 7.114103882e-05 -0.0005667327639)
(0.008897732025 -0.0001389524127 -0.0004359723219)
(0.009567621308 -0.0003833268989 -0.0004046480935)
(0.003731172106 0.0004462844076 0.0003821036235)
(0.004803676834 0.0003822706984 -0.0005941031265)
(0.01069243427 0.0002362324909 -0.0003522183181)
(0.01488029222 0.0002941125015 -0.0001183327118)
(0.007488635685 -0.0001976833908 0.0006346037952)
(0.003439398508 -0.0001356926182 -0.0002906925415)
(0.006223053846 -0.0001308346735 -8.289513829e-05)
(0.007081191859 -0.0004225769425 0.0003963765061)
(0.009021080538 -0.000145711283 0.0003639889477)
(0.006401201289 0.0001769232952 -9.067764397e-05)
(0.005508425804 -0.0005450883655 9.675889235e-05)
(0.009252120759 -0.0004156500349 0.0008353993769)
(0.008299006742 -0.0002199702377 -0.0002346748899)
(0.01322140272 -0.000250792769 0.00023597842)
(0.008159418793 -0.0008907761624 0.0003654616448)
(0.009720624407 -0.000394627543 -8.726764151e-06)
(0.01252744995 -0.0003546823558 6.043611785e-05)
(0.008260439375 -2.615579928e-05 -0.0003602295033)
(0.00733496804 0.0001056487213 0.0002329433161)
(0.004858324763 -0.0004584207209 7.272910395e-07)
(0.009287522921 -0.0001365731216 -0.0008311856704)
(0.007258725557 -0.0001861795076 0.0001896601359)
(0.00433954993 -0.0006232664562 -0.0001287260532)
(0.01153761284 -3.527355503e-05 0.0001611116649)
(0.01036760291 -0.000590278785 0.0005196209222)
(0.01064251375 0.001288640511 -0.000216099166)
(0.007381726971 0.0004744913818 0.0001088466861)
(0.01228835319 -0.001299355112 -7.629886555e-05)
(0.007633175334 1.333891575e-05 -0.0003407463727)
(0.01120711705 0.0001345184432 -0.0001491504562)
(0.006271191187 -0.0004228052518 7.485027164e-05)
(0.01057249607 -0.0007806521146 0.0001917907926)
(0.006972301112 -0.0005832406208 0.0003464643485)
(0.006676879229 -5.420390162e-05 -0.0009824570472)
(0.009611794984 -0.0002481098092 0.0002078866178)
(0.007782243939 0.000335131529 -5.071058549e-05)
(0.0125681706 -0.0001788652184 -6.547006427e-05)
(0.01069940414 0.0004048956534 0.0003671286787)
(0.008717549303 0.0001867615254 0.000169878392)
(0.01016751902 -0.0007612369991 -0.0005422906982)
(0.005799973144 -9.173182969e-05 0.0001006397187)
(0.008666572463 5.302644738e-05 4.778217536e-05)
(0.00256900752 -0.0004726801269 0.0005248101827)
(0.0119014714 0.0001369301261 0.000310351276)
(0.006363531257 6.500830696e-05 6.956974256e-05)
(0.002123924339 0.0003481487554 -0.0001553087302)
(0.006451588708 0.0001050543709 0.0004252539403)
(0.007034351502 -0.0003767844108 0.0004501876896)
(0.01267413508 0.0003423610046 0.0004358203269)
(0.008064967133 0.0008740305887 0.0009118426517)
(0.002224352372 -0.0003039901693 0.0001472931977)
(0.008364601752 -0.0002197899951 0.0003479489861)
(0.009265216558 -0.0008129383637 9.610802625e-05)
(0.006715466348 -0.0004890511985 0.0001403400765)
(0.006725880356 0.0003079069543 0.0002294468828)
(0.003873931786 0.0001142238324 -0.0001691179002)
(0.006215708966 0.0002768212141 -0.0003934894198)
(0.005392706659 -0.000572901211 -0.0006091302982)
(0.01003184498 -5.070964714e-05 0.0001959086348)
(0.009172566145 -0.0001645608471 0.0002714490324)
(0.01075301818 0.001255502085 -0.0008245400058)
(0.0081537011 4.841397005e-05 0.001001150706)
(0.009484215286 -0.0001248370436 0.0004926429855)
(0.00970856348 -6.433819939e-05 -0.0002263677972)
(0.01573745593 -0.0008163214228 7.307701631e-05)
(0.007138025275 0.000627348309 0.0002345520306)
(0.006788729553 0.0001686082865 0.0001943129953)
(0.007119263015 -0.0003873318124 0.0005173130883)
(0.004127674824 -0.0004876300378 7.732046125e-05)
(0.009973664359 -0.0005269822598 0.0008274423839)
(0.01357710319 -3.502691582e-05 0.0004913600871)
(0.007574839465 0.0004960500215 0.0005767722703)
(0.005121396226 -4.632135495e-05 0.0006807816848)
(0.008770038777 0.0001137843873 0.000463154321)
(0.006391271084 0.000160190303 0.0003144543322)
(0.007729351671 -5.790476138e-05 -2.466519804e-05)
(0.01090302135 -0.0002839130854 -0.0005598705364)
(0.006075838829 0.0001394759854 0.0005579519101)
(0.003845908251 7.342990915e-05 -1.249032024e-05)
(0.004576713438 -0.0003134167537 -0.0002357047549)
(0.01111790107 0.0004617421204 -8.434828655e-05)
(0.004919684954 0.0003007487631 0.0005654018041)
(0.01288148403 0.0005967530687 -4.452039835e-05)
(0.006400301094 0.000304082601 0.0006601707239)
(0.008173107531 2.27565809e-06 0.0001307308697)
(0.004905413421 0.0001913068942 0.0002343369303)
(0.0157975033 0.001420431746 0.0007455179867)
(0.007038106015 0.001461296433 0.001191689546)
(0.006883504861 0.001877449444 -0.002235997924)
(0.004066588719 0.002896164434 9.31669546e-05)
(0.008352460587 0.003419604161 0.004394225708)
(0.01071222334 0.002048671516 -0.000939058668)
(0.007107384749 0.0003053399257 0.001622964283)
(0.00511616961 0.003296280479 -0.0005073828025)
(0.008385903548 0.001499908155 -0.002952352935)
(0.005483065593 0.001513670983 0.0002271279203)
(0.007920428026 0.001373413253 7.500833531e-05)
(0.009606236876 0.001957938433 0.00243616024)
(0.006413893299 0.00218418687 -0.0007161438698)
(0.01195490175 0.0027469739 0.000737950561)
(0.006852062459 0.003978788258 -0.0002331262388)
(0.009895799601 0.002114926272 0.0002367291327)
(0.01263919577 0.004840828879 -0.0008513061486)
(0.01275294435 0.005915490425 -0.001309763559)
(0.007581445653 0.002634563075 -0.0008415160864)
(0.005220241112 0.001983109642 0.0001107359737)
(0.007241936062 0.000672975671 -0.0001617409)
(0.009873072496 0.001307429284 -0.000849464491)
(0.01040504252 0.001087314342 0.001421463822)
(0.007723979485 0.000776451215 -0.0001793072994)
(0.00441649694 0.001965037329 -0.0005090758936)
(0.007975367123 0.002195955909 0.000521750094)
(0.01591798917 0.006528193111 0.00268066206)
(0.009580812431 0.002636046072 0.0005085234234)
(0.009236553833 0.001864312612 0.0004024124519)
(0.01360570587 0.002594766333 0.001961809752)
(0.0104775215 0.0009380375036 -0.0006377820383)
(0.01066017489 0.0003581598336 0.0002245601255)
(0.01018437815 -8.145956389e-05 -0.000199482372)
(0.01556738457 0.002063795998 -0.0002553412821)
(0.01022852022 0.002345036017 -0.0005397750623)
(0.0103032446 0.00195344545 0.0009569272995)
(0.01007960307 0.003325137497 0.001140909679)
(0.01376155777 0.006866597484 0.000350004085)
(0.0145005731 0.003838542266 0.001872893729)
(0.01498089325 0.00481337217 -0.001898175157)
(0.006834196841 0.002002445086 -0.0008013665424)
(0.003507798997 -3.309767503e-05 0.0008185495782)
(0.01027775094 0.001262234912 -0.0009518870679)
(0.007770130478 0.0009932495338 -0.0003894261967)
(0.0159120848 0.002084613917 -0.0009179624782)
(0.009392676832 0.002733416129 0.0002038685746)
(0.01058958582 0.00317407133 0.0004630456014)
(0.01533917452 0.004391415721 -0.0002389342753)
(0.008105668542 0.002422205178 0.001715568274)
(0.01532267045 0.004195680643 0.001010485073)
(0.007278147207 -0.000210878355 0.0001015877076)
(0.007906193549 -0.0002470140959 -0.0002715228363)
(0.006548778088 0.000400789202 0.0007829438261)
(0.0140653889 0.001598998 1.185363113e-05)
(0.008485312507 0.002777654054 0.0008757246367)
(0.0079357371 0.0001148402221 0.0007074179747)
(0.009700428933 0.001752147243 -0.0002911907371)
(0.006066757158 0.002015005051 -0.0001342978915)
(0.01124637479 0.004356768956 -0.002340257141)
(0.01474109549 0.00186187266 -0.001117656389)
(0.003792264089 -0.0007515671446 5.285761649e-05)
(0.005230016371 0.0003407928993 -0.0001156269888)
(0.009808560428 -0.0002378806729 -7.14495758e-05)
(0.0071753979 0.0001094199457 -0.001323837672)
(0.01160466164 0.001239961546 -0.0008195388124)
(0.007768862164 0.0006420249714 -2.129004813e-05)
(0.008321826139 0.001309960394 -0.0005177917934)
(0.00546127696 0.001727657688 -0.00106649779)
(0.008113291526 0.0007918715075 0.0002804196202)
(0.0117751744 0.001957864832 3.694583938e-05)
(0.005543061425 0.0002114915463 -0.0003438554321)
(0.00611009015 -0.000200608076 -0.0001854234397)
(0.005159442565 0.001246279416 0.0007807882887)
(0.008994667649 0.001427868905 -0.000218422652)
(0.01346785827 -0.0009811072755 -0.0008420916802)
(0.01040118745 0.00325502303 -0.0003323525187)
(0.005139202169 0.001270944394 -0.0005829024823)
(0.008718979839 0.002910322333 -0.001287529713)
(0.00376765662 0.0002953330766 3.943166786e-05)
(0.01359843981 0.005092845836 -0.000627145482)
(0.006770385001 -3.704356738e-05 0.0005086917381)
(0.00969900018 0.0003891477339 0.0003592682668)
(0.01362004516 -0.0001022917695 -0.0001371570916)
(0.005551628125 -0.0003189759775 7.225390211e-05)
(0.01077839306 0.001570844443 -0.001377626282)
(0.0102761299 0.0009836021515 -0.0004084538365)
(0.009932409337 0.0003673796914 0.0008701706726)
(0.008910991728 0.001600463546 0.0008826856556)
(0.003029645229 -0.0002110541765 0.0003257675543)
(0.01059300885 0.0002256018067 0.001393796684)
(0.00771718467 0.0008779328477 5.862169707e-05)
(0.009044487085 -0.0007163109162 -0.0003916858379)
(0.008434487826 -0.0001519892188 0.001056965326)
(0.009179674041 0.0003857963143 -0.0006208456977)
(0.006997647753 -7.05992494e-05 -6.439322548e-05)
(0.007505552479 0.001141213361 2.94088492e-05)
(0.008039626443 0.0004458289662 0.0002807091511)
(0.008652986053 0.0004045670131 0.0005686012105)
(0.005224227725 -0.0003139854661 0.0004789156614)
(0.008187867439 0.0005416729303 -0.000373818716)
(0.007918709431 0.0002412180416 0.0001675816639)
(0.009324951116 0.0008235507983 -0.0003362612885)
(0.005340400676 0.000314672009 -0.0002201483201)
(0.004621903971 -0.0004083937457 -5.950226076e-05)
(0.01015052629 0.0006279892711 -0.00121933408)
(0.005499926067 0.0008628891166 -0.0003214645322)
(0.009017756998 0.001321279734 0.000168325091)
(0.009495521647 0.0009231273014 0.001034649287)
(0.009520164095 -5.778455766e-05 -0.0004928031558)
(0.006165971131 0.001408256772 0.0003566984031)
(0.01081129268 -0.0005505363982 -0.0001783598532)
(0.01152388546 -0.0005091991987 0.0003146090519)
(0.003517827228 -0.0003125783997 0.0001810265801)
(0.01245399178 -0.0004815533613 0.0003507897771)
(0.01243646611 -0.0008797809991 -0.0009387026118)
(0.01011419137 0.0005740562721 0.0005219498315)
(0.008217205747 -1.69854662e-05 -0.0001760033217)
(0.009509719583 0.002518727452 0.0005175562821)
(0.008080551023 -6.913118212e-05 -0.0008157022238)
(0.008424853184 0.002309702582 -0.0001840078355)
(0.007401007857 0.0002246845755 -8.826858211e-05)
(0.007725749059 0.0004420877935 0.0001781818654)
(0.0104428858 -0.0003264933131 0.0001091005521)
(0.01085916975 -9.699411457e-05 0.0007307192637)
(0.008239670586 -0.0003699947313 -0.0003740349848)
(0.01120290844 0.000598196479 0.0003078627406)
(0.0140491993 -0.0001439452065 0.0002051358622)
(0.007692795011 -0.0006701742982 -0.0001186617098)
(0.0123198483 0.001210102247 0.0006169414729)
(0.007459293588 2.777053244e-05 1.692387987e-05)
(0.005037830663 -9.492230019e-05 0.0003169629068)
(0.01060709764 -8.70274153e-06 -0.001025530987)
(0.005959638711 0.0002080680422 0.0001438863338)
(0.006405173102 0.0003283436502 0.0001464773832)
(0.0104235661 0.000499009323 -0.0001961431673)
(0.01132544979 0.001231623453 -0.0004976405789)
(0.0105385882 0.0006208394146 -0.0001777665483)
(0.006057024453 -0.0001543522381 -0.0002776618628)
(0.009808795651 0.0009145711817 0.0003572641561)
(0.009348985182 -0.0001749026522 -0.001442515767)
(0.01220871393 0.0005093899034 8.534973747e-05)
(0.01265942313 0.00111938405 -0.0005819288067)
(0.003685510676 0.0005196210281 0.0006479384115)
(0.006307956465 -0.0002927448632 6.729678293e-06)
(0.01128298656 0.0002297273201 -0.0001145809188)
(0.01598137695 -0.001000997106 -0.0004166599884)
(0.01185920415 0.0001395320185 -0.00097849117)
(0.01125772295 0.0001796230816 0.0006178141549)
(0.008697025727 -0.0007350469673 0.0003287580385)
(0.005556042603 0.0003520004815 0.0005227557547)
(0.007623477903 -0.0006348288152 0.0002187211868)
(0.006388455604 0.0003671677142 7.776161049e-05)