/*--------------------------------*- C++ -*----------------------------------*\
| =========                 |                                                 |
| \\      /  F ield         | OpenFOAM: The Open Source CFD Toolbox           |
|  \\    /   O peration     | Version:  2406                                  |
|   \\  /    A nd           | Website:  www.openfoam.com                      |
|    \\/     M anipulation  |                                                 |
\*---------------------------------------------------------------------------*/
FoamFile
{
    version     2.0;
    format      ascii;
    arch        "LSB;label=32;scalar=64";
    class       volScalarField;
    location    "0.012";
    object      overallT;
}
// * * * * * * * * * * * * * * * * * * * * * * * * * * * * * * * * * * * * * //

dimensions      [1 2 -2 0 0 0 0];

internalField   nonuniform List<scalar> 
654
(
293.2739774
302.6124665
297.8454212
298.3331927
299.0747342
298.9190951
299.1139104
298.750679
298.677766
298.7713345
298.1636887
299.5456269
298.7759454
302.8234243
308.3278683
318.3593347
337.7098329
392.5062786
554.7592091
965.218691
294.8365135
303.2634657
300.7558312
301.2110128
300.8981579
300.8675837
300.9803945
300.9477237
302.2929198
301.7351808
300.7273519
300.9665097
305.4269739
308.1137804
311.6453171
325.6836809
355.8035088
428.5910894
593.4365004
862.3744394
294.3839024
304.4301172
298.5216055
298.712417
298.6908724
299.3498234
298.2691235
299.216817
298.5883146
299.4129734
300.5158413
300.2651566
302.12382
307.8002906
313.9023381
323.9834448
364.5118004
422.8095741
550.1132968
715.7214117
292.084636
302.080747
299.4737277
299.2078168
297.852378
297.4418973
297.7317858
298.6199086
300.1648345
298.6702291
300.5130016
301.0260282
302.8077867
304.4063519
312.8839839
326.8867274
350.0209911
401.9074527
485.5409722
611.4045437
293.4751204
303.6775983
298.2428051
298.8457915
300.6852892
300.6848691
300.8816598
301.1947441
300.7962083
300.3915244
300.7912602
301.6658329
302.8723475
304.7253654
309.1127988
322.657404
341.2473077
380.1000843
439.2424215
522.7631998
294.021592
303.6505588
300.0377673
300.087292
299.2879544
297.8419687
298.3329089
299.2650807
298.4444514
301.1554236
300.7293522
300.8628375
301.8271526
302.3479066
309.1104315
321.2881135
335.4135568
371.0961865
402.2946498
460.534415
293.6919389
303.1052118
298.6510216
299.1769625
300.3800111
301.4779828
299.8939058
298.2821626
299.3546499
300.1628474
300.4198088
301.5781085
302.4884724
303.3045113
310.3854349
318.0451618
332.7712032
346.6921614
372.5111484
414.2410405
293.2218523
302.9183774
299.6948125
301.3764408
299.903169
300.4369672
301.0441763
300.706483
300.578495
300.3631588
300.6665422
300.6651525
301.2288266
303.036466
309.0336721
310.8741401
322.0657267
338.0882437
354.0809635
378.6761565
297.1543238
306.2831304
300.7776602
300.5569604
300.0109621
300.3511664
300.1071531
301.0840044
301.2409266
300.4863161
301.219017
300.7615632
301.7959869
303.3968417
306.2582519
308.0659745
317.759552
327.8513397
338.9426677
356.8197882
295.4547666
304.7716692
301.4390671
301.2738941
301.2077205
301.6405533
300.74815
299.7426326
301.1907973
301.5027856
302.7187926
302.1824421
303.9216268
304.695197
303.8273444
307.9167606
312.1986947
320.1159753
329.7857551
344.9850678
295.8034896
304.207517
300.9034963
300.7473708
300.7818774
300.5870908
300.485158
301.5753478
300.7911093
300.6052261
299.7552836
299.990983
300.183879
299.9709521
303.6479264
303.5629413
306.9841844
314.8303251
318.882978
332.6404153
294.9921362
305.4404262
300.7455199
301.6503793
301.5672836
301.0218693
300.1461681
298.4823215
300.3298635
299.5464525
299.3466312
300.2259734
299.5578388
301.7238868
301.7308235
305.6014874
307.877004
312.6288319
314.7836865
325.0841571
293.1312843
303.357177
298.6041927
299.3872099
298.212648
298.6699432
300.8886463
302.915417
302.2462447
301.5278803
300.7549407
300.606121
302.0218656
301.8094672
301.4845926
303.6478808
305.3226884
307.9290339
312.4731142
316.3107301
292.7494535
301.3944634
298.2762881
298.9451453
299.5572138
300.6047407
299.4449217
299.3638953
298.6178391
298.5296271
300.791128
300.4859854
300.4467731
299.9788223
301.7568971
303.7953119
304.031278
304.2186111
308.0634937
311.0046211
295.0988638
305.2135131
300.666721
299.3926735
299.5033173
298.7165727
297.2478415
297.5232736
297.8706253
299.3070672
299.6940068
300.0767461
299.4660722
298.924149
299.9532555
301.667735
302.9737766
304.2842719
303.6354056
306.3649737
294.3273896
303.1166634
299.1077247
298.3518108
297.2037514
298.4968561
299.3734246
300.297635
299.0727391
299.2154921
300.4217014
299.5849942
299.8629431
300.9865049
301.1224628
301.8560684
303.2213646
303.2713181
305.4066871
308.5506743
294.6356329
304.1685087
298.861244
299.8295416
300.9686568
300.2558452
300.3601229
299.289799
299.9864683
299.7249292
300.522145
300.9941553
301.3330684
300.2836319
300.4250968
301.2570923
302.5604934
305.0401104
304.5573239
307.2388287
294.1939709
303.3420016
300.6898538
300.6276331
301.0255011
300.9196972
300.6045511
299.9141298
299.0948766
299.1129418
299.0714837
298.5380532
300.0422256
300.4337608
302.1404549
300.8577614
299.9230252
301.2237771
302.0411722
303.7528361
292.8675961
303.2487991
298.8570482
298.5520079
298.8030959
299.2209148
300.2970815
300.4860188
300.7073793
301.2485796
300.6587419
300.4780109
300.378259
299.4446634
299.9617049
300.6293211
300.4113616
300.6196863
300.5510536
300.6271721
293.2954907
302.4509477
299.1548781
298.9407537
299.6835112
298.2789462
297.4218914
297.5642647
297.2218516
295.8205849
297.3931723
298.5292527
300.3134785
300.1802099
300.3831093
299.5332462
299.7255076
300.4425485
302.3593553
302.2130183
295.4235243
304.72835
299.4837774
299.3184144
299.5302356
300.8256524
301.2632088
301.3393401
301.6096728
303.0696453
302.3039299
301.961281
300.4312567
299.0369577
299.2119126
300.3500668
301.3854275
300.9866061
301.2581368
301.8302288
293.5570098
303.8372326
298.8337882
299.6656611
299.143788
299.609652
299.691788
300.7681323
300.7820898
300.5265188
300.668167
300.4468358
301.3193629
301.9119074
301.7755679
300.2588084
299.59336
300.731587
301.0940496
301.0977111
1055.173902
994.8912302
962.9663556
936.1212429
916.9595079
901.425551
890.4863004
868.2121579
861.1696883
848.9335039
1011.14232
1010.96029
1000.708347
981.5438948
972.1193506
965.8917499
954.7752751
949.7783513
935.2263758
927.7781307
869.9145294
929.7230077
941.1825043
951.4156072
948.5983962
946.1028916
942.2245171
939.8570437
936.6969358
929.3644234
732.2161656
815.980723
862.1208401
885.8326386
898.8166576
901.8836443
905.8399396
901.0781074
910.1137762
914.2056981
614.9464871
698.8294087
754.6552323
805.4750417
832.6033436
852.2744634
869.1437142
864.6499457
873.6926842
878.3786296
536.2463057
607.2336665
660.9875473
719.7460137
755.8959352
786.6577006
813.7066291
823.9878074
841.7213707
844.2856618
464.8507157
529.8970448
568.6444091
631.4838876
670.3784334
707.6815358
737.329298
765.980605
784.8026158
798.3452023
416.6471662
466.3632237
500.678761
557.0045669
598.6044446
640.0511464
669.3240719
708.7428654
732.0960335
748.5633833
391.9564606
425.8896516
451.7859786
496.9930685
533.9534208
568.8530053
607.5458665
641.0993515
668.1219881
692.8270774
363.0199964
382.5314629
415.5113284
449.5218912
476.1611451
505.9445435
543.1974133
574.3941863
605.0547241
636.7829342
345.6235303
362.8465212
383.5732896
410.2876899
433.9133477
465.3140568
496.8665687
524.5189952
548.5683161
576.9304293
334.4575042
346.4534826
358.7615646
380.8877742
393.3886637
418.0704399
445.5098944
467.9266129
496.4858701
521.2219533
323.4593465
332.4453155
343.3536841
354.511837
367.4475842
386.8047315
405.3930167
427.0808462
445.891547
478.5990266
319.7330164
324.5560418
332.5453168
339.950444
351.9632548
359.7651016
374.6721174
397.8562271
417.7695715
437.8505056
314.6218983
317.6328071
324.0333554
327.336602
340.3419888
350.2148382
358.4657667
374.794331
391.2842631
407.4042746
308.2004154
313.0976044
319.6074829
323.0876987
328.6671302
339.9346896
346.3325001
355.2349916
369.1595031
380.0293139
307.654357
310.6862983
315.1115746
315.5265472
318.1537948
325.2539269
333.2723679
340.326794
348.0503419
359.4325018
307.6068954
307.6513882
309.3910297
311.4122138
312.2232901
317.5851451
324.1692093
328.7799177
338.2156179
347.052813
302.1350789
306.3156961
308.9039055
311.0805084
312.7442385
314.5413532
318.113324
324.0949799
327.3011152
336.4288265
303.0295531
302.8154725
305.8466863
306.6157611
308.3946549
310.988634
313.9152041
318.2360098
322.3638085
324.9853772
302.0361674
302.6821619
304.3147245
303.645915
305.194274
307.8839042
310.4211159
313.308834
318.2120249
320.938034
299.4991935
299.7765265
302.2514695
303.8791865
)
;

boundaryField
{
    flow
    {
        type            calculated;
        value           nonuniform List<scalar> 
42
(
293.2739774
294.8365135
294.3839024
292.084636
293.4751204
294.021592
293.6919389
293.2218523
297.1543238
295.4547666
295.8034896
294.9921362
293.1312843
292.7494535
295.0988638
294.3273896
294.6356329
294.1939709
292.8675961
293.2954907
295.4235243
293.5570098
293.2739774
302.6124665
297.8454212
298.3331927
299.0747342
298.9190951
299.1139104
298.750679
298.677766
298.7713345
298.1636887
299.5456269
298.7759454
302.8234243
308.3278683
318.3593347
337.7098329
392.5062786
554.7592091
965.218691
)
;
    }
    obstacle
    {
        type            calculated;
        value           nonuniform List<scalar> 10(932.900245 877.5271088 823.1000435 805.7208263 780.820852 776.369088 771.3671003 748.1142519 742.6271931 739.2642215);
    }
    frontAndBack
    {
        type            empty;
    }
    procBoundary0to1
    {
        type            processor;
        value           nonuniform List<scalar> 
21
(
841.0452924
916.2828978
928.9062138
909.3567747
877.7612533
847.6902603
813.6109694
764.8432084
716.450242
661.8968817
604.2379675
557.3468827
503.2542548
460.6355909
421.8240206
395.0282076
374.1516609
357.0531454
342.3295699
333.5612542
322.9399318
)
;
    }
    procBoundary0to2
    {
        type            processor;
        value           nonuniform List<scalar> 
31
(
293.2690333
303.7431899
299.6975271
300.2223745
299.6731664
298.4929075
298.462569
299.3221294
298.4923741
299.3897915
300.3833653
301.2195207
300.7688126
300.1066417
299.5050796
299.6029372
298.4951805
298.25735
298.8456229
300.0019879
305.5981421
306.3102177
306.4491681
307.1854707
310.8451547
313.938599
300.2975769
301.6065677
301.6268638
305.5981421
302.9050668
)
;
    }
}


// ************************************************************************* //
