/*--------------------------------*- C++ -*----------------------------------*\
| =========                 |                                                 |
| \\      /  F ield         | OpenFOAM: The Open Source CFD Toolbox           |
|  \\    /   O peration     | Version:  2406                                  |
|   \\  /    A nd           | Website:  www.openfoam.com                      |
|    \\/     M anipulation  |                                                 |
\*---------------------------------------------------------------------------*/
FoamFile
{
    version     2.0;
    format      ascii;
    arch        "LSB;label=32;scalar=64";
    class       volScalarField;
    location    "0.012";
    object      p;
}
// * * * * * * * * * * * * * * * * * * * * * * * * * * * * * * * * * * * * * //

dimensions      [1 -1 -2 0 0 0 0];

internalField   nonuniform List<scalar> 
654
(
0.3045940459
0.4112191797
0.4032769289
0.4060998978
0.4090303982
0.4092553892
0.408885061
0.4089114812
0.4072393935
0.4050777128
0.4052059683
0.406581428
0.4045528167
0.4143309929
0.4281401557
0.4526380797
0.4951495993
0.6264616803
1.033940186
2.482694798
0.3095297173
0.4188252171
0.4154100901
0.4151408636
0.4127711831
0.4146672558
0.4142991921
0.4145140206
0.4161553072
0.4143975897
0.4134131087
0.4176366902
0.4289513966
0.4361833517
0.4444637469
0.478268174
0.5488069385
0.7283304665
1.168188587
2.074194629
0.3129179738
0.4259173293
0.4123867132
0.412090516
0.4119192845
0.4117003386
0.4110628738
0.4140033491
0.4144688494
0.4147598177
0.4181528877
0.4149850053
0.4165635475
0.4313955869
0.4438179921
0.4659581077
0.5608230919
0.7013052273
1.023775413
1.521647651
0.3087918754
0.4180672352
0.4153125567
0.4146744867
0.4096500712
0.4098079211
0.4095537871
0.4100126307
0.4127106934
0.4137960695
0.4165945212
0.4177184426
0.4229893707
0.4223089648
0.4419038919
0.470481808
0.5238093565
0.6484525368
0.8600173743
1.212132504
0.3115254066
0.4210741595
0.409001582
0.4086143219
0.4144668735
0.4158855381
0.4159388381
0.4155199382
0.4130410346
0.4110287556
0.410923539
0.4139943599
0.418095879
0.4223799399
0.432859958
0.4666337141
0.5094055888
0.6009544505
0.7397238077
0.9556552442
0.3089709802
0.4187939455
0.4163998456
0.4137979439
0.411180384
0.4061599368
0.4076736393
0.4126461181
0.4102202615
0.4171518274
0.4155973631
0.4142969536
0.4121197029
0.4138512881
0.4340425964
0.4572400805
0.4912947483
0.5701920597
0.6497782688
0.7897606077
0.3116436581
0.4208466232
0.413458435
0.4149832607
0.4202154541
0.4197787542
0.416935319
0.4124563906
0.4154602025
0.4184189617
0.4169459527
0.4223437707
0.4236732974
0.4224487215
0.4368054513
0.4523402218
0.4860144374
0.5201174145
0.5848629671
0.6840591709
0.3093130368
0.4193385069
0.4124560421
0.4140897652
0.4126943838
0.414410631
0.4159937874
0.415051346
0.4136258585
0.4116636743
0.413238073
0.4103236176
0.4130095976
0.4191123764
0.4343036417
0.4385812364
0.4636644453
0.4976440757
0.5343989062
0.5933694216
0.3156221086
0.4276079802
0.4168229139
0.4170009868
0.4125807705
0.412876434
0.414316675
0.4174069734
0.4136808212
0.4116837818
0.4170849127
0.4181763373
0.417722165
0.4207450177
0.4258712756
0.4324751793
0.4554372872
0.4783049892
0.5046517152
0.5459102721
0.3096832969
0.4158411494
0.4129153089
0.4111705669
0.412862406
0.4137869302
0.4117352274
0.4104243502
0.4182776568
0.4178406996
0.4197712583
0.4191786902
0.4223478701
0.4233788696
0.4230269824
0.4319373472
0.442519093
0.4571373179
0.4802871793
0.5135183542
0.313971569
0.4219189446
0.4144213083
0.4137979935
0.4128433225
0.4117288621
0.4101683272
0.41400029
0.4115320909
0.4126699952
0.4133132848
0.4125820215
0.4157218952
0.4159791938
0.4234578653
0.4195824958
0.4263833295
0.4469384123
0.4599071532
0.4928384377
0.3125011194
0.4262615807
0.419483388
0.4197508997
0.4203934643
0.4190671831
0.4189617298
0.4159272068
0.4198979891
0.4155213168
0.4134846182
0.4116020375
0.408450612
0.4170643361
0.4182617025
0.4309585595
0.438582235
0.4459955749
0.4475246357
0.4693569998
0.311934156
0.4242785303
0.4140918064
0.4155327694
0.4128079633
0.4125018529
0.4172166007
0.4174469186
0.4153348518
0.4142781466
0.4175726311
0.4188259598
0.4224073364
0.4212114939
0.4176188948
0.4235216265
0.4280704227
0.4345304705
0.4476429657
0.4554170759
0.3120272753
0.4204272206
0.4166832388
0.4172892323
0.4178536698
0.4208145975
0.4170384858
0.4183482839
0.4181616569
0.4157209373
0.4180553912
0.4193569372
0.4177275293
0.4156799842
0.4184359388
0.4208141517
0.4208074925
0.4188687118
0.4285856213
0.4376774509
0.3106426274
0.423822184
0.414013683
0.4107352236
0.4139640999
0.4135508578
0.4131978546
0.4117481965
0.4144090866
0.4167947619
0.4169546117
0.4171083711
0.4182899261
0.4147785257
0.4162266746
0.41899868
0.4222486073
0.4239595321
0.4216230924
0.4244685313
0.3113022103
0.420368781
0.4137779793
0.4130196196
0.4076308447
0.4092379277
0.4109181915
0.412563679
0.4127472595
0.4116527353
0.4152323521
0.4110154358
0.4069309421
0.4119760498
0.4147350664
0.4170964158
0.4201126972
0.4196972078
0.4259743646
0.4280311002
0.3113440801
0.4182791648
0.4076158957
0.4108083145
0.4134007546
0.4140947061
0.411015515
0.4096548733
0.4090831274
0.4079308068
0.4101880338
0.4126667979
0.4150035805
0.4150620668
0.4122761208
0.415748629
0.4182563052
0.4247604662
0.422229571
0.4282800226
0.3073624353
0.4183633649
0.4137746743
0.4137958051
0.4123316235
0.410463165
0.410571408
0.4094283303
0.4075123911
0.4089305129
0.4109055742
0.4095943989
0.4128530943
0.4121887127
0.4173418705
0.4150989164
0.4142687102
0.4155386084
0.4158871907
0.4204458756
0.3101111996
0.4222525956
0.412345348
0.4089991997
0.4117683949
0.4143994073
0.4161082246
0.4184690098
0.4160054614
0.4165660199
0.4148070225
0.414813409
0.413520465
0.4131320138
0.413040216
0.4125631038
0.4131225219
0.4147232957
0.414783261
0.4128765512
0.3095511914
0.4196394475
0.4178567688
0.4173724201
0.4167585831
0.4135397914
0.4116408648
0.4104548189
0.4102574642
0.4090924957
0.4117813374
0.4140107242
0.4170177654
0.4150870144
0.4158241239
0.4132725064
0.4141882238
0.4152838853
0.4202719388
0.4214412568
0.3120907161
0.4203861827
0.4074238981
0.4088781572
0.4102516945
0.4129124326
0.412636584
0.4085873548
0.4105405847
0.4148841687
0.4150735408
0.4150389743
0.4122385739
0.412781736
0.4140979025
0.4168660357
0.4181317866
0.4181878569
0.4183198775
0.4187426232
0.3092987074
0.4219379419
0.4127434077
0.4112535927
0.4107388654
0.4108855813
0.4130761683
0.4167421186
0.4179416956
0.4160906969
0.4145315089
0.4137116583
0.4164484518
0.4173935938
0.4160940642
0.4135840001
0.4109873734
0.4132150177
0.416166713
0.4169378178
4.66459083
4.821555114
4.79532697
4.681608073
4.528266703
4.461024099
4.378588783
4.248533805
4.082389184
3.999037735
3.070593321
3.571019397
3.848879715
3.968697716
4.064906054
4.125953387
4.055906168
4.074457725
4.006416123
3.921177031
2.172522684
2.660932863
2.945877238
3.220452718
3.378749806
3.536461769
3.617283695
3.70768603
3.71120984
3.694018338
1.6190046
1.991481163
2.295945839
2.586431943
2.78148413
2.95290841
3.133593396
3.220023014
3.350579764
3.43699949
1.224785566
1.529866486
1.776704265
2.048849909
2.282152807
2.455331891
2.656352441
2.757653048
2.92864601
3.074816723
0.9912788445
1.212491128
1.398649503
1.635123937
1.83246812
2.048054918
2.258941174
2.421192322
2.60132571
2.709535677
0.8120771257
0.9871760058
1.114430414
1.329591379
1.491401612
1.676521763
1.846005064
2.036459277
2.218506257
2.364394909
0.6869987401
0.815787701
0.9180309283
1.086156142
1.223554056
1.37822576
1.524300308
1.708399979
1.878952373
2.024723997
0.6269589746
0.7110950052
0.7834843541
0.9088172496
1.016612502
1.135140624
1.276781202
1.409999884
1.550613134
1.706112111
0.5617167433
0.6106891852
0.6966762863
0.7818879973
0.8564434602
0.9430425534
1.067474299
1.172276922
1.288265092
1.419715091
0.5211097191
0.5576031826
0.6154554595
0.6849553722
0.7481207868
0.8285486562
0.9175526339
1.011403773
1.085315724
1.193608439
0.4916538534
0.5197460089
0.5462865249
0.603007842
0.6328707868
0.7009463524
0.7716580622
0.8438753496
0.9365342168
1.010919701
0.4715239841
0.4925712891
0.517578969
0.5396131438
0.5725849045
0.6234492618
0.6748506384
0.7295475688
0.7784524161
0.882438653
0.457987997
0.4697639752
0.4888829524
0.5060231445
0.5330464651
0.5512623026
0.5838231618
0.643115831
0.7007648398
0.7608992109
0.4422108252
0.4481378879
0.4634267254
0.4707860186
0.4973706286
0.5275502589
0.5473295971
0.5854127001
0.6257853847
0.6672568047
0.4313090317
0.4419972357
0.4572907123
0.4640921047
0.479466716
0.499687063
0.5158881913
0.5413196788
0.5775142238
0.6036237053
0.4274124124
0.436152808
0.4437821006
0.4469387663
0.4524969574
0.4687199684
0.4907824188
0.5074446236
0.5242710037
0.5572524364
0.4295838852
0.4261013614
0.431478143
0.4378125392
0.4431710111
0.455324081
0.4689961896
0.4776004298
0.4977231824
0.5182927183
0.4191545535
0.4310737499
0.4372325793
0.4439858947
0.4450467041
0.446628306
0.4551231299
0.4672520517
0.4753169105
0.4975252276
0.4215509257
0.4228596696
0.4278663912
0.4261028506
0.4320634705
0.4388591715
0.4470809118
0.4569509655
0.4625924745
0.4670118474
0.4176571018
0.4197476291
0.4240972356
0.4229042702
0.4248118596
0.4314939287
0.4346436125
0.4434083918
0.4588096776
0.4651438927
0.4123921239
0.4123221616
0.4182153113
0.4219417706
)
;

boundaryField
{
    flow
    {
        type            calculated;
        value           nonuniform List<scalar> 
42
(
0.3045940459
0.3095297173
0.3129179738
0.3087918754
0.3115254066
0.3089709802
0.3116436581
0.3093130368
0.3156221086
0.3096832969
0.313971569
0.3125011194
0.311934156
0.3120272753
0.3106426274
0.3113022103
0.3113440801
0.3073624353
0.3101111996
0.3095511914
0.3120907161
0.3092987074
0.3045940459
0.4112191797
0.4032769289
0.4060998978
0.4090303982
0.4092553892
0.408885061
0.4089114812
0.4072393935
0.4050777128
0.4052059683
0.406581428
0.4045528167
0.4143309929
0.4281401557
0.4526380797
0.4951495993
0.6264616803
1.033940186
2.482694798
)
;
    }
    obstacle
    {
        type            calculated;
        value           nonuniform List<scalar> 10(3.673562119 3.69638152 3.661877531 3.574138773 3.519894872 3.458188352 3.460641306 3.463006509 3.323552903 3.291009088);
    }
    frontAndBack
    {
        type            empty;
    }
    procBoundary0to1
    {
        type            processor;
        value           nonuniform List<scalar> 
21
(
3.929182382
3.898193264
3.689551403
3.423043671
3.14076062
2.84821295
2.513380053
2.155905179
1.862210989
1.557812467
1.311206728
1.127700244
0.9561328966
0.8183438384
0.7182015478
0.6413840526
0.5934603968
0.5442984151
0.5136969468
0.4877241643
0.4666938283
)
;
    }
    procBoundary0to2
    {
        type            processor;
        value           nonuniform List<scalar> 
31
(
0.3076095642
0.4191528503
0.4131272728
0.4144240589
0.4138178834
0.413013742
0.4144314408
0.4157574814
0.4117411156
0.4155126674
0.418317256
0.4201898397
0.4181107039
0.4140166732
0.4123176568
0.4131618425
0.41211166
0.4127144224
0.4117106449
0.4125818641
0.426277099
0.4278819892
0.427887815
0.4292447151
0.4370143341
0.4475103079
0.4145983294
0.4179128642
0.4160976218
0.426277099
0.4160632538
)
;
    }
}


// ************************************************************************* //
