/*--------------------------------*- C++ -*----------------------------------*\
| =========                 |                                                 |
| \\      /  F ield         | OpenFOAM: The Open Source CFD Toolbox           |
|  \\    /   O peration     | Version:  2406                                  |
|   \\  /    A nd           | Website:  www.openfoam.com                      |
|    \\/     M anipulation  |                                                 |
\*---------------------------------------------------------------------------*/
FoamFile
{
    version     2.0;
    format      ascii;
    arch        "LSB;label=32;scalar=64";
    class       volScalarField;
    location    "0.012";
    object      rhoM;
}
// * * * * * * * * * * * * * * * * * * * * * * * * * * * * * * * * * * * * * //

dimensions      [1 -3 0 0 0 0 0];

internalField   nonuniform List<scalar> 
654
(
3.52763771e-06
3.596578377e-06
3.942947953e-06
6.364202506e-06
4.427198864e-06
7.746348332e-06
5.395700685e-06
2.00594431e-06
9.061219729e-06
3.458697042e-06
5.395700685e-06
3.52763771e-06
2.490195221e-06
7.608466997e-06
1.937003643e-06
5.464641352e-06
2.143825645e-06
2.490195221e-06
3.389756375e-06
7.470585662e-06
2.490195221e-06
3.52763771e-06
7.055275419e-06
4.080829287e-06
2.421254554e-06
2.074884977e-06
7.53952633e-06
5.187212443e-06
4.842509107e-07
2.559135888e-06
5.879951596e-06
4.149769955e-06
6.571024508e-06
6.155714265e-06
4.842509107e-06
8.576968818e-06
6.364202506e-06
5.464641352e-06
4.01188862e-06
1.023654355e-05
2.490195221e-06
6.917394084e-06
4.496139531e-06
6.433143174e-06
5.53358202e-06
4.496139531e-06
2.974446132e-06
3.458697042e-06
1.937003643e-06
5.879951596e-06
3.043386799e-06
7.401644995e-06
4.496139531e-06
4.01188862e-06
3.52763771e-06
6.986334752e-06
4.427198864e-06
5.049331109e-06
8.370146817e-06
3.874007286e-06
4.427198864e-06
5.602522687e-06
6.433143174e-06
4.427198864e-06
4.496139531e-06
5.464641352e-06
2.905505464e-06
6.848453417e-06
5.948892263e-06
3.596578377e-06
6.986334752e-06
4.01188862e-06
4.427198864e-06
5.811010928e-06
3.942947953e-06
5.879951596e-06
4.358258196e-06
5.53358202e-06
2.421254554e-06
3.458697042e-06
2.421254554e-06
6.155714265e-06
2.00594431e-06
5.879951596e-06
2.559135888e-06
2.905505464e-06
6.433143174e-06
4.565080198e-06
7.124216086e-06
4.565080198e-06
5.049331109e-06
6.155714265e-06
2.00594431e-06
6.01783293e-06
3.181268133e-06
3.389756375e-06
6.433143174e-06
6.086773598e-06
7.124216086e-06
2.421254554e-06
2.559135888e-06
4.911449774e-06
6.502083841e-06
4.01188862e-06
4.980390442e-06
6.01783293e-06
2.974446132e-06
4.149769955e-06
4.01188862e-06
4.565080198e-06
3.112327466e-06
5.464641352e-06
4.080829287e-06
4.911449774e-06
4.080829287e-06
2.421254554e-06
3.043386799e-06
5.602522687e-06
8.092717908e-06
4.634020865e-06
4.01188862e-06
4.565080198e-06
7.954836573e-06
3.874007286e-06
4.980390442e-06
4.565080198e-06
4.080829287e-06
5.049331109e-06
5.464641352e-06
4.427198864e-06
7.816955239e-06
6.364202506e-06
4.358258196e-06
4.427198864e-06
3.942947953e-06
5.187212443e-06
2.628076555e-06
2.00594431e-06
5.464641352e-06
9.407589305e-06
3.458697042e-06
4.427198864e-06
3.112327466e-06
1.937003643e-06
6.571024508e-06
4.01188862e-06
5.395700685e-06
4.496139531e-06
4.496139531e-06
2.490195221e-06
6.502083841e-06
4.980390442e-06
5.049331109e-06
2.974446132e-06
3.458697042e-06
3.52763771e-06
4.080829287e-06
5.879951596e-06
2.490195221e-06
4.911449774e-06
2.559135888e-06
7.401644995e-06
4.080829287e-06
3.458697042e-06
4.358258196e-06
4.149769955e-06
2.974446132e-06
4.427198864e-06
5.948892263e-06
4.149769955e-06
5.049331109e-06
6.155714265e-06
3.596578377e-06
2.074884977e-06
4.496139531e-06
6.986334752e-06
4.496139531e-06
4.01188862e-06
4.565080198e-06
5.464641352e-06
4.565080198e-06
4.565080198e-06
3.874007286e-06
5.049331109e-06
4.01188862e-06
2.905505464e-06
7.885895906e-06
6.433143174e-06
3.942947953e-06
4.565080198e-06
4.565080198e-06
5.395700685e-06
7.263763661e-06
3.043386799e-06
4.427198864e-06
6.364202506e-06
4.980390442e-06
1.937003643e-06
5.53358202e-06
2.905505464e-06
4.080829287e-06
4.634020865e-06
2.490195221e-06
7.608466997e-06
4.080829287e-06
4.427198864e-06
3.389756375e-06
6.086773598e-06
3.52763771e-06
2.490195221e-06
6.086773598e-06
4.427198864e-06
7.746348332e-06
7.332704328e-06
3.52763771e-06
5.118271776e-06
6.01783293e-06
6.155714265e-06
4.358258196e-06
5.53358202e-06
3.458697042e-06
5.53358202e-06
5.395700685e-06
6.848453417e-06
5.049331109e-06
4.01188862e-06
6.155714265e-06
6.848453417e-06
5.53358202e-06
4.702961533e-06
3.942947953e-06
4.911449774e-06
4.01188862e-06
8.161658575e-06
4.496139531e-06
6.086773598e-06
5.464641352e-06
6.086773598e-06
3.52763771e-06
8.854397727e-06
5.118271776e-06
6.295261839e-06
4.01188862e-06
6.01783293e-06
6.01783293e-06
3.942947953e-06
8.02377724e-06
3.458697042e-06
7.055275419e-06
6.571024508e-06
3.52763771e-06
2.974446132e-06
3.52763771e-06
5.602522687e-06
4.496139531e-06
3.043386799e-06
5.948892263e-06
5.395700685e-06
3.043386799e-06
4.01188862e-06
3.458697042e-06
4.080829287e-06
6.01783293e-06
2.00594431e-06
5.53358202e-06
5.53358202e-06
5.53358202e-06
4.427198864e-06
4.980390442e-06
3.942947953e-06
4.427198864e-06
5.53358202e-06
5.879951596e-06
3.112327466e-06
5.395700685e-06
5.53358202e-06
6.502083841e-06
3.52763771e-06
6.01783293e-06
7.055275419e-06
4.565080198e-06
5.464641352e-06
2.490195221e-06
7.055275419e-06
6.01783293e-06
3.389756375e-06
4.980390442e-06
5.326760018e-06
4.980390442e-06
2.974446132e-06
4.980390442e-06
1.937003643e-06
4.496139531e-06
6.086773598e-06
5.53358202e-06
3.942947953e-06
5.879951596e-06
2.490195221e-06
4.149769955e-06
5.879951596e-06
3.043386799e-06
4.358258196e-06
3.043386799e-06
4.01188862e-06
6.433143174e-06
2.421254554e-06
3.942947953e-06
2.421254554e-06
4.149769955e-06
4.427198864e-06
2.559135888e-06
4.980390442e-06
5.811010928e-06
5.671463354e-06
4.911449774e-06
1.937003643e-06
3.942947953e-06
4.01188862e-06
4.496139531e-06
9.061219729e-06
3.52763771e-06
3.458697042e-06
7.401644995e-06
4.911449774e-06
4.496139531e-06
5.53358202e-06
4.565080198e-06
8.508028151e-06
5.602522687e-06
6.433143174e-06
4.911449774e-06
2.905505464e-06
6.01783293e-06
5.464641352e-06
6.433143174e-06
4.01188862e-06
4.496139531e-06
3.942947953e-06
4.149769955e-06
4.911449774e-06
4.01188862e-06
4.01188862e-06
4.911449774e-06
6.639965176e-06
5.948892263e-06
4.842509107e-06
4.01188862e-06
3.112327466e-06
5.948892263e-06
5.602522687e-06
5.53358202e-06
4.080829287e-06
5.395700685e-06
5.464641352e-06
2.074884977e-06
2.628076555e-06
6.502083841e-06
8.370146817e-06
4.496139531e-06
2.00594431e-06
3.52763771e-06
4.01188862e-06
5.049331109e-06
3.596578377e-06
3.458697042e-06
5.464641352e-06
4.496139531e-06
6.986334752e-06
4.911449774e-06
5.602522687e-06
7.124216086e-06
4.842509107e-06
4.01188862e-06
2.559135888e-06
5.118271776e-06
4.358258196e-06
2.490195221e-06
6.986334752e-06
5.948892263e-06
6.01783293e-06
3.942947953e-06
7.124216086e-06
4.427198864e-06
6.571024508e-06
3.942947953e-06
6.086773598e-06
3.942947953e-06
3.942947953e-06
5.53358202e-06
4.496139531e-06
7.124216086e-06
6.086773598e-06
5.602522687e-06
6.086773598e-06
3.596578377e-06
5.049331109e-06
1.452752732e-06
6.986334752e-06
3.942947953e-06
1.452752732e-06
3.942947953e-06
4.01188862e-06
7.470585662e-06
4.496139531e-06
1.521693399e-06
4.842509107e-06
5.464641352e-06
4.01188862e-06
3.942947953e-06
2.490195221e-06
3.043386799e-06
3.458697042e-06
5.395700685e-06
5.049331109e-06
6.086773598e-06
4.358258196e-06
5.53358202e-06
5.049331109e-06
8.854397727e-06
4.496139531e-06
4.01188862e-06
4.01188862e-06
2.559135888e-06
5.53358202e-06
7.954836573e-06
5.118271776e-06
3.043386799e-06
4.980390442e-06
3.52763771e-06
4.080829287e-06
5.879951596e-06
3.389756375e-06
2.421254554e-06
2.905505464e-06
6.364202506e-06
2.974446132e-06
7.470585662e-06
3.874007286e-06
4.565080198e-06
2.974446132e-06
1.374380742e-05
8.527248498e-06
1.541221663e-05
1.169358053e-05
1.855520087e-05
1.595576091e-05
1.708284364e-05
1.858938584e-05
1.608022604e-05
1.375748042e-05
7.289522829e-06
1.104345816e-05
6.615498342e-06
1.417253681e-05
1.184680855e-05
1.221882779e-05
1.520020008e-05
1.83714103e-05
1.255681059e-05
1.013292974e-05
4.998052181e-06
8.666570242e-06
9.149129516e-06
5.173223469e-06
6.066520087e-06
9.343198445e-06
1.389817266e-05
9.477217275e-06
8.003521324e-06
1.390491222e-05
6.108358855e-06
6.500348597e-06
6.755784712e-06
1.133871229e-05
8.207240316e-06
6.46756911e-06
1.165307989e-05
1.618463033e-05
1.277636076e-05
1.323968746e-05
5.553205518e-06
2.446548787e-06
6.755784712e-06
7.087121972e-06
9.84834457e-06
6.324307026e-06
1.027891136e-05
1.202904594e-05
8.517573847e-06
1.220410156e-05
4.512083993e-06
5.102080194e-06
4.434278388e-06
8.646152224e-06
7.778752446e-06
5.821158447e-06
6.225059705e-06
5.686681576e-06
1.079333407e-05
1.124223155e-05
3.054179428e-06
3.075180291e-06
5.630103144e-06
4.535826347e-06
7.70762433e-06
5.677896368e-06
7.166381502e-06
5.176315851e-06
5.947311254e-06
8.579550872e-06
3.401777319e-06
3.564490051e-06
3.589169563e-06
6.449724838e-06
8.207240316e-06
6.755824549e-06
4.77700647e-06
6.78007157e-06
2.12939346e-06
9.541420881e-06
4.026115804e-06
6.011038836e-06
7.53075035e-06
3.047428303e-06
7.208008334e-06
6.46756911e-06
6.297200833e-06
5.539608448e-06
2.570262587e-06
6.434663154e-06
4.650454293e-06
5.17174107e-06
5.06726236e-06
6.094856607e-06
4.139184224e-06
4.74323027e-06
5.646187135e-06
5.248974371e-06
3.230681886e-06
5.399077245e-06
4.373713696e-06
5.171741067e-06
3.096471962e-06
2.551295623e-06
6.279904463e-06
3.593671038e-06
6.22505971e-06
5.68668158e-06
4.99238961e-06
4.216059536e-06
5.622390667e-06
6.639670343e-06
1.970790396e-06
7.795151309e-06
7.065752075e-06
5.821158456e-06
4.777006487e-06
6.780071613e-06
4.772839462e-06
5.916870225e-06
4.581269141e-06
4.543109575e-06
5.630103163e-06
6.165488829e-06
4.638800201e-06
7.402235197e-06
8.324126642e-06
4.228242869e-06
8.14988807e-06
4.289775436e-06
2.915809121e-06
5.941377927e-06
4.011723947e-06
3.969061428e-06
5.709160344e-06
6.970717666e-06
6.441483048e-06
3.134852914e-06
5.800944448e-06
5.916870157e-06
7.011110121e-06
7.478968128e-06
2.463487993e-06
3.684825441e-06
6.708392383e-06
8.625156785e-06
6.513624216e-06
6.415022912e-06
5.654577707e-06
3.106757727e-06
4.095300947e-06
3.984138943e-06
6.12280078e-06
4.039693677e-06
3.21108036e-06
5.246378863e-06
2.677939528e-06
4.228242869e-06
3.084315091e-06
3.771982481e-06
5.553205511e-06
4.543109545e-06
5.559959918e-06
6.024224364e-06
5.495775963e-06
2.084225322e-06
4.342416144e-06
6.124388833e-06
3.157498504e-06
7.543964963e-06
5.414835214e-06
6.150360598e-06
4.71485116e-06
6.661621487e-06
4.567672065e-06
4.528337126e-06
3.691402415e-06
2.04146293e-06
3.744734414e-06
4.73385249e-06
4.998052208e-06
9.016558278e-06
2.04093358e-06
6.520357087e-06
3.139952234e-06
3.522039987e-06
2.677939528e-06
6.780071561e-06
3.817917778e-06
2.662680691e-06
3.956930651e-06
3.075180299e-06
3.096471962e-06
6.732253709e-06
5.638032217e-06
4.096819628e-06
4.704865354e-06
5.394291402e-06
4.185603542e-06
3.327905427e-06
5.484020362e-06
8.037938706e-06
1.970790395e-06
4.677090805e-06
5.709160344e-06
3.736933118e-06
3.619261318e-06
6.780071608e-06
4.699656061e-06
6.952456108e-06
7.913861301e-06
4.68243129e-06
4.644707943e-06
4.535826359e-06
)
;

boundaryField
{
    flow
    {
        type            zeroGradient;
    }
    obstacle
    {
        type            calculated;
        value           nonuniform List<scalar> 10(1.91033555e-24 4.400086154e-24 1.269523594e-23 6.396597197e-24 9.598318918e-24 8.102935774e-24 6.162326186e-24 7.834185481e-24 1e-300 3.965727218e-24);
    }
    frontAndBack
    {
        type            empty;
    }
    procBoundary0to1
    {
        type            processor;
        value           nonuniform List<scalar> 
21
(
1.125037757e-05
1.214324688e-05
1.639020888e-05
1.497575135e-05
1.296365467e-05
9.611356695e-06
6.929159345e-06
7.673516217e-06
6.780646918e-06
4.172705793e-06
4.768550233e-06
4.246962024e-06
7.003415541e-06
5.290138442e-06
2.756453564e-06
5.960239096e-06
3.203785551e-06
4.172705811e-06
6.630339798e-06
4.395474428e-06
5.364394696e-06
)
;
    }
    procBoundary0to2
    {
        type            processor;
        value           nonuniform List<scalar> 
31
(
2.905505464e-06
5.53358202e-06
5.811010928e-06
4.496139531e-06
6.01783293e-06
3.458697042e-06
4.634020865e-06
4.496139531e-06
3.458697042e-06
8.923338395e-06
5.948892263e-06
3.458697042e-06
8.161658575e-06
4.149769955e-06
6.917394084e-06
7.53952633e-06
3.52763771e-06
4.01188862e-06
3.458697042e-06
6.364202506e-06
6.20877634e-06
3.59367103e-06
4.270274991e-06
4.81126715e-06
6.388180399e-06
3.771982481e-06
5.274792768e-06
5.3807237e-06
3.236758332e-06
6.20877634e-06
6.024224364e-06
)
;
    }
}


// ************************************************************************* //
