/*--------------------------------*- C++ -*----------------------------------*\
| =========                 |                                                 |
| \\      /  F ield         | OpenFOAM: The Open Source CFD Toolbox           |
|  \\    /   O peration     | Version:  2406                                  |
|   \\  /    A nd           | Website:  www.openfoam.com                      |
|    \\/     M anipulation  |                                                 |
\*---------------------------------------------------------------------------*/
FoamFile
{
    version     2.0;
    format      ascii;
    arch        "LSB;label=32;scalar=64";
    class       volScalarField;
    location    "0.012";
    object      rhoMMean;
}
// * * * * * * * * * * * * * * * * * * * * * * * * * * * * * * * * * * * * * //

dimensions      [1 -3 0 0 0 0 0];

internalField   nonuniform List<scalar> 
654
(
3.660731382e-06
4.712404564e-06
4.741500858e-06
4.741961851e-06
4.751679396e-06
4.751850915e-06
4.741755585e-06
4.752475268e-06
4.734242649e-06
4.717476598e-06
4.736623601e-06
4.733290185e-06
4.723561983e-06
4.731189161e-06
4.748377569e-06
4.776862665e-06
4.772092707e-06
4.857646582e-06
5.145339285e-06
6.51656093e-06
3.701289392e-06
4.760604678e-06
4.805230083e-06
4.785918608e-06
4.784118375e-06
4.796891352e-06
4.793005022e-06
4.787947811e-06
4.78913157e-06
4.785275162e-06
4.786568997e-06
4.800774246e-06
4.82518018e-06
4.839933621e-06
4.846750763e-06
4.89500444e-06
4.943747922e-06
5.084996865e-06
5.395454637e-06
6.242887066e-06
3.728586841e-06
4.799476801e-06
4.798943812e-06
4.782750497e-06
4.792481198e-06
4.785504409e-06
4.797104006e-06
4.795268192e-06
4.807302747e-06
4.798548705e-06
4.815873051e-06
4.80344561e-06
4.787037141e-06
4.811306582e-06
4.817179209e-06
4.8130905e-06
4.870906969e-06
4.97424535e-06
5.195895705e-06
5.704545189e-06
3.732739666e-06
4.78266052e-06
4.825487913e-06
4.818177356e-06
4.793171715e-06
4.784253098e-06
4.784343908e-06
4.778842574e-06
4.778061525e-06
4.793082849e-06
4.784047664e-06
4.79155272e-06
4.807816087e-06
4.772691026e-06
4.786333919e-06
4.782460744e-06
4.81679521e-06
4.911799025e-06
5.099612044e-06
5.474208241e-06
3.72554401e-06
4.777926802e-06
4.768310447e-06
4.771998668e-06
4.792924591e-06
4.797021354e-06
4.788821614e-06
4.787781673e-06
4.77793857e-06
4.769188139e-06
4.76503698e-06
4.766365563e-06
4.784061202e-06
4.789243312e-06
4.803275654e-06
4.848504654e-06
4.86577266e-06
4.947984405e-06
5.057272511e-06
5.236772556e-06
3.700422635e-06
4.746923983e-06
4.801694288e-06
4.758483833e-06
4.757939632e-06
4.748578281e-06
4.750113131e-06
4.779109069e-06
4.768754569e-06
4.794583784e-06
4.78962554e-06
4.776454957e-06
4.737917714e-06
4.741351209e-06
4.78753139e-06
4.783686854e-06
4.815587186e-06
4.871473421e-06
4.931574652e-06
5.058666807e-06
3.722837724e-06
4.786257098e-06
4.813082342e-06
4.809569527e-06
4.841006089e-06
4.828785471e-06
4.82487616e-06
4.807777174e-06
4.829797156e-06
4.837795732e-06
4.820721669e-06
4.838466324e-06
4.853480879e-06
4.826199189e-06
4.828576983e-06
4.823404593e-06
4.842137952e-06
4.867602087e-06
4.934473944e-06
5.021010311e-06
3.715133448e-06
4.771821492e-06
4.791230823e-06
4.772935477e-06
4.775460143e-06
4.78185826e-06
4.787940035e-06
4.784345956e-06
4.783942136e-06
4.766856028e-06
4.768022916e-06
4.740412179e-06
4.759896561e-06
4.777818948e-06
4.786170002e-06
4.80877598e-06
4.839947992e-06
4.867225794e-06
4.911337754e-06
4.953058765e-06
3.735827625e-06
4.803904833e-06
4.821356125e-06
4.824874772e-06
4.790885009e-06
4.781063776e-06
4.792042629e-06
4.802141014e-06
4.770993093e-06
4.771325751e-06
4.807340272e-06
4.826010349e-06
4.80178909e-06
4.794495577e-06
4.793516974e-06
4.819995466e-06
4.842295377e-06
4.861627888e-06
4.87603746e-06
4.93961648e-06
3.711499623e-06
4.740395586e-06
4.791722295e-06
4.7757081e-06
4.793474346e-06
4.7975776e-06
4.779294577e-06
4.78241107e-06
4.815953377e-06
4.813625432e-06
4.800309921e-06
4.79761818e-06
4.808305059e-06
4.798928886e-06
4.803295857e-06
4.815812163e-06
4.83008302e-06
4.819365558e-06
4.860985379e-06
4.869010268e-06
3.732578804e-06
4.787304364e-06
4.791936441e-06
4.786728193e-06
4.774064563e-06
4.765005009e-06
4.755910152e-06
4.765328676e-06
4.760579754e-06
4.771207239e-06
4.794317567e-06
4.787224767e-06
4.809105202e-06
4.810789978e-06
4.800006457e-06
4.765458122e-06
4.772146269e-06
4.815639812e-06
4.85131751e-06
4.890674161e-06
3.72687176e-06
4.810719927e-06
4.845102679e-06
4.840606261e-06
4.852541016e-06
4.855730997e-06
4.864250793e-06
4.869377778e-06
4.861941662e-06
4.836356413e-06
4.815466627e-06
4.791590627e-06
4.770536369e-06
4.812613573e-06
4.823416465e-06
4.863745505e-06
4.876413405e-06
4.854356175e-06
4.841111548e-06
4.856598587e-06
3.730649681e-06
4.78988898e-06
4.804818383e-06
4.796364473e-06
4.781572396e-06
4.774069284e-06
4.79710234e-06
4.778888813e-06
4.77018573e-06
4.774044082e-06
4.806390585e-06
4.825606529e-06
4.830787527e-06
4.828796406e-06
4.802199575e-06
4.806707205e-06
4.831543549e-06
4.844304203e-06
4.862032924e-06
4.868291216e-06
3.740534196e-06
4.796138004e-06
4.835425992e-06
4.83998458e-06
4.850196755e-06
4.853413882e-06
4.832477025e-06
4.843555124e-06
4.8555944e-06
4.841912038e-06
4.824253091e-06
4.840842069e-06
4.833995559e-06
4.837177383e-06
4.832521215e-06
4.817882952e-06
4.793774373e-06
4.769449148e-06
4.789297604e-06
4.817011196e-06
3.702197944e-06
4.781519388e-06
4.798268395e-06
4.786394424e-06
4.800314642e-06
4.818828023e-06
4.829552705e-06
4.823199159e-06
4.829032873e-06
4.83778386e-06
4.83976488e-06
4.828256648e-06
4.847991036e-06
4.813408786e-06
4.801556129e-06
4.791152892e-06
4.795914415e-06
4.795642263e-06
4.787831417e-06
4.777103853e-06
3.736829764e-06
4.79337937e-06
4.813574751e-06
4.80530857e-06
4.765708128e-06
4.767838241e-06
4.780862612e-06
4.780428487e-06
4.784808615e-06
4.77102312e-06
4.770217423e-06
4.754755587e-06
4.705380149e-06
4.732343275e-06
4.750628519e-06
4.775108392e-06
4.790221638e-06
4.782955375e-06
4.80245385e-06
4.777621672e-06
3.718052666e-06
4.736660016e-06
4.755009758e-06
4.76519496e-06
4.784205471e-06
4.796011335e-06
4.759236522e-06
4.761719497e-06
4.749152231e-06
4.745331509e-06
4.75651163e-06
4.772171575e-06
4.792691178e-06
4.81370142e-06
4.782134023e-06
4.792404203e-06
4.796462886e-06
4.816779832e-06
4.798545269e-06
4.805026872e-06
3.706719285e-06
4.780447753e-06
4.801405647e-06
4.806289395e-06
4.784352065e-06
4.760795289e-06
4.777858972e-06
4.778001297e-06
4.786426395e-06
4.796308967e-06
4.80805738e-06
4.798003289e-06
4.800930664e-06
4.791511585e-06
4.811636636e-06
4.798681761e-06
4.811146449e-06
4.795765599e-06
4.800624979e-06
4.799146746e-06
3.725396305e-06
4.799469754e-06
4.805265665e-06
4.776372582e-06
4.792593877e-06
4.815326246e-06
4.804226278e-06
4.817798182e-06
4.7929332e-06
4.790046509e-06
4.783695185e-06
4.787696417e-06
4.76661241e-06
4.778913737e-06
4.772559358e-06
4.766528646e-06
4.789041871e-06
4.793516141e-06
4.788097182e-06
4.786237554e-06
3.715951468e-06
4.786312049e-06
4.855238033e-06
4.849659323e-06
4.837844747e-06
4.829774731e-06
4.81897545e-06
4.808111498e-06
4.810413408e-06
4.810816673e-06
4.813779351e-06
4.837261077e-06
4.834185997e-06
4.820203503e-06
4.820008727e-06
4.810176004e-06
4.819086741e-06
4.824389132e-06
4.831159932e-06
4.828035004e-06
3.713059397e-06
4.753041616e-06
4.745696033e-06
4.750689303e-06
4.758830758e-06
4.767859451e-06
4.766048283e-06
4.737029088e-06
4.757574448e-06
4.7767713e-06
4.781860933e-06
4.772066394e-06
4.773551673e-06
4.80329058e-06
4.813680383e-06
4.82114847e-06
4.813701697e-06
4.822877818e-06
4.822577964e-06
4.817714419e-06
3.71601902e-06
4.78394769e-06
4.804086453e-06
4.774135447e-06
4.787717175e-06
4.779461374e-06
4.805791988e-06
4.825622462e-06
4.841799185e-06
4.825391271e-06
4.815822265e-06
4.80610361e-06
4.804566156e-06
4.804896315e-06
4.791003521e-06
4.79816304e-06
4.783844834e-06
4.776226543e-06
4.795794966e-06
4.793225174e-06
1.163477321e-05
1.335611924e-05
1.406307003e-05
1.451398332e-05
1.456810682e-05
1.479483384e-05
1.492056473e-05
1.510399281e-05
1.466915851e-05
1.470856066e-05
7.937032034e-06
9.502991048e-06
1.066280042e-05
1.148597888e-05
1.213385656e-05
1.256898771e-05
1.27382141e-05
1.302611671e-05
1.315140626e-05
1.306908975e-05
6.598964225e-06
7.673340323e-06
8.579243157e-06
9.453005232e-06
1.015260971e-05
1.084863329e-05
1.136418007e-05
1.185465865e-05
1.206690295e-05
1.225520404e-05
5.949184138e-06
6.553829067e-06
7.248652689e-06
8.054551809e-06
8.717271962e-06
9.418633473e-06
1.006336927e-05
1.05858931e-05
1.103637332e-05
1.142328604e-05
5.551799276e-06
5.991308463e-06
6.466452656e-06
7.022799668e-06
7.664998741e-06
8.194299591e-06
8.810791804e-06
9.318705727e-06
9.932045361e-06
1.052938833e-05
5.29132078e-06
5.571079071e-06
5.880221836e-06
6.308824295e-06
6.763547856e-06
7.3306201e-06
7.953538969e-06
8.493977044e-06
9.03164006e-06
9.532248083e-06
5.168025808e-06
5.381677682e-06
5.575473435e-06
5.923828722e-06
6.259453626e-06
6.654417826e-06
7.110711258e-06
7.605508461e-06
8.154908942e-06
8.648081939e-06
5.038705806e-06
5.190605487e-06
5.354403413e-06
5.575650339e-06
5.822341302e-06
6.101086728e-06
6.476927151e-06
6.891904885e-06
7.350603175e-06
7.804750995e-06
4.999783621e-06
5.080608896e-06
5.188562951e-06
5.353094469e-06
5.5461326e-06
5.760093095e-06
6.002111854e-06
6.291325039e-06
6.651980046e-06
7.085295724e-06
4.953789226e-06
5.036485997e-06
5.135705897e-06
5.21724694e-06
5.342680259e-06
5.493090835e-06
5.725244689e-06
5.924536126e-06
6.146579125e-06
6.439239293e-06
4.920558718e-06
4.951926322e-06
5.044821765e-06
5.144884299e-06
5.244548264e-06
5.339425904e-06
5.458645819e-06
5.657026624e-06
5.798949359e-06
6.051174519e-06
4.868021969e-06
4.88981787e-06
4.904450068e-06
4.966838708e-06
5.021423807e-06
5.126889711e-06
5.228629391e-06
5.400219881e-06
5.587781477e-06
5.741282958e-06
4.873660454e-06
4.901303926e-06
4.915386629e-06
4.946039869e-06
4.98758621e-06
5.065377029e-06
5.174003965e-06
5.224428369e-06
5.305829001e-06
5.492015735e-06
4.839530596e-06
4.854492303e-06
4.876569704e-06
4.8965777e-06
4.925041295e-06
4.940658939e-06
4.959147378e-06
5.062076237e-06
5.17179329e-06
5.289256737e-06
4.781375225e-06
4.790461481e-06
4.813807834e-06
4.836045385e-06
4.84357774e-06
4.916951405e-06
4.950834728e-06
4.986745851e-06
5.054611573e-06
5.120116903e-06
4.820968328e-06
4.832229979e-06
4.827932535e-06
4.833991076e-06
4.884221737e-06
4.890302818e-06
4.91561631e-06
4.951929875e-06
5.014576722e-06
5.057418783e-06
4.793648276e-06
4.813331682e-06
4.814961208e-06
4.833591647e-06
4.822541724e-06
4.858359017e-06
4.904332182e-06
4.934557204e-06
4.936048989e-06
5.017004282e-06
4.825423036e-06
4.785228147e-06
4.80328992e-06
4.806100811e-06
4.849677465e-06
4.863405038e-06
4.871910343e-06
4.885877096e-06
4.905924774e-06
4.928125586e-06
4.81056021e-06
4.847174061e-06
4.860665035e-06
4.881279954e-06
4.860251271e-06
4.833111274e-06
4.834471786e-06
4.851543128e-06
4.870409865e-06
4.913647721e-06
4.814152023e-06
4.817248717e-06
4.818120686e-06
4.79021041e-06
4.814470329e-06
4.838845038e-06
4.869999219e-06
4.882130792e-06
4.855512694e-06
4.862670543e-06
4.807312761e-06
4.816116328e-06
4.818018579e-06
4.817724255e-06
4.803473226e-06
4.802710244e-06
4.797267344e-06
4.823027035e-06
4.876226578e-06
4.889030325e-06
4.798989084e-06
4.766729926e-06
4.778204446e-06
4.793468915e-06
)
;

boundaryField
{
    flow
    {
        type            calculated;
        value           nonuniform List<scalar> 
42
(
3.660731382e-06
3.701289392e-06
3.728586841e-06
3.732739666e-06
3.72554401e-06
3.700422635e-06
3.722837724e-06
3.715133448e-06
3.735827625e-06
3.711499623e-06
3.732578804e-06
3.72687176e-06
3.730649681e-06
3.740534196e-06
3.702197944e-06
3.736829764e-06
3.718052666e-06
3.706719285e-06
3.725396305e-06
3.715951468e-06
3.713059397e-06
3.71601902e-06
3.660731382e-06
4.712404564e-06
4.741500858e-06
4.741961851e-06
4.751679396e-06
4.751850915e-06
4.741755585e-06
4.752475268e-06
4.734242649e-06
4.717476598e-06
4.736623601e-06
4.733290185e-06
4.723561983e-06
4.731189161e-06
4.748377569e-06
4.776862665e-06
4.772092707e-06
4.857646582e-06
5.145339285e-06
6.51656093e-06
)
;
    }
    obstacle
    {
        type            calculated;
        value           nonuniform List<scalar> 10(6.693129872e-24 6.886069663e-24 7.152481871e-24 6.989659718e-24 7.076013533e-24 6.848899138e-24 6.804320454e-24 6.942324277e-24 6.7340354e-24 6.504197593e-24);
    }
    frontAndBack
    {
        type            empty;
    }
    procBoundary0to1
    {
        type            processor;
        value           nonuniform List<scalar> 
21
(
1.467754774e-05
1.324418252e-05
1.238892764e-05
1.157567607e-05
1.087331733e-05
1.010422194e-05
9.145445252e-06
8.264110264e-06
7.537057227e-06
6.800837276e-06
6.343418013e-06
5.954782761e-06
5.636412076e-06
5.366223357e-06
5.251309097e-06
5.121009516e-06
5.069840664e-06
4.975148172e-06
4.93724987e-06
4.887120084e-06
4.861160767e-06
)
;
    }
    procBoundary0to2
    {
        type            processor;
        value           nonuniform List<scalar> 
31
(
3.706488372e-06
4.785069451e-06
4.819606295e-06
4.808964265e-06
4.799983754e-06
4.802288164e-06
4.802404453e-06
4.796339827e-06
4.774956244e-06
4.806355281e-06
4.808798683e-06
4.830531412e-06
4.823325377e-06
4.790596923e-06
4.794092035e-06
4.790642328e-06
4.790012594e-06
4.797760609e-06
4.771342621e-06
4.761011102e-06
4.81026786e-06
4.821855318e-06
4.827851369e-06
4.817993368e-06
4.823424062e-06
4.851503624e-06
4.765016982e-06
4.782946209e-06
4.784419464e-06
4.81026786e-06
4.761660198e-06
)
;
    }
}


// ************************************************************************* //
