/*--------------------------------*- C++ -*----------------------------------*\
| =========                 |                                                 |
| \\      /  F ield         | OpenFOAM: The Open Source CFD Toolbox           |
|  \\    /   O peration     | Version:  2406                                  |
|   \\  /    A nd           | Website:  www.openfoam.com                      |
|    \\/     M anipulation  |                                                 |
\*---------------------------------------------------------------------------*/
FoamFile
{
    version     2.0;
    format      ascii;
    arch        "LSB;label=32;scalar=64";
    class       volScalarField;
    location    "0.012";
    object      rhoNMean;
}
// * * * * * * * * * * * * * * * * * * * * * * * * * * * * * * * * * * * * * //

dimensions      [0 -3 0 0 0 0 0];

internalField   nonuniform List<scalar> 
654
(
7.629642126e+19
9.823871522e+19
9.883404878e+19
9.884272711e+19
9.90388574e+19
9.90336504e+19
9.884619844e+19
9.905794973e+19
9.871255213e+19
9.834111953e+19
9.872817313e+19
9.864833248e+19
9.845740918e+19
9.865874647e+19
9.901282241e+19
9.959427063e+19
9.951269432e+19
1.01298695e+20
1.072798012e+20
1.358818469e+20
7.714516211e+19
9.923845903e+19
1.001583622e+20
9.974874494e+19
9.970014628e+19
9.99622319e+19
9.987371292e+19
9.97921366e+19
9.979387226e+19
9.974874494e+19
9.97921366e+19
1.001010852e+20
1.006096354e+20
1.008977561e+20
1.00991482e+20
1.019669265e+20
1.029874983e+20
1.059381311e+20
1.124416729e+20
1.30050008e+20
7.770057534e+19
1.000351299e+20
1.000073592e+20
9.969667495e+19
9.990321924e+19
9.974527361e+19
9.999868089e+19
9.994313957e+19
1.001861329e+20
9.997958856e+19
1.003215148e+20
1.000646362e+20
9.970188195e+19
1.002191105e+20
1.003701135e+20
1.003093652e+20
1.015191246e+20
1.036505229e+20
1.08284752e+20
1.188740524e+20
7.780297965e+19
9.970882461e+19
1.005940145e+20
1.004325975e+20
9.991016191e+19
9.975221627e+19
9.974527361e+19
9.96168343e+19
9.961856996e+19
9.992925424e+19
9.97608946e+19
9.991710458e+19
1.002347315e+20
9.951790132e+19
9.975915894e+19
9.968105395e+19
1.004117695e+20
1.023730725e+20
1.062956784e+20
1.14095763e+20
7.764156268e+19
9.956649997e+19
9.935648435e+19
9.942764667e+19
9.987371292e+19
9.998479556e+19
9.979560793e+19
9.975915894e+19
9.956823564e+19
9.938425501e+19
9.929226469e+19
9.933739202e+19
9.970188195e+19
9.984594226e+19
1.001514195e+20
1.011095074e+20
1.014583763e+20
1.03181893e+20
1.054434662e+20
1.091872985e+20
7.711392011e+19
9.897637342e+19
1.001062922e+20
9.919680304e+19
9.917076805e+19
9.897463775e+19
9.901629374e+19
9.963071963e+19
9.940334734e+19
9.997438156e+19
9.986503458e+19
9.955955731e+19
9.877330045e+19
9.883231311e+19
9.977477993e+19
9.966022596e+19
1.003301932e+20
1.014687903e+20
1.027392981e+20
1.053966032e+20
7.760337802e+19
9.97817226e+19
1.003301932e+20
1.002781232e+20
1.009220554e+20
1.006651768e+20
1.005766578e+20
1.002069609e+20
1.006686481e+20
1.008213867e+20
1.004638395e+20
1.008474217e+20
1.011876123e+20
1.005870718e+20
1.006547628e+20
1.005714508e+20
1.009585044e+20
1.014739973e+20
1.028347597e+20
1.046572094e+20
7.742286872e+19
9.946930266e+19
9.984420659e+19
9.946583133e+19
9.951790132e+19
9.964981196e+19
9.974353794e+19
9.968626095e+19
9.967584695e+19
9.931482835e+19
9.935474868e+19
9.878024312e+19
9.919333171e+19
9.953872931e+19
9.974006661e+19
1.002017539e+20
1.008439504e+20
1.014201916e+20
1.023626585e+20
1.032270203e+20
7.785678531e+19
1.001340629e+20
1.004794605e+20
1.005679795e+20
9.983726392e+19
9.963939796e+19
9.989106958e+19
1.000976139e+20
9.946235999e+19
9.945888866e+19
1.002052252e+20
1.005558298e+20
1.000524866e+20
9.992578291e+19
9.991363324e+19
1.005211165e+20
1.010088387e+20
1.014063063e+20
1.016996339e+20
1.030187403e+20
7.733261407e+19
9.882016344e+19
9.989974791e+19
9.955955731e+19
9.993446124e+19
1.000143019e+20
9.964113363e+19
9.972965261e+19
1.003926772e+20
1.003492855e+20
1.000715789e+20
1.000524866e+20
1.002746518e+20
1.000576935e+20
1.001340629e+20
1.003718492e+20
1.006599698e+20
1.004621038e+20
1.01340351e+20
1.015139176e+20
7.780297965e+19
9.97921366e+19
9.987371292e+19
9.97817226e+19
9.948492365e+19
9.930788569e+19
9.912564072e+19
9.932003535e+19
9.922630937e+19
9.9436325e+19
9.99622319e+19
9.97973436e+19
1.002486168e+20
1.002937442e+20
1.000420726e+20
9.933912768e+19
9.948839499e+19
1.003718492e+20
1.01095622e+20
1.019044425e+20
7.768148301e+19
1.002868015e+20
1.0096024e+20
1.008647784e+20
1.011303354e+20
1.011754627e+20
1.013542363e+20
1.014410196e+20
1.012848097e+20
1.008022944e+20
1.003666422e+20
9.986677025e+19
9.940855434e+19
1.002729162e+20
1.005020241e+20
1.01355972e+20
1.016076436e+20
1.011285997e+20
1.008630427e+20
1.012119117e+20
7.773876e+19
9.985982759e+19
1.001705119e+20
9.99726459e+19
9.965849029e+19
9.951442998e+19
9.99882669e+19
9.961856996e+19
9.944326766e+19
9.950054465e+19
1.001583622e+20
1.005454158e+20
1.006825334e+20
1.006617054e+20
1.001045565e+20
1.001982825e+20
1.007398104e+20
1.00996689e+20
1.013525006e+20
1.014722616e+20
7.797307496e+19
9.999347389e+19
1.008040301e+20
1.009289981e+20
1.011285997e+20
1.01199762e+20
1.007571671e+20
1.009828037e+20
1.012553033e+20
1.009828037e+20
1.006321991e+20
1.009741254e+20
1.008404791e+20
1.009064344e+20
1.008179154e+20
1.005315305e+20
1.000143019e+20
9.950748732e+19
9.989801225e+19
1.004690465e+20
7.715036911e+19
9.968626095e+19
1.000229802e+20
9.977825127e+19
1.001010852e+20
1.004777248e+20
1.007207181e+20
1.005801291e+20
1.007033614e+20
1.008908134e+20
1.009203197e+20
1.006634411e+20
1.01059173e+20
1.003596995e+20
1.001045565e+20
9.985982759e+19
9.996049623e+19
9.99830599e+19
9.985462059e+19
9.966543296e+19
7.787240631e+19
9.991536891e+19
1.003197792e+20
1.001462125e+20
9.932177102e+19
9.934954168e+19
9.960294897e+19
9.961856996e+19
9.970535328e+19
9.943458933e+19
9.9425911e+19
9.909092739e+19
9.807035558e+19
9.861882615e+19
9.900587974e+19
9.954567198e+19
9.985635625e+19
9.968452528e+19
1.000420726e+20
9.952657965e+19
7.749923804e+19
9.874032279e+19
9.909960573e+19
9.934607035e+19
9.974180227e+19
9.999173823e+19
9.923325203e+19
9.92401947e+19
9.897116642e+19
9.886181944e+19
9.907877773e+19
9.9431118e+19
9.985114925e+19
1.003215148e+20
9.964981196e+19
9.985288492e+19
9.99414039e+19
1.003874702e+20
1.000299229e+20
1.001809259e+20
7.725798042e+19
9.966716862e+19
1.000976139e+20
1.001722475e+20
9.972444561e+19
9.920895271e+19
9.957344264e+19
9.96012133e+19
9.976263027e+19
9.998479556e+19
1.002347315e+20
1.000177732e+20
1.000733145e+20
9.987544858e+19
1.002711805e+20
1.000212446e+20
1.002954798e+20
9.996396757e+19
1.000299229e+20
9.99830599e+19
7.765197668e+19
1.000629005e+20
1.001653049e+20
9.954740764e+19
9.988933391e+19
1.003510212e+20
1.001323272e+20
1.004325975e+20
9.992751857e+19
9.983899959e+19
9.971229595e+19
9.980081493e+19
9.937210534e+19
9.963071963e+19
9.948492365e+19
9.935127735e+19
9.98077576e+19
9.990842624e+19
9.97921366e+19
9.973138828e+19
7.743675405e+19
9.97661016e+19
1.011824053e+20
1.010730584e+20
1.008404791e+20
1.006721194e+20
1.004655751e+20
1.002139035e+20
1.002382028e+20
1.002451455e+20
1.003058938e+20
1.007832021e+20
1.007380748e+20
1.004568968e+20
1.004603681e+20
1.002625022e+20
1.004430115e+20
1.005488871e+20
1.007120398e+20
1.006426131e+20
7.738641973e+19
9.907877773e+19
9.891388943e+19
9.902670774e+19
9.921068837e+19
9.941029e+19
9.936516268e+19
9.874900112e+19
9.918638904e+19
9.959774197e+19
9.973833094e+19
9.949186632e+19
9.951095865e+19
1.001010852e+20
1.003336645e+20
1.004742535e+20
1.003232505e+20
1.005107025e+20
1.005037598e+20
1.004117695e+20
7.742807572e+19
9.971056028e+19
1.001201775e+20
9.949707332e+19
9.97869296e+19
9.96064203e+19
1.001514195e+20
1.005731865e+20
1.009237911e+20
1.005645081e+20
1.003631708e+20
1.001600979e+20
1.001739832e+20
1.001548909e+20
9.985982759e+19
1.000108306e+20
9.971403161e+19
9.956823564e+19
1.000038879e+20
9.99570249e+19
2.42430195e+20
2.781682127e+20
2.929484561e+20
3.021945932e+20
3.034030058e+20
3.08255144e+20
3.10964203e+20
3.144383402e+20
3.053066607e+20
3.062439104e+20
1.653737553e+20
1.981336221e+20
2.2224017e+20
2.39354677e+20
2.528182293e+20
2.618753057e+20
2.653656372e+20
2.713737164e+20
2.738868128e+20
2.721976317e+20
1.375307391e+20
1.599885065e+20
1.786885277e+20
1.96964674e+20
2.115703626e+20
2.261120822e+20
2.368215813e+20
2.470225027e+20
2.514066882e+20
2.552997649e+20
1.240246555e+20
1.366770181e+20
1.511575042e+20
1.679382447e+20
1.816632413e+20
1.963812315e+20
2.097050917e+20
2.206682406e+20
2.299233464e+20
2.380399997e+20
1.15756229e+20
1.248651857e+20
1.348013567e+20
1.463573625e+20
1.597087895e+20
1.707621327e+20
1.836093299e+20
1.94262759e+20
2.070360334e+20
2.194941038e+20
1.102294295e+20
1.16083917e+20
1.225421927e+20
1.315605163e+20
1.410582495e+20
1.529283109e+20
1.65875545e+20
1.771956896e+20
1.883237845e+20
1.98776818e+20
1.077351412e+20
1.122062687e+20
1.162607399e+20
1.235228114e+20
1.305537786e+20
1.387932628e+20
1.482725299e+20
1.585755723e+20
1.700647866e+20
1.803144368e+20
1.050597034e+20
1.081900704e+20
1.116445696e+20
1.162586464e+20
1.214013148e+20
1.27195598e+20
1.35044841e+20
1.4366521e+20
1.532429246e+20
1.627521618e+20
1.042323382e+20
1.059276704e+20
1.081462399e+20
1.115889532e+20
1.156566264e+20
1.201443044e+20
1.252353191e+20
1.312737495e+20
1.387444327e+20
1.478530871e+20
1.033091729e+20
1.050297257e+20
1.070972709e+20
1.088042085e+20
1.114197394e+20
1.144888424e+20
1.192889436e+20
1.234993611e+20
1.281704277e+20
1.341974579e+20
1.025253532e+20
1.031970063e+20
1.051123529e+20
1.07185998e+20
1.092780163e+20
1.113274823e+20
1.137948122e+20
1.178670453e+20
1.208741984e+20
1.262134246e+20
1.01502904e+20
1.019272563e+20
1.022409326e+20
1.035476916e+20
1.046382133e+20
1.068821016e+20
1.09019913e+20
1.125987546e+20
1.165462084e+20
1.197493646e+20
1.015743187e+20
1.021675269e+20
1.024969944e+20
1.031209108e+20
1.040186174e+20
1.056539861e+20
1.079519622e+20
1.090024124e+20
1.106686893e+20
1.14547308e+20
1.009350698e+20
1.0122749e+20
1.017394045e+20
1.021891057e+20
1.027615196e+20
1.030643038e+20
1.033913788e+20
1.055414384e+20
1.078460067e+20
1.103028897e+20
9.97488903e+19
9.99156497e+19
1.003796305e+20
1.007878428e+20
1.009206413e+20
1.024818063e+20
1.032133878e+20
1.039792443e+20
1.053881363e+20
1.067785578e+20
1.004456182e+20
1.006838134e+20
1.006145013e+20
1.007504995e+20
1.01848243e+20
1.019479999e+20
1.024523825e+20
1.032200967e+20
1.045276964e+20
1.053792177e+20
9.991958814e+19
1.003400682e+20
1.003549066e+20
1.007558336e+20
1.00514143e+20
1.012248359e+20
1.021890274e+20
1.02795708e+20
1.02838141e+20
1.044976706e+20
1.005414184e+20
9.971571668e+19
1.001094421e+20
1.001476709e+20
1.010352471e+20
1.013492705e+20
1.015478934e+20
1.018188783e+20
1.022467042e+20
1.027197292e+20
1.002557604e+20
1.009854667e+20
1.01266133e+20
1.017107563e+20
1.012537179e+20
1.007162771e+20
1.007378503e+20
1.011200979e+20
1.015060257e+20
1.024580496e+20
1.003637526e+20
1.004400354e+20
1.004467362e+20
9.986492864e+19
1.003762561e+20
1.008857974e+20
1.015515266e+20
1.017914392e+20
1.012499214e+20
1.013667863e+20
1.002104723e+20
1.004014512e+20
1.004661616e+20
1.004695355e+20
1.001792749e+20
1.001590265e+20
1.000385972e+20
1.005292451e+20
1.0164974e+20
1.019439677e+20
1.000763521e+20
9.940529369e+19
9.961321199e+19
9.992361168e+19
)
;

boundaryField
{
    flow
    {
        type            calculated;
        value           nonuniform List<scalar> 
42
(
7.629642126e+19
7.714516211e+19
7.770057534e+19
7.780297965e+19
7.764156268e+19
7.711392011e+19
7.760337802e+19
7.742286872e+19
7.785678531e+19
7.733261407e+19
7.780297965e+19
7.768148301e+19
7.773876e+19
7.797307496e+19
7.715036911e+19
7.787240631e+19
7.749923804e+19
7.725798042e+19
7.765197668e+19
7.743675405e+19
7.738641973e+19
7.742807572e+19
7.629642126e+19
9.823871522e+19
9.883404878e+19
9.884272711e+19
9.90388574e+19
9.90336504e+19
9.884619844e+19
9.905794973e+19
9.871255213e+19
9.834111953e+19
9.872817313e+19
9.864833248e+19
9.845740918e+19
9.865874647e+19
9.901282241e+19
9.959427063e+19
9.951269432e+19
1.01298695e+20
1.072798012e+20
1.358818469e+20
)
;
    }
    obstacle
    {
        type            calculated;
        value           nonuniform List<scalar> 10(139.4082045 143.3767327 149.063873 145.5424503 147.2595861 142.787644 142.0615074 144.5549536 140.2847617 135.542818);
    }
    frontAndBack
    {
        type            empty;
    }
    procBoundary0to1
    {
        type            processor;
        value           nonuniform List<scalar> 
21
(
3.056245264e+20
2.75860347e+20
2.580141777e+20
2.412448358e+20
2.265861503e+20
2.106580801e+20
1.90669473e+20
1.723353665e+20
1.571868742e+20
1.417523495e+20
1.323095462e+20
1.242464283e+20
1.175349518e+20
1.119189983e+20
1.095036157e+20
1.066900297e+20
1.056449837e+20
1.03689496e+20
1.029753501e+20
1.018499153e+20
1.013432837e+20
)
;
    }
    procBoundary0to2
    {
        type            processor;
        value           nonuniform List<scalar> 
31
(
7.725103775e+19
9.975568761e+19
1.004586325e+20
1.002295245e+20
1.000438082e+20
1.000837285e+20
1.000924069e+20
9.99622319e+19
9.952831531e+19
1.001531552e+20
1.002000182e+20
1.006617054e+20
1.005072311e+20
9.983205692e+19
9.991710458e+19
9.982858559e+19
9.984247092e+19
1.000090949e+20
9.9420704e+19
9.919333171e+19
1.002652304e+20
1.005052793e+20
1.006161614e+20
1.004030249e+20
1.005018736e+20
1.010661323e+20
9.926988873e+19
9.960347359e+19
9.965912646e+19
1.002652304e+20
9.918385761e+19
)
;
    }
}


// ************************************************************************* //
