/*--------------------------------*- C++ -*----------------------------------*\
| =========                 |                                                 |
| \\      /  F ield         | OpenFOAM: The Open Source CFD Toolbox           |
|  \\    /   O peration     | Version:  2406                                  |
|   \\  /    A nd           | Website:  www.openfoam.com                      |
|    \\/     M anipulation  |                                                 |
\*---------------------------------------------------------------------------*/
FoamFile
{
    version     2.0;
    format      ascii;
    arch        "LSB;label=32;scalar=64";
    class       volScalarField;
    location    "0.012";
    object      rhoN;
}
// * * * * * * * * * * * * * * * * * * * * * * * * * * * * * * * * * * * * * //

dimensions      [0 -3 0 0 0 0 0];

internalField   nonuniform List<scalar> 
654
(
7.289798656e+19
7.289798656e+19
8.331198464e+19
1.35381975e+20
9.372598272e+19
1.562099712e+20
1.145539789e+20
4.165599232e+19
1.874519654e+20
7.289798656e+19
1.145539789e+20
7.289798656e+19
5.20699904e+19
1.562099712e+20
4.165599232e+19
1.145539789e+20
4.165599232e+19
5.20699904e+19
7.289798656e+19
1.562099712e+20
5.20699904e+19
7.289798656e+19
1.457959731e+20
8.331198464e+19
5.20699904e+19
4.165599232e+19
1.562099712e+20
1.041399808e+20
1.041399808e+19
5.20699904e+19
1.24967977e+20
8.331198464e+19
1.35381975e+20
1.24967977e+20
1.041399808e+20
1.770379674e+20
1.35381975e+20
1.145539789e+20
8.331198464e+19
2.082799616e+20
5.20699904e+19
1.457959731e+20
9.372598272e+19
1.35381975e+20
1.145539789e+20
9.372598272e+19
6.248398848e+19
7.289798656e+19
4.165599232e+19
1.24967977e+20
6.248398848e+19
1.562099712e+20
9.372598272e+19
8.331198464e+19
7.289798656e+19
1.457959731e+20
9.372598272e+19
1.041399808e+20
1.770379674e+20
8.331198464e+19
9.372598272e+19
1.145539789e+20
1.35381975e+20
9.372598272e+19
9.372598272e+19
1.145539789e+20
6.248398848e+19
1.457959731e+20
1.24967977e+20
7.289798656e+19
1.457959731e+20
8.331198464e+19
9.372598272e+19
1.24967977e+20
8.331198464e+19
1.24967977e+20
9.372598272e+19
1.145539789e+20
5.20699904e+19
7.289798656e+19
5.20699904e+19
1.24967977e+20
4.165599232e+19
1.24967977e+20
5.20699904e+19
6.248398848e+19
1.35381975e+20
9.372598272e+19
1.457959731e+20
9.372598272e+19
1.041399808e+20
1.24967977e+20
4.165599232e+19
1.24967977e+20
6.248398848e+19
7.289798656e+19
1.35381975e+20
1.24967977e+20
1.457959731e+20
5.20699904e+19
5.20699904e+19
1.041399808e+20
1.35381975e+20
8.331198464e+19
1.041399808e+20
1.24967977e+20
6.248398848e+19
8.331198464e+19
8.331198464e+19
9.372598272e+19
6.248398848e+19
1.145539789e+20
8.331198464e+19
1.041399808e+20
8.331198464e+19
5.20699904e+19
6.248398848e+19
1.145539789e+20
1.666239693e+20
9.372598272e+19
8.331198464e+19
9.372598272e+19
1.666239693e+20
8.331198464e+19
1.041399808e+20
9.372598272e+19
8.331198464e+19
1.041399808e+20
1.145539789e+20
9.372598272e+19
1.666239693e+20
1.35381975e+20
9.372598272e+19
9.372598272e+19
8.331198464e+19
1.041399808e+20
5.20699904e+19
4.165599232e+19
1.145539789e+20
1.978659635e+20
7.289798656e+19
9.372598272e+19
6.248398848e+19
4.165599232e+19
1.35381975e+20
8.331198464e+19
1.145539789e+20
9.372598272e+19
9.372598272e+19
5.20699904e+19
1.35381975e+20
1.041399808e+20
1.041399808e+20
6.248398848e+19
7.289798656e+19
7.289798656e+19
8.331198464e+19
1.24967977e+20
5.20699904e+19
1.041399808e+20
5.20699904e+19
1.562099712e+20
8.331198464e+19
7.289798656e+19
9.372598272e+19
8.331198464e+19
6.248398848e+19
9.372598272e+19
1.24967977e+20
8.331198464e+19
1.041399808e+20
1.24967977e+20
7.289798656e+19
4.165599232e+19
9.372598272e+19
1.457959731e+20
9.372598272e+19
8.331198464e+19
9.372598272e+19
1.145539789e+20
9.372598272e+19
9.372598272e+19
8.331198464e+19
1.041399808e+20
8.331198464e+19
6.248398848e+19
1.666239693e+20
1.35381975e+20
8.331198464e+19
9.372598272e+19
9.372598272e+19
1.145539789e+20
1.562099712e+20
6.248398848e+19
9.372598272e+19
1.35381975e+20
1.041399808e+20
4.165599232e+19
1.145539789e+20
6.248398848e+19
8.331198464e+19
9.372598272e+19
5.20699904e+19
1.562099712e+20
8.331198464e+19
9.372598272e+19
7.289798656e+19
1.24967977e+20
7.289798656e+19
5.20699904e+19
1.24967977e+20
9.372598272e+19
1.562099712e+20
1.562099712e+20
7.289798656e+19
1.041399808e+20
1.24967977e+20
1.24967977e+20
9.372598272e+19
1.145539789e+20
7.289798656e+19
1.145539789e+20
1.145539789e+20
1.457959731e+20
1.041399808e+20
8.331198464e+19
1.24967977e+20
1.457959731e+20
1.145539789e+20
9.372598272e+19
8.331198464e+19
1.041399808e+20
8.331198464e+19
1.666239693e+20
9.372598272e+19
1.24967977e+20
1.145539789e+20
1.24967977e+20
7.289798656e+19
1.874519654e+20
1.041399808e+20
1.35381975e+20
8.331198464e+19
1.24967977e+20
1.24967977e+20
8.331198464e+19
1.666239693e+20
7.289798656e+19
1.457959731e+20
1.35381975e+20
7.289798656e+19
6.248398848e+19
7.289798656e+19
1.145539789e+20
9.372598272e+19
6.248398848e+19
1.24967977e+20
1.145539789e+20
6.248398848e+19
8.331198464e+19
7.289798656e+19
8.331198464e+19
1.24967977e+20
4.165599232e+19
1.145539789e+20
1.145539789e+20
1.145539789e+20
9.372598272e+19
1.041399808e+20
8.331198464e+19
9.372598272e+19
1.145539789e+20
1.24967977e+20
6.248398848e+19
1.145539789e+20
1.145539789e+20
1.35381975e+20
7.289798656e+19
1.24967977e+20
1.457959731e+20
9.372598272e+19
1.145539789e+20
5.20699904e+19
1.457959731e+20
1.24967977e+20
7.289798656e+19
1.041399808e+20
1.145539789e+20
1.041399808e+20
6.248398848e+19
1.041399808e+20
4.165599232e+19
9.372598272e+19
1.24967977e+20
1.145539789e+20
8.331198464e+19
1.24967977e+20
5.20699904e+19
8.331198464e+19
1.24967977e+20
6.248398848e+19
9.372598272e+19
6.248398848e+19
8.331198464e+19
1.35381975e+20
5.20699904e+19
8.331198464e+19
5.20699904e+19
8.331198464e+19
9.372598272e+19
5.20699904e+19
1.041399808e+20
1.24967977e+20
1.145539789e+20
1.041399808e+20
4.165599232e+19
8.331198464e+19
8.331198464e+19
9.372598272e+19
1.874519654e+20
7.289798656e+19
7.289798656e+19
1.562099712e+20
1.041399808e+20
9.372598272e+19
1.145539789e+20
9.372598272e+19
1.770379674e+20
1.145539789e+20
1.35381975e+20
1.041399808e+20
6.248398848e+19
1.24967977e+20
1.145539789e+20
1.35381975e+20
8.331198464e+19
9.372598272e+19
8.331198464e+19
8.331198464e+19
1.041399808e+20
8.331198464e+19
8.331198464e+19
1.041399808e+20
1.35381975e+20
1.24967977e+20
1.041399808e+20
8.331198464e+19
6.248398848e+19
1.24967977e+20
1.145539789e+20
1.145539789e+20
8.331198464e+19
1.145539789e+20
1.145539789e+20
4.165599232e+19
5.20699904e+19
1.35381975e+20
1.770379674e+20
9.372598272e+19
4.165599232e+19
7.289798656e+19
8.331198464e+19
1.041399808e+20
7.289798656e+19
7.289798656e+19
1.145539789e+20
9.372598272e+19
1.457959731e+20
1.041399808e+20
1.145539789e+20
1.457959731e+20
1.041399808e+20
8.331198464e+19
5.20699904e+19
1.041399808e+20
9.372598272e+19
5.20699904e+19
1.457959731e+20
1.24967977e+20
1.24967977e+20
8.331198464e+19
1.457959731e+20
9.372598272e+19
1.35381975e+20
8.331198464e+19
1.24967977e+20
8.331198464e+19
8.331198464e+19
1.145539789e+20
9.372598272e+19
1.457959731e+20
1.24967977e+20
1.145539789e+20
1.24967977e+20
7.289798656e+19
1.041399808e+20
3.124199424e+19
1.457959731e+20
8.331198464e+19
3.124199424e+19
8.331198464e+19
8.331198464e+19
1.562099712e+20
9.372598272e+19
3.124199424e+19
1.041399808e+20
1.145539789e+20
8.331198464e+19
8.331198464e+19
5.20699904e+19
6.248398848e+19
7.289798656e+19
1.145539789e+20
1.041399808e+20
1.24967977e+20
9.372598272e+19
1.145539789e+20
1.041399808e+20
1.874519654e+20
9.372598272e+19
8.331198464e+19
8.331198464e+19
5.20699904e+19
1.145539789e+20
1.666239693e+20
1.041399808e+20
6.248398848e+19
1.041399808e+20
7.289798656e+19
8.331198464e+19
1.24967977e+20
7.289798656e+19
5.20699904e+19
6.248398848e+19
1.35381975e+20
6.248398848e+19
1.562099712e+20
8.331198464e+19
9.372598272e+19
6.248398848e+19
2.821750772e+20
1.788874383e+20
3.178694185e+20
2.4539896e+20
3.867994809e+20
3.354323804e+20
3.596158715e+20
3.841462505e+20
3.316467854e+20
2.895186412e+20
1.567639318e+20
2.315013907e+20
1.377434148e+20
2.880770401e+20
2.471218906e+20
2.59689585e+20
3.160260691e+20
3.841462508e+20
2.653174283e+20
2.115713147e+20
1.045092878e+20
1.788874382e+20
1.907216511e+20
1.066952e+20
1.289331604e+20
1.947671886e+20
2.942311676e+20
1.97560929e+20
1.658233927e+20
2.895186412e+20
1.254111454e+20
1.367962764e+20
1.377434148e+20
2.347294399e+20
1.719108803e+20
1.298447924e+20
2.397439145e+20
3.402438221e+20
2.653174283e+20
2.783833088e+20
1.149602166e+20
5.261395242e+19
1.377434148e+20
1.493732801e+20
2.041441707e+20
1.298447925e+20
2.179490132e+20
2.524389648e+20
1.768782857e+20
2.561126443e+20
9.405835905e+19
1.052279048e+20
9.536082555e+19
1.813818399e+20
1.611664503e+20
1.19024393e+20
1.307694077e+20
1.207316786e+20
2.210978568e+20
2.338419796e+20
6.27055727e+19
6.31367429e+19
1.165521202e+20
9.60256801e+19
1.611664505e+20
1.190243931e+20
1.525643092e+20
1.097560717e+20
1.216038213e+20
1.781653177e+20
7.315650148e+19
7.365953343e+19
7.416953103e+19
1.387037599e+20
1.719108803e+20
1.406651918e+20
9.807705592e+19
1.426828931e+20
4.421957139e+19
2.004359824e+20
8.360743026e+19
1.262734858e+20
1.589347092e+20
6.401712002e+19
1.504220205e+20
1.298447924e+20
1.307694078e+20
1.097560717e+20
5.527446424e+19
1.336239882e+20
9.405835911e+19
1.052279049e+20
1.059564729e+20
1.2803424e+20
8.595544022e+19
9.738359437e+19
1.198719572e+20
1.097560717e+20
6.632935708e+19
1.113533235e+20
9.405835905e+19
1.052279048e+20
6.35738837e+19
5.334760002e+19
1.289331603e+20
7.574279557e+19
1.307694078e+20
1.207316787e+20
9.949403563e+19
8.908265883e+19
1.149602166e+20
1.367962764e+20
4.238258916e+19
1.600427999e+20
1.504220204e+20
1.190243931e+20
9.807705626e+19
1.42682894e+20
9.949403612e+19
1.224886564e+20
9.405835905e+19
9.47051146e+19
1.165521206e+20
1.2803424e+20
9.669986985e+19
1.514855909e+20
1.743592102e+20
8.780485658e+19
1.65823392e+20
8.908265883e+19
6.270557249e+19
1.26273485e+20
8.476517769e+19
8.535615974e+19
1.181887304e+20
1.406651915e+20
1.307694072e+20
6.58536429e+19
1.216038208e+20
1.22488655e+20
1.463130037e+20
1.578418577e+20
5.297823641e+19
7.468664028e+19
1.396775914e+20
1.839467901e+20
1.307694081e+20
1.317072867e+20
1.216038217e+20
6.681199412e+19
8.360743015e+19
8.418232409e+19
1.271477683e+20
8.535616032e+19
6.446658021e+19
1.082039942e+20
5.448725337e+19
8.780485658e+19
6.63293568e+19
7.794732648e+19
1.149602165e+20
9.470511396e+19
1.165521193e+20
1.280342396e+20
1.181887304e+20
4.328159738e+19
8.717960539e+19
1.317072867e+20
6.632935727e+19
1.55894653e+20
1.149602165e+20
1.262734861e+20
9.536082619e+19
1.387037596e+20
9.669986965e+19
9.73835941e+19
7.628215418e+19
4.39024286e+19
7.738425015e+19
1.002179912e+20
1.045092884e+20
1.894102292e+20
4.238258913e+19
1.387037605e+20
6.446658021e+19
7.574279541e+19
5.448725337e+19
1.426828929e+20
7.73842496e+19
5.567666217e+19
8.360743015e+19
6.313674307e+19
6.35738837e+19
1.387037596e+20
1.181887304e+20
8.656319536e+19
9.807705606e+19
1.097560715e+20
8.843914303e+19
6.681199412e+19
1.149602165e+20
1.68364647e+20
4.238258913e+19
9.602568036e+19
1.181887304e+20
7.574279541e+19
7.628215471e+19
1.426828939e+20
9.949403591e+19
1.447593206e+20
1.672148603e+20
9.470511396e+19
9.536082555e+19
9.602568036e+19
)
;

boundaryField
{
    flow
    {
        type            zeroGradient;
    }
    obstacle
    {
        type            calculated;
        value           nonuniform List<scalar> 10(41.08248495 94.62550869 265.6888454 137.56123 194.8670466 174.2566833 132.5231438 161.5169335 1e-300 85.28445631);
    }
    frontAndBack
    {
        type            empty;
    }
    procBoundary0to1
    {
        type            processor;
        value           nonuniform List<scalar> 
21
(
2.355559722e+20
2.467729234e+20
3.365085317e+20
3.140746296e+20
2.692068253e+20
2.019051193e+20
1.458203637e+20
1.570373148e+20
1.458203638e+20
8.973560845e+19
1.009525595e+20
8.973560877e+19
1.458203633e+20
1.121695102e+20
5.608475552e+19
1.233864613e+20
6.730170614e+19
8.973560883e+19
1.346034132e+20
8.973560819e+19
1.12169511e+20
)
;
    }
    procBoundary0to2
    {
        type            processor;
        value           nonuniform List<scalar> 
31
(
6.248398848e+19
1.145539789e+20
1.24967977e+20
9.372598272e+19
1.24967977e+20
7.289798656e+19
9.372598272e+19
9.372598272e+19
7.289798656e+19
1.874519654e+20
1.24967977e+20
7.289798656e+19
1.666239693e+20
8.331198464e+19
1.457959731e+20
1.562099712e+20
7.289798656e+19
8.331198464e+19
7.289798656e+19
1.35381975e+20
1.289331604e+20
7.574279541e+19
8.717960478e+19
9.878046435e+19
1.326587145e+20
7.794732648e+19
1.045092877e+20
1.052279051e+20
6.35738837e+19
1.289331604e+20
1.280342396e+20
)
;
    }
}


// ************************************************************************* //
