/*--------------------------------*- C++ -*----------------------------------*\
| =========                 |                                                 |
| \\      /  F ield         | OpenFOAM: The Open Source CFD Toolbox           |
|  \\    /   O peration     | Version:  2406                                  |
|   \\  /    A nd           | Website:  www.openfoam.com                      |
|    \\/     M anipulation  |                                                 |
\*---------------------------------------------------------------------------*/
FoamFile
{
    version     2.0;
    format      ascii;
    arch        "LSB;label=32;scalar=64";
    class       volScalarField;
    location    "0.012";
    object      translationalT;
}
// * * * * * * * * * * * * * * * * * * * * * * * * * * * * * * * * * * * * * //

dimensions      [1 2 -2 0 0 0 0];

internalField   nonuniform List<scalar> 
654
(
289.1569565
303.1845674
295.5379068
297.5805648
299.134405
299.3146833
299.6109454
298.9897999
298.8090896
298.345577
297.2700358
298.5205212
297.6070593
304.1783014
313.192191
329.1797681
360.3913426
447.9268163
698.0617762
1323.36089
290.6096677
305.6815403
300.4043586
301.4424752
299.8678994
300.4555296
300.4549017
300.8564359
302.0424369
300.9027685
300.0573883
302.1873376
308.8054195
313.1150772
318.7630696
339.7258201
385.968167
497.957838
752.4923049
1155.195597
291.6907638
308.3821081
298.6682845
299.3838357
298.640734
298.9546418
297.7353393
300.0317872
299.6406185
300.4704258
301.8960437
300.3780451
302.6176887
311.7751931
320.2704661
336.450977
400.123838
490.0630757
684.7842951
927.1359782
287.4657037
303.6889139
299.0331424
299.0535922
296.9749204
297.5597587
297.3959315
298.1129912
300.069477
299.923239
302.4611659
302.8030271
305.65227
307.3586887
320.8421739
341.8586843
377.8374783
458.7846286
586.0140381
769.4793742
290.6133806
306.310407
298.1571131
297.6616104
300.5765063
301.2702573
301.8800748
301.6862325
300.4614724
299.5511715
299.7519425
301.854791
303.7308697
306.400357
313.0449531
334.2724017
363.6572083
421.8465167
508.120042
633.9361662
290.2026088
306.4680891
301.2767283
302.1391864
300.3067638
297.2278943
298.2101126
299.9859394
298.9045326
302.2190436
301.4225429
301.4013448
302.2040047
303.2925581
315.0851802
332.3064936
354.6719773
407.0100051
458.0838611
542.7317843
290.8667444
305.4845513
298.4809449
299.7372956
301.5798606
302.0352256
300.2533691
298.1237318
298.9176744
300.5903912
300.5982123
303.3316281
303.2635031
304.1923146
314.31863
325.7668544
348.6764897
371.2470653
411.9367975
473.4138095
289.3645793
305.3458867
299.206623
301.5344815
300.361146
301.2109856
302.0775698
301.5663799
300.5620538
300.2236167
301.2507254
300.8658025
301.57412
304.9683683
315.3844088
317.0232597
333.0200236
355.3945915
378.1293664
416.3400339
293.6211612
309.3003181
300.4627886
300.3265733
299.3179174
300.1272321
300.4153725
302.0315964
301.2472076
299.8034036
301.4744523
301.2094569
302.3959961
304.9704953
308.7237205
311.6163861
326.5770101
341.6302744
359.40885
383.8145495
290.049081
304.7883041
299.3732521
299.1268961
299.230919
299.6615792
299.2924552
298.0747688
301.7720642
301.5871673
303.8213925
303.4503989
305.0672228
306.4750285
305.9867596
311.6916975
318.4136087
329.5799701
343.2693222
366.3926772
292.2876708
306.2309684
300.5434619
300.3680852
300.5691452
300.2921499
299.7039845
301.9118662
300.3953952
300.5897938
299.4744826
299.4385567
300.3591814
300.4098489
306.5800751
305.9239109
310.4160689
322.5166643
329.4990892
350.2900952
291.3737827
307.8568444
300.9406088
301.4175252
301.086242
300.002488
299.3979698
296.975161
300.2727223
298.5652741
298.3914441
298.5196432
297.5994991
301.2560736
301.4322359
307.9658572
312.637493
319.4279828
321.3670048
335.8830391
290.6308588
307.7348253
299.4147196
301.0512916
300.0199714
300.2314935
302.2239951
303.5130432
302.5097604
301.5664124
301.968203
301.7086216
303.8741242
303.0765481
302.1639829
306.1482048
307.7729839
311.6229984
319.8996012
325.0711092
289.8439903
304.5338499
299.3949969
299.4591718
299.2723747
301.1810952
299.7896186
300.059216
299.1181952
298.1747585
300.8938199
300.808521
300.0368518
298.3710313
300.6129377
303.1827201
304.745821
304.8867592
310.7399938
315.5282833
291.6348668
307.939061
299.7997781
298.1552514
299.5299793
298.1093079
297.1362563
296.5076614
298.0586327
299.2175287
299.2447686
300.1190316
299.7906391
299.3459
301.1566559
303.9052801
305.9540632
307.1244439
305.8247478
308.4731325
289.5442949
304.729544
298.7426367
298.7119218
297.2617202
298.3502538
298.8130593
299.9625873
299.8348602
299.8540533
302.4879003
300.4281628
300.5379825
302.5718656
303.4074027
303.4802814
304.7238844
304.9472615
308.4020003
311.4961254
290.9776168
306.8231274
297.9172071
299.5055914
300.19984
299.9521389
299.9973335
298.9832929
299.3775856
298.8644841
299.8601467
300.603206
301.033743
299.6645475
299.6595343
301.5689415
303.1192053
306.4650698
305.7279293
309.6415114
288.1534609
304.031043
299.4033004
299.1955077
299.475581
299.667557
298.6493557
297.7348446
295.8620966
296.2319907
296.9205143
296.6150825
298.8089919
298.9191611
301.4617618
300.5908443
299.1694027
301.0816579
301.1355394
304.5790835
289.2553087
305.6438368
298.1674183
297.5835403
298.5728372
299.0981536
300.9874537
301.790114
301.529864
302.2038709
301.3101673
301.0475533
301.4039359
300.3391764
300.7124929
300.7691811
299.7995497
300.6579666
301.051852
299.8504857
289.5354482
304.6559798
299.1154494
299.091963
299.3408967
297.5257066
296.768369
296.6564412
296.4419234
295.5796735
297.342241
297.5362198
299.8315383
299.2786882
299.7997861
298.5481457
298.671941
299.1466982
302.2493699
303.299397
292.1006329
307.3153092
298.3359729
299.0597546
299.5079284
300.8451548
300.7807129
299.6874892
299.7922624
301.7128266
301.4250602
302.1465963
300.0503376
298.6744621
298.9322419
300.5094454
301.8755865
301.3529952
301.468955
302.0500777
289.3317152
306.4953051
298.5897789
299.3751866
298.1319647
298.7789328
298.7372875
300.1245956
299.9428731
299.6813213
299.1572803
299.170951
301.1082895
301.8491935
301.7985239
299.5250146
298.5304298
300.5880342
301.4163861
302.1164483
1393.616393
1255.440221
1185.61426
1122.082441
1081.007038
1048.191514
1019.859076
978.633292
968.4886341
945.81118
1344.844637
1305.420514
1254.377285
1200.943307
1164.551047
1141.159034
1107.030579
1087.472884
1059.500914
1043.394422
1144.14468
1204.651805
1194.08262
1184.25435
1156.691665
1132.821808
1106.312188
1087.133393
1069.190489
1048.009055
945.4889464
1055.351448
1100.140946
1115.495566
1108.98566
1089.096595
1082.306011
1056.904011
1055.487981
1045.793479
766.3587002
887.4186801
954.6348494
1013.939339
1034.980828
1041.441877
1047.86987
1028.173663
1024.559879
1014.641867
651.3503948
756.5243624
826.6842261
900.2051848
940.9235541
969.9963697
986.3679709
989.6748581
1000.47436
987.2918284
545.9543055
637.2265656
694.2825923
779.6279949
827.4115227
874.8975749
901.7550707
930.1561145
944.8495537
949.7426003
473.6266954
546.1427248
595.5745234
676.680097
729.9887606
784.8102822
817.539871
861.2998037
888.0792906
901.0636439
435.6653757
486.2220048
524.7292897
589.8909871
636.6508586
684.3257495
738.4244291
777.9605771
809.4765937
835.7830741
393.817388
421.1379713
471.1606657
520.4934339
556.7406881
596.6017579
648.1471826
687.5145717
728.0040715
766.2549846
368.1410968
391.3582993
424.0912123
462.8503785
495.8557136
539.0537016
584.0162424
621.5106511
650.3376404
684.971864
350.8305324
369.3322502
387.0010012
421.7925857
438.0676031
475.0028311
512.6671258
542.8265943
582.0253527
611.4484456
336.2298547
349.1986984
365.747944
379.0113206
398.6990676
427.3971592
452.7865576
484.7679596
509.4759727
557.9766671
328.6460455
336.122545
348.04236
358.6593732
375.7084411
387.4060724
408.9906658
441.3494549
470.6354507
499.6393632
321.0980733
324.8587351
334.3889255
338.3232231
356.9575207
372.8494199
384.0867301
407.7856002
430.080839
452.6112696
311.0097178
317.9627906
329.1911904
333.6363605
340.9740481
355.006086
364.7118946
379.8445999
400.1729313
414.8849866
309.8224599
314.833316
320.2930928
321.2877953
326.0655317
335.3843376
347.8573095
357.5444788
369.2478914
386.2440206
309.4705854
309.5036033
312.1764678
316.6385186
317.698262
325.3991361
334.5143853
339.7447885
352.5777922
365.458144
302.8176998
309.1783699
312.7265053
316.1685679
318.3545146
321.1907154
327.2296376
334.6802913
339.1625129
351.710574
304.2212587
304.9339726
308.5238533
309.0422424
311.7690211
315.073263
318.8717714
325.1432535
330.917909
333.6941729
301.8722308
302.8061312
305.7468803
304.8765905
307.1391311
312.0333382
314.6893978
319.4683874
326.920911
330.4777258
298.4662979
300.4301869
304.0880737
305.8445886
)
;

boundaryField
{
    flow
    {
        type            calculated;
        value           nonuniform List<scalar> 
42
(
289.1569565
290.6096677
291.6907638
287.4657037
290.6133806
290.2026088
290.8667444
289.3645793
293.6211612
290.049081
292.2876708
291.3737827
290.6308588
289.8439903
291.6348668
289.5442949
290.9776168
288.1534609
289.2553087
289.5354482
292.1006329
289.3317152
289.1569565
303.1845674
295.5379068
297.5805648
299.134405
299.3146833
299.6109454
298.9897999
298.8090896
298.345577
297.2700358
298.5205212
297.6070593
304.1783014
313.192191
329.1797681
360.3913426
447.9268163
698.0617762
1323.36089
)
;
    }
    obstacle
    {
        type            calculated;
        value           nonuniform List<scalar> 10(1199.316835 1078.862541 985.4152083 953.1841164 901.096982 882.9867832 870.9287219 828.7885725 819.038526 820.0637939);
    }
    frontAndBack
    {
        type            empty;
    }
    procBoundary0to1
    {
        type            processor;
        value           nonuniform List<scalar> 
21
(
931.1730267
1023.506232
1035.729622
1027.710556
1003.963396
979.2886877
954.7582076
906.0906445
858.0824312
795.9784537
717.7883281
657.3946482
589.2066366
529.6005226
475.0444847
435.422357
406.8733689
380.2057748
361.3184263
346.8406599
333.544273
)
;
    }
    procBoundary0to2
    {
        type            processor;
        value           nonuniform List<scalar> 
31
(
288.4110628
304.3344806
297.8605636
299.4785299
299.5956083
298.8941592
299.8941304
301.2454745
299.6359972
300.4941595
302.3809189
302.3414319
301.3078038
300.375298
298.8880113
299.7655289
298.9619962
298.9004381
299.9381198
301.2617947
307.9342872
308.3553828
308.0197596
309.6524797
314.9473268
320.7109586
302.5007219
303.8978714
302.4088943
307.9342872
303.8328787
)
;
    }
}


// ************************************************************************* //
