/*--------------------------------*- C++ -*----------------------------------*\
| =========                 |                                                 |
| \\      /  F ield         | OpenFOAM: The Open Source CFD Toolbox           |
|  \\    /   O peration     | Version:  2406                                  |
|   \\  /    A nd           | Website:  www.openfoam.com                      |
|    \\/     M anipulation  |                                                 |
\*---------------------------------------------------------------------------*/
FoamFile
{
    version     2.0;
    format      ascii;
    arch        "LSB;label=32;scalar=64";
    class       volVectorField;
    location    "0.012";
    object      UMean;
}
// * * * * * * * * * * * * * * * * * * * * * * * * * * * * * * * * * * * * * //

dimensions      [0 1 -1 0 0 0 0];

internalField   nonuniform List<vector> 
654
(
(1708.59628 -8.920969484 -1.987958304)
(1745.769907 -6.998674139 -2.562080772)
(1739.105425 -8.338004062 -1.811343523)
(1739.718706 -8.589611104 -1.714807936)
(1737.800084 -8.642947857 -1.807534947)
(1737.410129 -8.974320569 -1.486888668)
(1737.940306 -7.748005035 0.05966615929)
(1737.503587 -7.76853249 -1.777132112)
(1737.151881 -6.106035769 -0.03285009725)
(1734.551977 -4.348358387 0.8035928568)
(1735.122081 -4.420977203 0.5129385371)
(1733.640616 -4.272674816 -0.4553833568)
(1734.313759 -5.156141633 -1.08769451)
(1733.288452 -6.284005652 -1.869480106)
(1729.526392 -5.831336578 -1.993461719)
(1724.687399 -9.055781624 -1.97295408)
(1712.06534 -9.664175345 -0.1723659983)
(1675.18571 -15.00217865 -1.232686316)
(1565.907282 -21.10233676 -1.230125879)
(1188.821528 10.81454624 2.061041996)
(1710.698524 -2.693144453 2.182527994)
(1746.571519 -4.079414489 1.654840606)
(1736.346442 -2.808745459 2.015216075)
(1735.462353 -3.437723032 0.3550554889)
(1736.09111 -0.7052384058 -0.2612249485)
(1735.424506 -1.736512361 -1.902832622)
(1734.752952 -1.823336904 -4.518193303)
(1734.506961 -1.38247727 -2.554314422)
(1736.84296 -0.7434093564 -1.145849431)
(1739.469545 -1.354164847 -0.362051487)
(1740.986643 -1.888740909 -0.3972372164)
(1739.557425 -1.13892648 -0.2645624639)
(1737.931011 -1.814929921 0.8890708766)
(1733.961325 -2.108478753 -0.2677307974)
(1731.373172 -1.884839479 -0.8662848237)
(1723.401509 -2.437990487 -1.848240348)
(1705.33593 -1.922959769 -1.233840557)
(1659.802309 0.5455184147 -0.4713039013)
(1546.717731 14.51891452 -0.784433517)
(1309.032012 67.11073448 2.114560995)
(1709.942624 0.4806248207 3.222718283)
(1746.355565 -1.360331941 2.80770596)
(1738.168561 -2.563221879 1.19731315)
(1736.964417 -3.627450545 1.119301993)
(1736.847314 -5.316612833 1.729473739)
(1737.019804 -3.314648477 1.512768219)
(1738.847262 -1.466100279 2.93223365)
(1739.927332 -0.7235616441 1.486117236)
(1738.30931 -1.090913395 0.3984106213)
(1736.720706 -1.72418053 0.4392728506)
(1734.893207 -3.63680291 0.0700299326)
(1734.713317 -4.805799341 -1.004925579)
(1733.988019 -3.905375425 -0.9171053717)
(1730.256469 -3.213077623 -0.8753264895)
(1727.674929 -2.744846244 -1.607045477)
(1721.419059 -0.3804923755 -0.4131688298)
(1699.121624 1.731856241 0.1327955731)
(1664.068036 8.58555787 -0.5649469315)
(1577.102717 29.20995643 1.682280037)
(1441.862404 66.57757373 1.582845478)
(1708.93175 -3.131216329 0.5683936536)
(1743.662835 -2.666089808 0.9586429922)
(1734.441193 -1.254210648 2.040347727)
(1735.50451 0.04030169106 2.378538912)
(1738.918151 0.9680890824 1.242459549)
(1740.306705 -0.3607828917 1.540309198)
(1740.292123 -3.070898164 0.5129656553)
(1738.696915 -4.643416958 -0.03162448116)
(1738.231489 -4.022384924 1.14903386)
(1737.320518 -2.417437072 0.9105068403)
(1736.025637 -0.8612426594 1.129091942)
(1735.98506 1.281341388 0.1258068578)
(1735.567941 2.25353627 -0.4362089672)
(1733.571461 2.044167398 1.849281868)
(1727.921527 1.925576035 1.460598427)
(1720.225652 -0.2150257852 0.5423215705)
(1704.872041 4.257784001 0.6335254092)
(1673.864528 10.60159437 1.697579251)
(1619.439344 24.89828502 2.215229738)
(1527.541692 56.23258298 -0.3044087461)
(1706.844594 -2.108711054 0.6845915581)
(1744.485215 -2.113326377 1.837837343)
(1738.766463 -1.948901377 1.042088467)
(1739.408893 -1.66050176 0.7508628807)
(1737.781238 -1.87536513 1.797817893)
(1735.184921 -1.625136893 1.292286216)
(1735.316756 0.5645463312 2.482866928)
(1736.122986 0.8856989304 2.465657953)
(1736.945459 0.3670784135 0.442816987)
(1738.776802 0.02864257577 -0.2777333881)
(1738.713968 -1.572868347 1.669089013)
(1736.079709 -0.5268111047 3.162546269)
(1734.814583 -0.895542623 1.810635977)
(1733.398568 -0.5022150785 0.9570803992)
(1731.987929 1.115474519 0.6668341074)
(1724.098186 3.592251188 0.3299403503)
(1710.576449 6.317538591 1.869282299)
(1686.895544 11.48513583 1.346401096)
(1647.441915 23.25982726 0.1024813335)
(1589.880001 47.75208054 1.00768592)
(1710.62236 2.624842254 -1.247865191)
(1747.988565 2.273347006 -0.7323681908)
(1737.475681 1.037311284 0.4263012324)
(1736.013242 -0.9219226032 -0.688521107)
(1736.68551 0.05718644295 0.1787192628)
(1736.62898 -1.956578953 0.6911143402)
(1735.891259 -1.735116638 0.02215421121)
(1736.141685 -0.8954938398 -0.146233057)
(1734.422669 0.4411464518 1.775230571)
(1734.631304 0.6860608198 2.562938499)
(1734.952556 1.247192271 2.410690717)
(1736.822061 0.3534346506 -0.117035412)
(1737.104246 -1.321887206 0.4675661757)
(1737.920222 -2.771753751 0.8974667852)
(1733.094171 1.002552631 1.491841339)
(1725.424516 1.341534393 1.499801997)
(1715.382534 5.538143984 0.2928460058)
(1693.866094 11.05831106 -0.1535038826)
(1670.253604 20.02516715 0.7153531732)
(1634.116165 39.89814151 2.598797562)
(1709.540078 -0.7585353268 -3.276530557)
(1746.204226 -0.6665148151 -3.541797136)
(1736.490622 0.2104093405 -3.392135148)
(1736.184733 0.6084549853 -4.070652215)
(1735.410951 -0.2010213595 -4.135230689)
(1734.721896 1.396305227 -2.70356261)
(1736.823953 -0.9530639193 -2.001632323)
(1735.520818 -2.300812936 -3.116618947)
(1736.29444 -2.089057155 -3.167119045)
(1735.098425 -1.809924755 -3.15943332)
(1733.872303 -1.326564732 -4.177658235)
(1730.669998 -0.277316877 -2.394804037)
(1730.943107 2.101243325 -1.644146209)
(1730.289558 3.261805964 -2.532265897)
(1727.021811 3.762059188 -1.852176982)
(1721.493167 3.449225485 -2.146735786)
(1714.207862 8.403234217 -2.635748157)
(1704.919199 9.68290738 -1.924422043)
(1689.803306 17.56326603 -0.9760200606)
(1663.175228 29.49164517 -0.7289249591)
(1710.069896 -1.823934286 -3.466485592)
(1746.960131 -1.548755638 -4.043617996)
(1736.805791 -2.386848131 -3.013245026)
(1735.816951 -1.953501279 -2.594470153)
(1736.214137 0.3260822313 -2.506680486)
(1737.67346 -0.4060794507 -5.380751623)
(1736.547356 1.694123711 -5.557697597)
(1735.090421 1.571642312 -4.632520002)
(1733.891759 1.376784153 -4.432433818)
(1734.437155 -0.007583045733 -4.724643222)
(1733.169781 -0.2997114812 -4.414145238)
(1735.619474 1.008278708 -4.695379952)
(1734.508413 2.007549352 -4.839499357)
(1733.141508 2.083356683 -3.304903316)
(1729.070663 3.189234111 -4.931987942)
(1729.522991 3.690292789 -3.923236747)
(1725.465155 3.709478005 -1.089305352)
(1713.998648 9.286106461 -3.397682683)
(1702.985898 13.08061633 -3.182851219)
(1686.95904 21.802479 -3.799583219)
(1705.256694 -0.6854282053 -2.923899555)
(1742.746385 -0.2342079226 -3.01279782)
(1735.396624 0.5340437161 -4.208509591)
(1735.256937 0.3044359785 -3.745145875)
(1734.641779 -0.2896563532 -3.160872897)
(1736.382158 1.131433331 -1.077849269)
(1734.812025 0.3101028819 -0.4123314926)
(1736.746981 1.883719829 -1.043014152)
(1738.041205 2.325431573 -1.541683818)
(1738.368082 3.609749245 0.7576868083)
(1737.078625 1.622735701 0.226278178)
(1736.668022 2.379370137 -2.340689026)
(1735.09153 -2.186141555 -1.182889467)
(1734.470042 -1.927111984 -0.8086987101)
(1733.961511 -1.222171912 -0.3575266664)
(1730.533786 0.8568833163 -1.584849965)
(1724.053194 5.152933676 -0.7753901576)
(1717.96739 8.54605072 -2.282051091)
(1709.375619 10.25077874 -3.661772559)
(1699.883933 17.40556994 -1.670479029)
(1708.630855 1.801027891 0.261591754)
(1745.160076 0.1657424674 0.3703651438)
(1735.04599 0.08301676728 0.9598926081)
(1735.804681 0.5492666938 -0.1880483214)
(1735.26912 -0.9047088846 -1.731050835)
(1733.354814 -0.04649283858 -1.681439619)
(1734.245648 -0.5898863801 -1.236962423)
(1733.472711 -0.0798663404 -2.835293625)
(1733.40731 1.662100879 -2.84550988)
(1733.353701 0.89150461 -3.96612068)
(1732.222129 1.824607242 -1.796907882)
(1732.419123 1.055531707 -0.6418891511)
(1733.532464 1.143869419 -0.1012090557)
(1732.628372 1.812409838 -1.593771709)
(1733.331037 1.497134357 -1.574747606)
(1733.135199 1.012147251 -0.7982449106)
(1729.111806 2.222892506 0.009434893874)
(1727.476772 5.809046455 1.066467348)
(1720.008687 9.906412493 0.8769166795)
(1710.650008 15.32396692 0.2521684124)
(1704.776972 5.143918709 -0.6354850964)
(1741.23836 5.695282119 -1.054061111)
(1733.611734 3.841616886 -2.269043792)
(1733.578961 2.423140117 -1.312290395)
(1733.341104 2.903325688 -0.7283435574)
(1734.523578 1.499188966 -0.6456376847)
(1734.410292 -0.08054064264 0.05848414379)
(1735.560938 -1.143603328 -1.182984302)
(1735.335908 -2.21116124 -0.4336184719)
(1733.765572 -2.488434102 -2.543573718)
(1734.498986 -2.067852455 -2.975804396)
(1734.875102 -1.229800584 -2.816216788)
(1733.344367 0.4176844314 -1.866861304)
(1733.150133 2.248003197 -2.889066596)
(1732.276887 3.306360693 -3.394616319)
(1731.255773 2.572940593 -2.56360417)
(1730.653266 2.803761245 -3.128430354)
(1726.885302 1.415947668 -2.648115538)
(1723.728808 2.445333953 -3.123858506)
(1717.115837 7.64507757 -2.327560404)
(1708.148097 1.131253842 2.439755366)
(1743.840891 0.8791138913 3.437358497)
(1734.516178 1.703870277 5.134295136)
(1733.116563 1.759138006 4.391436147)
(1733.619725 -0.4019681508 3.236656602)
(1734.24127 -0.6346087915 2.437555686)
(1732.773142 1.730727798 1.392186462)
(1731.81563 -0.02027253402 1.809756507)
(1730.496463 0.8052724589 1.661772878)
(1732.375229 0.6010330222 1.590299343)
(1732.835794 1.184395144 1.023379877)
(1734.006735 2.067223796 0.01018783977)
(1735.804836 0.8273299446 -0.6799942997)
(1735.493992 -0.5940503358 -0.9842748307)
(1734.995574 -1.302852964 -0.1537326043)
(1731.79174 -0.5823747066 -1.842533424)
(1729.780627 0.1995358499 -0.4288263125)
(1724.985787 2.721051481 0.1791007586)
(1723.062729 3.633708773 -1.285727275)
(1719.166314 5.238405036 1.818630901)
(1705.496677 1.772875478 2.465283337)
(1741.174931 0.391373548 -0.2074369481)
(1732.908586 -0.5728835361 -0.08136089203)
(1734.152935 0.3152913861 0.5457461224)
(1733.565937 1.141945784 0.1586346597)
(1734.393392 1.974507302 1.310661787)
(1734.518528 0.45538312 0.4867669615)
(1735.014973 1.5163831 -0.8814608584)
(1736.462151 2.526364163 0.3909617464)
(1737.038817 1.275963109 1.148417891)
(1735.073691 0.2833402705 1.536771312)
(1733.721364 -2.255013771 1.31718644)
(1733.30743 -2.871154584 2.352221013)
(1731.438224 -2.861240689 2.50455131)
(1732.204434 -0.9320494357 2.253599075)
(1731.002905 0.0009566563237 3.162840264)
(1732.454006 -0.2205915419 2.303438098)
(1733.659818 1.855138495 2.171278748)
(1731.13995 1.744574391 0.6714251402)
(1727.882378 6.024364319 -0.02846174398)
(1704.191282 -2.436332653 -0.9908008144)
(1742.969003 -1.100960766 -1.286698325)
(1735.46103 0.7662462002 -2.607708179)
(1733.62416 0.08108390621 -4.010775816)
(1735.011331 -0.05338878162 -2.586535207)
(1734.801423 0.6363287262 -1.998207552)
(1735.957898 2.891001628 -0.5237151759)
(1736.683881 1.814918117 0.4653699004)
(1736.620298 -0.573582488 0.6471588489)
(1735.71244 -0.7852995125 2.043977868)
(1735.326968 -1.578484857 1.127860714)
(1735.000849 1.03936949 1.868849723)
(1735.540077 1.562151345 2.012087522)
(1736.939424 -0.6226984469 1.939004046)
(1737.052978 -1.441905651 1.509806354)
(1735.392047 -0.2251956673 -0.0518579528)
(1734.11817 -0.7804517135 -1.890599617)
(1732.195191 -0.2900721928 0.3987660337)
(1728.891947 2.109097408 -0.1179919552)
(1727.670019 2.874067719 -0.1366677384)
(1710.568321 -1.857063117 -1.698236656)
(1746.239654 -2.275178912 0.3651910115)
(1736.675046 -2.602135247 1.833235875)
(1737.620343 -2.555447542 2.03706717)
(1737.09035 -2.203715677 0.7105520154)
(1735.600832 -2.034255671 -0.02006867111)
(1735.500288 -1.910508916 0.7643394585)
(1733.52575 -1.938677405 -1.918348742)
(1733.514274 0.6971604629 -0.9140475906)
(1733.628048 0.8571383481 -0.9679141804)
(1734.607639 0.9627752483 0.2027856095)
(1734.432075 -2.041565457 -0.4935372958)
(1734.467525 -0.3122984175 -0.7042459654)
(1735.230713 2.924859943 -1.855312358)
(1734.634555 3.157413941 -0.5296948259)
(1733.433446 4.077824173 -0.08852506498)
(1733.431606 4.042611088 1.485524219)
(1732.484346 3.109858014 0.6269888906)
(1733.754038 5.281296371 1.255814348)
(1733.608251 4.037880237 0.4309247155)
(1705.397905 -3.101607164 2.066054645)
(1742.416103 -3.333689834 0.8980492759)
(1732.967064 -1.918011422 1.083478539)
(1731.742161 -0.6188230274 1.770718213)
(1731.896179 -0.0491211491 1.924272619)
(1733.534747 -1.101342907 2.131748478)
(1734.332673 0.449774215 1.358115899)
(1735.559892 -0.3410063179 1.953215366)
(1735.977521 -1.662016695 2.021322812)
(1736.337836 -0.7689101253 0.04011084428)
(1735.834196 1.279950566 -0.8329720272)
(1738.571108 3.838691511 -1.28592791)
(1739.481555 5.024004673 -0.01605980641)
(1737.93445 3.207853061 1.837467952)
(1736.149711 1.843253082 2.344260613)
(1737.572443 1.777399802 1.486197765)
(1735.335006 2.615860868 1.159315086)
(1736.324624 3.355358289 1.165581357)
(1734.053064 3.239252574 -0.5143554241)
(1732.764562 2.916850975 -0.2068518886)
(1707.026417 1.19317688 -0.07225271846)
(1746.473449 2.383305723 0.7275692876)
(1737.886593 0.2735923193 -0.7757776772)
(1737.849497 0.5613696782 -2.624705573)
(1737.968495 -0.1036649364 -2.756691639)
(1737.608936 -0.9550075999 -3.238522241)
(1736.631017 0.6281912214 -3.549441719)
(1736.899049 1.073816095 -2.53008145)
(1735.67971 1.757471233 -1.927314422)
(1735.785435 2.990484989 -1.818304466)
(1734.990171 1.620859277 -0.7951182141)
(1734.675713 1.326062387 -0.4542934082)
(1733.902985 0.1447632449 -2.031416499)
(1735.152219 0.06782001363 -4.356982263)
(1735.515811 1.185958721 -3.538546443)
(1733.308105 0.2104360378 -2.428360977)
(1732.786634 1.636383505 -3.316339757)
(1732.872044 0.489203454 -2.920290018)
(1733.006532 3.033821622 -2.348545539)
(1732.152084 3.646476171 -1.743732099)
(1712.948957 2.334869754 -0.7292536352)
(1749.125274 -0.1114594525 -0.4995686769)
(1739.316548 1.230666464 1.622054322)
(1738.092952 2.595847746 1.016093318)
(1738.962304 2.641031741 2.634195068)
(1739.623187 0.6624986061 1.319142167)
(1738.697246 -0.4519639692 2.349250946)
(1739.560275 0.3509196394 1.275030893)
(1739.179365 -1.205148042 0.5858713364)
(1738.079711 -1.995156576 -1.204427863)
(1734.616907 -0.8871835363 -2.606338813)
(1735.341183 -0.01752953549 -1.692870349)
(1732.066644 1.912816804 -0.8709312136)
(1733.357877 1.002491211 -0.003016386483)
(1734.569876 0.8423261351 -0.5986618589)
(1735.465256 2.411679181 -0.5314844961)
(1736.780115 1.809555182 1.109238145)
(1736.002236 1.881183883 0.5506558912)
(1735.864077 1.551501867 2.007701599)
(1735.848933 2.516264995 1.92334181)
(1707.99313 2.799597316 -0.1566822266)
(1743.262862 2.235974049 -1.421790117)
(1735.700291 2.53668626 -2.243226128)
(1733.62795 0.2968692697 -1.085774311)
(1734.692033 -0.8253805067 -2.812733707)
(1732.308629 1.819378885 -2.682597204)
(1733.11207 2.010895391 -2.486739839)
(1733.34585 1.321891358 0.1842823592)
(1733.729649 1.443899792 0.1091861264)
(1734.708333 1.31079664 0.7150685773)
(1734.852968 0.03820584055 1.602490078)
(1734.958454 -0.1973133298 1.252245463)
(1735.587394 -0.6389909998 1.934740313)
(1735.623854 -0.8860928576 1.540937313)
(1734.529375 -0.7934100237 1.562891024)
(1734.309351 -1.166772328 0.6585694129)
(1734.960847 -0.1659355479 0.5509034058)
(1733.729846 0.7961224348 0.8543457987)
(1734.670287 1.073359033 1.242797455)
(1733.825178 1.577124058 1.824345148)
(1711.012108 -0.2684738524 -2.403442757)
(1746.722604 -0.5811716846 -3.22441929)
(1737.816447 -0.879564316 -2.607220811)
(1737.804578 1.491162082 -2.597600769)
(1739.300036 2.246800492 -2.063384159)
(1738.459342 1.586137874 -0.5193237117)
(1738.301678 -0.2124355106 -1.055964226)
(1737.042986 2.004178157 -1.177271755)
(1737.815896 1.515563553 -0.712102933)
(1737.796834 1.786141599 -0.8789816561)
(1738.094567 1.348872343 -0.4821782202)
(1738.235422 0.6255690373 -0.3593227357)
(1738.064084 0.881915256 -1.051517327)
(1736.96325 1.95605548 -1.426422545)
(1736.017199 1.333428252 -0.7762327318)
(1738.258001 2.757597583 -0.4625788848)
(1736.277187 1.766478021 0.5731804563)
(1738.289871 -0.758384867 -0.7454027183)
(1734.665797 1.018682425 -0.9880554541)
(1734.618657 -0.8681421816 -2.71798684)
(1709.949412 -3.858729873 1.146795212)
(1746.888655 -1.277084034 1.889572058)
(1738.042245 0.9973023597 1.806720068)
(1737.661041 0.4946707715 2.091761382)
(1737.271112 1.080761632 0.5128732393)
(1737.768991 1.37333963 0.1711420645)
(1739.762373 2.412839528 1.219504178)
(1738.915711 1.452415194 -0.5489917463)
(1739.847233 0.3676120168 0.17896076)
(1739.682866 0.503904817 -1.556180681)
(1741.128101 1.250481689 -1.552134538)
(1740.684548 1.883193256 -2.210406601)
(1740.442008 0.413288784 -1.485672255)
(1740.613239 0.6485858265 -0.937452909)
(1738.849633 1.761471417 0.2836628111)
(1738.447492 0.03736722233 -0.0688654254)
(1736.185287 -0.2987956679 -0.781730116)
(1734.786893 -1.093243084 -0.5850879883)
(1734.697385 -0.1746764097 -0.01267115654)
(1734.280811 -0.1034488461 -0.3632820807)
(1707.789393 4.018455722 1.694417382)
(1746.264354 2.728419512 0.9906807269)
(1737.349285 -0.7621386147 -0.3582801393)
(1738.663452 0.08758130172 0.2962420933)
(1738.246905 -0.1674509795 -0.677155339)
(1737.200341 1.027214076 -0.3886653995)
(1735.678159 1.005625234 -1.396356496)
(1736.76011 1.146128179 1.020343626)
(1735.407562 2.693005276 1.412654788)
(1734.780952 2.237884808 0.5169923734)
(1733.297158 1.238984314 2.581948262)
(1732.197127 -1.270982541 2.237607981)
(1731.122836 -1.442661608 2.025418023)
(1732.838505 -2.329705636 0.7202800846)
(1732.884851 -3.659333862 -1.620280707)
(1735.476424 -3.550839221 -0.6768991238)
(1736.352176 -1.256021066 0.3323096131)
(1736.778308 2.063512398 -0.8145291966)
(1737.812665 1.534459979 -0.9718759015)
(1737.653143 1.684685703 -1.022991463)
(669.8498599 152.0618322 -5.111387015)
(605.3953725 170.6823351 -1.598331051)
(567.9997982 162.7977775 -1.849788324)
(528.2014737 154.6363963 0.6511940275)
(501.8634975 147.7522201 0.7951244856)
(472.2048385 135.5965141 -0.01395700508)
(443.4454872 128.1649555 -5.73570943)
(415.187837 122.1310555 -3.951561138)
(402.7434326 114.964679 -4.802997426)
(387.4760147 112.4482311 -4.860937517)
(1056.909814 161.879179 -2.538960422)
(941.3422242 221.8267419 -5.733620278)
(885.589134 243.0965327 0.07529338979)
(851.3883033 247.4186216 -1.242727379)
(814.3331252 245.0674943 -7.319338008)
(777.3959476 243.8528517 -2.617331048)
(749.4356833 231.3173763 -1.996448407)
(710.9331266 226.3123305 -1.935695402)
(685.1335096 212.7101447 -0.4175942247)
(667.6793497 201.5419575 2.5840186)
(1275.71509 138.1503695 0.5041029688)
(1164.657008 197.4179297 -6.287561561)
(1099.206562 243.4410464 -0.4272555573)
(1048.144135 271.4390809 -4.653712214)
(1010.543816 286.3404807 -1.129853671)
(978.2764854 295.0723838 1.193022687)
(950.6156711 297.53556 -1.926765884)
(916.8655561 293.4153856 -1.694138868)
(891.945929 283.2097323 0.01951636352)
(855.8666315 275.8469099 -1.168157007)
(1422.042608 107.2102206 4.232264678)
(1323.158987 162.3349948 1.398051886)
(1250.661042 209.4697653 6.631929312)
(1190.246112 252.851754 -1.569241731)
(1149.717695 282.7844131 0.8501299515)
(1114.849049 300.7569873 -0.3651936102)
(1082.182289 313.6362286 0.8305114467)
(1059.851682 323.6737925 -0.8702103527)
(1035.476167 328.0527054 0.8056628225)
(1008.377568 324.7539894 -0.8129588149)
(1517.080778 84.24731441 -1.763310287)
(1442.568855 128.0959176 1.183068213)
(1383.745912 173.3268186 1.961395558)
(1319.520432 211.5729754 2.56616817)
(1275.898182 252.392088 2.884215321)
(1235.663587 286.4797233 4.057752826)
(1196.156676 308.3811949 1.354505514)
(1174.161761 324.1666579 0.3349278427)
(1142.412237 338.040375 0.3203088175)
(1112.820186 345.5645721 2.698129482)
(1582.971519 66.04746748 2.756607573)
(1527.281818 98.30834621 3.455293067)
(1483.123838 133.6063454 2.927233756)
(1426.600473 177.1914708 -0.710705244)
(1380.318752 213.9892863 -1.563230621)
(1334.798911 246.1104068 -1.85851594)
(1292.023268 281.6831055 -2.320974048)
(1262.883881 302.4703711 -0.4876362732)
(1231.709001 322.3758046 1.248826202)
(1213.045454 337.8544799 -2.002000428)
(1630.547336 48.41382979 -1.794518462)
(1587.833326 74.57872285 -0.7095965777)
(1553.602063 103.8635113 -3.338083687)
(1501.305063 139.8571411 -2.794173315)
(1462.135779 168.9344496 0.173176045)
(1426.693331 206.3939362 -7.061913572)
(1389.768633 238.7186653 -5.917646113)
(1351.469216 272.3175722 -4.189148491)
(1318.504833 298.5154148 -3.993302438)
(1293.607338 315.3545863 -1.23262408)
(1661.509802 36.19497841 -2.533853488)
(1627.687546 57.45541162 -1.651879659)
(1605.328858 76.74365265 1.309709315)
(1561.029147 103.0449712 1.489617574)
(1531.6487 131.6625998 3.256632126)
(1493.351294 166.2063981 2.421164034)
(1463.476354 192.0303035 1.452113034)
(1425.563765 226.2619217 1.371227689)
(1392.956647 259.1664205 0.9032977701)
(1358.694111 287.8916781 1.111172293)
(1679.087207 29.70052678 -1.984065067)
(1659.175502 41.28421572 1.796610694)
(1639.188551 58.04647642 1.390752533)
(1608.504265 77.30371255 -0.301125011)
(1583.02939 102.8039635 2.676797531)
(1557.951705 125.9436829 6.68898561)
(1525.734165 156.4070729 1.705616198)
(1495.239291 187.3947629 -0.08150138704)
(1466.183646 215.8262142 -1.150810431)
(1431.361473 247.5554395 1.439160433)
(1698.920387 19.32420281 1.824724659)
(1685.693017 31.26150768 -1.292066675)
(1666.091008 44.10788962 0.5186219015)
(1643.360844 59.64349697 0.7286872073)
(1623.079781 75.5768938 -0.7271015172)
(1602.83852 96.28887823 1.769369693)
(1575.88612 125.3826562 -1.323460288)
(1551.426056 147.9392198 2.579991172)
(1527.708928 176.0962577 -0.1964705443)
(1498.101145 207.1265766 -0.1637425733)
(1708.801457 14.37437779 -4.257052611)
(1698.250778 21.15309604 -2.218794031)
(1685.004597 30.08251234 -4.695504451)
(1668.228123 43.79178341 -1.747650176)
(1652.185516 60.01120878 -1.905448452)
(1632.227292 76.11264895 -1.444567081)
(1610.746618 97.68373735 3.414868281)
(1585.446966 117.9961559 1.805052461)
(1569.073361 145.8718627 2.176935466)
(1546.600211 169.2816642 -1.13414261)
(1714.749989 6.950204938 2.065871027)
(1709.652606 10.44691891 0.4506290453)
(1702.037824 18.31220811 0.5841865597)
(1688.688956 32.39345847 2.100144138)
(1680.106238 39.81749506 0.6807709195)
(1663.013247 55.40855272 0.7217328226)
(1644.208475 74.94256772 1.299458741)
(1625.175143 93.09798906 0.01805035219)
(1607.029544 109.6451052 3.749049056)
(1590.819339 132.5833055 2.089863733)
(1721.477668 8.87713109 1.789687523)
(1714.813452 14.96707765 1.908261663)
(1707.576139 20.01652313 3.05414666)
(1702.237625 24.40252979 0.6309914362)
(1691.760887 32.1488588 -0.5088086276)
(1681.329761 42.24561122 -0.9693693254)
(1670.636138 50.92640428 -1.21718551)
(1660.285553 68.24886397 -1.34758551)
(1648.198159 85.04956667 -3.018275887)
(1624.269563 103.9178827 -3.323988496)
(1723.686432 7.803623399 1.016754239)
(1720.023662 9.882768963 1.497925282)
(1715.238515 14.1865401 0.01341683506)
(1712.733147 19.29280361 0.5816231409)
(1706.462324 23.90193458 -1.478173907)
(1700.933294 29.69273831 -3.073529522)
(1693.181049 37.53166832 -1.047381953)
(1681.946631 50.31339296 -0.9163216222)
(1668.569689 61.1343892 -5.251513723)
(1654.444795 76.96387237 -2.43307159)
(1728.59911 6.10895342 -0.290086841)
(1725.664457 7.214424399 0.2378835392)
(1726.452678 8.981511296 1.435478794)
(1722.963992 10.21737911 0.9974069212)
(1717.345668 18.18043049 2.016572117)
(1712.884438 23.81608933 1.478297612)
(1705.852805 27.52451538 0.6762943838)
(1697.417219 36.0618775 0.2689083179)
(1688.483844 48.52816569 -0.5430671916)
(1678.404789 60.00051518 -0.6610214898)
(1733.672325 3.155997591 -1.129095854)
(1731.974762 5.726411737 -2.991582239)
(1728.033045 9.15998454 -4.740398969)
(1727.630505 11.16266108 -1.8496735)
(1723.595726 11.14417882 -2.308832067)
(1717.161053 17.36287776 -1.666996951)
(1712.583221 22.86201919 -1.710414188)
(1704.986142 28.90856208 -0.1320574808)
(1694.300087 33.19212581 -0.2494347842)
(1686.597814 41.62012214 -0.6244543313)
(1731.607908 3.494439002 -0.5353126708)
(1730.519453 1.230047966 -0.1429543485)
(1728.113558 3.520875343 -1.064958984)
(1725.521781 5.39609062 0.4552271391)
(1723.848349 8.092673743 0.1036831631)
(1720.214767 13.46117567 1.536847519)
(1714.445933 15.1667959 2.244928559)
(1711.501508 19.33178038 2.999143166)
(1708.376259 26.77591134 4.2157864)
(1704.820123 34.82121347 2.412078761)
(1732.80897 4.336012743 1.749053753)
(1731.909034 6.567750543 1.834041028)
(1729.832138 5.336090903 3.255269587)
(1727.973784 6.342027956 2.203709501)
(1726.9421 5.168101877 2.169674925)
(1724.260128 4.537789405 -0.3669986979)
(1721.408542 12.30909245 -0.8777761308)
(1719.89004 14.35581749 0.004207232588)
(1714.287962 18.480506 -1.028783225)
(1706.871715 24.01173469 -1.157083973)
(1733.375871 2.628802351 1.456058999)
(1732.597183 2.639793306 -1.062673215)
(1730.820354 4.698391494 -1.517951767)
(1729.306495 3.663746113 -2.52035516)
(1730.827337 6.041151849 -3.774675016)
(1728.523278 9.049711725 -0.2307925323)
(1725.293497 11.04240147 -3.633752997)
(1723.527063 13.49897469 -3.583600457)
(1720.133277 16.86908445 -2.26103457)
(1715.595917 18.62284314 -2.673372534)
(1734.16365 -1.186938598 -3.190012852)
(1731.950802 -0.9500097943 -2.683603847)
(1730.783632 -0.2308650421 -3.171942869)
(1730.356008 4.159444929 -1.234024159)
(1728.69968 7.325126466 -0.777690657)
(1728.26335 6.808958895 -1.840634148)
(1725.973804 7.036944404 -0.9089099683)
(1724.050666 11.07145547 -1.705544305)
(1724.307387 14.46859403 -1.662483787)
(1722.750562 14.77560293 -2.347758438)
(1735.394161 0.1621261447 0.735064175)
(1736.080086 3.268861014 1.44329331)
(1735.882971 4.257937365 0.5780053193)
(1736.1229 4.583201349 -0.666300806)
(1736.586894 3.773301401 -0.7351932016)
(1734.172897 6.762771737 -0.09362038417)
(1734.057277 7.10018621 0.03797521215)
(1730.876816 8.367789335 -0.9950570141)
(1726.83124 9.671957914 0.3957600489)
(1724.749744 11.314079 2.243680797)
(1737.781339 0.3782695324 -2.614256562)
(1738.218063 3.072046826 -3.24529248)
(1734.566426 1.901690603 -2.68574707)
(1735.298013 3.01143476 -1.28902605)
)
;

boundaryField
{
    flow
    {
        type            calculated;
        value           nonuniform List<vector> 
42
(
(1708.59628 -8.920969484 -1.987958304)
(1710.698524 -2.693144453 2.182527994)
(1709.942624 0.4806248207 3.222718283)
(1708.93175 -3.131216329 0.5683936536)
(1706.844594 -2.108711054 0.6845915581)
(1710.62236 2.624842254 -1.247865191)
(1709.540078 -0.7585353268 -3.276530557)
(1710.069896 -1.823934286 -3.466485592)
(1705.256694 -0.6854282053 -2.923899555)
(1708.630855 1.801027891 0.261591754)
(1704.776972 5.143918709 -0.6354850964)
(1708.148097 1.131253842 2.439755366)
(1705.496677 1.772875478 2.465283337)
(1704.191282 -2.436332653 -0.9908008144)
(1710.568321 -1.857063117 -1.698236656)
(1705.397905 -3.101607164 2.066054645)
(1707.026417 1.19317688 -0.07225271846)
(1712.948957 2.334869754 -0.7292536352)
(1707.99313 2.799597316 -0.1566822266)
(1711.012108 -0.2684738524 -2.403442757)
(1709.949412 -3.858729873 1.146795212)
(1707.789393 4.018455722 1.694417382)
(1708.59628 -8.920969484 -1.987958304)
(1745.769907 -6.998674139 -2.562080772)
(1739.105425 -8.338004062 -1.811343523)
(1739.718706 -8.589611104 -1.714807936)
(1737.800084 -8.642947857 -1.807534947)
(1737.410129 -8.974320569 -1.486888668)
(1737.940306 -7.748005035 0.05966615929)
(1737.503587 -7.76853249 -1.777132112)
(1737.151881 -6.106035769 -0.03285009725)
(1734.551977 -4.348358387 0.8035928568)
(1735.122081 -4.420977203 0.5129385371)
(1733.640616 -4.272674816 -0.4553833568)
(1734.313759 -5.156141633 -1.08769451)
(1733.288452 -6.284005652 -1.869480106)
(1729.526392 -5.831336578 -1.993461719)
(1724.687399 -9.055781624 -1.97295408)
(1712.06534 -9.664175345 -0.1723659983)
(1675.18571 -15.00217865 -1.232686316)
(1565.907282 -21.10233676 -1.230125879)
(1188.821528 10.81454624 2.061041996)
)
;
    }
    obstacle
    {
        type            calculated;
        value           nonuniform List<vector> 10((425.3353532 113.9682644 4.011001968) (343.0015714 91.90699408 -4.434846412) (307.980411 82.5231024 -7.944703956) (277.0124796 74.22527019 7.433082816) (261.2245714 69.99491291 -0.3338629142) (248.2363607 66.51473251 12.94749155) (223.9594377 60.00975028 3.981140557) (214.931912 57.59083236 0.9377505779) (208.126215 55.76725133 -14.27298729) (206.2688766 55.26957873 -5.758215923));
    }
    frontAndBack
    {
        type            empty;
    }
    procBoundary0to1
    {
        type            processor;
        value           nonuniform List<vector> 
21
(
(371.8506609 104.7371097 -2.131412302)
(636.4608313 197.3713318 -4.525210873)
(831.8680078 267.4365426 -5.210386091)
(987.6360752 317.7316903 0.1049468564)
(1096.73255 346.6247676 2.323233781)
(1186.278006 351.9097336 -0.6367262783)
(1266.873152 336.5129253 -2.455353405)
(1336.101804 310.6818961 -2.039772211)
(1404.959385 274.9618351 2.825064074)
(1466.792971 237.8017843 2.718435062)
(1523.277511 196.1991187 -2.547257733)
(1565.934847 158.7526697 2.588992667)
(1609.067964 120.544863 -2.026062247)
(1638.240876 97.06794831 -3.363385388)
(1666.941298 70.77866958 -1.705792666)
(1677.206761 52.65363067 2.344694636)
(1694.818535 43.47924192 3.31892166)
(1701.947552 32.30600212 -3.358003647)
(1710.40982 24.41387812 0.6953712984)
(1719.865827 16.25687748 -3.467084672)
(1724.309577 13.60319482 2.422932616)
)
;
    }
    procBoundary0to2
    {
        type            processor;
        value           nonuniform List<vector> 
31
(
(1709.890439 0.7832041782 0.1617941277)