/*--------------------------------*- C++ -*----------------------------------*\
| =========                 |                                                 |
| \\      /  F ield         | OpenFOAM: The Open Source CFD Toolbox           |
|  \\    /   O peration     | Version:  2406                                  |
|   \\  /    A nd           | Website:  www.openfoam.com                      |
|    \\/     M anipulation  |                                                 |
\*---------------------------------------------------------------------------*/
FoamFile
{
    version     2.0;
    format      ascii;
    arch        "LSB;label=32;scalar=64";
    class       Cloud<dsmcParcel>;
    location    "0.002/lagrangian/dsmc";
    object      coordinates;
}
// * * * * * * * * * * * * * * * * * * * * * * * * * * * * * * * * * * * * * //

9441
(
(0.7162398571 0.02459503127 0.1172850402 0.1418800715) 28 56 1
(0.3577671786 0.3211164107 0.1301861598 0.1909302509) 53 105 2
(0.2409944688 0.3612193405 0.3795027656 0.01828342508) 58 116 2
(0.1356893269 0.1201545915 0.4321553366 0.3120007451) 27 52 1
(0.4761760358 0.2067880637 0.0551239184 0.2619119821) 29 1041 1
(0.4107546235 0.2946226882 0.2030380262 0.09158466205) 18 1074 2
(0.2285785711 0.259577383 0.3857107145 0.1261333314) 299 587 1
(0.9022367986 0.04888160071 0.02342498598 0.02545661473) 54 49 1
(0.3289001569 0.2584558173 0.07709410424 0.3355499215) 116 229 1
(0.5897599011 0.2051200494 0.0699323054 0.135187744) 132 261 1
(0.5208024575 0.006478140448 0.2395987712 0.2331206308) 87 170 1
(0.5916618279 0.204169086 0.07180750702 0.132361579) 137 270 2
(0.8452470021 0.02551742065 0.07737649893 0.05185907828) 237 465 1
(0.2125275179 0.393736241 0.2509523129 0.1427839281) 83 106 1
(0.005281033173 0.4973594834 0.3317400672 0.1656194162) 81 160 2
(0.4716061945 0.04633448938 0.2178624134 0.2641969028) 22 1078 1
(0.2830322568 0.1406807457 0.3584838716 0.2178031259) 177 347 1
(0.7257792032 0.03373665772 0.1033737407 0.1371103984) 78 154 1
(0.2047822445 0.3976088777 0.3520776699 0.04553120786) 110 215 2
(0.197444074 0.2373159926 0.401277963 0.1639619704) 29 56 1
(0.3307377455 0.3346311273 0.2321401648 0.1024909625) 209 353 1
(0.7486360858 0.114977868 0.1256819571 0.01070408909) 235 464 2
(0.4311360427 0.2844319786 0.005656210176 0.2787757685) 208 352 1
(0.6223240071 0.1888379965 0.009339180775 0.1794988157) 89 176 1
(0.3942168124 0.07609005737 0.2268015364 0.3028915938) 17 1073 1
(0.3375040855 0.3312479572 0.12911283 0.2021351272) 230 453 2
(0.4310580948 0.2115897951 0.2844709526 0.07288115748) 294 580 2
(0.3448386188 0.06636112466 0.3275806906 0.2612195659) 24 46 1
(0.3188005336 0.08741227863 0.2531874546 0.3405997332) 89 117 2
(0.06572265831 0.260499874 0.2066387969 0.4671386708) 28 56 1
(0.09814416896 0.04390552362 0.4509279155 0.4070223919) 28 54 1
(0.1167361585 0.4416319207 0.06706621601 0.3745657047) 25 1081 2
(0.6453259636 0.09494928017 0.08238773805 0.1773370182) 58 57 2
(0.2396532882 0.3801733559 0.228048699 0.1521246568) 147 290 2
(0.239650919 0.3801745405 0.05394933366 0.3262252068) 204 402 2
(0.1196785372 0.06687159222 0.3732891392 0.4401607314) 22 1078 1
(0.7478473597 0.1260763201 0.07010402177 0.05597229836) 414 757 1
(0.1786209655 0.4106895172 0.366303402 0.04438611528) 87 170 2
(0.311582467 0.3442087665 0.1148780116 0.2293307549) 26 50 2
(0.04225088776 0.3160984835 0.4788745561 0.1627760726) 23 47 2
(0.06540684117 0.01135098976 0.4559455897 0.4672965794) 24 1080 1
(0.4368846231 0.04323809833 0.2815576885 0.2383195901) 114 223 1
(0.07743317373 0.1187842988 0.4612834131 0.3424991143) 28 54 1
(0.3814710182 0.3092644909 0.04010358281 0.2691609081) 175 343 2
(0.004290959402 0.4978545203 0.4038198684 0.09403465186) 82 160 2
(0.2356295581 0.382185221 0.1367229809 0.2454622401) 19 1075 2
(0.3495727415 0.312639242 0.01257438727 0.3252136293) 295 581 1
(0.5774181435 0.2112909282 0.1691487028 0.04214222544) 117 232 1
(0.2395205023 0.07793442627 0.3023053226 0.3802397488) 26 1082 1
(0.857728818 0.002417310326 0.071135591 0.06871828067) 27 55 2
(0.5683826747 0.0190123147 0.196796348 0.2158086627) 84 108 2
(0.1780289131 0.4109855434 0.3910558014 0.01992974204) 57 113 2
(0.118303979 0.4408480105 0.3228529673 0.1179950431) 170 277 1
(0.5797892305 0.06347759096 0.2101053847 0.1466277938) 57 111 1
(0.3800908721 0.3099545639 0.07956193413 0.2303926298) 23 46 2
(0.01388267374 0.4930586631 0.3410244102 0.1520342529) 27 54 2
(0.2920009837 0.3497512659 0.004248242236 0.3539995081) 59 58 2
(0.3419325139 0.1016924903 0.2273412528 0.3290337431) 149 1045 1
(0.04084098442 0.1246589254 0.4795795078 0.3549205824) 174 344 2
(0.7314055178 0.03487210574 0.09942513539 0.1342972411) 27 54 1
(0.09644244217 0.4517787789 0.0245597765 0.4272190024) 21 1077 2
(0.05789569548 0.0771599248 0.3938922275 0.4710521523) 25 50 1
(0.03078651955 0.4846067402 0.3975610844 0.08704565587) 116 227 2
(0.6029319175 0.1985340413 0.04029669784 0.1582373434) 27 1083 2
(0.3562567457 0.3218716271 0.2591343687 0.06273725849) 56 53 1
(0.1431122148 0.4284438926 0.2591734957 0.1692703969) 50 41 1
(0.3279815138 0.0877484412 0.2482608019 0.3360092431) 490 959 1
(0.5459354396 0.2270322802 0.09858793575 0.1284443444) 78 96 1
(0.2426945565 0.2884665616 0.3786527217 0.09018616016) 56 112 2
(0.1189275978 0.02020083175 0.4405362011 0.4203353694) 116 227 1
(0.2731581095 0.134328132 0.3634209452 0.2290928132) 88 175 2
(0.3019295226 0.2977215032 0.3490352387 0.05131373553) 329 646 1
(0.5347552464 0.164684392 0.06793798477 0.2326223768) 208 352 2
(0.8834120577 0.01572607474 0.04256789641 0.05829397115) 83 106 2
(0.8185670276 0.02657047964 0.06414600656 0.0907164862) 22 44 1
(0.03799351772 0.4810032411 0.3011988792 0.179804362) 27 54 2
(0.03624014589 0.4818799271 0.1305308504 0.3513490766) 112 221 2
(0.1115722362 0.2080777795 0.2361361023 0.4442138819) 142 280 1
(0.3067428742 0.3466285629 0.1461202675 0.2005082953) 119 176 1
(0.2215388812 0.2674881741 0.1217423853 0.3892305594) 48 37 2
(0.1493186423 0.4253406789 0.02134206387 0.403998615) 57 114 1
(0.2206589993 0.2953624278 0.3896705004 0.09430807258) 149 294 2
(0.08241699378 0.4587915031 0.09238633507 0.366405168) 149 294 1
(0.1613015079 0.3514673981 0.419349246 0.06788184798) 149 294 2
(0.3311251079 0.3088528482 0.3344374461 0.02558459785) 59 117 2
(0.09484791289 0.2033211486 0.249254895 0.4525760436) 113 165 2
(0.6655151876 0.1115900232 0.1672424062 0.05565238294) 28 57 2
(0.7398042632 0.1300978684 0.05100358374 0.07909428467) 267 526 2
(0.1511271936 0.4244364032 0.329529603 0.09490680017) 17 35 1
(0.1306753789 0.1420480269 0.4346623106 0.2926142837) 207 409 2
(0.4937637092 0.1099829135 0.2531181454 0.1431352319) 115 228 2
(0.077341423 0.194195979 0.2671333095 0.4613292885) 58 57 2
(0.2661983933 0.3669008034 0.3480261184 0.01887468493) 238 411 1
(0.008412920777 0.02060019987 0.4957935396 0.4751933397) 83 162 1
(0.7913111754 0.05349125575 0.1043444123 0.05085315654) 82 160 1
(0.01104429931 0.05003362547 0.4944778503 0.4444442249) 50 97 1
(0.3504089428 0.3247955286 0.2300355119 0.09476001673) 419 1054 2
(0.5113399592 0.2443300204 0.1935665464 0.050763474) 177 349 2
(0.6352417234 0.05734650221 0.1250326361 0.1823791383) 206 348 2
(0.06167806739 0.4691609663 0.06377608469 0.4053848816) 139 274 2
(0.3675973222 0.3162013389 4.228708838e-05 0.3161590518) 354 639 1
(0.5453919475 0.09424267641 0.1330613498 0.2273040262) 77 152 1
(0.6748347029 0.1625826485 0.0385562958 0.1240263527) 57 55 1
(0.1554613525 0.4222693237 0.3040207129 0.1182486108) 206 348 1
(0.3221206969 0.1061749371 0.2327647145 0.3389396515) 205 346 2
(0.1335709626 0.1031740384 0.4332145187 0.3300404804) 208 408 1
(0.111026564 0.444486718 0.2677606436 0.1767260744) 160 316 1
(0.7870815376 0.05982604416 0.04663318706 0.1064592312) 148 292 1
(0.03359055932 0.4121209023 0.071083818 0.4832047203) 28 56 1
(0.01040440975 0.4947977951 0.0605376515 0.4342601436) 81 161 1
(0.8233743617 0.08831281913 0.0526793702 0.03563344893) 26 50 2
(0.619092543 0.01692253573 0.1904537285 0.1735311928) 235 464 2
(0.2498964518 0.3750517741 0.3394088546 0.03564291951) 143 282 2
(0.6909622796 0.07347016333 0.08104869686 0.1545188602) 115 227 1
(0.7402568699 0.08621584227 0.04365572276 0.129871565) 48 37 2
(0.3473120259 0.3263439871 0.07024792745 0.2560960596) 146 230 1
(0.2675801304 0.3662099348 0.2208938925 0.1453160423) 294 577 2
(0.3608731701 0.1722990167 0.319563415 0.1472643983) 138 270 1
(0.7309293206 0.1266139394 0.007921400345 0.1345353397) 117 173 2
(0.5023607973 0.1883932244 0.2488196013 0.06042637692) 198 391 2
(0.02730984133 0.2685393936 0.4863450793 0.2178056858) 267 527 2
(0.8069067103 0.00110436034 0.09654664487 0.09544228453) 25 51 2
(0.6289415835 0.1855292083 0.1197725332 0.06575667507) 27 52 2
(0.6273838328 0.1863080836 0.1836904789 0.002617604738) 21 43 1
(0.3216767151 0.215159023 0.1240026194 0.3391616424) 57 55 2
(0.1765765559 0.09422636783 0.3174853542 0.411711722) 28 56 1
(0.2755020056 0.2285468854 0.1337021118 0.3622489972) 116 229 1
(0.5883545885 0.08614125915 0.2058227057 0.1196814466) 23 44 1
(0.06457663633 0.4677116818 0.1616286885 0.3060829933) 199 334 1
(0.579459954 0.210270023 0.04075017657 0.1695198465) 24 1080 2
(0.8425901351 0.07870493247 0.03939477934 0.03931015313) 321 574 1
(0.09333704093 0.4533314795 0.2074067139 0.2459247656) 53 47 1
(0.02631425308 0.4868428735 0.04958979842 0.437253075) 262 458 1
(0.3270830928 0.3364584536 0.2366169096 0.09984154403) 84 108 1
(0.659899351 0.05129944838 0.1700503245 0.1187508761) 118 234 2
(0.1594499325 0.2585801773 0.1616948564 0.4202750338) 205 346 2
(0.3191782391 0.3404108804 0.1955329946 0.1448778858) 328 588 1
(0.2688528136 0.3655735932 0.1970917438 0.1684818493) 59 115 2
(0.002680103923 0.1370040597 0.498659948 0.3616558883) 25 51 2
(0.3969798965 0.3015100518 0.09396847842 0.2075415733) 388 765 1
(0.1196519374 0.4401740313 0.2645101979 0.1756638334) 324 638 2
(0.4636784606 0.2681607697 0.1483374639 0.1198233058) 198 388 2
(0.7014236068 0.1100099344 0.1492881966 0.03927826219) 177 347 1
(0.3542487213 0.2922800238 0.03059561557 0.3228756393) 59 58 2
(0.4839200842 0.2580399579 0.165381086 0.09265887193) 328 588 1
(0.3377688701 0.1109528266 0.2201627383 0.331115565) 25 1081 1
(0.2575473319 0.1573073915 0.3712263341 0.2139189426) 23 47 2
(0.2258700667 0.2869521176 0.1001128491 0.3870649667) 266 524 1
(0.37139106 0.2624149147 0.31430447 0.0518895553) 171 338 2
(0.1874489965 0.4062755018 0.154822102 0.2514533998) 25 50 2
(0.5413317315 0.2293341343 0.1324490092 0.09688512506) 75 146 2
(0.4182898361 0.1150548783 0.1758002036 0.290855082) 53 47 2
(0.2697243739 0.3081951706 0.05694264248 0.365137813) 200 394 1
(0.08156960982 0.1568690513 0.3023461438 0.4592151951) 145 228 2
(0.03911559063 0.08029002475 0.4001521799 0.4804422047) 53 105 1
(0.2378100081 0.2942312034 0.381094996 0.0868637926) 199 390 1
(0.8440190935 0.03134944154 0.07799045325 0.04664101171) 204 403 2
(0.4486022567 0.1393681544 0.1363307173 0.2756988716) 147 232 2
(0.4654414976 0.2305339765 0.0367452747 0.2672792512) 79 98 2
(0.7172011543 0.1413994229 0.01735777008 0.1240416528) 328 644 2
(0.1371566267 0.1349726005 0.2964490861 0.4314216866) 55 51 2
(0.774722294 0.04946986564 0.112638853 0.06316898737) 55 110 2
(0.4171154245 0.08405710655 0.2073851812 0.2914422878) 205 346 2
(0.403312554 0.298343723 0.01654707914 0.2817966439) 176 345 2
(0.1566986369 0.4216506816 0.2528948427 0.1687558388) 170 277 1
(0.1820297649 0.061186334 0.3477987835 0.4089851175) 207 408 1
(0.3974533867 0.3012733067 0.1072470003 0.1940263064) 327 642 2
(0.1445504239 0.328631544 0.09909324401 0.4277247881) 148 292 1
(0.07222254878 0.4638887256 0.4386722569 0.02521646871) 21 43 1
(0.22543827 0.387280865 0.3227355703 0.06454529468) 84 108 1
(0.2411440896 0.3794279552 0.2638962716 0.1155316836) 174 343 2
(0.2358932751 0.2769861514 0.3820533625 0.105067211) 83 162 1
(0.388389223 0.3058053885 0.01359403461 0.2922113539) 17 32 2
(0.3312834038 0.08652708849 0.3343582981 0.2478312096) 146 286 1
(0.1367123259 0.02087750464 0.4107663324 0.431643837) 84 166 1
(0.04246494222 0.4787675289 0.3125908549 0.166176674) 382 753 1
(0.3293977871 0.3353011065 0.2169225139 0.1183785925) 50 97 2
(0.233828857 0.3830855715 0.1848905529 0.1981950186) 299 1050 2
(0.4793619034 0.2603190483 0.1227323352 0.1375867131) 198 332 1
(0.5813327308 0.2093336346 0.05467289973 0.1546607349) 22 42 2
(0.7230136332 0.1384931834 0.0900618246 0.04843135882) 77 94 1
(0.2941736717 0.3529131641 0.3382371241 0.01467604002) 80 156 2
(0.4984187282 0.1097270383 0.1410635976 0.2507906359) 108 155 2
(0.2788857191 0.2743090564 0.3605571405 0.0862480841) 23 44 1
(0.3438251232 0.3280874384 0.2815914296 0.04649600883) 88 174 2
(0.3045901592 0.3477049204 0.106733304 0.2409716164) 104 205 2
(0.1270767926 0.2304990771 0.4364616037 0.2059625266) 144 285 2
(0.4222320526 0.2600659737 0.02881799996 0.2888839737) 175 287 2
(0.6382068478 0.08036445691 0.1808965761 0.1005321192) 145 287 2
(0.1126628324 0.3873248316 0.0563437522 0.4436685838) 57 113 1
(0.259956243 0.3114304625 0.3700218785 0.05859141602) 205 402 1
(0.03074639444 0.394760983 0.4846268028 0.08986581974) 177 350 2
(0.2241950908 0.2659854807 0.3879024546 0.1219169739) 83 165 2
(0.2669256161 0.3665371919 0.3461780549 0.02035913705) 325 641 1
(0.2420244968 0.1360634681 0.3789877516 0.2429242834) 117 232 2
(0.7492100245 0.1253949877 0.07709717775 0.04829780998) 16 33 1
(0.3142052804 0.3428973598 0.2791114042 0.06378595556) 145 228 1
(0.005635920561 0.1588102624 0.3383717773 0.4971820397) 89 1043 1
(0.7427554648 0.1286222676 0.002263195803 0.1263590718) 81 102 1
(0.1648183497 0.2177574162 0.199833409 0.4175908252) 203 342 2
(0.2143864369 0.230124324 0.3928067815 0.1626824575) 117 232 2
(0.09944045015 0.3014798879 0.1487998871 0.4502797749) 89 117 2
(0.191767111 0.3430356296 0.4041164445 0.06108081494) 77 153 2
(0.006095882002 0.496952059 0.2894242565 0.2075278025) 118 231 2
(0.5812471221 0.209376439 0.1656109524 0.04376548658) 85 168 2
(0.1609726289 0.07754012749 0.3419735581 0.4195136856) 239 412 2
(0.6835415819 0.1582292091 0.1233802683 0.03484894072) 134 206 1
(0.4792349215 0.2603825392 0.111984611 0.1483979282) 55 109 2
(0.2913782856 0.3543108572 0.2956729997 0.05863785749) 206 404 2
(0.01351014486 0.3786501041 0.4932449276 0.1145948235) 207 409 2
(0.6100185467 0.1085562143 0.0864345123 0.1949907266) 416 819 1
(0.4426540567 0.2786729717 0.09762761491 0.1810453567) 168 273 1
(0.1097650835 0.4451174583 0.1278155816 0.3173018767) 80 158 2
(0.2368919633 0.1505960563 0.3815540184 0.2309579621) 238 470 2
(0.6883629513 0.1557050421 0.1558185243 0.0001134822804) 21 40 1
(0.8425613944 0.07871930279 0.06297695705 0.01574234574) 444 875 1
(0.3820484454 0.199583452 0.1093923254 0.3089757773) 204 402 1
(0.3614713854 0.1477909746 0.3192643073 0.1714733327) 17 35 2
(0.2709227862 0.111644954 0.3645386069 0.2528936529) 173 342 2
(0.9076222519 0.04618887404 0.03508932133 0.01109955271) 80 156 2
(0.08383113038 0.08301925162 0.4580844348 0.3750651832) 112 219 1
(0.1019470853 0.4490264573 0.1885511361 0.2604753212) 89 117 1
(0.395661771 0.2105955073 0.3021691145 0.09157360719) 54 105 1
(0.4718740159 0.006249391597 0.2578136005 0.264062992) 26 52 1
(0.5818171872 0.2090914064 0.1189954987 0.09009590774) 24 46 2
(0.01151251016 0.4942437449 0.2140915397 0.2801522052) 48 37 1
(0.7078085286 0.1460957357 0.1388950567 0.007200679069) 78 96 1
(0.3169725111 0.2012885734 0.140225171 0.3415137445) 56 111 1
(0.04810836077 0.4759458196 0.1297445552 0.3462012644) 16 32 2
(0.2431325964 0.3250828681 0.3784337018 0.0533508337) 25 48 1
(0.2128026482 0.3935986759 0.3903694921 0.003229183796) 149 235 1
(0.1267819377 0.4366090311 0.4177373309 0.01887170019) 22 45 1
(0.03175398476 0.4841230076 0.1590241982 0.3250988094) 266 466 1
(0.3805601613 0.01897606711 0.3097199193 0.2907438522) 86 171 2
(0.3239144521 0.1434312512 0.3380427739 0.1946115227) 25 51 2
(0.3541619783 0.3229190109 2.097828228e-05 0.3228980326) 290 572 1
(0.2327561372 0.2831350419 0.3836219314 0.1004868895) 329 648 2
(0.5207984672 0.2396007664 0.1208512197 0.1187495467) 28 1084 2
(0.4181482095 0.2909258952 0.1480075073 0.142918388) 140 277 1
(0.4119837639 0.2175427269 0.07646539119 0.2940081181) 24 48 1
(0.6774987391 0.1612506305 0.04942873314 0.1118218973) 80 156 2
(0.2049761663 0.1126855904 0.3975119168 0.2848263264) 233 460 2
(0.7427597452 0.06927126053 0.05934886689 0.1286201274) 416 819 1
(0.3630248565 0.3184875717 0.2459025107 0.07258506104) 46 33 1
(0.1946504714 0.4026747643 0.1743615088 0.2283132555) 88 175 1
(0.08371649627 0.4581417519 0.2018129611 0.2563287908) 80 156 2
(0.2529080736 0.3735459632 0.09839673709 0.2751492261) 209 353 1
(0.6413210949 0.1793394525 0.1404864938 0.03885295878) 328 646 2
(0.0980258743 0.3523084008 0.4509870629 0.09867866206) 139 272 1
(0.3817595723 0.06781016261 0.2413100512 0.3091202139) 174 343 1
(0.07234402612 0.3236139503 0.4638279869 0.1402140366) 104 203 1
(0.557770409 0.1253145358 0.09580025975 0.2211147955) 419 766 2
(0.3655652805 0.2547582702 0.06245908958 0.3172173598) 58 57 2
(0.6078492593 0.1295384796 0.1960753703 0.06653689074) 107 212 2
(0.1528572575 0.07372910713 0.3498422641 0.4235713712) 113 165 2
(0.3116411975 0.1528709442 0.1913084571 0.3441794012) 203 342 2
(0.09737547085 0.4090330578 0.04227920676 0.4513122646) 358 647 2
(0.5579124314 0.2210437843 0.0989526118 0.1220911725) 298 587 2
(0.01348045185 0.4932597741 0.4776812519 0.01557852216) 57 111 2
(0.1138684833 0.4430657583 0.02144108702 0.4216246713) 117 232 1
(0.4987255999 0.2319884502 0.2506372 0.01864874986) 89 176 2
(0.487634504 0.1272442066 0.256182748 0.1289385414) 359 705 1
(0.19674255 0.1210311798 0.2805975452 0.401628725) 144 226 2
(0.3977236734 0.3011381633 0.260945281 0.04019288227) 76 148 2
(0.2475155988 0.1607895196 0.2154526809 0.3762422006) 116 171 2
(0.3477253241 0.3261373379 0.1499575835 0.1761797544) 88 116 1
(0.03281336976 0.4835933151 0.027171831 0.4564214841) 220 433 2
(0.4622687575 0.2688656212 0.1538411981 0.1150244231) 29 56 2
(0.5536810556 0.2231594722 0.1415279703 0.08163150189) 21 1077 2
(0.08985542074 0.1481020478 0.3069702418 0.4550722896) 145 228 2
(0.5112014266 0.2443992867 0.08546040168 0.158938885) 206 406 2
(0.7530076838 0.07722953616 0.04626662195 0.1234961581) 56 53 2
(0.03992302171 0.06678178157 0.4132567076 0.4800384891) 174 343 1
(0.9051035895 0.01589757706 0.03155062821 0.04744820526) 41 81 1
(0.4521812733 0.2739093633 0.2190207986 0.05488856474) 54 107 2
(0.2089240714 0.3955379643 0.09495722617 0.3005807381) 356 702 1
(0.2667984862 0.3666007569 0.3399636247 0.02663713214) 234 459 2
(0.5837450448 0.2081274776 0.1612966342 0.04683084336) 146 230 1
(0.7192211979 0.140389401 0.02220541651 0.1181839845) 201 396 2
(0.1441177767 0.4279411117 0.2923524356 0.135588676) 83 165 1
(0.08721469237 0.2060817492 0.4563926538 0.2503109047) 16 30 1
(0.2536096822 0.3731951589 0.06374370036 0.3094514586) 268 529 1
(0.1643912426 0.4178043787 0.2992219056 0.1185824731) 119 233 2
(0.5738898461 0.108266782 0.2130550769 0.1047882949) 54 105 1
(0.6218998033 0.1860220336 0.1890500984 0.003028064719) 292 576 2
(0.7994217547 0.01471185661 0.1002891226 0.08557726602) 80 159 2
(0.3594047108 0.1239893606 0.3202976446 0.196308284) 175 346 2
(0.4360290724 0.2819854638 0.2771519077 0.004833556111) 263 460 1
(0.7223178135 0.1101762339 0.02866485929 0.1388410932) 298 529 2
(0.4479124622 0.2760437689 0.01536016738 0.2606836015) 110 217 2
(0.2373866398 0.3813066801 0.01179060916 0.369516071) 413 813 2
(0.05052835899 0.4747358205 0.3955168378 0.0792189827) 57 114 1
(0.400427362 0.299786319 0.2532671204 0.0465191986) 325 640 2
(0.2584475636 0.2417806914 0.1289955268 0.3707762182) 50 99 1
(0.1659667442 0.4170166279 0.1505908522 0.2664257756) 221 433 2
(0.2093635405 0.3953182297 0.345990827 0.04932740274) 113 223 2
(0.04066186785 0.4796690661 0.1947674554 0.2849016107) 118 175 1
(0.666941288 0.01429837729 0.1522309787 0.166529356) 49 39 2
(0.5624856351 0.2187571824 0.01854163693 0.2002155455) 148 290 2
(0.2157243132 0.3921378434 0.3816020465 0.01053579688) 235 405 1
(0.3312316216 0.3343841892 0.05641400994 0.2779701793) 268 528 2
(0.3228440905 0.1172491908 0.2213287639 0.3385779548) 88 116 2
(0.4825384592 0.2587307704 0.002511539661 0.2562192308) 176 345 2
(0.4126784566 0.2936607717 0.2908373818 0.002823389924) 418 824 1
(0.2179841623 0.3910079188 0.2246778219 0.1663300969) 53 47 1
(0.3011081252 0.3494459374 0.3356045164 0.01384142097) 179 294 1
(0.2674216535 0.1834874777 0.1828016955 0.3662891732) 325 640 1
(0.8371815821 0.06267954863 0.01872966031 0.08140920895) 26 52 1
(0.8751996098 0.06240019512 0.05153689753 0.01086329759) 113 223 2
(0.321598459 0.2197681083 0.1194326622 0.3392007705) 144 226 2
(0.527103646 0.236448177 0.04637586145 0.1900723155) 119 233 2
(0.04111336045 0.4794433198 0.3369918689 0.1424514509) 26 1082 2
(0.445691591 0.2166347894 0.06051941512 0.2771542045) 85 168 1
(0.2070486519 0.396475674 0.1379608729 0.2585148011) 26 50 2
(0.2887453226 0.04230607355 0.3556273387 0.3133212652) 19 39 2
(0.4888098793 0.2555950603 0.1461226171 0.1094724433) 40 21 1
(0.5402007964 0.2298996018 0.06731586573 0.1625837361) 54 105 2
(0.6513801284 0.1743099358 0.06449840972 0.1098115261) 323 636 2
(0.043315687 0.4783421565 0.08108279584 0.3972593607) 52 104 1
(0.8456798842 0.03614614392 0.07716005791 0.04101391399) 46 92 2
(0.2647056615 0.2938269333 0.07382023595 0.3676471692) 173 283 2
(0.3942555928 0.2738447029 0.02902750072 0.3028722036) 204 344 2
(0.3049736553 0.3475131723 0.1184656799 0.2290474924) 45 31 1
(0.3774302378 0.3112848811 0.0919452774 0.2193396037) 268 529 1
(0.4365067357 0.2817466322 0.04312120215 0.23862543) 83 106 1
(0.5560910443 0.2219544779 0.1656430108 0.05631146704) 22 42 2
(0.3811421045 0.3094289477 0.02237636859 0.2870525791) 386 760 2
(0.3034331114 0.3482834443 0.08670864606 0.2615747982) 119 176 1
(0.05606474676 0.4719676266 0.4648003399 0.007167286684) 21 40 2
(0.1678769076 0.4160615462 0.2575735933 0.1584879529) 148 290 2
(0.5268119413 0.2365940294 0.0632349263 0.1733591031) 82 160 2
(0.3970371319 0.301481434 0.2213617203 0.08011971377) 293 519 1
(0.1366509173 0.4316745414 0.0320597929 0.3996147485) 20 40 2
(0.3377114392 0.05393573735 0.3311442804 0.2772085431) 141 276 1
(0.4432461768 0.2783769116 0.2472469424 0.03112996918) 25 48 2
(0.2830565677 0.1091648185 0.2493068976 0.3584717161) 291 515 2
(0.2982810766 0.3508594617 0.3006138736 0.05024558809) 19 39 1
(0.1566462288 0.4216768856 0.04109931525 0.3805775703) 41 79 2
(0.1459795132 0.4270102434 0.1749958878 0.2520143556) 264 521 1
(0.3818017284 0.100995803 0.3090991358 0.2081033329) 115 225 1
(0.7549815714 0.06349914245 0.1225092143 0.05901007184) 173 342 2
(0.1528747992 0.4235626004 0.1503014335 0.2732611669) 196 384 2
(0.04236454131 0.4788177293 0.2181389709 0.2606787584) 19 38 2
(0.7034746662 0.1482626669 0.07719832006 0.07106434686) 53 103 2
(0.3758631744 0.06496315522 0.3120684128 0.2471052576) 197 386 1
(0.3094604355 0.181532588 0.1637371943 0.3452697822) 177 349 1
(0.1104693246 0.3210328091 0.1237325286 0.4447653377) 206 406 1
(0.005407209955 0.02540677078 0.497296395 0.4718896242) 47 91 1
(0.03379799271 0.2152414863 0.2678595174 0.4831010036) 109 215 1
(0.2606278813 0.3696860594 0.3610374711 0.008648588231) 284 501 1
(0.05368355217 0.4731582239 0.2636611379 0.209497086) 113 221 2
(0.3342321703 0.2397048005 0.3328839149 0.09317911432) 53 106 2
(0.5853649411 0.2073175294 0.09987123513 0.1074462943) 18 37 1
(0.007307379664 0.1469640387 0.3493822714 0.4963463102) 54 49 2
(0.1458247096 0.4270876452 0.01833895176 0.4087486934) 17 34 2
(0.5770621975 0.2114689013 0.1954930376 0.01597586368) 110 159 1
(0.6681314991 0.1659342505 0.1603425187 0.00559173182) 179 294 1
(0.356423313 0.2706629004 0.3217883435 0.05112544314) 446 876 1
(0.8284601216 0.08576993921 0.0641301596 0.02163977961) 106 207 2
(0.2459556812 0.3770221594 0.2194692069 0.1575529525) 448 882 2
(0.02705286763 0.4864735662 0.4059779374 0.08049562875) 201 338 1
(0.1221224883 0.4389387558 0.1319110258 0.30702773) 113 223 2
(0.0193923923 0.05598392413 0.4343198797 0.4903038038) 293 519 2
(0.8895563804 0.05522180978 0.007597199987 0.04762460979) 116 229 2
(0.5406533054 0.2296733473 0.03196784058 0.1977055067) 238 467 2
(0.4408521441 0.2795739279 0.02180341543 0.2577705125) 81 161 1
(0.3187032771 0.1681769726 0.1724713888 0.3406483614) 52 45 2
(0.4184251877 0.01376326877 0.2770241374 0.2907874062) 207 408 1
(0.5905611819 0.2047194091 0.1157711445 0.0889482646) 168 331 2
(0.4775705895 0.08185103524 0.2612147052 0.17936367) 23 44 1
(0.3141119678 0.3429440161 0.1203657874 0.2225782287) 349 685 2
(0.04205915965 0.03027047441 0.4789704202 0.4486999458) 415 818 2
(0.2452006995 0.1025929864 0.2748066638 0.3773996503) 55 51 2
(0.2851154725 0.3574422638 0.03134645015 0.3260958136) 267 468 1
(0.4289793538 0.2855103231 0.1138984506 0.1716118725) 25 1081 2
(0.1259517767 0.3131778569 0.4370241116 0.1238462547) 234 459 1
(0.6574287412 0.1712856294 0.0929458693 0.07833976012) 53 47 1
(0.3124982877 0.3437508561 0.1403912784 0.2033595778) 55 107 2
(0.583836175 0.2080819125 0.1025018343 0.1055800782) 209 353 1
(0.8923064108 0.05384679458 0.01770954635 0.03613724823) 386 758 2
(0.07391929969 0.03934136719 0.423698983 0.4630403502) 55 109 1
(0.2240350339 0.3422979477 0.3879824831 0.04568453535) 351 692 2
(0.001951602125 0.4990241989 0.3140182157 0.1850059833) 386 761 1
(0.3823590621 0.2958863007 0.01293416819 0.3088204689) 54 49 2
(0.03967369631 0.05200568283 0.428157469 0.4801631518) 145 228 2
(0.220522864 0.389738568 0.3439388392 0.04579972876) 75 90 1
(0.3704161163 0.1698491851 0.3147919418 0.1449427567) 147 288 1
(0.1918848179 0.404057591 0.1457659382 0.2582916529) 116 230 1
(0.04186331812 0.4790683409 0.4096723589 0.069395982) 17 32 2
(0.1951377693 0.1780334014 0.4024311153 0.224397714) 137 271 2
(0.1576965615 0.4211517192 0.3243849589 0.09676676034) 53 47 1
(0.2301637217 0.2245930074 0.3849181392 0.1603251317) 115 225 1
(0.07691797516 0.4615410124 0.409350334 0.05219067846) 345 621 1
(0.0200065177 0.4899967412 0.2554130579 0.2345836832) 29 58 1
(0.04140545898 0.4792972705 0.01282534552 0.466471925) 145 284 2
(0.3576852909 0.1718888289 0.3211573546 0.1492685257) 134 262 1
(0.2017651941 0.399117403 0.2193719792 0.1797454237) 140 276 2
(0.2087787467 0.2255875628 0.1700230639 0.3956106266) 15 1071 1
(0.816829349 0.09158532552 0.07376052707 0.01782479846) 354 698 1
(0.1921212535 0.4039393733 0.1827672957 0.2211720776) 177 350 1
(0.4489894958 0.2755052521 0.04281697254 0.2326882796) 88 172 2
(0.6385340664 0.1807329668 0.007704405279 0.1730285615) 59 117 1
(0.09933362689 0.3194063814 0.4503331866 0.1309268051) 171 335 1
(0.239041058 0.380479471 0.2033111939 0.1771682771) 476 934 2
(0.5092860476 0.1457551786 0.09960179757 0.2453569762) 48 37 2
(0.01629030687 0.01873586705 0.4918548466 0.4731189795) 136 269 2
(0.07822095289 0.4608895236 0.3281641901 0.1327253335) 321 632 2
(0.03560722025 0.4821963899 0.1990473091 0.2831490808) 85 169 1
(0.4090524937 0.0531880342 0.2422857189 0.2954737532) 208 352 2
(0.0986339174 0.3936775286 0.4506830413 0.05700551268) 84 167 2
(0.423188459 0.01568318195 0.2884057705 0.2727225885) 58 116 2
(0.7034658894 0.1482670553 0.1098810106 0.03838604466) 417 822 1
(0.5672170541 0.216391473 0.1835406083 0.03285086464) 144 282 2
(0.3266300596 0.3366849702 0.2650691773 0.07161579291) 47 35 1
(0.582173006 0.1067165386 0.208913497 0.1021969584) 265 520 1
(0.3966279861 0.301686007 0.2910810651 0.01060494183) 81 161 1
(0.09628209065 0.1633043154 0.4518589547 0.2885546393) 21 43 2
(0.8554224545 0.07228877275 0.04251198934 0.02977678341) 47 93 2
(0.3397423841 0.2849992303 0.04512957765 0.3301288079) 208 352 2
(0.1557311737 0.4221344131 0.334123165 0.08801124814) 19 36 2
(0.1259229908 0.4370385046 0.4331237354 0.003914769257) 148 234 1
(0.6495503868 0.06411711572 0.1752248066 0.1111076909) 52 104 2
(0.5443874835 0.2278062582 0.1620105624 0.06579569588) 15 28 2
(0.07569514132 0.4621524293 0.1933822828 0.2687701465) 177 347 2
(0.2158532004 0.3920733998 0.1211017667 0.2709716331) 204 400 2
(0.2742962388 0.3628518806 0.1893130744 0.1735388062) 25 50 2
(0.04120756511 0.4793962174 0.4387546702 0.04064154728) 24 49 1
(0.2489234916 0.3755382542 0.1298002959 0.2457379583) 25 50 2
(0.4067870928 0.2966064536 0.1123812251 0.1842252284) 76 151 1
(0.8818333723 0.04877531863 0.01030799521 0.05908331384) 231 397 2
(0.4344190933 0.2827904533 0.1818435569 0.1009468964) 57 55 1
(0.187224115 0.4063879425 0.2496541529 0.1567337896) 26 1082 2
(0.4131865238 0.2934067381 0.04631505495 0.2470916831) 113 223 2
(0.3745053928 0.3127473036 0.2592903431 0.05345696047) 51 101 2
(0.194323477 0.4028382615 0.1877827785 0.215055483) 231 455 2
(0.3454455218 0.2330688858 0.09420835329 0.3272772391) 46 91 1
(0.1013605459 0.419373368 0.02994635905 0.449319727) 21 42 1
(0.07584166763 0.4620791662 0.03988156952 0.4221975967) 298 587 2
(0.255727681 0.3721361595 0.03104116442 0.3410949951) 176 348 1
(0.5164347557 0.2417826222 0.1236948553 0.1180877668) 201 394 2
(0.260735438 0.369632281 0.1308399909 0.2387922901) 27 1083 2
(0.002449055917 0.1304105347 0.3683649373 0.498775472) 388 764 1
(0.1848152249 0.05080188895 0.3567904986 0.4075923876) 119 176 2
(0.833038573 0.02910416271 0.08348071349 0.05437655078) 89 174 1
(0.004960267294 0.2678470291 0.4975198664 0.2296728372) 293 578 2
(0.2646279374 0.3676860313 0.2383789379 0.1293070935) 207 406 2
(0.3045536359 0.3477231821 0.1056446055 0.2420785765) 49 39 1
(0.2649540608 0.2085109592 0.1590120104 0.3675229696) 25 1081 1
(0.3543180327 0.2682286865 0.05461229717 0.3228409836) 328 646 1
(0.4753684476 0.2623157762 0.2067416044 0.05557417175) 327 586 1
(0.5332743663 0.2333628169 0.03271208687 0.20065073) 165 326 1
(0.05134530266 0.1548743365 0.3194530122 0.4743273487) 76 92 2
(0.2739322933 0.1068989929 0.3630338534 0.2561348605) 169 334 2
(0.2284361331 0.3857819335 0.3659485211 0.01983341232) 48 95 2
(0.4634455021 0.268277249 0.08150196859 0.1867752804) 80 100 1