/*--------------------------------*- C++ -*----------------------------------*\
| =========                 |                                                 |
| \\      /  F ield         | OpenFOAM: The Open Source CFD Toolbox           |
|  \\    /   O peration     | Version:  2406                                  |
|   \\  /    A nd           | Website:  www.openfoam.com                      |
|    \\/     M anipulation  |                                                 |
\*---------------------------------------------------------------------------*/
FoamFile
{
    version     2.0;
    format      ascii;
    arch        "LSB;label=32;scalar=64";
    class       scalarField;
    location    "0.002/lagrangian/dsmc";
    object      Ei;
}
// * * * * * * * * * * * * * * * * * * * * * * * * * * * * * * * * * * * * * //


9441
(
3.850327935e-21
2.565090541e-21
2.951311767e-20
3.941408945e-22
6.787907309e-21
2.784971012e-21
1.453502535e-20
1.331168735e-20
1.24829988e-20
6.517368553e-21
1.057088775e-20
3.295049899e-21
5.728268491e-21
2.769293264e-20
1.187076452e-21
2.139947043e-20
7.368659117e-22
2.929389488e-21
8.640704725e-21
1.367998828e-20
2.514067042e-20
7.329986562e-21
4.16784805e-20
7.988507634e-21
1.736717719e-20
1.156992997e-20
5.403258575e-21
4.202107477e-21
8.29914179e-22
1.274229723e-20
5.153241297e-21
1.304434466e-20
1.180529494e-20
1.892001648e-20
8.469585979e-21
1.634439121e-21
3.797054729e-22
2.325225487e-20
2.911691253e-21
7.03108541e-21
1.109925117e-20
1.354218068e-20
5.786489872e-21
1.583209723e-21
1.767101189e-21
1.101034052e-21
1.764781789e-20
4.811844412e-21
7.733433028e-21
9.953730558e-21
2.547668238e-21
5.278253813e-21
2.132357767e-22
4.725077266e-21
2.964967367e-22
1.850350596e-21
9.679463551e-21
4.854635937e-21
1.919732042e-20
1.266705808e-20
2.801158711e-21
2.455564634e-21
2.25024416e-20
3.375000345e-21
6.3948378e-21
2.694651729e-22
2.183292752e-21
1.536980725e-20
3.852580395e-21
9.957185943e-21
7.682077826e-21
6.480385954e-21
1.741279201e-20
4.378081047e-21
2.641509446e-22
1.227806109e-20
5.607592267e-21
1.737038461e-21
7.625169195e-22
1.535897357e-21
1.371140214e-22
3.839458488e-23
4.418452369e-21
1.936669037e-21
2.749327083e-21
1.677243262e-20
3.090203652e-21
1.653729208e-22
1.226938745e-20
6.971386405e-21
2.272360343e-21
6.781037818e-21
8.014105304e-21
9.121820009e-21
1.262782548e-20
1.754075803e-20
1.071988783e-20
3.72864894e-22
2.704765462e-21
1.849434413e-21
1.768156547e-20
4.319281182e-21
3.416049522e-20
2.993700408e-20
3.728595915e-20
7.272739533e-22
7.091254406e-21
7.488968461e-21
1.01734809e-21
1.546048458e-20
3.268755145e-20
1.539415289e-20
2.564298951e-21
1.484897502e-20
1.298464619e-22
1.751038864e-22
1.819564618e-20
1.477027337e-20
1.584435874e-21
3.752220725e-22
2.064096362e-21
1.956152093e-21
2.031336376e-20
3.839659762e-20
2.755044639e-20
4.111209832e-21
9.375380257e-21
1.81422436e-20
4.735618655e-21
3.230117694e-22
1.512283398e-21
1.203591127e-21
2.63836648e-21
1.818597838e-21
2.15398418e-21
4.344767463e-21
9.639383314e-22
5.386102528e-21
2.557627088e-20
1.659689903e-21
1.294265024e-20
8.047033562e-21
2.874509538e-20
3.500755767e-21
3.170478868e-21
5.449008139e-22
1.540091217e-21
1.253618138e-21
1.239834465e-22
8.658056801e-21
1.501707946e-20
8.656088038e-21
8.633523069e-21
2.50137244e-20
7.14212231e-22
3.969785075e-20
1.102827822e-20
7.872971464e-21
4.606146159e-20
5.220011144e-22
2.703683605e-21
5.799579397e-21
1.268628645e-21
3.196940421e-20
6.85168477e-22
3.853730158e-21
1.029906821e-20
1.265105007e-20
4.243778952e-21
2.353962419e-20
2.603975028e-21
1.149829121e-20
1.191752085e-20
1.148054994e-20
2.04886274e-21
2.791833789e-21
4.50788384e-20
2.735281114e-20
2.848995567e-20
2.434058387e-20
3.634291615e-21
2.655579306e-20
1.162741605e-20
2.03089375e-20
1.93420941e-21
5.268349382e-21
4.172852949e-21
3.461336315e-21
3.012834556e-21
1.807810467e-20
7.265738704e-22
1.372157726e-20
5.383313456e-21
3.141999155e-21
7.508714944e-21
2.385871652e-20
5.372160524e-21
2.290176409e-21
4.509222963e-21
7.597565045e-21
9.671309419e-21
1.051576602e-20
8.468128833e-21
4.051913587e-21
1.307950574e-21
1.752647188e-20
1.2426769e-20
5.801650223e-22
1.249131821e-20
2.583856032e-21
2.135358428e-21
1.390441579e-21
6.464580102e-21
1.607798324e-20
8.006973351e-21
6.619090789e-21
4.404176464e-20
8.661283457e-21
1.433948626e-21
2.68241055e-21
8.164843261e-21
1.567966935e-20
5.189463353e-21
1.558455841e-21
2.856348968e-20
2.018471778e-21
1.600868501e-20
1.173736498e-20
1.449941871e-20
2.973636198e-20
6.997336661e-21
7.299761951e-21
2.011283944e-21
9.734886832e-21
6.978809613e-21
1.272397094e-20
2.19315043e-20
7.558939613e-22
2.294083508e-22
1.680285031e-20
1.132150355e-20
5.17800376e-21
1.788003674e-20
4.226051493e-22
1.557393196e-20
3.32735204e-23
5.801683034e-21
1.364844017e-20
1.408841983e-20
1.499634676e-20
4.232291304e-21
1.408008016e-21
9.429806661e-21
5.435614978e-21
6.444238829e-21
2.278097716e-20
1.14008535e-20
1.130212387e-20
9.447036393e-21
7.489458244e-21
5.836489704e-21
1.748854901e-21
1.905476844e-21
8.239865498e-22
5.564289195e-21
5.853599034e-21
1.44276114e-20
1.303383139e-20
1.146200655e-20
1.391787717e-20
3.006258965e-20
5.060326753e-21
7.763752038e-21
5.524050638e-22
4.334883618e-21
1.151212512e-20
2.348383829e-21
1.011742672e-20
1.228634967e-20
2.295307123e-20
3.588786329e-21
1.252423799e-20
7.359130357e-21
3.019228087e-20
1.949285949e-20
1.891323743e-22
3.885074289e-22
1.84334768e-20
9.411809014e-21
4.650498436e-21
1.700456638e-20
3.753082456e-20
1.416077063e-21
1.30161494e-20
1.36183009e-21
2.130096864e-21
2.915398856e-21
1.494088666e-20
2.261062495e-21
3.479546398e-21
1.726454974e-21
1.271151353e-21
5.96046687e-21
2.878623684e-21
1.885338658e-21
2.118684383e-21
1.934962752e-20
5.436058806e-21
1.889505286e-20
1.81148839e-20
4.496337729e-20
1.041316315e-21
3.261361263e-20
2.437375007e-20
3.548416061e-20
3.344108419e-20
4.646664992e-21
3.780543574e-21
2.071671843e-21
3.547647942e-20
1.494910389e-20
2.985873415e-20
4.750713752e-20
3.524634574e-20
2.730181006e-20
4.178522522e-21
1.350836393e-20
3.174529766e-21
6.833715098e-22
5.431105146e-21
1.392383586e-20
3.905451979e-20
1.034324141e-20
3.301318343e-21
2.289895297e-20
1.197356682e-20
1.914761391e-20
1.588963351e-21
6.881872807e-22
1.066062054e-20
2.106802624e-21
4.315033408e-21
1.994508189e-20
7.906905309e-21
1.094372093e-20
1.519121221e-20
1.870296483e-20
3.199932256e-20
4.063928557e-21
1.008675556e-21
2.969185539e-21
8.178828814e-21
5.288527151e-21
5.808902673e-21
2.644239116e-22
1.264010658e-20
1.46579567e-21
9.116634689e-22
3.949899654e-20
1.921254104e-21
1.035640668e-20
2.469105707e-20
1.225742255e-20
4.138205423e-21
2.850653442e-20
2.067487828e-20
1.776767131e-20
1.597654738e-20
1.133025335e-20
7.916012013e-21
5.066963503e-20
8.00998969e-21
3.817088255e-21
5.370329248e-21
1.593836805e-21
3.852920401e-20
2.357325633e-20
2.186109845e-20
5.802501294e-21
6.598807843e-21
4.510070474e-20
8.176792354e-21
4.779031304e-22
1.711565229e-20
6.235302744e-23
4.515952937e-21
2.402837063e-21
1.500694914e-20
2.700223467e-21
5.030936666e-21
6.458064602e-21
4.901334676e-21
8.495806728e-22
3.720930588e-21
2.408008935e-21
8.102741919e-21
4.338680166e-21
2.517651436e-21
6.248085231e-21
1.586506535e-20
1.11445853e-20
5.128676249e-21
1.119062074e-20
2.893662787e-22
2.178741787e-20
2.973841329e-21
3.110974562e-21
6.884293678e-21
5.653721409e-21
2.682511531e-21
1.563333913e-20
2.463992455e-20
2.415747679e-21
6.627257314e-20
8.345518629e-21
1.729411131e-20
4.460441187e-21
1.293440976e-20
2.196762243e-20
8.473072066e-23
9.064387927e-21
9.618263906e-22
4.577058663e-21
1.899094731e-22
2.415657141e-20
1.445118016e-20
1.797025178e-22
1.088997312e-20
6.792162188e-22
4.590649834e-21
2.524429625e-20
5.285178727e-21
4.281049748e-21
2.074485099e-21
6.447496984e-21
4.792298782e-21
4.759139564e-21
1.319976185e-20
6.426153201e-22
4.447402572e-22
5.414982147e-21
8.604529679e-21
4.418271594e-21
7.865673941e-21
1.077022355e-20
4.552480405e-20
3.084577371e-21
3.898594177e-21
9.891450563e-21
2.522797769e-21
1.26679752e-21
1.772119854e-20
5.045285024e-21
5.80147791e-21
3.287306776e-21
8.419994924e-21
1.488054079e-20
1.336315579e-21
1.494180508e-20
5.858288731e-21
1.226900383e-22
1.222928402e-21
1.080605431e-20
1.507329459e-20
1.906483382e-20
3.450406516e-21
2.690036411e-21
8.748788697e-21
8.097970381e-22
3.499039926e-21
1.430282815e-20
7.400610039e-22
1.422004287e-21
1.236553153e-20
5.228766692e-21
3.480770294e-20
3.422838163e-20
1.583165254e-21
3.643953163e-20
2.069957667e-21
1.460243906e-21
1.283887213e-20
2.31854717e-20
7.416030898e-22
1.336335415e-21
1.35770885e-20
4.114264418e-20
6.491112493e-21
3.248198518e-21
5.720948089e-21
3.636413549e-21
1.626026897e-20
2.167183887e-21
1.330851426e-21
3.842689729e-21
1.20850561e-20
1.860020594e-20
3.629493378e-22
1.713711249e-20
1.568976599e-20
3.841026414e-21
7.93421599e-21
2.245176187e-21
1.346786711e-21
8.888339904e-21
4.755920552e-21
7.234583842e-20
1.450625545e-21
2.849474932e-22
6.686724569e-22
1.059384055e-20
3.963902619e-21
3.285823265e-21
9.085936619e-21
8.276748877e-21
3.079160589e-21
1.706988104e-20
1.472950472e-20
7.240463059e-21
1.931018804e-21
1.843215795e-21
1.61884817e-21
1.478246889e-20
6.176289267e-20
5.577577808e-21
7.175401468e-21
2.773740019e-21
1.835400807e-20
6.140307182e-21
8.64206131e-22
5.367430624e-22
1.472982982e-20
3.682639048e-21
3.401986924e-21
2.819356901e-20
3.621976314e-21
2.089868836e-20
9.669951722e-21
4.394248651e-20
8.682595752e-21
4.686047244e-21
2.336841346e-20
1.67479839e-20
3.536076967e-21
7.161518681e-21
2.145215365e-22
1.104295689e-20
6.502081728e-22
8.822554488e-21
1.170086975e-21
2.035714384e-20
2.428604371e-20
1.162936966e-20
5.379913645e-21
2.174787795e-20
1.051723638e-20
3.036280799e-20
3.162869227e-21
8.355414139e-21
5.610929712e-21
1.877865575e-21
6.69442023e-22
1.347790698e-21
2.79777136e-21
1.39417797e-20
9.770795352e-21
1.165892216e-20
6.552201622e-21
4.568923571e-22
2.336633443e-20
1.083213778e-20
5.316564924e-21
2.079872852e-20
8.701535996e-21
5.882177896e-22
9.179133616e-21
2.694465622e-20
2.602009692e-21
6.575759969e-21
1.458572002e-20
2.55857811e-22
6.367572016e-22
2.483964656e-22
6.541921242e-21
1.655584388e-21
2.251353335e-21
2.78417298e-20
1.030063858e-20
1.049163848e-20
8.79674045e-21
1.080088602e-20
5.206696999e-21
1.617692987e-20
6.865576936e-22
1.048607311e-20
4.679991389e-22
4.640510144e-21
5.752918756e-21
1.024143357e-20
6.263370773e-22
9.992987382e-22
2.36197413e-21
3.088357753e-21
1.200292837e-20
1.324473411e-20
9.35429777e-21
2.2889898e-21
3.921033632e-21
1.392238713e-20
1.237567322e-20
1.119419939e-20
7.524675495e-21
1.954964976e-21
4.52827626e-20
2.741807208e-21
2.290921573e-20
8.884362875e-21
2.178282361e-20
3.996473e-21
2.260598115e-21
3.14677192e-20
2.241601563e-21
5.249048401e-21
7.3271707e-22
2.184622533e-20
1.4544747e-20
1.31817104e-20
1.104791966e-20
5.165318907e-21
1.83613122e-21
3.735069801e-21
3.160139935e-21
7.571225368e-22
2.174166265e-20
8.471168933e-21
5.526372771e-21
1.921796965e-21
1.850387835e-21
2.872070324e-21
3.925422473e-21
2.313144132e-20
3.49954386e-22
1.796661255e-20
1.758287915e-20
1.397834847e-21
1.08923926e-20
3.0382057e-21
2.317161446e-21
8.96883351e-21
1.057406005e-20
8.878513157e-21
1.755783259e-20
4.562214489e-21
1.516308814e-20
2.053855769e-20
1.094673596e-20
2.289048063e-21
8.432457763e-22
1.260280194e-20
1.56593054e-20
4.201514626e-21
1.354529708e-20
5.483712383e-21
5.257251715e-20
4.919836113e-21
6.598580293e-21
3.256057542e-21
1.052780032e-20
2.287773032e-20
3.964421698e-22
5.629702841e-21
1.361583587e-20
8.796789795e-21
1.533007656e-20
1.283051579e-21
4.340875044e-21
1.062994996e-20
7.152227819e-22
8.870701325e-21
1.488418019e-21
1.059284574e-20
8.126129148e-21
1.51138934e-20
1.118730668e-20
2.641609914e-21
3.489715685e-20
2.846332607e-21
3.63214959e-20
9.919267681e-21
1.47170847e-20
1.659106647e-20
3.015663679e-21
1.470620964e-20
2.544117284e-20
1.042501208e-20
1.090812031e-22
6.419124465e-21
7.922666923e-21
1.462693871e-21
1.791955172e-20
1.017852856e-20
7.215008906e-21
8.636386126e-21
3.198278338e-21
2.771954827e-20
1.11685523e-20
5.764517398e-21
3.463822518e-20
6.082137239e-21
4.638661426e-21
1.25946235e-20
2.626497224e-20
2.618455122e-21
2.146790608e-20
1.131027028e-20
1.800967314e-21
8.324452437e-22
5.818100284e-21
7.504705642e-21
8.682785481e-21
7.606315592e-23
1.009723342e-20
6.133410581e-21
7.963265312e-21
4.078808546e-21
7.707452076e-21
1.5949854e-20
1.243563432e-20
8.832899043e-21
2.379346693e-20
1.7936861e-20
3.183701487e-20
6.235145256e-21
6.691114529e-21
7.780351252e-21
6.284568796e-22
6.50371561e-21
2.917060413e-21
1.091878784e-20
2.206521453e-21
1.104305801e-20
4.65295072e-21
3.653384654e-20
9.35450351e-21
1.318303849e-20
1.821959234e-20
6.842704738e-21
1.614027588e-21
1.695358503e-21
2.779228427e-21
1.083965099e-20
1.42849089e-21
1.728038283e-20
1.498459673e-20
2.65438857e-21
2.782716211e-21
4.100522475e-22
9.815021985e-22
5.060164989e-21
1.10244176e-20
1.46378208e-20
3.502913503e-21
1.445844616e-20
2.580733392e-20
1.168943084e-20
1.184005144e-20
3.84621013e-22
2.436912961e-21
5.445429189e-22
1.962215958e-21
1.101062946e-20
1.964697779e-20
2.177907788e-20
1.241988015e-20
1.151448392e-21
2.203854061e-21
2.614822716e-20
1.919914761e-20
1.55370246e-20
1.197078039e-20
2.759118303e-21
4.533118135e-21
1.480189789e-20
1.215345605e-20
2.49750881e-20
1.556774268e-20
7.748373475e-22
6.364233916e-21
4.227886007e-22
1.670688184e-20
9.738053571e-21
4.49819987e-21
1.317474234e-20
1.767744092e-20
4.950728957e-21
8.02626436e-22
3.606548408e-23
1.171074042e-20
1.225116758e-21
1.358437126e-20
2.96550717e-20
7.211036163e-22
6.689610209e-21
2.202831239e-20
7.156034524e-22
1.052225751e-20
7.618562426e-22
3.217851084e-20
9.148417011e-21
2.816494867e-21
2.179744993e-21
2.522325525e-21
1.452514548e-20
3.427176435e-20
3.257144902e-21
4.212255909e-21
5.009197284e-22
4.268729934e-22
5.702590483e-21
1.593295857e-20
7.006708697e-21
1.514598034e-21
6.044021683e-21
2.721738984e-20
5.862849551e-21
1.838202557e-20
5.072596318e-21
3.059682798e-20
2.050109404e-20
6.871921494e-20
1.448504508e-20
1.39455654e-21
3.122811158e-20
1.597984082e-20
5.233130485e-21
1.934136224e-21
2.05685123e-21
1.88575581e-21
4.465966855e-21
2.430172731e-20
1.205803348e-21
1.203010046e-20
8.486756009e-21
2.13680437e-20
5.004438109e-21
2.187009132e-20
1.567581989e-21
2.489687975e-22
7.297238928e-21
2.355784242e-20
8.728476487e-21
4.898515432e-21
3.354252319e-20
2.495292526e-22
8.113076819e-21
3.504986902e-21
2.201488394e-20
3.409703529e-22
7.277280962e-21
2.85324639e-21
8.155320791e-21
1.560348231e-20
7.509316053e-21
1.935531541e-20
7.335736787e-21
4.334694444e-21
9.649748743e-21
1.756709468e-21
3.678669399e-21
1.311615242e-21
1.417339422e-21
4.5321684e-21
1.347646057e-20
2.199145708e-20
5.81394154e-21
4.09785288e-20
1.596939424e-20
6.597942933e-22
2.083148557e-20
9.596618567e-21
1.321586773e-20
9.355558411e-22
1.805297559e-21
4.429127321e-21
5.672950367e-21
3.639803625e-22
5.002375521e-20
1.07578887e-20
1.167316335e-20
7.762296542e-22
2.072640528e-20
1.480923462e-20
4.035514179e-21
2.302506441e-21
5.192448757e-21
6.217326893e-21
2.649513794e-21
3.346914892e-21
2.051392602e-21
2.712551091e-20
4.358722411e-20
1.395178734e-20
6.733398461e-21
6.752527517e-21
1.019930184e-20
6.069305098e-21
6.997743915e-21
4.886111733e-21
1.25607352e-21
9.896673456e-22
7.503157053e-21
2.052021979e-20
4.215858064e-20
3.434787623e-20
6.467041996e-22
2.186507635e-20
5.751508902e-21
5.239149121e-21
6.592778965e-21
3.319835099e-20
1.996735323e-21
4.194743187e-21
2.727603344e-21
6.79548283e-22
1.287010324e-20
1.121146914e-20
9.489972054e-21
1.093897245e-20
9.773115493e-21
1.673380231e-21
2.68505119e-21
2.355163975e-20
3.035879835e-20
8.396598598e-21
4.349527803e-21
5.999926616e-21
3.504883341e-21
7.031336555e-21
4.482673713e-21
1.035688424e-20
1.233002751e-20
1.157455857e-21
3.295478521e-20
1.151563403e-20
5.645051699e-21
8.008864001e-21
1.505496137e-20
5.838079682e-21
1.70206791e-21
9.64287473e-21
3.089004989e-20
1.871414821e-21
1.101467805e-20
6.688868767e-21
2.344766915e-20
1.377971817e-20
1.988644606e-20
3.32472399e-20
6.091546943e-21
1.021349742e-21
9.601913708e-21
2.832158551e-21
3.135665789e-21
2.411129875e-20
3.874701976e-21
6.631060064e-21
4.890763286e-21
9.416124392e-21
7.660025599e-21
1.702814684e-21
7.179055165e-22
5.486588122e-22
7.828075245e-21
1.18854018e-20
6.52980531e-21
3.491609935e-21
7.955153147e-21
4.179647141e-21
1.005216426e-20
5.237403646e-22
2.239951715e-22
1.016546184e-20
4.854736676e-20
4.731581123e-20
2.21065418e-20
1.845444918e-20
3.585576912e-21
2.110524979e-21
7.42323243e-21
1.29559469e-21
2.684725639e-20
1.908887494e-21
2.927733644e-21
4.400085315e-21
3.659462239e-20
2.701100349e-21
1.878676229e-20
3.872560605e-21
1.043766948e-20
9.637981404e-21
2.662696031e-20
7.87089144e-21
5.647341215e-21
9.890284692e-21
5.098244524e-21
2.839810031e-20
3.978412264e-20
2.211114967e-20
2.601477387e-21
2.913703847e-20
4.461622869e-20
3.956962301e-21
4.645125136e-21
1.692142787e-20
1.499720646e-20
6.681095495e-24
1.682476402e-20
1.137966018e-21
5.317312336e-20
1.077848819e-20
6.36008533e-21
1.352005232e-21
8.296230384e-22
9.850691719e-21
3.356798315e-20
7.58476117e-21
2.173047127e-21
2.323592461e-20
3.450353142e-21
6.377804666e-21
6.885169132e-22
8.100826336e-21
4.186334031e-21
5.601166881e-21
1.538689443e-20
1.121797904e-20
1.059105319e-20
4.319183875e-21
8.864252646e-22
8.432856402e-21
4.79609028e-20
1.294760412e-21
7.906074169e-21
1.253971734e-21
5.685722496e-21
3.311346698e-20
2.793404425e-20
3.407852345e-20
5.39587704e-22
2.395923589e-20
2.097559455e-20
7.178669799e-21
1.04409889e-20
5.95025174e-21
2.75933865e-21
8.180230032e-21
3.094896649e-21
1.644295048e-21
3.948948378e-24
3.42774411e-21
3.729756031e-20
5.56663217e-22
3.255711964e-21
1.015732345e-20
1.22339143e-20
2.321702285e-20
2.00310623e-21
1.156838582e-20
2.960086917e-21
2.120745164e-21
3.912826661e-21
5.329430841e-20
1.104714888e-20
1.278295014e-21
7.508452555e-21
3.690516686e-20
4.356876864e-21
8.940657595e-21
6.786700259e-21
1.808227908e-20
3.145391661e-20
2.578227039e-20
1.740241197e-20
2.250540758e-20
1.049515162e-20
3.652521877e-20
4.160268941e-21
1.085528526e-20
1.133517057e-20
2.282570969e-21
7.973263671e-21
4.601555424e-20
1.732735998e-20
1.007503048e-21
1.884898828e-21
2.141961333e-21
1.122933019e-20
4.535436181e-21
1.810607796e-20
3.132083352e-21
2.637764764e-21
1.270071418e-20
4.833476307e-20
6.028763619e-21
8.227428843e-21
1.522123692e-20
1.011988697e-20
6.289107521e-22
7.508245235e-22
1.382614227e-20
1.919247748e-20
3.948632315e-21
9.970469477e-21
2.359148047e-20
3.336063399e-23
8.749874348e-21
5.582098879e-21
4.591300858e-21
4.390828395e-21
1.537354808e-21
7.225747005e-23
1.238111079e-20
7.657561805e-21
2.26190022e-21
5.373646143e-21
5.175025115e-21
3.885410182e-21
3.400764198e-20
2.851269513e-20
2.073496164e-21
6.013629074e-21
7.616414464e-21
4.217356836e-21
5.596107312e-22
3.616147309e-21
5.688169681e-21
3.9673704e-22
6.277617619e-21
6.716810241e-21
9.854592606e-21
2.100155168e-20
8.439005196e-21
4.294467879e-23
9.577296541e-22
1.351101507e-20
2.67695535e-20
2.292267354e-21
4.217046261e-21
6.914663961e-21
7.964592339e-22
1.18463005e-20
1.517588859e-20
2.321408154e-21
3.248550909e-22
6.569274283e-21
4.383078886e-20
4.535657568e-21
1.473246991e-20
1.752163294e-21
4.020360212e-20
8.46382139e-21
4.526239444e-21
8.216302023e-21
3.002291989e-20
3.86000537e-21
3.978066853e-20
3.024846406e-20
7.791028709e-21
4.195482344e-21
6.518876047e-21
2.175302681e-21
5.45974535e-22
4.266070187e-21
8.903311058e-22
8.968699293e-22
1.23735854e-20
9.017867285e-21
3.703898032e-21
1.003365341e-20
8.183928883e-21
1.954773352e-20
1.64484219e-20
9.046241008e-21
4.219032939e-21
2.099249417e-20
5.167350843e-21
6.035322602e-20
3.008721698e-21
1.378127318e-21
1.008960403e-20
1.325474154e-20
1.919423634e-20
2.770770713e-20
1.668204017e-20
8.551861633e-21
4.259715752e-21
1.030915874e-20
2.103107172e-20
3.347765705e-21
9.401858949e-21
1.364724319e-21
7.385451965e-21
9.822324499e-21
1.082457098e-21
2.147300222e-20
1.217995324e-20
2.304849642e-21
2.345133797e-21
1.014929105e-20
1.017919603e-20
3.027172104e-20
2.567039962e-20
2.528218854e-21
9.688020785e-21
1.948835318e-21
3.28487589e-20
2.679095587e-24
2.084544362e-21
7.630064748e-21
2.083784127e-21
2.892796013e-21
4.420575619e-21
3.562942985e-21
8.262842121e-21
9.115956034e-21
2.297159018e-21
1.509615089e-20
8.579652364e-22
5.309703219e-21
2.170592751e-21
1.759791694e-21
1.789730917e-20
1.618286755e-21
4.268119062e-21
2.834195871e-21
1.418289374e-21
1.115490891e-20
1.893586333e-20
1.02706196e-21
2.366659402e-21
6.669911021e-21
5.075799728e-21
1.12754854e-21
1.50222142e-20
1.453915363e-20
3.655669964e-21
3.086437633e-20
1.110739429e-20
1.883245736e-20
2.440175867e-21
6.248956117e-21
2.485136042e-20
1.012371458e-20
1.325069243e-20
8.251697853e-22
1.386971159e-20
3.059938574e-20
9.374065994e-21
9.541041368e-21
3.237022659e-21
1.279871583e-21
4.13456683e-22
4.163492121e-21
4.970910878e-21
1.119612591e-20
2.865435526e-21
5.779503295e-21
2.60098437e-20
1.075318744e-20
8.493757508e-21
2.462359358e-20
1.263131578e-20
8.678354487e-22
4.422674124e-21
1.07668591e-20
6.863109202e-21
1.24088075e-20
6.594764906e-20
1.357937463e-20
3.632993848e-21
7.718691976e-21
9.699299782e-21
8.140598284e-21
2.215576638e-20
6.512648144e-21
8.338578649e-21
2.079230757e-20
1.57404509e-20
1.082339414e-20
2.798302839e-20
2.022245248e-20
1.087441745e-20
8.429890303e-21
8.179501459e-21
7.146905937e-21
2.236688564e-20
2.863417865e-21
1.56857898e-20
2.17311551e-21
6.651302594e-23
2.545979044e-20
1.143676248e-20
4.166950025e-20
2.995223098e-20
1.331700236e-21
6.002572305e-21
9.377044145e-22
8.602117915e-22
1.05705304e-20
1.107352313e-21
4.723564011e-21
2.051471676e-20
2.093902824e-20
6.145321897e-21
9.588184678e-22
1.638742003e-21
3.395829415e-20
1.317758094e-20
2.598126172e-21
1.170329409e-20
2.739871708e-20
4.14404988e-20
2.557497372e-20
5.567741129e-21
4.901812603e-24
2.605622768e-20
6.154575645e-21
1.103715864e-20
3.790496019e-21
2.249742763e-21
2.395529341e-20
7.380394699e-22
2.521151227e-21
1.042044591e-20
5.963597008e-21
2.287278782e-20
5.265832779e-20
6.437671991e-21
1.313552503e-20
4.923989302e-21
5.925337745e-21
4.808740492e-21
2.986948315e-20
2.03801982e-21
2.300336417e-20
1.654910428e-20
1.2216711e-20
3.946922952e-21
3.527830722e-21
3.878886899e-20
1.73786137e-21
2.013163724e-20
2.121523438e-20
9.870715334e-21
2.01025989e-21
8.105476612e-21
2.873214944e-21
1.770569159e-20
7.446151429e-21
4.674017758e-21
4.642290178e-21
9.570395246e-21
6.05190508e-21
2.600551133e-20
9.018734321e-21
3.63571937e-20
1.714143322e-20
5.067414681e-21
5.430555203e-21
3.779747569e-21
2.427266697e-20
1.164999319e-22
1.384346468e-21
1.848233983e-21
6.73207343e-21
5.010551529e-21
1.967894563e-21
5.4277474e-21
9.475121777e-21
2.889629803e-20
6.139968287e-21
2.008663989e-20
1.88673996e-21
3.765091793e-21
4.551924362e-21
1.340294084e-20
1.301724962e-20
1.296656162e-20
8.864612072e-21
4.343912284e-21
3.838792566e-21
1.728093869e-20
2.004051953e-20
8.982868621e-21
1.348989473e-20
2.179911702e-21
1.03900316e-20
3.57383529e-20
2.339903717e-20
8.850251873e-21
3.779792477e-22
2.977476012e-21
3.103794826e-21
6.824491745e-21
1.119911216e-20
9.007848318e-21
2.762107333e-20
1.579090865e-20
2.14815037e-20
7.449859191e-22
1.081843362e-20
1.606459274e-22
9.582621685e-21
2.173478192e-20
1.636898306e-21
1.06799094e-20
5.555913963e-21
2.385414613e-20
1.682260125e-20
1.858978388e-21
1.407674066e-20
1.136821591e-21
4.431800846e-21
8.25289585e-21
1.442008287e-20
5.99208031e-21
2.148210937e-20
7.921546004e-22
1.326061958e-20
2.907131444e-20
8.321319546e-21
1.232306865e-20
2.80533396e-21
5.612462605e-21
1.504833987e-21
8.944372784e-23
1.038184997e-20
1.066751121e-20
7.506237472e-20
1.57308329e-20
1.131082203e-20
2.974115735e-20
7.416151532e-21
1.608167731e-20
1.061833465e-20
2.598254746e-21
5.230930257e-21
2.802051738e-20
1.172130346e-21
2.365617634e-21
6.700891666e-22
1.455642911e-20
1.100525619e-21
2.25197337e-21
1.890867854e-21
8.918329005e-23
1.264376701e-20
7.050835911e-21
1.120081618e-21
7.376519167e-21
8.872820566e-22
1.203098924e-20
3.737157852e-21
5.185108081e-21
1.418913688e-20
1.078811588e-21
3.59795044e-20
7.983755623e-22
3.599979927e-22
4.380360215e-21
2.966268877e-21
6.405080344e-21
1.983785774e-20
1.145477964e-20
4.800681726e-21
1.132263196e-20
2.729056425e-21
1.160231819e-21
6.47260675e-22
3.946453526e-20
1.648352714e-20
1.480872163e-20
1.254269406e-20
1.169780543e-20
9.848882765e-21
5.278555151e-22
4.750051166e-21
2.228539611e-21
4.496726144e-21
1.231901434e-20
2.419642166e-21
3.260576685e-20
1.57217885e-21
2.28102158e-20
9.697510657e-21
9.160985982e-21
2.680177668e-21
2.183606764e-20
5.647115724e-21
7.30096251e-22
6.888149757e-21
1.489300749e-20
2.045446573e-20
1.48725468e-20
3.976308821e-21
3.57671254e-20
1.286705383e-20
1.625137286e-20
2.490025353e-21
7.269844059e-21
9.743926282e-21
4.413040424e-20
4.740813754e-21
5.453995635e-21
1.645462089e-20
1.107922354e-22
1.142910814e-20
4.25789554e-21
1.543600772e-20
2.314925771e-20
2.281400323e-20
4.053388082e-21
2.966043429e-21
6.618908751e-21
4.701306095e-21
2.64535274e-22
1.099666175e-20
1.79767515e-22
8.995892999e-21
2.160004994e-20
9.74512073e-21
2.062890171e-20
1.650584555e-21
7.393317355e-21
6.540255161e-21
3.434745549e-21
6.166608353e-22
2.330013124e-21
3.655119743e-21
6.578897067e-21
1.99527404e-20
5.064283811e-22
1.140051201e-20
1.191311878e-20
6.07532803e-21
3.096750159e-20
6.703512471e-22
7.046958081e-21
9.661136461e-22
2.067095793e-20
4.854425518e-21
2.148740553e-20
1.592976697e-20
1.744452511e-20
8.537158695e-22
2.172701707e-21
9.66105334e-22
3.08419675e-21
1.235417484e-20
1.558875705e-20
2.627969118e-21
3.765518158e-22
2.882856191e-23
1.171381134e-20
1.441188019e-20
7.038945148e-21
1.252390826e-21
1.426508672e-20
2.111891567e-20
1.341690696e-20
2.463532986e-20
1.279480434e-20
9.780282405e-21
4.713360869e-21
2.486322164e-21
3.257145328e-21
2.263675776e-21
2.349133694e-21
1.050769866e-20
1.712371114e-20
4.208254712e-21
7.473681706e-23
2.156762479e-20
2.478484147e-21
1.166423868e-20
4.034039856e-21
1.132702012e-20
2.08913482e-20
3.226450434e-21
3.904122209e-20
6.650273496e-21
5.418864621e-21
1.158167476e-20
4.107099831e-21
7.99042772e-21
4.407882362e-21
9.931875294e-21
2.976559697e-21
3.606168562e-20
3.297548586e-20
4.202312241e-21
2.947453647e-21
2.15020248e-21
3.596869444e-20
1.762440557e-21
3.239327961e-22
8.033512937e-21
1.443681222e-22
9.519963668e-22
2.321173842e-20
2.3819002e-20
1.290392378e-20
4.758341744e-21
2.659973176e-20
1.303839968e-21
4.724567757e-20
1.180288145e-20
1.506956925e-21
2.726272583e-21
8.248750551e-20
7.815624344e-21
2.670901631e-21
1.266291287e-21
8.250163661e-21
6.591269857e-21
1.006595709e-21
2.85294863e-21
1.485038564e-21
9.797864969e-22
1.969705219e-20
3.778724205e-21
2.104589854e-20
1.554406009e-20
1.122367157e-20
6.985883738e-21
8.120663318e-21
6.573150868e-21
1.172151684e-20
5.76624332e-20
2.515533624e-21
6.657789084e-21
4.499718004e-21
3.093084959e-20
5.261228329e-21
3.716159496e-20
7.64077935e-23
3.962588761e-21
5.702419873e-21
4.836053365e-21
1.981933733e-20
6.530894823e-21
1.209068198e-21
1.799458894e-21
1.681036839e-20
1.041607603e-20
3.077119685e-21
7.181181406e-21
3.543804511e-20
5.185811044e-21
5.321028534e-21
5.450687311e-20
3.573655586e-21
1.991279587e-20
9.837454282e-21
6.071624514e-21
8.229653559e-21
8.096131879e-21
2.501744355e-22
1.160132589e-21
2.697456883e-20
1.679091755e-20
1.17102279e-20
4.071318105e-21
5.573719119e-21
3.86802844e-21
3.441559011e-21
1.712194983e-21
9.610419009e-21
4.748994966e-22
3.226960159e-20
1.073111761e-20
1.41030003e-20
1.837428104e-20
9.588342979e-21
1.945830049e-21
4.323089227e-20
1.317287272e-21
1.40192798e-20
2.708595937e-20
1.076004301e-20
9.381680151e-21
5.27865983e-20
5.093239796e-21
3.405744834e-20
6.409613988e-21
3.068111405e-20
3.489919316e-21
5.080922029e-21
9.097955673e-21
6.976317692e-21
6.081796832e-22
6.790071904e-21
2.32125673e-20
2.226450164e-20
2.760195674e-21
2.847682608e-20
2.588438917e-20
2.937315565e-21
2.562680111e-20
1.901268804e-21
2.779166977e-21
4.093275612e-21
2.295842948e-20
9.589733885e-21
4.932078469e-21
5.355005837e-21
1.630571663e-20
1.16548649e-20
8.845223261e-21
1.072929578e-21
2.489028307e-21
1.719515212e-20
2.184703414e-21
7.144708814e-22
1.38731899e-20
7.073191436e-22
1.686017226e-20
1.333562755e-20
1.278841887e-20
9.918312096e-21
2.845490477e-21
4.644030225e-21
5.517981855e-21
9.029153084e-21
1.008221105e-20
2.092078405e-21
8.652959836e-21
3.406355921e-22
1.633421595e-20
1.608537251e-20
5.198448331e-20
1.587418837e-20
8.930884667e-21
7.990923176e-22
1.299013119e-20
1.318593632e-20
1.639001035e-20
7.850536164e-21
1.28917191e-20
1.320552359e-20
2.38314911e-20
1.750298736e-21
1.685900361e-20
4.664781325e-20
5.66014634e-20
3.063614884e-20
4.823093095e-21
4.626676759e-21
7.435370458e-21
5.553354136e-21
6.89216748e-21
1.589795046e-20
1.231320579e-20
3.427607548e-21
7.147957814e-22
1.821138747e-20
2.533751713e-20
2.03306107e-20
8.643143126e-21
1.141803418e-20
4.884161838e-22
4.429361619e-21
1.093565302e-20
3.429998791e-21
1.726378728e-21
6.760063276e-21
7.003692352e-21
5.491569859e-22
1.778605795e-20
5.545029079e-21
8.539900524e-22
2.534275801e-20
1.437702553e-20
2.035914703e-20
1.245515602e-20
1.476701641e-20
2.330726319e-21
1.673729265e-20
6.420605089e-21
2.193439311e-20
1.082386936e-20
2.744976376e-20
6.764813524e-21
4.019560342e-20
4.211659048e-21
6.019113768e-20
4.3313301e-21
8.1425179e-21
2.927422099e-20
8.164260386e-21
3.046944217e-21
3.795036304e-21
3.750722105e-21
2.291476329e-20
1.518640366e-21
2.203641156e-21
9.066692052e-21
2.934005764e-20
1.045641692e-20
2.426467162e-21
5.08693042e-21
4.927489555e-21
4.700838789e-21
1.770570118e-20
3.681615472e-21
3.841710868e-21
5.451185002e-21
2.395822231e-21
2.340109174e-21
1.116597398e-20
9.497624657e-22
2.631632368e-22
1.45770236e-20
1.19738689e-20
3.958622731e-21
3.421747652e-21
1.955128196e-22
2.638369191e-22
5.399766489e-21
1.889322045e-21
1.285737337e-20
1.748336454e-21
1.269358574e-20
1.742645468e-21
1.419994864e-20