/*--------------------------------*- C++ -*----------------------------------*\
| =========                 |                                                 |
| \\      /  F ield         | OpenFOAM: The Open Source CFD Toolbox           |
|  \\    /   O peration     | Version:  2406                                  |
|   \\  /    A nd           | Website:  www.openfoam.com                      |
|    \\/     M anipulation  |                                                 |
\*---------------------------------------------------------------------------*/
FoamFile
{
    version     2.0;
    format      ascii;
    arch        "LSB;label=32;scalar=64";
    class       labelField;
    location    "0.002/lagrangian/dsmc";
    object      origId;
}
// * * * * * * * * * * * * * * * * * * * * * * * * * * * * * * * * * * * * * //


9441
(
58159
60843
58053
66620
64823
64371
64572
66923
65022
65300
66334
66221
69584
68973
69108
69197
67448
69290
66429
69610
69689
69702
69418
70021
71461
66413
71626
72066
70628
72781
64894
70925
65917
65202
69188
69903
67257
69511
71389
73078
72557
69999
70926
73584
68512
67358
74530
71266
74199
66333
72453
73577
74538
71453
72994
75950
70107
67642
75133
75031
74829
76047
74212
74905
75503
73060
74707
76080
77160
75860
72761
75875
75959
76473
72443
73822
75429
76633
76266
78195
76180
77149
77158
77187
74619
75726
76856
77272
78985
73378
75141
74592
77155
77605
72049
77477
73578
76657
78382
77157
79643
77382
78503
78535
72960
78617
78729
71444
77480
78999
77983
78502
78676
78697
72965
74593
75946
78724
78918
79115
78308
75734
78604
78369
78718
79135
79323
80210
79319
80043
74635
75756
77978
80031
73808
77263
79224
78597
79443
78531
79655
79925
80171
80245
77688
79000
79206
79456
80272
77987
79822
77289
78722
79568
80752
69802
77191
80059
80784
80892
74792
79405
79525
80017
80033
80207
80842
77367
80025
80869
82156
80897
81990
75013
76642
78781
80131
80236
79334
73666
79805
81314
78586
78905
79929
79932
80252
72792
74600
80035
80881
75230
80362
80867
81593
79522
80024
80351
80574
80975
81992
72868
77366
79767
80317
76455
79640
80343
80366
81360
82101
76854
80501
83385
80118
80233
84306
76350
79514
80132
80478
80691
81245
82773
81872
83083
76967
81453
83688
83799
84502
78477
80836
81186
83110
76847
79221
79721
80218
80342
81387
82520
81037
81044
81172
81174
82201
82261
82775
83078
81463
81866
79828
79005
80648
80649
81104
81265
82797
78810
81553
83846
85532
81511
83395
84504
74910
78095
78367
78389
78594
79425
82670
82680
82682
81176
79538
79915
80938
81230
81681
82406
83301
82272
82493
82579
84613
76855
82086
82889
79010
83111
83204
77202
80204
81075
82783
82878
83125
83414
75755
82911
82998
83025
84208
80754
81766
81880
82268
82847
81956
77467
79819
80733
81668
83681
84534
77775
80227
81763
82258
82482
82618
82696
83022
83616
85116
79507
80532
81081
81452
82585
84549
85947
78493
81709
81982
82477
83721
84527
84714
85529
74715
79613
81746
83178
83181
83217
83823
84135
81592
83295
83399
84114
84647
73916
81242
82392
82581
82925
83011
83107
83620
83622
83795
84150
74499
78289
79197
81957
82168
82981
82984
83012
83618
83845
83914
83929
84079
84435
84735
84757
80423
83082
83698
83828
83840
84226
84356
81056
80211
81568
82485
84843
85595
77361
76753
80341
81859
84047
84126
84474
84732
78479
78696
79099
80747
81669
82772
83710
84868
85328
79502
79716
82271
83212
83530
84323
84925
79614
82978
83409
83703
83804
83810
83822
84024
84101
85028
85351
79453
81967
80431
83920
84952
80254
78196
78789
82901
83398
83863
83868
83924
85462
80966
82085
82199
82257
83621
84031
84040
84642
84737
84827
85165
85223
85427
85676
86756
76972
77785
80654
81751
81857
83820
84839
84842
84845
85191
85319
86268
83308
83686
83725
85142
85170
85174
87379
79719
82276
83580
83697
84745
84986
85358
85550
78800
80022
80148
82587
82671
83419
83865
85048
85349
85473
86375
77783
83029
83794
84004
84109
84415
85015
85041
85164
85181
85671
86101
86492
81959
82796
83539
84120
85018
85673
85766
85879
85990
86015
86277
86290
86798
81846
82063
82576
82675
83591
84242
85046
85158
85426
85466
85836
86061
86076
86227
78385
80331
83833
84430
85159
85318
85554
86519
83639
84007
84831
84937
85092
85166
85774
85985
87272
82266
82819
83289
84223
84244
84821
84924
84958
85135
85540
88035
78288
78994
79333
83496
83501
83941
84231
84339
84511
84518
84736
85132
85136
85235
85546
85964
86270
86508
88914
73569
82885
83041
83722
85117
85364
85668
86574
86783
87939
90131
81552
82384
82992
83273
83374
84516
85849
85855
85999
86074
86378
86687
87268
87721
83919
84025
84030
84523
85065
85167
85661
85699
85980
86381
87655
75929
81156
82383
82875
82986
84020
85240
85291
85443
85446
85498
85958
85962
85976
86165
86380
86489
87451
87589
82778
83928
84019
84369
85761
86279
86386
86479
86661
86817
87089
87298
87377
87507
87518
81966
82697
83682
83808
84624
85365
85429
85885
85989
86060
86194
86320
86572
86874
86968
87317
87606
89828
81261
84023
84746
84926
85234
85243
85422
85430
85659
85870
86047
86992
88598
79084
83103
84837
85058
85553
85575
85981
86467
86621
86773
86867
87025
87308
87795
82673
78568
80125
80953
82064
84501
84525
85852
85961
86002
86183
86680
86803
87164
87388
87793
88238
89149
80251
81865
83286
83812
84949
85050
86313
86917
87602
87744
88727
87418
81370
84012
85016
85425
85873
85975
86772
87179
87619
87718
88915
88916
87677
84454
84977
85757
86343
86620
86692
86704
86913
87315
87393
87497
87710
87723
88100
88494
81943
80119
84928
85455
86096
86252
87191
87351
87789
87813
89623
84142
80434
82896
83809
84110
84630
85344
86485
86689
87195
87292
87339
87403
87630
87799
87821
88050
88826
81980
83413
85047
85543
86198
86370
86664
86796
87039
87105
87499
87615
87914
88061
88228
88388
88704
89036
84308
84451
84612
85145
85762
86493
87004
87082
87158
87193
87290
83695
82217
85537
84715
85011
86344
86571
87320
87536
87936
88327
89076
80344
81163
81376
85225
85346
85376
85651
85658
85967
86058
86752
87015
87734
88227
88836
89266
89622
81343
83098
84514
85857
86474
86809
86896
86988
87005
87102
87627
87842
87926
88108
88294
88424
88644
88728
88739
83499
83593
84635
85758
86466
86679
86683
86691
86902
87173
87428
87485
87720
87807
87810
88441
88541
88748
88912
89332
89825
90130
91666
88595
79923
81744
84016
86557
87503
87530
87713
87739
87815
87913
87929
87993
88165
88298
88533
89136
89315
90132
90750
84429
72254
83397
85955
86064
86876
87301
87488
88020
88231
88240
88419
88420
88425
88427
88632
88647
88726
89478
89830
86649
84506
84841
85531
85652
87703
87708
88170
88200
88303
88330
89460
89567
89726
83680
84517
86248
87178
87399
87991
88086
88190
88594
88731
88840
88841
89052
89667
89802
90239
90371
77691
79800
82690
84344
85032
85335
85557
86673
86978
87103
87183
87262
87299
87508
87510
87725
88338
89113
89142
89253
89351
89446
89784
81656
84118
85645
86383
86771
87101
87586
87715
87919
87957
88017
88310
88526
88937
88957
89066
89238
89249
89261
90542
84122
85558
85838
85859
86674
86964
87057
87078
87707
87995
87996
88038
88614
88635
88811
88848
88862
89039
89050
89119
89243
79207
82788
84132
84814
84917
84953
85454
85666
86255
86766
86767
87905
88125
88489
88518
88608
88622
88679
88872
89239
89244
89257
89829
89855
90539
90752
84923
85444
85649
86164
86176
87012
87480
87500
87716
87824
87836
88034
88037
88435
88490
88733
88911
88936
89037
89435
89930
90235
85643
85765
86251
87063
87070
87727
87997
88115
88410
88505
88947
89442
89669
89744
89865
90028
90031
91156
92287
78802
83606
86360
86919
87801
87812
88314
88429
88523
88600
88720
88736
88763
89137
89314
89475
89556
89684
89870
91052
81558
86206
87075
87081
87302
87385
88315
88331
89040
89318
89338
89345
89677
89862
90342
91762
82893
87269
87740
83002
85321
86871
86974
87278
87402
87916
88113
88321
88527
89154
89430
89462
89463
89636
76550
89976
90196
90682
93092
84326
85449
85530
85637
86250
86870
87414
87719
88203
88322
88819
88928
88943
88954
89248
89727
89945
90249
84651
86892
84224
85577
85863
86458
87324
88091
88631
88921
89116
89346
89447
89454
89661
89696
89886
90167
90185
90237
90375
90508
90594
90802
91116
91475
85638
86749
87196
87325
87395
87579
87738
87920
88122
88416
88513
88717
89471
89794
89871
89896
90027
90033
90041
90058
90156
90498
90776
85329
83483
87295
87682
87687
87699
88001
88005
88009
88198
88199
88699
88730
88933
88939
89049
89152
89161
89168
89525
89602
89746
89753
89861
89970
90356
90473
90582
90642
90849
90994
91174
83096
82492
85033
85222
87084
87786
88004
88007
88232
88606
88637
88697
88750
88946
89044
89157
89562
89565
89568
90066
90158
90194
90269
90290
90452
90463
90669
90984
91093
82376
85338
82084
83097
83918
85236
86065
86512
87521
87992
88219
88613
88798
89128
89274
89340
89365
89743
89771
89915
90051
90062
90362
90564
90749
90754
90793
91511
91560
91975
85743
84636
87491
87494
87519
87892
87895
88046
88444
88538
89367
89416
89426
89534
89539
89699
89874
89942
89993
90165
90259
90406
90448
90595
90799
91257
91407
91514
91880
81442
84324
85247
85748
86172
86984
87283
87400
87998
88558
89126
89247
89337
89561
89664
89694
89877
90049
90417
90465
90560
90587
90714
90890
90953
77342
91528
91971
85336
86160
87411
87901
88124
88302
88545
88616
88646
88722
88744
89147
89401
89558
89717
89749
89751
89975
89987
90154
90368
90385
90391
90583
90782
90783
90893
90902
91074
91466
92040
92215
92283
93196
80530
86266
86471
87415
87712
87900
88104
88407
88521
88829
89014
89357
89359
89856
89929
90205
90468
90672
91077
91193
92286
81576
80663
87068
83493
84111
84718
84836
88940
89331
89553
89740
89745
89919
89944
90034
90134
90148
90153
90162
90311
90349
90414
91008
91097
91221
91288
91480
91503
91667
91801
92193
86244
87809
88119
89020
89035
89234
89254
89263
89324
89352
89543
89559
89868
89949
90110
90257
90372
90445
90786
90961
90988
91041
91301
91316
91572
88229
83818
86770
87065
88825
89060
89260
89320
89329
89440
89526
89738
90270
90379
90467
90580
90656
90691
90731
90751
90877
90952
91410
91509
80759
86558
86873
87180
87787
87890
88193
88400
89015
89025
89121
89217
89347
89432
89657
89777
89848
89978
90328
90588
90688
90696
90785
90810
90861
90868
91094
91211
91216
91588
91659
91691
91808
92651
91253
85146
83382
89215
88944
87088
85754
85837
85983
86473
87202
87816
88387
89235
90048
90053
90447
90543
90860
90981
91080
91589
92313
92390
94026
88832
89845
84411
84646
86352
87208
87800
88597
88816
88849
88917
89540
89761
89773
89774
89836
89840
90088
90173
90263
90344
90550
90780
90798
90999
91015
91066
91180
91181
91278
91290
91562
91787
91824
91877
92008
92349
93309
87574
88500
85038
86148
87680
87685
89418
89742
89864
90462
90678
90767
90819
90895
90896
90916
90966
91053
91165
91200
91313
91385
91400
91686
91868
91906
92122
92219
92308
93197
93717
94529
85012
88827
89216
89445
89533
89838
89960
90010
90124
90238
90392
90459
90647
90665
90887
91130
91204
91294
91315
91387
91581
91681
91705
92105
92734
92792
94629
86998
79520
86562
87693
88509
89133
89227
89335
89541
89638
89851
89884
90030
90147
90234
90295
90466
90485
90540
91279
91296
91406
91496
91866
91969
92000
92074
92102
92246
92392
93024
86451
89321
81258
86880
89053
89336
89349
89453
89659
89888
90082
90201
90246
90261
90567
90590
90671
90888
90979
91098
91101
91108
91154
91282
91307
91561
91627
91658
91694
91758
91761
91782
91811
91919
91929
92391
92665
86961
87423
86570
86677
89141
89549
89630
89758
89953
90014
90283
90339
90354
90361
90572
90625
91002
91003
91303
91696
91714
91724
91909
91916
92020
92033
92056
92120
92228
92309
92551
92719
93611
93876
90064
86481
86884
87695
89013
90280
90771
90964
90978
90998
91095
91190
91230
91283
91357
91483
91592
91609
91665
91699
91726
91784
91790
91905
92042
92089
92096
92209
92446
92817
92943
93019
93342
83117
85040
88723
88934
89645
89964
89965
90275
90381
90549
90570
90644
90950
90974
90985
91276
91284
91356
91476
91484
91591
91597
91605
91751
91779
91792
91822
91825
91878
91998
92124
92153
92516
92603
92632
92639
93372
94729
95044
89451
88195
88923
89456
89483
89737
90554
90557
90874
90875
91067
91268
91302
91377
91382
91433
91688
91890
91972
91981
92004
92077
92091
92164
92205
92254
92293
92299
92336
92352
92655
92701
92733
92848
93021
83584
83486
84720
85138
86470
87796
88501
89854
90351
90464
90960
91065
91157
91170
91518
91574
91578
91662
91806
91897
92006
92127
92221
92224
92245
92415
92428
92430
92604
92606
92628
92630
92790
92834
92941
93337
93716
94325
82997
85241
86973
88935
89982
90366
90382
90581
90603
90707
90711
91205
91242
91260
91371
91473
91576
91672
91901
91917
92038
92099
92321
92388
92522
92640
92854
93114
93120
94631
87097
81248
87069
87702
88507
88546
88620
88724
89824
90067
90546
90664
91271
91305
91482
91580
91796
91814
91942
92007
92026
92112
92125
92306
92417
92546
92614
92626
92724
92809
92847
92913
93028
93137
93212
93217
95457
79440
87902
89123
89437
89748
89826
89954
90363
90791
90880
91090
91456
91600
91684
91717
91928
92002
92123
92387
92424
92542
92580
92629
92789
92806
92814
92839
92852
92950
93130
93234
93303
93443
94128
94254
84117
87501
87906
88496
88512
88919
89850
90274
90355
90370
90575
91261
91571
91711
91886
91970
91987
92005
92012
92036
92050
92073
92104
92198
92528
92615
92624
92716
92737
92771
92830
92833
92953
93237
93242
93351
93654
93662
93686
94628
94832
81958
82789
83189
86982
87394
88498
89068
89488
89837
89951
90472
90713
91099
91379
91507
91604
91676
91683
91713
91804
91992
92211
92212
92217
92226
92230
92494
92506
92514
92536
92692
92704
92835
92837
92865
93236
93368
93677
93758
94131
94261
89730
90951
91300
91370
91461
91648
91783
91819
91881
92011
92109
92116
92202
92206
92340
92436
92520
92549
92877
92889
93020
93026
93033
93128
93346
93363
93749
93788
91375
84015
86465
86759
88087
88535
88821
90150
90519
90769
91073
91183
91274
91663
91678
91703
91907
92103
92117
92200
92420
92454
92538
92561
92689
92725
92753
92765
92801
92819
92831
92948
92954
93008
93009
93011
93023
93143
93160
93169
93232
93262
79104
93460
93477
93761
94002
95351
82994
79331
83290
86859
86875
88488
88703
88804
88824
88924
89028
89520
89844
91147
91207
91479
91595
91687
91765
91807
91904
91991
92095
92118
92119
92204
92337
92422
92442
92462
92530
92537
92611
92742
92749
92769
92859
93052
93121
93123
93240
93332
93340
93348
93352
93389
93523
93778
93961
94074
94782
86087
79719
82478
84230
85986
86249
87805
89952
90867
90886
90913
90980
91470
91504
91607
91810
91898
91936
91950
92032
92072
92297
92310
92323
92330
92334
92407
92414
92416
92423
92456
92457
92524
92525
92726
92730
92754
92755
92798
92824
92929
92951
92979
92998
93144
93157
93256
93338
93436
93551
93598
93599
93715
93872
93957
94160
94275
94934
95454
83194
86068
87697
88192
89317
89760
89928
90265
90537
91196
91266
91298
91308
91369
91501
91577
91848
91937
92129
92324
92341
92396
92444
92461
92498
92518
92531
92594
92744
92898
92956
93098
93129
93132
93145
93219
93347
93385
93452
93536
93556
93664
93692
93740
93750
94145
85544
87599
88732
89355
89417
90987
91004
91269
91280
91328
91378
91910
92131
92216
92218
92243
92275
92419
92435
92481
92504
92511
92539
92612
92636
92732
92745
92844
92896
92911
92936
93265
93379
93422
93453
93473
93511
93540
83723
93627
93659
93768
93875
94071
94465
94471
94768
83904
87090
87284
88105
89880
90340
90442
90556
90753
90812
91184
91485
91488
91760
91786
91874
91900
92111
92159
92295
92314
92371
92399
92627
92669
92688
92702
92714
92729
92735
92815
92828
92922
92928
92940
92944
93068
93213
93260
93263
93349
93365
93375
93439
93465
93476
93478
93532
93559
93626
93646
93817
93960
94177
94200
94375
94402
94864
88292
85229
91788
81278
84336
85657
88499
90266
90341
90975
91474
91795
91996
92014
92185
92343
92512
92515
92616
92619
93402
93467
93534
93589
93609
93616
93775
93785
93858
93864
93891
93970
94042
94381
94494
94783
95041
87059
90256
90763
90879
91361
91573
92208
92210
92491
92523
92601
92648
92721
92836
92890
92487
93044
93045
93053
93111
93334
93399
93409
93441
93544
93606
93641
93714
93763
93774
93842
93843
93889
93986
94008
94155
94216
94264
94457
94600
94636
94775
94974
95516
83484
93188
81969
88012
88299
88615
88721
89424
89524
89651
91086
91218
91719
92097
92501
92559
92855
92920
93117
93133
93162
93273
93366
93380
93424
93426
93464
93531
93543
93554
93560
93588
93679
93727
93754
93826
93965
93968
94141
94157
94169
94171
94189
77694
94316
94333
94356
94462
94567
94572
94660
94776
94898
94936
95452
95677
95760
89343
90144
90152
90450
90451
91384
91927
92092
92214
92316
92322
92637
92812
92825
92879
92917
92926
93060
93239
93246
93357
93360
93361
93362
93369
93383
93450
93538
93547
93563
93642
93645
93746
93757
93862
93880
93942
93958
93969
94019
94022
94039
94073
94181
94280
94306
94461
94589
94609
94794
94795
94884
95191
95214
95300
95451
95556
95595
79973
81113
92307
82373
88415
88486
89218
89427
89940
90854
91380
91764
92031
92543
92547
92660
92906
92910
93004
93154
93231
93344
93454
93558
93610
93770
93779
93878
93886
93954
93995
94005
94080
94146
94281
94342
94351
94684
94754
94758
94767
94793
94880
94931
95409
89741
91085
84026
88800
88843
89438
90258
90648
91199
91967
91984
91993
92021
92115
92186
92502
92620
92709
92751
92764
92832
92925
92927
93049
93066
93105
93250
93257
93258
93355
93527
93539
93557
93579
93633
93647
93653
93669
93674
93810
93855
93929
93939
93983
94055
94107
94282
94295
94391
94444
94458
94478
94581
94643
94652
94663
94807
94813
94871
94932
95392
95403
95427
95654
81286
79988
93079
83195
85437
88929
89847
90145
90419
90551
90686
90878
90965
91070
91457
91493
91668
92024
92063
92108
92196
92225
92318
92540
92813
93037
93038
93182
93261
93315
93354
93437
93448
93455
93525
93562
93655
93849
93931
93967
94029
94214
94265
94315
94340
94345
94450
94535
94538
94604
94646
94703
94878
80502
94968
95043
95140
95143
95274
95301
95861
96271
89034
92071
84423
89876
90864
91365
91785
92220
92311
92405
92431
92437
92489
92577
92820
93029
93139
93193
93343
93469
93479
93506
93548
93630
93668
93706
93720
93729
93767
93866
93892
93906
93953
93977
94060
94089
94229
94236
94268
94276
94343
94374
94385
94433
94470
94483
94591
94671
94680
94692
95095
95169
95322
95655
95694
97495
81296
86354
94935
86151
88828
89222
90566
90657
90976
91579
91887
91986
92303
92312
92320
92413
92503
92766
92816
92901
92912
93115
93119
93172
93223
93304
93328
93449
93482
93574
93583
93617
93644
93683
93781
93839
93846
93950
93985
93989
94088
94104
94127
94182
94211
94300
94384
94386
94573
94715
94730
94811
94859
94860
94903
95077
95089
95092
95208
95450
95588
95611
80172
80070
80346
90660
91879
89241
89327
89956
91582
91601
91884
92121
92404
92427
92608
92763
92773
92804
92860
92999
93027
93326
93330
93509
93585
93719
93755
93881
93894
93947
94006
94054
94056
94058
94077
94087
94090
94092
94147
94154
94241
94246
94419
94456
94487
94584
94697
94879
94882
94887
94918
95021
95045
95154
95183
95283
95298
95453
95917
81023
94925
88519
90155
91697
86561
87607
89048
91175
91566
91669
91748
91988
92411
92499
92517
92595
92717
92892
92915
92924
92934
93010
93025
93166
93218
93220
93266
93356
93520
93529
93535
93541
93667
93711
93733
93856
93897
93944
93955
93975
94093
94198
94238
94257
94270
94309
94348
94354
94361
94453
94454
94460
94472
94510
94528
94582
94614
94709
94752
94854
94978
95042
95110
95111
95184
95271
95380
95603
96062
96266
93497
86056
88305
89326
89822
90336
90663
91083
91366
92189
92223
92284
92545
92700
92757
92803
92938
93224
93238
93323
93329
93388
93688
93747
93798
93861
93936
93973
94043
94053
94064
94203
94296
94353
94382
94469
94473
94527
94578
94593
94644
94774
94784
94785
94831
94833
94852
94919
94985
94987
95193
95309
95406
95423
95495
95633
95789
95801
95888
96164
81733
96219
86514
92526
80440
85660
89934
84113
84233
90376
90668
91192
92064
92076
92213
92332
92412
93118
93401
93518
93573
93593
93622
93636
93638
93678
93737
93765
93773
93859
93873
94075
94130
94163
94164
94179
94210
94232
94262
94287
94355
94383
94398
94401
94411
94424
94464
94560
94570
94590
94650
94665
94666
94674
94759
94781
94802
94822
94847
94858
94861
94863
94870
94916
94994
95014
95073
95085
95100
95121
95293
95386
95402
81461
95510
95532
95688
95699
95710
95795
95866
88207
88503
89731
90576
90929
91062
91915
91974
93099
93148
93215
93225
93413
93461
93481
93515
93550
93657
93666
93680
93756
93874
93952
94000
94048
94061
94070
94094
94247
94285
94349
94360
94475
94500
94554
94563
94605
94647
94669
94799
94815
94875
94979
95009
95034
95059
95061
95101
95168
95177
95233
95256
95262
95295
95472
95479
95499
80072
95937
96104
96625
81740
81750
92826
87588
92797
90142
89032
89333
89530
89842
89939
90042
90658
91092
91164
91362
91575
91893
91983
91994
92298
92796
92923
93035
93207
93320
93339
93415
93516
93522
93528
93537
93652
93660
93759
93777
93848
93854
94062
94068
94149
94150
94152
94162
94174
94192
94196
94220
94259
94278
94286
94298
94362
94463
94545
94546
94597
94661
94693
94780
94881
94890
94969
94990
95069
95241
95278
95404
95483
95518
95577
95584
95591
95617
95625
95659
95812
95820
95885
96052
96272
96669
96883
90338
97493
81736
90973
89646
91492
91689
92107
92402
92946
93374
93421
93446
93447
93470
93572
93828
93883
93940
94044
94176
94204
94237
94244
94251
94266
94364
94380
94406
94442
94481
94493
94525
94556
94562
94595
94602
94756
94786
94798
94877
94984
95004
95093
95112
95115
95144
95224
95269
95312
95352
81285
95381
95722
95723
95737
80932
96345
85861
97699
93512
93915
87999
88291
89334
90241
90252
91259
91989
92101
92933
93031
93316
93425
93435
93466
93510
93615
93860
93930
93943
93987
94031
94046
94084
94159
94249
94305
94357
94574
94683
94700
94713
94764
94788
94840
94848
94929
94977
95013
95071
95091
95094
95108
95226
95247
95260
95267
95281
95308
95396
95411
95413
95438
95455
95508
95509
95513
95575
95681
95706
95757
95797
95806
96119
91679
92207
80850
89755
89895
90662
90967
91075
91478
91664
92406
92711
92937
93039
93125
93229
93430
93445
93503
93760
93766
94337
94338
94371
94394
94438
94466
94467
94489
94565
94607
94662
94685
94805
94900
94975
95001
95080
95124
81287
95178
95200
95310
95345
95387
95433
95441
95515
95545
95552
95618
95635
95642
95676
95683
95684
95708
95783
95835
95905
95909
95996
96022
96061
96308
96407
96784
80593
98105
80945
90577
87484
86651
89569
88098
91677
91876
92087
92385
93109
93138
93241
93542
93738
93790
93959
94047
94143
94180
94194
94377
94547
94577
94648
94701
94746
94763
94826
94868
94872
94960
94966
94983
94998
95006
95175
95197
95276
95287
95306
95353
95390
95395
95426
95475
95486
95506
95528
95593
95607
95608
95643
80766
95698
95729
95828
95839
95950
95980
96033
96162
96199
79979
96348
96434
96488
81765
81701
92408
89625
90559
91172
91775
92533
93030
93112
93134
93226
93428
93533
93835
93938
94032
94057
94065
94365
94407
94426
94480
94508
94541
94668
94681
94707
94770
94772
94855
94874
94896
94972
94973
94989
94993
95022
95035
95075
95079
95102
95172
95181
95196
95201
95202
95204
95223
95573
95622
95623
95634
95685
95716
95750
95840
95874
95894
95915
95926
95940
95944
95965
95988
96041
96110
96322
96344
96491
96523
81990
98523
82574
87286
87287
89030
91258
91997
92113
92699
92908
92916
93221
93434
93914
93925
93933
94227
94258
94263
94441
94446
94474
94491
94518
94640
94687
94753
94765
94790
94849
94894
94943
94952
94976
94991
94995
95056
95058
95082
95126
95156
95159
95187
95212
95355
95378
95414
95428
95476
95517
95523
95547
95590
95601
95602
95616
95619
95675
95687
95696
95700
95725
95755
95877
95886
95895
95923
95935
95936
96004
96015
96099
96105
96211
96252
96306
96309
96327
96367
96420
96721
96828
81100
81905
97697
98107
91277
93823
91267
92080
93001
93321
93438
93545
93932
94072
94138
94253
94749
94777
94792
94829
95064
95066
95090
95104
95109
81012
95171
95185
95189
95190
95192
95280
95297
95299
95302
95324
95330
95359
95375
95416
95502
95580
95693
95701
95738
95819
95826
95847
95901
95934
95939
95954
95956
95981
96034
96121
96193
96201
96204
96213
96223
96230
96404
96408
96437
96442
96465
96554
96611
96653
96708
96819
96915
96968
81745
81677
96360
82245
81561
89529
91902
91978
92807
93003
93122
93416
93631
93926
93949
94140
94228
94327
94334
94352
94379
94408
94540
94558
94742
94850
94889
94999
95060
95173
95198
95218
95229
95242
95273
95292
95318
95369
95420
95496
95695
95762
95784
95787
95841
95852
95890
95892
95900
95921
95928
95929
95997
96012
96042
96137
96250
96268
96284
96396
96421
96429
96492
96622
96782
96845
96853
96859
97019
97044
97064
97183
97206
97494
97700
81748
90562
91273
90127
92593
92823
93036
93043
93107
93658
94052
94172
94443
94534
94566
94579
94620
94653
94657
94773
94778
94803
94814
94928
94946
94970
95128
95216
95259
95261
95321
95347
95391
95485
95488
95491
95497
95498
95530
95597
95605
95720
95726
95792
95799
95821
95822
95925
95942
95948
95951
96032
96101
96107
96109
96200
96243
96249
96305
96310
96316
96326
96339
96343
96432
96464
96500
96558
96640
96667
96938
97220
97280
82082
98417
82429
81131
82687
82511
81464
81485
80027
87506
89433
90993
91068
91980
92281
92282
92300
92409
92618
93070
93427
93632
93734
94021
94329
94599
94675
94696
94702
94757
94791
94808
94883
94964
95065
95160
95167
95179
95182
95188
95194
95279
95296
95389
95417
95504
95568
95589
95606
95613
95624
95640
95686
95702
95753
95803
95805
95836
95922
95966
95970
95978
95991
96023
96027
96080
96085
96113
96192
96203
96217
96232
96241
96329
96526
96555
96568
96609
96728
96750
96754
96783
96825
96867
96944
97031
97058
97192
98003
95542
95645
86377
88714
90125
93135
93297
93336
93845
93857
93935
94129
94144
94359
94414
94437
94440
94482
94559
94626
94704
94846
94922
94963
94971
94981
94986
95005
95076
95213
95237
95384
95462
95505
95520
95598
95697
95732
95796
95815
95830
95845
95896
95919
95927
96014
96036
96112
96209
96228
96313
96320
96331
96336
96350
96371
81648
96534
96539
96630
96683
96698
96834
96839
96851
96863
96969
97121
81649
97581
82109
94332
89639
92331
92403
92652
92695
93095
93194
93203
93451
93676
93745
93852
94208
94331
94488
94575
94865
95063
95074
95118
95195
95203
95424
95469
95501
95519
95541
95672
95773
95907
95910
95941
95947
96005
96006
96016
96030
96073
96156
96214
96220
96231
96248
96302
96355
96397
96412
96418
96424
96450
96461
96510
96512
96530
96545
96589
96617
96632
96679
96693
96742
96800
96815
96930
96953
97029
97069
97159
97173
97296
97463
97598
97895
81742
98933
95122
82516
95243
89752
91167
91198
92294
92296
92786
92935
93325
94041
94086
94170
94293
94324
94395
94432
94539
94548
94550
94651
94658
94670
94673
94712
94733
94862
94959
95031
95050
95052
95070
95086
95153
95372
95382
95394
95422
95430
95477
95500
95582
95585
95621
95721
95791
95800
95818
95913
95992
96017
96018
96118
96125
96131
96161
96188
96191
96196
96301
96303
96319
96338
96463
96573
96603
96643
96689
96726
96748
96749
96816
96857
96858
96866
96950
97057
97096
97141
97142
97193
97355
97458
97461
97841
98307
81824
98519
83304
81907
99230
82258
82521
82022
80883
91459
92029
92085
92607
92697
93210
93235
93718
93850
93919
94079
94290
94655
94873
94940
94982
95010
95084
95125
95277
95336
95400
95434
95490
95578
95704
95709
95788
95843
95873
95889
95918
96020
96039
96072
96108
96184
96197
96205
96207
96224
96233
96239
96270
96352
96388
96395
96400
96409
96414
96453
96502
96610
96615
96970
96973
96980
96987
97003
97115
97134
97144
97284
97432
97450
97660
97919
96661
90287
96047
90768
92914
93432
93748
93802
93831
93836
94038
94248
94252
94448
94501
94537
94585
94761
94766
94824
94891
94892
95252
95289
95363
95466
95474
95512
95536
95553
95586
95587
95620
95730
95780
95893
95912
95949
95964
96011
96035
96088
96115
96116
96126
96202
96283
96325
96334
96351
96356
96430
96438
96459
96494
96531
96595
96602
96605
96614
96686
96741
96756
96847
96856
96931
97018
97130
97226
81816
97362
90781
97868
83298
98516
83920
91912
82600
91759
80340
93202
92507
81838
87798
89341
91682
91767
92086
92222
92232
92527
92722
93301
93405
93530
93604
93634
93964
94125
94497
94516
94649
94957
95057
95067
95103
95215
95245
95268
95346
95412
95594
95609
95712
95717
95802
96003
96081
96090
96147
96234
96287
96304
96337
96357
96385
96393
96398
96406
96445
81991
96501
96524
96528
96613
96623
82420
96719
96732
96743
96769
96817
96820
96827
96840
96870
96928
96940
96958
97091
97148
97243
97256
97364
97370
97442
97460
97486
97649
82598
98159
82164
82888
82592
81855
91661
87387
90141
90401
91477
91570
91685
91892
91894
93102
93514
93521
93865
94245
94341
94779
94953
94965
95209
95303
95481
95489
95581
95682
95689
95724
95793
95798
95804
95827
95868
95932
95977
96026
96093
96097
96158
96160
96216
96225
96258
96294
96300
96311
96423
96425
96431
96447
96513
96519
96532
96649
96694
96696
96730
96733
96744
96829
96830
96836
96892
96943
96948
96952
96954
97035
97070
97072
97074
97149
97254
97259
97330
97350
97367
97374
97459
97575
97764
97802
98101
98623
95751
89124
96267
88918
92134
92605
92808
92907
93192
93227
94656
94845
94949
94956
95062
83207
95285
95291
95334
95367
95399
95442
95522
95663
95666
95707
95782
95816
95838
95862
95899
95908
95911
95994
96087
96103
96124
96229
96244
96259
96321
96389
96428
96457
96460
96511
96514
96585
96593
96606
96620
96635
96647
96706
96725
96734
96739
96789
96801
96850
96865
96890
96918
96921
96925
96935
96942
97040
97110
97133
97147
97155
97165
97179
97253
97269
97313
97431
97454
97564
82957
97630
97665
97671
97751
97894
98073
98133
98382
98520
98928
98929
81196
81588
83306
94240
98828
88293
91766
92696
92708
93429
93689
93946
94347
94468
94557
94748
94857
94955
95186
95313
95354
95364
95807
95883
95891
95904
96083
96171
96195
96317
96386
96399
96433
96458
96538
96569
96594
96627
96713
96717
96718
96731
96735
96806
96956
96974
96975
97002
97007
97041
97046
97063
97168
97191
97245
97249
97277
97316
97472
97535
97558
97635
97659
97672
97754
97875
82166
98158
98308
82594
83297
100055
100164
88621
97294
95844
82688
82084
81492
81203
90784
91160
91778
93410
93844
94034
94132
94358
94576
94930
95039
95473
95492
95525
95564
95569
95714
95761
95906
95920
95973
95985
96063
96098
96114
96181
96210
96292
96312
96324
96383
96417
96439
96497
96517
96521
96529
96536
96540
96646
96712
96745
96911
96951
96959
97045
97114
97119
97128
97145
97158
97161
97190
97223
97225
97227
97250
97251
97279
97340
97342
97363
97465
81565
97540
97573
97762
97804
97858
97867
97930
97976
98276
98521
98597
82085
98931
96549
83318
93146
89449
90129
90856