/*--------------------------------*- C++ -*----------------------------------*\
| =========                 |                                                 |
| \\      /  F ield         | OpenFOAM: The Open Source CFD Toolbox           |
|  \\    /   O peration     | Version:  2406                                  |
|   \\  /    A nd           | Website:  www.openfoam.com                      |
|    \\/     M anipulation  |                                                 |
\*---------------------------------------------------------------------------*/
FoamFile
{
    version     2.0;
    format      ascii;
    arch        "LSB;label=32;scalar=64";
    class       Cloud<dsmcParcel>;
    location    "0.002/lagrangian/dsmc";
    object      positions;
}
// * * * * * * * * * * * * * * * * * * * * * * * * * * * * * * * * * * * * * //

9441
(
(0.2944469317 0.08230676246 -3.252606517e-19) 28
(0.2577149042 0.07661434059 0) 53
(0.2935079084 0.08904601462 8.131516294e-20) 58
(0.282456189 0.08023860742 0) 27
(0.3029829547 0.08422011644 0) 29
(0.2164699225 0.05924450279 -2.168404345e-19) 18
(0.2980495333 0.1328397783 -1.084202172e-19) 299
(0.2626909249 0.07871709809 -2.710505431e-20) 54
(0.2806849992 0.09531110624 0) 116
(0.1709141062 0.07569881872 0) 132
(0.2839212353 0.09137981041 2.168404345e-19) 87
(0.2111026226 0.08314770457 3.252606517e-19) 137
(0.2851554863 0.1186218356 5.421010862e-20) 237
(0.2541807967 0.08031743502 -1.084202172e-19) 83
(0.2438198502 0.07902650388 -1.084202172e-19) 81
(0.2493074946 0.06817909054 0) 22
(0.2830167105 0.1078790822 2.168404345e-19) 177
(0.2182108898 0.07418737264 0) 78
(0.2293791035 0.08023258976 -3.252606517e-19) 110
(0.2979310949 0.08348582733 2.168404345e-19) 29
(0.300207064 0.1142810523 -1.084202172e-19) 209
(0.270587299 0.1158738108 2.778268067e-19) 235
(0.2912432038 0.112525757 0) 208
(0.300915157 0.09537637857 0) 89
(0.2112761317 0.05781290416 2.168404345e-19) 17
(0.2349322687 0.1062006431 2.168404345e-19) 230
(0.2634429198 0.1267050651 0) 294
(0.2603918875 0.07415544691 0) 24
(0.302917404 0.09298226751 0) 89
(0.2969292118 0.08345584745 0) 28
(0.2899333545 0.08272948864 0) 28
(0.2676551441 0.07204997529 -4.33680869e-19) 25
(0.2939940154 0.0860919582 1.084202172e-19) 58
(0.2886455303 0.1015454627 1.084202172e-19) 147
(0.2657855765 0.1065303921 0) 204
(0.2504937991 0.06746913814 6.505213035e-19) 22
(0.2624592673 0.1471158317 3.523657061e-19) 414
(0.2826195094 0.08768922968 -2.710505431e-20) 87
(0.2755053375 0.07599817904 -1.084202172e-19) 26
(0.2565101171 0.07439106934 -1.084202172e-19) 23
(0.266363936 0.07155968676 0) 24
(0.2607420629 0.09137617462 0) 114
(0.2898545669 0.08234987165 0) 28
(0.2681512307 0.1029922764 -2.168404345e-19) 175
(0.2438563247 0.07763824395 1.626303259e-19) 82
(0.2229183036 0.06043698816 0) 19
(0.2729861358 0.1270953424 0) 295
(0.2844577363 0.09698550533 3.523657061e-19) 117
(0.2804321893 0.07581665769 4.33680869e-19) 26
(0.2862686561 0.07989223508 5.421010862e-20) 27
(0.264386378 0.08393098723 -4.33680869e-19) 84
(0.2888806768 0.08564182799 2.303929617e-19) 57
(0.2315102326 0.09213040858 3.252606517e-19) 170
(0.2841456326 0.08535425191 -1.084202172e-19) 57
(0.257629726 0.07059068435 -1.084202172e-19) 23
(0.2895070265 0.07950815081 1.084202172e-19) 27
(0.3010206457 0.08694241882 4.33680869e-19) 59
(0.303495216 0.1071635322 2.168404345e-19) 149
(0.2655942642 0.1053737099 0) 174
(0.2867691008 0.08018188977 2.168404345e-19) 27
(0.2367740607 0.06372754457 0) 21
(0.2740990875 0.07850694837 0) 25
(0.2744371196 0.09109972252 -2.710505431e-19) 116
(0.2845407328 0.07792641128 -4.33680869e-19) 27
(0.2776498935 0.08104025867 -5.421010862e-20) 56
(0.2311193791 0.06830531587 -1.084202172e-19) 50
(0.16638873 0.1515261043 -2.168404345e-19) 490
(0.2161883269 0.07168127755 2.168404345e-19) 78
(0.278815823 0.08528902588 -1.084202172e-19) 56
(0.2747724303 0.09581296771 -2.168404345e-19) 116
(0.2951140876 0.09488897059 0) 88
(0.2983285668 0.137986164 -2.710505431e-19) 329
(0.2938845558 0.1134141004 0) 208
(0.2555894219 0.08261823144 -1.084202172e-19) 83
(0.2483367172 0.06983289605 -1.084202172e-19) 22
(0.2894150242 0.07932939646 -1.084202172e-19) 27
(0.2513217239 0.08565579214 4.33680869e-19) 112
(0.2510342906 0.0948204448 0) 142
(0.2994603137 0.09756319462 0) 119
(0.2180964891 0.06514744016 -2.168404345e-19) 48
(0.285586507 0.08727950246 0) 57
(0.3017073232 0.1076319307 5.421010862e-19) 149
(0.300285529 0.1076776282 -2.168404345e-19) 149
(0.3015063063 0.1077475532 5.421010862e-20) 149
(0.3011829974 0.09075874379 -2.032879073e-19) 59
(0.2571687913 0.08651464442 2.168404345e-19) 113
(0.2937901737 0.08241106114 1.355252716e-19) 28
(0.2867370529 0.1238145932 -3.794707604e-19) 267
(0.2070381809 0.06112816092 1.626303259e-19) 17
(0.2879789626 0.1157951093 -4.33680869e-19) 207
(0.2715978767 0.09409273327 4.33680869e-19) 115
(0.2954051029 0.08488875571 -4.33680869e-19) 58
(0.293224616 0.1180563535 3.117081246e-19) 238
(0.2514920061 0.08468889209 -4.33680869e-19) 83
(0.2468505044 0.08105776543 -1.084202172e-19) 82
(0.2286420185 0.07286976864 0) 50
(0.3034628707 0.1546023965 -1.626303259e-19) 419
(0.2876088276 0.1074359161 -1.897353802e-19) 177
(0.2790790959 0.1103525692 2.168404345e-19) 206
(0.228364673 0.0856366314 0) 139
(0.2604787919 0.1341562565 -2.168404345e-19) 354
(0.2112791569 0.07263160789 1.084202172e-19) 77
(0.2848010033 0.08378916563 1.084202172e-19) 57
(0.2772280517 0.1085787393 2.168404345e-19) 206
(0.2722818315 0.1079301479 -2.168404345e-19) 205
(0.2900681231 0.1156785767 0) 208
(0.1541691063 0.07975480249 1.084202172e-19) 160
(0.29417661 0.1039635566 0) 148
(0.2970518233 0.08274148125 0) 28
(0.2395686459 0.08184715618 -2.168404345e-19) 81
(0.2774523218 0.07686554459 -2.168404345e-19) 26
(0.2718287797 0.1165083533 0) 235
(0.2581264956 0.09492828424 -1.626303259e-19) 143
(0.2716834962 0.09313653373 0) 115
(0.2174986875 0.06655916008 -2.168404345e-19) 48
(0.2761765509 0.0975800406 2.168404345e-19) 146
(0.260097969 0.1231176023 0) 294
(0.2147329919 0.08570856611 0) 138
(0.2858061197 0.09537934562 -2.168404345e-19) 117
(0.2176277554 0.09908992055 -1.084202172e-19) 198
(0.2874095209 0.1271073658 5.421010862e-19) 267
(0.271232672 0.07606483256 5.421010862e-20) 25
(0.2843326179 0.07831227483 1.626303259e-19) 27
(0.2386268272 0.06799305209 1.067261514e-19) 21
(0.2866930334 0.08329711085 -2.168404345e-19) 57
(0.2965062092 0.08395460483 0) 28
(0.2808887532 0.09567857275 0) 116
(0.2536983373 0.07157454823 1.084202172e-19) 23
(0.2224572984 0.095859709 2.168404345e-19) 199
(0.261594986 0.07175692813 2.168404345e-19) 24
(0.2397258214 0.125658085 8.131516294e-20) 321
(0.2533955308 0.07396991284 0) 53
(0.2443179855 0.1124486976 0) 262
(0.2621273601 0.0826635401 -1.626303259e-19) 84
(0.2942710171 0.09913849695 0) 118
(0.2717412062 0.107344384 -2.168404345e-19) 205
(0.2922641613 0.1346172586 -1.084202172e-19) 328
(0.2982027401 0.08707098209 2.168404345e-19) 59
(0.2732658026 0.07888319518 2.168404345e-19) 25
(0.2926516354 0.1493320356 1.084202172e-19) 388
(0.2662434503 0.1303593953 -1.084202172e-19) 324
(0.2151241288 0.09612493589 2.168404345e-19) 198
(0.2846083538 0.1072451535 2.168404345e-19) 177
(0.3012210447 0.08716544989 0) 59
(0.2926611054 0.1351529385 5.421010862e-20) 328
(0.2721857153 0.07389255131 0) 25
(0.2568986206 0.07386927715 0) 23
(0.2810781363 0.1236220637 2.168404345e-19) 266
(0.2404233553 0.09866391312 -1.084202172e-19) 171
(0.2736047511 0.07472193911 -2.168404345e-19) 25
(0.1925596431 0.06629708999 -5.421010862e-20) 75
(0.2566072559 0.07574972443 2.168404345e-19) 53
(0.2351908791 0.1018655504 -6.505213035e-19) 200
(0.2728134128 0.09602210281 -2.168404345e-19) 145
(0.2589307506 0.08033519929 0) 53
(0.2218847702 0.09906549039 1.626303259e-19) 199
(0.2632406376 0.1082695544 -1.897353802e-19) 204
(0.2867862369 0.100412645 -2.168404345e-19) 147
(0.2250674822 0.07368629899 0) 79
(0.2922883363 0.1364133228 -1.084202172e-19) 328
(0.2727681604 0.07915087914 2.168404345e-19) 55
(0.2709869329 0.08177689677 -1.626303259e-19) 55
(0.2720878981 0.1081561416 0) 205
(0.2758543017 0.1049079372 2.168404345e-19) 176
(0.2311232259 0.09215376599 0) 170
(0.2888654103 0.1155074208 0) 207
(0.2834519911 0.1341618634 2.168404345e-19) 327
(0.2966284164 0.1048356249 0) 148
(0.2366869201 0.06912179466 -4.743384505e-19) 21
(0.2623968916 0.08244047955 0) 84
(0.2657798791 0.1020132878 -2.710505431e-19) 174
(0.2523574328 0.08275380698 1.626303259e-19) 83
(0.2072176979 0.05849654712 2.168404345e-19) 17
(0.2755802848 0.1006876649 -2.168404345e-19) 146
(0.2661783539 0.08796152518 0) 84
(0.245267822 0.1417365166 1.084202172e-19) 382
(0.2298532091 0.06923465596 -1.084202172e-19) 50
(0.3039077299 0.1322599775 -1.084202172e-19) 299
(0.216119019 0.09567151584 1.084202172e-19) 198
(0.2460516518 0.06853448159 1.084202172e-19) 22
(0.2091771089 0.0704502556 5.421010862e-20) 77
(0.2297191973 0.07443718042 -2.032879073e-19) 80
(0.2182422322 0.07809853121 0) 108
(0.2525209934 0.07106859025 -1.626303259e-19) 23
(0.2958680128 0.09281658626 -2.710505431e-20) 88
(0.1893379317 0.07104403182 2.168404345e-19) 104
(0.2644587167 0.09913916471 1.084202172e-19) 144
(0.270727187 0.1021743103 4.33680869e-19) 175
(0.2712724179 0.09928627312 1.084202172e-19) 145
(0.2891301009 0.08613025945 -2.168404345e-19) 57
(0.2676889519 0.1091561538 2.168404345e-19) 205
(0.2864345991 0.1101515588 5.421010862e-20) 177
(0.2561977523 0.08535033156 0) 83
(0.2678706021 0.1337782591 5.421010862e-20) 325
(0.2875996786 0.09867993195 0) 117
(0.2013385691 0.05779696215 0) 16
(0.2700221605 0.09601059214 -5.421010862e-20) 145
(0.3047784938 0.09715798936 0) 89
(0.2390630579 0.0780421255 3.252606517e-19) 81
(0.2567918079 0.1039632374 0) 203
(0.2869883963 0.09860971 2.168404345e-19) 117
(0.3021232674 0.09217865645 2.168404345e-19) 89
(0.2100144162 0.0739681672 -3.794707604e-19) 77
(0.2895831896 0.09544485313 2.168404345e-19) 118
(0.2721021362 0.08685488303 5.421010862e-20) 85
(0.303594887 0.1200534739 -6.505213035e-19) 239
(0.1864209058 0.07709207713 -2.710505431e-20) 134
(0.272491384 0.08068553796 2.168404345e-19) 55
(0.2754284758 0.1088839814 -1.084202172e-19) 206
(0.2866231342 0.1158226278 -3.252606517e-19) 207
(0.2796123216 0.1513707711 1.084202172e-19) 416
(0.215788061 0.08943068934 0) 168
(0.2358011964 0.07610614503 0) 80
(0.2951285124 0.1226079785 0) 238
(0.2388388761 0.06694739696 7.649766305e-20) 21
(0.2624053569 0.1540268311 6.776263578e-20) 444
(0.2652422377 0.1088973413 0) 204
(0.2108547049 0.06148406716 1.084202172e-19) 17
(0.257195533 0.1027937065 -4.33680869e-19) 173
(0.2320530907 0.07683284928 6.776263578e-21) 80
(0.2441589314 0.08814809755 -2.168404345e-19) 112
(0.2990045755 0.09139166095 0) 89
(0.2605852367 0.07898309402 -1.626303259e-19) 54
(0.2801394466 0.07932153422 0) 26
(0.2612934374 0.07220224975 5.421010862e-20) 24
(0.2150351785 0.06371283798 0) 48
(0.2171113357 0.07240551453 -1.965116438e-19) 78
(0.2807305121 0.08443756116 0) 56
(0.2055564535 0.05602082609 -2.168404345e-19) 16
(0.2676249497 0.07486833278 2.710505431e-20) 25
(0.3009641358 0.1031622698 7.453889936e-20) 149
(0.244466138 0.07099661887 -3.117081246e-19) 22
(0.2756525645 0.119178203 0) 266
(0.2803432799 0.09091133004 0) 86
(0.2719910939 0.07763659213 -1.084202172e-19) 25
(0.2324079086 0.1206527085 4.33680869e-19) 290
(0.3017543343 0.1404815591 -3.794707604e-19) 329
(0.2924620785 0.079806244 -1.084202172e-19) 28
(0.2312799023 0.09048228913 3.252606517e-19) 140
(0.265128015 0.07433970814 0) 24
(0.2311775752 0.07652733048 3.252606517e-19) 80
(0.2574392291 0.1145910954 4.33680869e-19) 233
(0.2791058144 0.1511288705 -1.084202172e-19) 416
(0.2013749877 0.06122513108 -1.084202172e-19) 46
(0.2920402254 0.09434436794 4.33680869e-19) 88
(0.2289185033 0.07505031504 2.168404345e-19) 80
(0.298891868 0.1137681067 -4.33680869e-19) 209
(0.2947328109 0.1367788448 2.710505431e-20) 328
(0.2213529485 0.08698283501 2.710505431e-19) 139
(0.2652433399 0.1039280873 0) 174
(0.1831552555 0.07191196046 -2.168404345e-19) 104
(0.3017167011 0.1535995515 2.168404345e-19) 419
(0.2938437974 0.08527849938 4.33680869e-19) 58
(0.2100537793 0.07880254565 -5.421010862e-20) 107
(0.2579349423 0.08687247583 -2.168404345e-19) 113
(0.2567260258 0.1043733111 0) 203
(0.2936915973 0.1398229375 -2.168404345e-19) 358
(0.2950510864 0.1308596256 2.168404345e-19) 298
(0.2819912823 0.08129541972 1.626303259e-19) 57
(0.2855859582 0.09855224651 0) 117
(0.3011291556 0.09576831255 6.776263578e-20) 89
(0.2990350052 0.1440502665 1.084202172e-19) 359
(0.2650270421 0.09447695732 -4.33680869e-19) 144
(0.1996332301 0.06728756465 1.084202172e-19) 76
(0.2797703262 0.09253952841 -2.168404345e-19) 116
(0.2920254739 0.09029789118 -2.168404345e-19) 88
(0.1598948163 0.08812658669 0) 220
(0.2989385116 0.08200152569 0) 29
(0.2394049221 0.06577953889 0) 21
(0.2728486012 0.09605415335 -2.168404345e-19) 145
(0.2799893831 0.1106898398 -1.084202172e-19) 206
(0.2784782217 0.08237488659 2.168404345e-19) 56
(0.2665476678 0.1052119339 0) 174
(0.1641869732 0.05379519976 0) 41
(0.2649746355 0.07927364635 2.168404345e-19) 54
(0.2774052246 0.1414425099 0) 356
(0.2600949954 0.1109152302 1.219727444e-19) 234
(0.2777697923 0.09863063468 2.981555974e-19) 146
(0.2410958107 0.1021603597 -2.168404345e-19) 201
(0.2530414677 0.08479986287 3.252606517e-19) 83
(0.1984518281 0.05780545057 0) 16
(0.2928827878 0.1276183789 0) 268
(0.297805359 0.097415999 2.168404345e-19) 119
(0.261263279 0.07923413786 0) 54
(0.2476696228 0.1229558681 -1.084202172e-19) 292
(0.2330577388 0.07788850485 -4.878909776e-19) 80
(0.272003821 0.1059285829 0) 175
(0.2552307274 0.1159734095 -1.016439537e-20) 263
(0.2935841962 0.1304648316 0) 298
(0.2345110107 0.08204616721 -2.168404345e-19) 110
(0.258174228 0.1449500712 0) 413
(0.2827358685 0.08682978266 2.168404345e-19) 57
(0.2727920899 0.1323937244 1.355252716e-19) 325
(0.2352339052 0.07268042967 -2.168404345e-19) 50
(0.1606514931 0.09025722231 0) 221
(0.2582811529 0.08911633406 4.607859233e-19) 113
(0.2911988116 0.09478702825 0) 118
(0.2259463936 0.06852749919 -1.084202172e-19) 49
(0.2916997762 0.1030145412 2.168404345e-19) 148
(0.2704284879 0.1128939194 -5.149960319e-19) 235
(0.2959160677 0.124659833 4.33680869e-19) 268
(0.2950546345 0.09100011253 -2.168404345e-19) 88
(0.2761556968 0.1050570664 -4.33680869e-19) 176
(0.2911514024 0.1545669059 -2.100641709e-19) 418
(0.2540013444 0.07448903862 -1.084202172e-19) 53
(0.3008827486 0.108869235 -2.032879073e-20) 179
(0.2732995996 0.1337925223 0) 325
(0.2787455242 0.0776111165 -5.421010862e-20) 26
(0.25574059 0.08871688327 -1.355252716e-19) 113
(0.2637982605 0.09453890597 0) 144
(0.2991851493 0.09914636026 -4.33680869e-19) 119
(0.2770442835 0.07434966842 0) 26
(0.2726193752 0.087575318 -2.168404345e-19) 85
(0.2751076648 0.0757622504 0) 26
(0.2271759467 0.06598441841 -2.168404345e-19) 19
(0.1553733649 0.04966866131 -2.168404345e-19) 40
(0.261135114 0.07820899072 -1.084202172e-19) 54
(0.2565945952 0.1288232992 -1.626303259e-19) 323
(0.2470319087 0.07775589487 2.168404345e-19) 52
(0.202238067 0.0638807007 2.710505431e-20) 46
(0.2558310283 0.09824733264 2.168404345e-19) 173
(0.2631089628 0.1060561772 0) 204
(0.1925630633 0.05875236446 -3.252606517e-19) 45
(0.2926671667 0.1272309398 2.168404345e-19) 268
(0.2534492306 0.08077963934 -2.168404345e-19) 83
(0.245955621 0.06785805664 1.355252716e-19) 22
(0.2804856569 0.1438089295 0) 386
(0.2989950065 0.09743879181 4.33680869e-19) 119
(0.2364332983 0.06355969535 1.795709848e-19) 21
(0.2901986279 0.1013284676 1.084202172e-19) 148
(0.2458442301 0.08013567988 -1.084202172e-19) 82
(0.2546572651 0.1215317196 -3.252606517e-19) 293
(0.2356986147 0.06375104217 0) 20
(0.2375048228 0.0918702291 4.33680869e-19) 141
(0.2683862421 0.07335232062 -8.131516294e-20) 25
(0.2419281614 0.1185728576 0) 291
(0.2224977094 0.064733647 -2.168404345e-19) 19
(0.1606160291 0.05240886097 0) 41
(0.2615557069 0.1213959325 2.168404345e-19) 264
(0.2681524889 0.09300324682 -2.168404345e-19) 115
(0.2557154303 0.10105524 5.421010862e-20) 173
(0.1987016469 0.09241234178 0) 196
(0.228438362 0.06263884561 0) 19
(0.2541363003 0.07634308111 0) 53
(0.2071700403 0.09675322996 2.168404345e-19) 197
(0.28837916 0.1088066361 0) 177
(0.2815184767 0.1126191508 0) 206
(0.2057605727 0.06720469305 -4.33680869e-19) 47
(0.2284710469 0.08371076733 0) 109
(0.186622746 0.1070685862 -9.486769009e-20) 284
(0.2516642338 0.08624948953 1.084202172e-19) 113
(0.2559781538 0.07919207166 3.252606517e-19) 53
(0.2164058426 0.06226678112 0) 18
(0.2655522516 0.07689661715 0) 54
(0.2128036325 0.05757638965 -2.168404345e-19) 17
(0.2322851167 0.08178735735 1.76182853e-19) 110
(0.3009434418 0.1098898042 6.776263578e-21) 179
(0.2756759233 0.1561297953 2.710505431e-19) 446
(0.2012720648 0.07506588639 -1.219727444e-19) 106
(0.2962414685 0.1584852577 1.084202172e-19) 448
(0.2394164745 0.09960843299 3.252606517e-19) 201
(0.2586140297 0.08771221189 2.168404345e-19) 113
(0.2585794089 0.1212529029 4.33680869e-19) 293
(0.2785456751 0.09408819209 0) 116
(0.2916167229 0.1195597518 -2.168404345e-19) 238
(0.2398614328 0.08065159498 2.168404345e-19) 81
(0.2489624634 0.07347234708 -2.168404345e-19) 52
(0.287963372 0.1149114673 0) 207
(0.2187267954 0.09126367065 -5.421010862e-20) 168
(0.2532768705 0.07181011237 2.168404345e-19) 23
(0.2221750681 0.1279417187 1.084202172e-19) 349
(0.2739288539 0.1525897444 0) 415
(0.2726026295 0.07941490954 2.168404345e-19) 55
(0.2832634955 0.1215164899 -4.33680869e-19) 267
(0.269199873 0.07335189829 1.084202172e-19) 25
(0.2595591649 0.1134722041 1.084202172e-19) 234
(0.2546693707 0.07593576445 1.084202172e-19) 53
(0.2678888377 0.07953670693 1.084202172e-19) 55
(0.3001820289 0.1149693196 -2.168404345e-19) 209
(0.2777145565 0.1448089278 0) 386
(0.2740379462 0.08432384215 2.168404345e-19) 55
(0.2403768837 0.1344261314 2.168404345e-19) 351
(0.27573717 0.1473658971 2.168404345e-19) 386
(0.2629863988 0.07730249936 4.33680869e-19) 54
(0.2737723338 0.09613419948 0) 145
(0.1939598529 0.06505626164 1.626303259e-19) 75
(0.283349136 0.1019451413 -1.084202172e-19) 147
(0.2770181602 0.09626329332 0) 116
(0.2058992767 0.05572297948 1.626303259e-19) 17
(0.2112588731 0.08643600304 -2.168404345e-19) 137
(0.2545317545 0.07445307432 5.421010862e-20) 53
(0.2675756122 0.09258922007 1.084202172e-19) 115
(0.1939119048 0.1204083246 8.131516294e-20) 345
(0.2990436342 0.08557043203 0) 29
(0.2668575188 0.09713675083 4.33680869e-19) 145
(0.1842409258 0.07850004695 0) 134
(0.2354501742 0.08867754088 2.168404345e-19) 140
(0.195604484 0.05305911111 0) 15
(0.2623233314 0.136858632 1.219727444e-19) 354
(0.2843561984 0.1092274788 0) 177
(0.2912680206 0.09167914058 2.168404345e-19) 88
(0.3009275182 0.0898508282 0) 59
(0.2365979147 0.09670401577 1.084202172e-19) 171
(0.2752293719 0.1602691061 -1.084202172e-19) 476
(0.217926235 0.06597271625 6.505213035e-19) 48
(0.2055350807 0.08563876783 0) 136
(0.2435415479 0.1260982173 -2.168404345e-19) 321
(0.2689930566 0.08906947055 -4.33680869e-19) 85
(0.2952138217 0.113368978 4.33680869e-19) 208
(0.2633238249 0.08748257031 -5.421010862e-20) 84
(0.2954456678 0.089035068 0) 58
(0.2849086247 0.1526569364 2.710505431e-20) 417
(0.2612378934 0.09481563471 -1.626303259e-19) 144
(0.209002551 0.0630976333 -2.710505431e-19) 47
(0.2689147616 0.121077598 5.421010862e-20) 265
(0.2378097804 0.08027337426 2.778268067e-19) 81
(0.2422282567 0.07049859031 2.168404345e-19) 21
(0.2100962923 0.06525329673 -2.981555974e-19) 47
(0.2937118978 0.1128350946 2.168404345e-19) 208
(0.2215724937 0.06036671748 -3.794707604e-19) 19
(0.293339432 0.1010885389 1.558540623e-19) 148
(0.2484930361 0.07635728962 1.084202172e-19) 52
(0.1925712695 0.05369598847 2.168404345e-19) 15
(0.2822279592 0.1053894875 -2.168404345e-19) 177
(0.2599011816 0.1063756708 -2.168404345e-19) 204
(0.2732733682 0.0750754392 1.084202172e-19) 25
(0.2595464567 0.07518838659 -1.626303259e-19) 24
(0.273370183 0.07469223556 0) 25
(0.2010715102 0.0710858441 1.084202172e-19) 76
(0.2401036959 0.1081748061 -5.421010862e-20) 231
(0.2849782638 0.08316400904 -1.626303259e-19) 57
(0.2769346119 0.07473208938 1.084202172e-19) 26
(0.2575034463 0.08778617114 0) 113
(0.2424110743 0.07345447252 5.421010862e-20) 51
(0.2430985586 0.1079130351 -4.33680869e-19) 231
(0.2044220311 0.06454739123 0) 46
(0.2434532587 0.06834337303 -2.168404345e-19) 21
(0.2968905991 0.129582091 2.168404345e-19) 298
(0.2778919958 0.1075710371 0) 176
(0.2381847755 0.1014684579 0) 201
(0.2839288898 0.07680673474 -2.168404345e-19) 27
(0.2971706548 0.1505227354 0) 388
(0.3037076512 0.09828159722 4.33680869e-19) 119
(0.3003489531 0.09449794339 2.168404345e-19) 89
(0.2570200793 0.1266368819 2.168404345e-19) 293
(0.2829466969 0.1109077163 -1.084202172e-19) 207
(0.2229437144 0.06665693061 0) 49
(0.2717201617 0.07356072257 0) 25
(0.2958279733 0.137510188 0) 328
(0.2853237664 0.1336668794 -2.168404345e-19) 327
(0.1940579452 0.08754529405 2.168404345e-19) 165
(0.2043639612 0.0671790195 4.33680869e-19) 76
(0.2267402664 0.09582063416 0) 169
(0.2201084335 0.06789681514 -4.607859233e-19) 48
(0.2309842448 0.07517461088 -1.084202172e-19) 80
(0.2427989017 0.1599819744 2.168404345e-19) 500
(0.302624134 0.1623798598 -3.252606517e-19) 449
(0.2655842095 0.07437524853 -2.168404345e-19) 24
(0.2578930203 0.1541337824 0) 443
(0.2761334489 0.1282780927 0) 296
(0.246926197 0.06830618314 0) 22
(0.2909758973 0.1259528336 0) 268
(0.2358624824 0.0770680195 -3.252606517e-19) 80
(0.290473495 0.0924989048 2.168404345e-19) 88
(0.3002827693 0.08870758323 -1.389134033e-19) 59
(0.2704189645 0.07644494229 -1.084202172e-19) 25
(0.2839694314 0.1585439589 5.421010862e-19) 447
(0.2482326586 0.08088201529 -1.897353802e-19) 82
(0.2523131253 0.07268231241 0) 23
(0.2597447104 0.07888227679 -2.710505431e-19) 54
(0.3040690009 0.1011975554 0) 119
(0.26612749 0.08767061827 0) 84
(0.2766829746 0.08948060651 4.065758147e-19) 86
(0.3040698331 0.09588887982 -2.168404345e-19) 89
(0.2769933655 0.0836102558 -3.794707604e-19) 56
(0.2971897003 0.105280328 -4.33680869e-19) 149
(0.2078967961 0.06659223344 0) 47
(0.2311219933 0.09872789362 -1.084202172e-19) 200
(0.2893627231 0.09283127434 -4.33680869e-19) 87
(0.2546888059 0.1141100584 0) 233
(0.2910630683 0.09643608653 -2.168404345e-19) 118
(0.2153191953 0.06771987294 0) 48
(0.2299065282 0.07659472577 -1.626303259e-19) 80
(0.2289159579 0.07834920819 -2.168404345e-19) 80
(0.280121957 0.07598077409 0) 26
(0.2464993982 0.09581976823 0) 172
(0.2902925322 0.1290799424 -3.252606517e-19) 298
(0.221792242 0.07125236925 1.084202172e-19) 49
(0.263477168 0.1441125472 5.421010862e-20) 384
(0.2898763876 0.111403224 1.490777987e-19) 208
(0.251846793 0.1000429048 0) 173
(0.2538057263 0.08213258778 1.084202172e-19) 83
(0.2615016248 0.1000465352 3.252606517e-19) 174
(0.3037573475 0.1445285618 0) 359
(0.2083706846 0.08897262357 2.168404345e-19) 167
(0.2873519741 0.101710675 1.084202172e-19) 147
(0.2587798515 0.0915154306 -2.168404345e-19) 113
(0.297939772 0.1462858437 2.168404345e-19) 389
(0.2862024475 0.1163848146 -2.168404345e-19) 237
(0.225398205 0.06836856977 0) 49
(0.2169561014 0.08347245678 2.981555974e-19) 138
(0.1855215813 0.05981943471 1.084202172e-19) 44
(0.2327236757 0.07335688671 8.131516294e-20) 50
(0.2519366733 0.08255274964 -2.710505431e-19) 83
(0.2798421391 0.0833664024 2.168404345e-19) 56
(0.2608991458 0.07951852523 -1.084202172e-19) 54
(0.2937054731 0.1407613136 2.168404345e-19) 358
(0.2937068959 0.1043031307 1.626303259e-19) 148
(0.2008235803 0.06080696861 -2.168404345e-19) 46
(0.2541227474 0.1245154805 1.084202172e-19) 293
(0.3010111302 0.1179797953 2.541098842e-19) 209
(0.2435207489 0.07176797375 0) 51
(0.2611508673 0.07524523082 1.084202172e-19) 24
(0.2406305373 0.07661973324 0) 81
(0.2237777244 0.09643612758 0) 199
(0.2556637406 0.1144870281 8.131516294e-20) 233
(0.2712091556 0.09373132079 0) 115
(0.1983397408 0.07516359056 -1.626303259e-19) 106
(0.205169878 0.06957955805 -2.710505431e-19) 76
(0.2787589292 0.09767047143 2.168404345e-19) 146
(0.2912027445 0.1230407849 2.168404345e-19) 268
(0.2912282138 0.07844743746 0) 28
(0.2772037621 0.07595390639 0) 26
(0.1485628785 0.04625225646 0) 9
(0.2652687239 0.07831852139 0) 54
(0.2927541748 0.1362315733 -1.355252716e-20) 328
(0.2897670285 0.1402606569 0) 358
(0.2651531857 0.07320303087 2.168404345e-19) 24
(0.2836660948 0.08093966474 -1.084202172e-19) 27
(0.2770657322 0.09322157648 -4.573977915e-20) 116
(0.2829816382 0.1125081548 1.084202172e-19) 207
(0.2288840382 0.07636215492 1.355252716e-19) 80
(0.300065959 0.0966439791 -4.33680869e-19) 89
(0.2820352489 0.1360029644 -2.168404345e-19) 327
(0.2872831012 0.1116953149 0) 207
(0.2331908983 0.08860257066 5.421010862e-20) 140
(0.2513068915 0.1078977756 0) 202
(0.2701102355 0.07725159728 -2.168404345e-19) 25
(0.3000467047 0.1119238332 0) 179
(0.2798504488 0.1290458048 0) 296
(0.2896405206 0.09023771281 0) 88
(0.2894688727 0.08507804384 1.084202172e-19) 57
(0.2681118623 0.08430184128 -2.168404345e-19) 85
(0.2673876659 0.09933052984 4.33680869e-19) 145
(0.2307144558 0.0992887664 -1.897353802e-19) 200
(0.2705151209 0.1095225317 -4.65868121e-20) 205
(0.2279101322 0.06577425584 0) 19
(0.2743372223 0.131552413 -2.168404345e-19) 326
(0.2406461393 0.06835923485 0) 21
(0.2747570529 0.09815408676 2.168404345e-19) 146
(0.2099429107 0.07833619797 8.131516294e-20) 107
(0.1746704867 0.06606210539 0) 102
(0.2881136079 0.1478696293 2.168404345e-19) 387
(0.3021157288 0.08202358131 0) 29
(0.1776825686 0.05732062439 8.131516294e-20) 43
(0.3005084514 0.08585781536 0) 29
(0.2360449569 0.1175185474 2.168404345e-19) 290
(0.2691856322 0.08930231957 0) 115
(0.2957781729 0.1242149379 -4.33680869e-19) 268
(0.2569438 0.100475863 6.776263578e-19) 173
(0.2220571717 0.06496047162 4.065758147e-19) 19
(0.2276123213 0.08434560516 0) 109
(0.1727490622 0.05355665888 4.33680869e-19) 42
(0.2187133861 0.08173611816 1.084202172e-19) 108
(0.164891464 0.07606127629 3.252606517e-19) 131
(0.2928334661 0.08639030578 6.013933926e-20) 58
(0.2856619604 0.134996469 -6.776263578e-20) 327
(0.2789306836 0.1306402353 1.084202172e-19) 296
(0.1730289441 0.08323672646 2.168404345e-19) 162
(0.2910874181 0.07862229916 2.168404345e-19) 28
(0.1815949811 0.05204313033 -4.33680869e-19) 13
(0.2495690724 0.07404139698 0) 52
(0.299169054 0.08303794959 -1.084202172e-19) 29
(0.1920911038 0.05567232701 0) 15
(0.2689944489 0.09322310045 1.355252716e-19) 115
(0.2953786682 0.1238064884 0) 268
(0.1918184604 0.06189599701 3.252606517e-19) 45
(0.255796439 0.09667435053 3.252606517e-19) 143
(0.2975016269 0.1455190064 0) 359
(0.2866473433 0.09563540469 -1.084202172e-19) 117
(0.2615578755 0.0746661848 0) 24
(0.2305148499 0.06448498263 2.168404345e-19) 20
(0.1795234579 0.04849771643 6.505213035e-19) 13
(0.2451295447 0.06900174909 2.710505431e-19) 22
(0.2449933055 0.09813006291 -1.084202172e-19) 172
(0.2542660198 0.08695244337 3.252606517e-19) 113
(0.2854752658 0.09944411763 1.897353802e-19) 147
(0.2741520576 0.08551550951 -2.168404345e-19) 85
(0.2711745365 0.09776156198 1.084202172e-19) 145
(0.2979452779 0.1195273452 5.421010862e-20) 239
(0.2378277562 0.06418400403 4.33680869e-19) 21
(0.2875972745 0.1652183955 0) 477
(0.2942564301 0.1313203256 -2.710505431e-20) 298
(0.263492903 0.1203900853 -1.084202172e-19) 264
(0.22167035 0.06019659767 1.897353802e-19) 19
(0.2790231187 0.07883230505 -5.421010862e-19) 26
(0.303424012 0.1117479701 -4.33680869e-19) 179
(0.1878804719 0.08126809037 3.252606517e-19) 134
(0.2641680258 0.1023975889 -1.084202172e-19) 174
(0.2975137616 0.1293114924 0) 299
(0.1998080166 0.06708577392 0) 76
(0.2677873088 0.08951018042 2.168404345e-19) 115
(0.2740454372 0.0767676263 -2.168404345e-19) 25
(0.2971862035 0.1308720376 -2.168404345e-19) 299
(0.1674619879 0.05019813105 0) 11
(0.2599359511 0.117034522 0) 264
(0.2249840975 0.08999314771 -2.710505431e-19) 139
(0.1713589833 0.06095249473 6.776263578e-20) 72
(0.2836501342 0.1053137773 -4.540096597e-19) 177
(0.2795390399 0.1240457649 1.084202172e-19) 266
(0.2508230457 0.07794363279 -2.168404345e-19) 52
(0.2211729304 0.06048614738 -3.252606517e-19) 19
(0.2799943924 0.07949507139 0) 26
(0.1479079519 0.1172928105 0) 339
(0.2811272073 0.07958367786 -4.33680869e-19) 26
(0.2917158614 0.1036211211 -5.421010862e-20) 148
(0.180803967 0.05646832441 0) 43
(0.2177695703 0.06188540883 -1.084202172e-19) 18
(0.2704710194 0.1103183739 4.33680869e-19) 205
(0.3032724662 0.0889401429 1.084202172e-19) 59
(0.2326107456 0.07494229667 0) 80
(0.2625452933 0.07147489941 1.897353802e-19) 24
(0.2858677883 0.1097247137 2.032879073e-19) 177
(0.2400180623 0.0840093463 -1.185846126e-20) 111
(0.2062888201 0.06761115534 0) 77
(0.2806395249 0.125387905 -2.168404345e-19) 266
(0.2738633382 0.1007529382 -4.33680869e-19) 145
(0.193017788 0.086357876 -4.33680869e-19) 165
(0.2709841902 0.0794729056 4.33680869e-19) 55
(0.2747097918 0.09277175042 0) 116
(0.2942811428 0.09322952937 0) 88
(0.3028094961 0.1583110777 -2.168404345e-19) 449
(0.2212691868 0.06360289348 -2.168404345e-19) 19
(0.172431725 0.0470638368 -2.168404345e-19) 12
(0.2161391086 0.07089721574 2.168404345e-19) 78
(0.2717177216 0.07626133768 -3.252606517e-19) 25
(0.2584057212 0.08300258391 5.421010862e-20) 83
(0.2701885288 0.1211798959 8.131516294e-20) 265
(0.2205755579 0.07847947262 4.33680869e-19) 108
(0.3022729875 0.1373830935 -3.252606517e-19) 329
(0.1733261756 0.0613964668 -4.33680869e-19) 72
(0.2552790682 0.1062089593 1.524659305e-20) 203
(0.2316493793 0.06840146991 0) 50
(0.2760946935 0.1096923585 3.252606517e-19) 206
(0.231551991 0.08642998312 -5.421010862e-20) 140
(0.2857133065 0.1257327141 0) 267
(0.1648190089 0.04633389607 0) 11
(0.2535701019 0.07185220922 0) 23
(0.2560261782 0.1288844677 5.421010862e-20) 323
(0.2856744989 0.1152753043 0) 207
(0.2360285313 0.1035066027 0) 200
(0.2464654324 0.07163552122 0) 22
(0.2577585289 0.1026953045 2.168404345e-19) 173
(0.3010974425 0.09532392182 -5.421010862e-20) 89
(0.2445859121 0.08348441587 2.168404345e-19) 112
(0.2894040372 0.1081698172 -4.33680869e-19) 177
(0.2880511027 0.08137710444 -2.168404345e-19) 27
(0.2953139792 0.09154360749 0) 88
(0.2738015354 0.1121299535 2.168404345e-19) 205