/*--------------------------------*- C++ -*----------------------------------*\
| =========                 |                                                 |
| \\      /  F ield         | OpenFOAM: The Open Source CFD Toolbox           |
|  \\    /   O peration     | Version:  2406                                  |
|   \\  /    A nd           | Website:  www.openfoam.com                      |
|    \\/     M anipulation  |                                                 |
\*---------------------------------------------------------------------------*/
FoamFile
{
    version     2.0;
    format      ascii;
    arch        "LSB;label=32;scalar=64";
    class       vectorField;
    location    "0.002/lagrangian/dsmc";
    object      U;
}
// * * * * * * * * * * * * * * * * * * * * * * * * * * * * * * * * * * * * * //


9441
(
(-409.5313821 -129.447817 643.9053189)
(836.3351184 426.1507003 -237.5760427)
(644.1368951 -397.7083183 373.0634753)
(678.3055978 352.9821779 596.4670906)
(1081.82284 162.231727 121.879951)
(124.3931306 448.4138127 52.73356241)
(1029.265574 127.9375772 733.8415517)
(734.9662983 827.4385168 154.2656219)
(-29.61783145 744.7660102 -518.891752)
(789.3213658 269.8280992 -191.3650601)
(2093.962691 713.5777702 282.6429712)
(283.8992076 568.2733941 -89.31002175)
(204.4458644 346.4757432 786.6147305)
(717.4338014 261.6772947 730.1317642)
(185.2917301 363.1129496 298.1810101)
(-673.0867739 -3.08939464 -579.8269989)
(399.1543442 584.3197904 -238.5025296)
(560.8202283 256.7494554 -527.8390584)
(1120.934785 443.9309582 -760.2434672)
(-144.8134358 178.8843465 200.1500094)
(822.034358 -71.36255845 -114.676545)
(1423.260178 -24.81138095 791.370116)
(364.4678078 599.137063 -0.3097555581)
(-111.1310424 639.8892997 184.03438)
(-618.3731016 -202.7318281 818.9535782)
(605.3410316 -331.0453366 165.3613149)
(430.5063191 1529.811318 74.78110488)
(-444.6155725 401.2933438 -178.6984347)
(451.9171451 1009.794555 657.8953252)
(-14.50411088 500.3144776 -271.8129033)
(474.2963618 34.5844692 846.2220209)
(1162.879502 -381.0388906 188.1992986)
(1348.837043 -616.0698789 -779.7067777)
(257.8694996 263.5760828 323.5130065)
(519.975723 281.6566569 1057.764535)
(-539.0660612 -38.00982875 308.5341885)
(1777.882161 663.2384448 -520.6130351)
(429.9633874 -72.48683636 -237.3985301)
(122.1945968 476.8816113 -695.7486553)
(771.6168198 -424.0887236 475.3423363)
(560.9975781 -68.76377042 -265.4142309)
(193.5997288 -1126.324792 290.3733021)
(609.8265935 -247.475873 500.5624402)
(1265.269902 462.4928757 34.34399748)
(-179.6826894 118.8200119 -643.155611)
(625.2247257 -21.30743895 -101.2318147)
(465.8841352 -219.0786897 -314.3165365)
(1322.930608 211.0510866 1193.01449)
(1002.912295 -110.4775543 158.0692491)
(-306.3745939 721.3050847 489.134555)
(145.7012836 633.6605343 -313.4651317)
(525.6361819 728.1132362 -533.6109699)
(1160.699815 681.8503943 -125.1528113)
(626.7064403 226.7540393 174.9093983)
(-161.3181719 -310.7902929 45.78434315)
(895.4860195 43.37853392 -545.9261331)
(857.9867182 16.4926593 244.7402246)
(642.1452105 111.646312 479.1782297)
(1091.528934 31.71469493 -224.3300715)
(447.3731962 -30.85672321 -585.2220048)
(56.58952726 49.69354222 -1095.782674)
(-121.6110052 317.3970116 -187.0134945)
(1226.275479 -165.0399051 792.8197602)
(327.6308772 636.4085263 1103.630218)
(624.6472279 203.0623172 439.0269884)
(-229.5287868 342.1091705 93.45479455)
(590.4558212 1547.287519 36.03148911)
(14.22578639 430.9813182 552.3986931)
(236.3827105 -380.6306299 -80.25544174)
(63.20424609 289.3057291 -251.8623725)
(455.3064518 554.2028451 -225.3525867)
(1054.701422 497.9773927 1143.252141)
(720.0382688 -194.6027863 92.36660928)
(773.6900802 282.9800879 450.7336593)
(127.4709107 223.9585774 306.1260276)
(-349.7871526 260.2516311 -96.02566929)
(-55.52471499 373.4272209 -265.9753284)
(720.7463304 742.8627795 -927.4095447)
(932.0227092 -78.00634554 526.296411)
(573.4863639 -319.9438365 -60.75864496)
(940.6352781 801.1510115 -497.6688326)
(114.8873676 553.4674185 -373.0273331)
(-17.00283398 740.8458731 -1039.163565)
(407.6656615 559.9624453 -286.0185064)
(887.4996521 44.20626554 192.5269183)
(312.6561661 449.0776039 91.45593206)
(-187.7687186 618.8002476 -20.32872683)
(253.4426281 914.2518984 1270.319356)
(-441.1342172 327.9054177 -180.9989093)
(1492.114361 -28.30870364 516.3929532)
(1049.646206 1221.659252 -54.46396317)
(872.8225409 -347.1464172 -127.9276)
(1013.160536 449.6151524 -555.7667358)
(2390.444506 -454.0405366 272.7569966)
(1082.856138 876.4661965 395.9234009)
(366.9817809 -449.5128695 669.0937968)
(1817.797681 303.2181566 85.3638612)
(333.1470332 395.6869108 -339.05594)
(1023.372298 113.9452788 -699.3848474)
(587.5169801 -182.4323002 -309.539582)
(1044.990705 14.41960975 382.9500968)
(-345.4766432 -279.5076168 703.8744237)
(65.82200365 338.1833564 -498.5826625)
(-68.42086113 1104.665417 -255.6617332)
(1805.038053 126.0205639 -600.8357599)
(763.9534862 734.9826751 -1021.730739)
(175.8550883 1196.708533 -107.5360457)
(633.7762294 171.855054 411.2778287)
(179.444265 141.2823491 65.62640009)
(593.9387926 536.5398042 92.92458446)
(421.4430478 -529.3125592 -534.483577)
(-540.03462 841.1503902 370.2384746)
(103.7012346 554.8628134 -30.54222919)
(174.0737637 349.6876317 -164.1106481)
(846.1000279 -379.7195247 -175.5754145)
(917.4885389 216.8454492 128.1921761)
(635.9475557 537.3703666 -565.8725786)
(146.8233727 -210.570882 297.5122326)
(868.8076605 471.4151262 475.2930157)
(339.3820213 44.55402985 -165.7584533)
(768.5537364 51.9435282 -551.9233709)
(-116.4383258 -330.0014668 -41.0950981)
(232.731373 -39.66475692 216.1147792)
(236.1106535 -314.6418519 815.3168074)
(-703.491384 44.17761969 -42.11835971)
(155.782021 -268.875569 260.6580978)
(184.852212 1364.61422 648.5655664)
(256.7571969 -649.9346076 -212.3098408)
(455.8357025 280.6483674 -1131.904237)
(-78.58073889 332.0273305 -627.6230935)
(388.4932315 92.77565382 418.7808343)
(-276.3688622 -322.9955558 538.8444572)
(-187.6983897 486.7082124 -86.18220443)
(1153.035994 -109.3693191 1001.420128)
(1366.829872 311.0889178 -49.51260775)
(387.8438375 529.7747642 -395.8320409)
(159.1561035 394.4474258 873.512824)
(1340.950968 -185.4414598 153.0491428)
(1538.06549 80.59214614 -1.348594194)
(593.8470224 390.0091417 -330.3054758)
(709.1883266 107.1172851 208.0299873)
(1089.295275 358.5557069 -675.9950746)
(796.2126633 120.3085572 -426.9261428)
(0.01365552224 107.1240666 -366.1194884)
(679.8793245 1367.290366 -207.6268486)
(-1294.878028 -10.97643446 44.32107987)
(-93.28514151 -442.8328243 -395.803561)
(1552.318566 947.5159464 388.9183842)
(-487.2941878 935.7074462 274.8336631)
(854.4957486 287.1126698 -565.869701)
(782.1117016 387.8069278 -20.78940508)
(-379.6612631 788.4369781 191.6684242)
(-389.6771273 1288.738044 -38.6775168)
(919.7383333 129.6559062 -721.1342175)
(668.4190361 -1689.16359 -213.1570492)
(-326.7708526 149.2837563 298.2076057)
(1385.17345 523.6917542 -999.9165809)
(461.4838579 367.6171307 52.19108866)
(691.7404706 380.0547432 -143.0513288)
(353.8041259 571.958849 467.3680516)
(63.61631868 221.0750242 685.577426)
(1081.555569 81.09917624 -388.0348792)
(1690.461827 -392.7283422 282.327219)
(1800.645497 163.4946191 -60.01750722)
(231.1570754 -307.6049152 366.0390719)
(1961.498567 -572.4173086 232.7831813)
(676.6363915 -168.4112783 689.8191427)
(-75.39267875 244.1010692 -493.405789)
(-147.2153136 -17.50716521 -790.5354595)
(1087.596613 309.0387516 -594.1543288)
(944.8315693 -158.6233982 -524.1335238)
(535.3556424 600.7330618 -705.3411776)
(-584.1294413 156.3588346 85.21975908)
(344.5182619 753.7745189 -569.8082132)
(497.6915377 734.6708643 -469.570252)
(1260.663445 582.7746628 455.5393226)
(5.81396044 232.6126597 514.892571)
(962.7581807 -208.3953492 441.7647142)
(590.1115728 -168.6973373 321.6898651)
(368.3318479 -340.1472991 152.7441622)
(604.3298186 -37.50096876 542.3780117)
(869.3691459 680.1564039 -475.7954433)
(-476.9805799 850.8184668 -152.6421476)
(-444.8374386 -198.1105845 522.2025188)
(272.0667246 -105.9403745 865.3032498)
(395.6958963 1202.589327 342.3374471)
(-13.05832702 247.0385016 652.3579079)
(678.766803 706.7957873 -430.1336789)
(836.9249441 264.8070632 812.0122416)
(291.3466854 -185.8618304 422.6534149)
(551.4165139 387.0951454 -29.98936805)
(676.0019582 -737.313674 -66.91114353)
(52.56916149 24.17746167 -45.55533682)
(613.8159084 628.285338 -1529.639978)
(642.4750722 192.5657844 757.9021594)
(202.8908704 -290.0343915 344.7829679)
(62.56980546 146.2104806 516.7874254)
(1195.270141 -39.63722541 148.5114408)
(1345.455269 248.6574717 249.0654374)
(-59.33759829 1405.445759 467.3751953)
(948.6089402 -749.2180915 1329.01548)
(1486.945675 156.9849754 -231.5462345)
(151.0141527 690.7487327 -93.17276342)
(602.990229 986.2216863 455.9141268)
(571.2616987 354.0275839 -917.8450072)
(814.280503 240.1204552 418.01165)
(154.7362696 289.6403324 62.29802289)
(543.5021722 706.7784996 98.32048728)
(288.4061868 185.0081087 -153.447945)
(371.3815223 470.9527272 523.3018904)
(1023.830675 526.9737522 -292.1551472)
(479.5475886 155.254932 472.8387721)
(72.74978979 -537.5247099 554.3914515)
(-334.7686643 1439.466915 -307.3666327)
(38.9800083 390.6919042 -83.034067)
(1417.547831 545.2780855 -495.3562036)
(509.8977339 390.79364 -444.2118876)
(-236.7616513 241.3243291 522.1786557)
(585.4113242 339.3594262 100.3961746)
(-900.9240642 218.4997671 -675.9445347)
(819.6161647 -382.5093724 -323.4638025)
(36.45792937 71.7651323 381.7132635)
(542.8577279 -603.0359768 -546.0556545)
(289.4736612 426.4695926 153.4013508)
(-37.3591324 -473.4530126 28.51146916)
(517.9701978 -39.84207427 -511.3115571)
(877.0659653 -168.8488491 -1127.952292)
(161.5058319 -190.9301502 128.9374888)
(34.81550384 205.4701624 260.8574446)
(-85.60284598 9.96385033 644.9469582)
(1093.045828 -154.5561817 318.4622968)
(42.94662097 -1.969548809 -274.3303373)
(1173.389248 177.8013249 -59.46664898)
(595.9255611 -10.76412759 -808.6169557)
(206.8007354 44.57319573 -529.0716441)
(1171.169332 -173.7383306 277.8401449)
(1751.924331 333.8340467 -302.7854425)
(174.9768084 869.38361 603.3020775)
(225.5234828 137.0920702 19.51085075)
(313.4432693 -78.05411073 551.1501639)
(-460.2075226 884.8665422 -135.0225102)
(1167.800443 985.1173882 986.669111)
(2072.288418 -76.14379334 -111.5047076)
(-246.9145801 71.59552865 -515.8755948)
(1382.140423 54.19822608 7.689398073)
(-840.9343691 621.983869 -18.3521678)
(1135.549062 272.7494891 89.87060161)
(356.6970769 328.490511 -1067.460635)
(385.4069051 477.6156787 332.8666575)
(235.7921421 433.7532099 437.7336396)
(-371.2487513 25.25311915 806.1025216)
(1713.145093 1400.219502 407.8007326)
(-525.6397288 346.9363655 -101.2974796)
(1247.353711 991.9692069 866.9648873)
(78.45726867 233.1751699 -181.2512976)
(63.65742103 -455.42704 -27.28686177)
(1319.706034 164.3637004 134.3371374)
(1222.465984 154.2277088 1054.488169)
(-227.0611187 -123.1068081 442.2652804)
(878.0211536 -72.4755718 -373.7180061)
(177.3510416 1288.797798 -77.66628121)
(904.5847203 -404.324053 161.9875997)
(756.8002113 182.3646236 926.7865625)
(909.2487889 280.8821677 179.0806765)
(1160.487196 -733.7628543 -13.72013353)
(-45.64007639 274.3270417 -147.0464547)
(1092.823279 1009.63905 -406.2335842)
(262.945651 -16.51824043 375.1836882)
(-156.0273636 -187.09992 -316.2550058)
(673.7561537 409.6367494 952.5628982)
(691.0084024 694.4847578 -102.6755184)
(1660.5258 -964.5382047 -323.2822423)
(1114.200598 703.4340474 -392.6754682)
(-546.89696 15.37750977 -13.88512673)
(307.7111357 -74.84358697 -946.3261772)
(1695.373893 772.1551721 -811.3025375)
(577.9222884 -247.5738874 187.3284443)
(135.9653305 549.38523 17.40596322)
(779.2295478 847.8879661 18.18390017)
(1240.800956 651.3678956 307.3153373)
(-206.4171658 -161.3693988 321.8485114)
(971.7501877 58.03707695 747.7043464)
(1485.055882 1244.635014 -180.4034323)
(455.6156291 64.28493047 281.0283041)
(1024.074758 -87.22134986 672.3874231)
(-211.6051742 -623.3990108 -890.6898343)
(656.392531 517.8590002 37.81807825)
(826.2530952 830.148866 298.584134)
(892.4813147 255.3256232 -604.9462843)
(144.6598752 853.0097295 -487.7765565)
(2060.729536 763.4273871 225.6392414)
(1227.567842 -253.0898876 -1115.097003)
(369.1415121 1199.592306 -697.7520166)
(-206.2036783 735.0934229 479.2433477)
(106.3617036 614.0400686 6.678042289)
(674.1703389 412.8443793 -393.9876344)
(982.8983668 -2.310106937 195.1582586)
(72.42129387 861.4058239 -145.5614049)
(789.6022262 -291.6685259 760.9412621)
(707.0892551 -263.0772892 875.1623343)
(1051.829638 142.2093134 1324.036869)
(398.6156466 -475.1958184 -703.9927089)
(1797.758837 -429.8962411 -783.3457474)
(410.9410706 -18.77237194 -551.28855)
(206.6580946 376.9457534 377.9720653)
(533.4877 1017.415462 -392.3894755)
(648.3701094 -84.9238428 -914.9491083)
(752.1606285 -205.3029036 -242.6687097)
(1313.183447 -246.2382429 -17.73842291)
(1055.402061 336.5362495 -349.1358608)
(856.5511723 325.0164192 -103.3712248)
(309.1297623 417.4863745 258.5851568)
(583.2879073 237.770037 176.7247515)
(-248.1566097 -116.8000155 -84.79862455)
(90.91173887 -518.8110444 -293.844122)
(441.3111358 599.9186849 839.7278407)
(16.05919007 312.5348909 87.8549435)
(1207.413058 1180.897811 -787.5541037)
(51.52820981 256.1817009 -93.73684231)
(1030.298413 405.9184249 -386.0853817)
(951.27338 674.1752153 -164.4228195)
(725.5730979 540.6655763 450.5669708)
(901.4353331 58.52640776 848.4286546)
(999.9517378 -513.4880115 778.869303)
(685.1419679 -512.8449269 -14.87623532)
(-288.0396253 328.2169752 -285.0141017)
(378.3108245 524.6760422 866.62881)
(1011.289737 159.4948912 -222.2488246)
(897.9067952 30.56638451 297.0122896)
(1225.675836 1052.771083 -532.6535032)
(467.1336859 -679.951928 -165.9663521)
(1356.656556 754.3147528 140.4814417)
(89.20098899 10.20866829 -299.8386052)
(207.8731497 489.5531227 141.1121352)
(110.0733035 -267.3681822 392.2033611)
(1392.256792 -237.3484152 -289.3266584)
(694.0530395 105.2456804 -423.9536498)
(726.2071429 260.1751527 910.6501347)
(637.0087062 -245.2856652 -223.3796515)
(-48.05483078 81.97035237 80.35659331)
(795.0302735 53.6538116 350.9510569)
(1531.03619 1052.680518 -83.94816583)
(830.8883918 67.78419526 -53.692158)
(374.9769494 -520.0946201 -306.2291845)
(855.9715289 1166.462335 -89.07408029)
(1136.530346 897.9554323 -395.0097135)
(1320.604696 -100.7826195 -242.4014438)
(126.9101735 -426.2980897 -271.7289471)
(489.1437488 347.0528544 723.6172105)
(1674.148966 -67.13691429 695.2646922)
(1176.724868 256.525315 -116.4410749)
(-40.13569996 -221.2818634 637.4047716)
(-45.3585754 434.317938 76.05760446)
(65.67753911 315.4643978 237.9697733)
(-537.3592857 510.2061249 -187.6380354)
(452.6899649 681.1392275 730.9525761)
(559.1960507 -354.2470367 -668.1871765)
(177.1575776 282.5565254 356.8779944)
(1318.105038 -291.1181264 -891.4671942)
(104.3640804 190.8561451 -902.5166772)
(1243.532751 -718.1788528 -696.5926032)
(553.9577406 1045.51396 -517.7673008)
(872.2434345 480.2933979 571.2216388)
(671.0820779 252.6525037 -431.6593808)
(500.8150752 152.2054974 957.649244)
(139.7329489 276.6221239 30.72244662)
(-760.6759495 -29.04703246 52.72044174)
(840.0775551 -556.2119216 661.7760111)
(-485.8283434 258.9691851 -120.083557)
(344.0848544 -1255.995456 -125.2438847)
(950.6494701 472.9628812 1091.556089)
(1691.750096 -370.618494 107.2411174)
(-590.6478071 76.22472372 -247.7356881)
(1677.760157 -69.66825537 129.6643983)
(11.18579411 452.4275485 -91.7446845)
(879.4500525 522.103764 -709.6427497)
(703.9615448 273.8862853 -111.3056596)
(532.5574859 -60.08527163 237.9781615)
(1023.552903 99.18162785 -172.2929711)
(844.0102341 306.4049689 -557.202806)
(339.11673 210.2930251 -610.4622419)
(596.4996544 769.3779313 -634.435552)
(911.5493137 532.4161442 152.7460548)
(504.1617709 553.7607044 -212.5673798)
(755.3083264 -88.51661033 571.3428238)
(410.9562027 107.4236579 864.6032263)
(828.8285343 -350.0015562 913.6072031)
(878.1313792 864.2933947 -74.30908183)
(-266.8208903 660.4095674 -261.8415993)
(-264.9116574 148.1494056 -304.3880779)
(-155.8020572 -169.3851466 -71.2976731)
(1082.163577 -187.3889435 -369.5697323)
(1269.05495 711.4441556 -447.3738578)
(592.4370169 -235.4766691 34.45334658)
(956.6025499 -6.042387538 577.22557)
(286.8881696 299.6448919 15.22356552)
(-77.57043991 584.9931715 1163.031307)
(803.5047121 -101.3180537 407.7002924)
(1633.227957 1038.294258 926.5480595)
(1099.88011 695.5530501 833.7556196)
(443.2328399 359.3768941 -349.8303587)
(414.7849056 -5.146815203 -1098.731406)
(654.5154082 484.1142762 -212.0138699)
(729.0683974 762.3783549 70.24618819)
(1035.587663 183.6733573 82.2642134)
(398.5386228 394.629529 117.7593977)
(993.5618839 505.3247933 364.3672101)
(372.4204355 482.6096921 -552.7217568)
(1364.61636 363.2625803 -982.6912955)
(987.0905377 267.1703011 -582.557647)
(-374.6359248 228.9774054 479.4586686)
(840.6414893 646.4402953 -404.392028)
(691.7209748 -484.8335185 -629.9241456)
(548.9400245 20.22426057 163.729502)
(602.3088238 904.4209242 -99.56542615)
(1034.088041 540.6573906 500.9804368)
(418.6576813 26.77867902 441.9977778)
(-444.734861 1066.686151 417.9101939)
(908.6177936 6.02174481 417.208928)
(-87.99056671 104.5495463 -280.8159274)
(997.4087895 74.13339521 -409.6720767)
(5.291314489 88.10962741 -874.699227)
(565.4235417 -838.500915 236.361583)
(1055.226518 138.5416603 -719.3588773)
(-464.7152178 941.658069 -423.5090981)
(385.9121736 -260.8153339 -146.6476862)
(-6.573521118 30.5400957 312.6312244)
(481.545338 645.9738694 98.27437342)
(434.2546454 567.9855662 -451.7159811)
(1166.605326 86.98667154 -295.994798)
(1207.88392 479.3471713 -368.3931127)
(-591.9603279 -453.9431736 286.5354417)
(-66.90852626 413.8488916 -921.5870193)
(397.9308452 189.5140965 603.2641547)
(1739.858682 1000.398635 289.7424613)
(-44.59196071 757.4580159 -537.3468262)
(-197.1734895 45.44775902 347.922112)
(1263.381716 111.6390572 449.4946843)
(757.4252729 252.4662784 -568.2816165)
(1668.0207 896.8834222 -314.2400121)
(47.54623936 -169.6053078 -442.1615889)
(724.9104337 342.4419562 577.7462572)
(405.4593003 666.6616647 630.243004)
(977.5630611 -644.6319555 22.05378563)
(466.2777549 -253.2684921 -612.0146763)
(935.5206393 103.6186986 194.6354096)
(1218.743627 -567.526296 -192.8695015)
(865.102223 413.5666074 62.0193923)
(150.7721241 -27.9945519 73.49697859)
(1215.31328 -238.3400591 316.0411644)
(795.7414301 795.2403001 -280.7470631)
(635.5981331 490.4192082 867.021621)
(137.7029484 -409.1135548 -350.4915573)
(-185.3072123 -281.1338044 34.93699302)
(1397.265133 -130.8467375 682.0513053)
(689.7021321 945.8906041 -334.1483334)
(682.7372954 1716.681259 -361.7798201)
(-291.7217865 569.6179766 621.150866)
(972.3993642 360.969876 228.4447892)
(881.9472525 10.4229438 -380.8691342)
(-507.0814359 28.76098241 422.6848736)
(991.2156036 1018.219473 -34.32480226)
(971.1695646 -419.9604519 -722.8650812)
(711.8653287 -183.3659784 416.1496584)
(10.219337 889.2991451 -345.4074864)
(295.750546 665.8503114 307.077572)
(2042.117302 1585.495128 144.8205945)
(91.37268561 705.8194658 -30.49135608)
(183.2409528 191.8814303 -954.4674802)
(-123.8482116 351.0295538 -606.3148047)
(274.6712981 560.4519667 244.4278203)
(924.0292807 681.876282 -454.1854584)
(462.9618728 1774.405038 -262.5734865)
(441.2933028 520.5315809 -14.97157815)
(556.8755928 753.6512465 145.1786389)
(-146.7194263 -849.5545031 -272.4810104)
(542.7694221 252.0147181 -379.0829485)
(404.3374635 162.7056864 587.8466958)
(857.2823925 194.3539463 -129.5610663)
(2184.072841 219.6053856 294.8596549)
(213.7552176 420.8828177 1025.560122)
(1215.581134 -354.1090261 283.9129397)
(160.9655408 15.46938647 -1062.815708)
(505.4253591 -215.8494643 68.96506506)
(152.1110483 -14.93658545 -442.8680821)
(1495.44518 557.2577123 294.4863993)
(1186.398719 155.5771189 246.3756216)
(68.03305106 121.3981601 -126.4733099)
(1066.681803 470.8144086 239.2433827)
(44.60460039 -499.1878013 -48.21626365)
(770.7021291 695.8309121 -163.2499092)
(86.87394929 45.28467687 -131.4539997)
(1606.781239 263.2579419 -243.0540282)
(1702.966143 1348.597121 414.5036311)
(474.1429081 -252.3032923 248.3788453)
(1177.503805 -29.99500981 -143.2281576)
(1036.889786 147.6618111 296.7638561)
(2095.633456 699.9996387 -196.9357632)
(1440.803008 141.529326 465.4435867)
(811.0831457 -757.5272788 319.5330013)
(1854.291905 364.9744369 110.5288263)
(707.7133877 96.72091382 -931.8993675)
(-326.0251496 308.0559044 -303.7195566)
(504.8945501 88.49034468 -391.8241919)
(41.08423478 324.6477257 758.7637727)
(414.6737371 20.65524027 289.9920874)
(983.5610734 73.42376901 -381.9170458)
(1030.547432 778.0037033 217.032325)
(560.3926393 6.530085877 -87.07651562)
(1287.70889 -23.71164493 -221.1381041)
(1685.600413 1238.211972 -116.068563)
(86.83234127 -383.7431185 -702.5965213)
(-130.6697362 -679.4497467 279.0905756)
(237.9423623 152.7664002 -387.333998)
(1453.60925 202.3815914 427.275138)
(243.2001405 303.8079766 144.9219488)
(-485.8527444 701.5825716 -295.5807391)
(613.6495813 12.35375051 -239.545378)
(386.1782863 406.9550583 324.9160133)
(815.2055898 697.1710266 194.1372311)
(883.2547933 -202.718452 -428.729265)
(-559.1109344 -630.8976895 178.3547628)
(-27.73707735 -96.73582572 145.7829519)
(-14.8537862 -242.1667822 -591.4467418)
(900.5487653 -472.9016942 258.1062965)
(633.6225097 139.8970582 1002.266977)
(560.7431948 381.6121803 -258.7987556)
(296.4492853 -792.4672846 744.2997347)
(513.2189125 551.1385306 -784.9416159)
(956.2434815 312.3840345 593.3379228)
(1231.085599 -769.4907671 -463.1178184)
(166.1963033 -539.385836 290.3788493)
(362.7113815 -248.3341321 865.608946)
(859.9062663 525.9796362 -328.4789)
(1137.220495 -223.7672647 80.9825674)
(194.5786833 422.9075724 -325.2147926)
(1016.580774 773.8520879 424.3574526)
(-93.22914282 -784.0321783 -431.812578)
(495.1028593 347.1560876 -443.1933182)
(445.4167603 561.7672137 20.78512684)
(406.0281323 280.2718801 -272.8439695)
(653.5989104 398.6005953 303.4683705)
(-267.7688555 -194.4536376 -116.836933)
(665.3359874 -697.8106016 692.8095004)
(697.0404612 416.211697 484.1079236)
(679.8987472 74.2045279 353.063297)
(-150.3908101 149.5418033 -382.9837554)
(-155.7801641 63.50009718 -457.5866844)
(-816.6004063 141.3141241 61.69511539)
(389.4003632 637.1163686 -25.86227757)
(331.1382387 198.324317 363.477466)
(86.05370822 478.9939757 -227.0324589)
(1551.751366 639.0756326 -1422.995562)
(-610.2005242 -413.8722082 -50.25892819)
(163.5796194 405.8882759 -270.620856)
(-207.7257218 788.8022349 -622.5560994)
(489.6755357 346.2414676 -212.5079817)
(589.8639784 -360.3073955 -236.283145)
(-32.16064748 887.6924326 -158.0959454)
(-124.7546957 1316.621321 703.0354994)
(376.3452868 555.100346 209.4421663)
(1456.016812 1172.588802 58.07010595)
(215.7915209 -190.3857043 424.8127299)
(374.1832913 115.4375893 -518.4938824)
(242.8487512 820.0466313 407.3659629)
(793.9261087 -718.5990698 300.4047117)
(797.0483412 274.0401665 307.0449347)
(887.423993 550.1872593 -101.0680515)
(1540.122162 686.461942 20.82535341)
(1421.562825 -40.21536175 90.11465176)
(-5.371282856 718.0282608 776.9248104)
(424.7767889 -106.1236257 10.36404003)
(200.9350278 786.4540902 107.8943321)
(-520.6314278 493.1902105 -195.4635276)
(-247.1179225 993.596576 170.503346)
(701.7909973 181.7062293 395.8139965)
(853.3846184 725.1743846 -573.5625414)
(-96.32106652 -359.257191 318.9950244)
(1582.366019 -88.59116966 641.1372755)
(1126.912766 -255.6201184 -550.8487559)
(770.1276218 -31.93670261 125.4839465)
(341.2815655 618.0966095 -89.94960879)
(-2.564951447 193.297694 579.7519814)
(623.9489004 267.6550859 485.9589356)
(391.2308978 333.0698489 411.2546361)
(-192.2040768 681.3673857 757.8012748)
(1059.443319 -164.9098289 869.2873021)
(880.146491 -18.1628889 223.0868129)
(380.171876 202.7896337 -328.0473059)
(724.8063267 345.6367248 -527.9644521)
(327.1201798 407.8143009 -631.6907778)
(1027.571826 1337.518155 184.582715)
(-35.84089507 241.6127455 456.0005975)
(857.8963406 1314.053272 -723.2038436)
(189.9160613 280.1406424 698.9735955)
(-91.50675868 -647.8289275 353.2311821)
(1538.472703 412.8568813 -478.6579754)
(111.7728517 634.0893131 -983.2045919)
(-44.63564726 -216.3705955 -391.3309263)
(947.98487 256.8285884 -417.5365432)
(-2.170048391 -745.9204782 -512.9749416)
(866.9049292 -432.5357221 -29.84486809)
(301.7165813 383.4002491 -632.1309982)
(1257.569634 598.6357884 146.6481518)
(-353.6871911 356.4590227 253.3592741)
(951.2111216 517.0451215 -271.499016)
(1140.295889 447.7113034 96.87479568)
(672.7593436 -164.8122667 -150.8826956)
(244.2796828 674.1845405 643.1123417)
(251.5667391 378.6430465 -729.7739691)
(1158.550626 188.877809 614.7707825)
(-682.5820846 61.90369478 433.7291912)
(979.9354278 -116.1654134 -824.7405526)
(174.1365177 1366.634564 -504.8637567)
(-207.4918403 -156.9639986 -407.0237538)
(1974.165328 -193.3393937 270.4392582)
(-173.7853541 -187.0271296 446.0506143)
(34.19390269 120.7968419 45.24600765)
(728.6412435 521.0758573 250.4943616)
(902.6439366 -571.5523832 288.8201467)
(538.2221949 -534.020474 -283.8521907)
(258.6152928 119.8684937 90.31772922)
(939.5350381 90.34544335 1.04133754)
(741.4133983 -639.6751093 50.35154597)
(331.439737 -281.5819411 -182.7906347)
(1739.360003 -165.7395944 337.5868597)
(656.609002 115.5701507 285.7836563)
(565.5572571 1111.183578 176.2137863)
(4.020709292 839.874333 121.9620279)
(493.3262703 302.4662664 672.6418402)
(415.7663544 343.1754325 -428.2671882)
(1506.966916 1357.364239 397.5323065)
(188.419299 179.0896097 913.8107)
(-164.6759703 -758.7096509 40.86695725)
(385.8840204 67.6682249 605.3447547)
(104.6211405 1169.683768 661.4188893)
(-634.6736213 565.1250851 994.1684545)
(645.8524687 -113.5982656 -350.0436711)
(745.8663282 297.67684 310.8429659)
(914.4358725 770.2401248 398.7182197)
(612.5193168 718.8997663 -4.647303007)
(-222.0851945 488.2409802 45.2172725)
(898.3267667 283.9652767 -833.5774098)
(1850.818445 -156.0483719 701.1719082)
(1042.117009 133.2674196 -141.0013641)
(768.4034735 154.1273404 -133.3019612)
(-677.9668122 44.51293074 -191.7083354)
(571.7875888 -486.1633756 -222.9839422)
(627.7845946 160.7190683 611.936215)
(2151.67353 672.0532759 -210.0295879)
(1708.346799 392.1222244 99.91500695)
(262.938476 93.63614847 -342.1656329)
(1197.68453 131.2685035 -180.9047201)
(1184.269768 403.9788322 902.5535006)
(-138.7205808 558.1243742 -719.1455637)
(1504.409423 -487.4674279 278.0932907)
(1569.981089 -668.529887 322.6942915)
(1114.96988 216.6392999 416.1736944)
(127.3068115 535.6779175 -661.902563)
(1253.063505 9.66868036 832.5658632)
(555.6859393 729.7125891 -31.94952481)
(1545.928967 74.90831224 -201.0040551)
(983.5821155 -19.55429274 200.6171501)
(-8.136772125 419.0136102 -375.5713618)
(850.4059454 691.8532957 27.88335895)
(1036.694849 441.4637049 -580.4337097)
(1018.095018 -8.477458874 -317.4387498)
(825.7837552 617.7557085 -1087.783931)
(1724.421659 -508.4499012 403.0521458)
(1485.46477 259.1193731 -221.5245267)
(-360.6989135 542.6556592 -1000.701552)
(1152.418248 -397.7259299 992.3662231)
(503.7574936 1433.348784 -604.5472747)
(65.22373735 740.5370289 -68.31585249)
(1256.511417 -118.4405316 -1091.654896)
(1733.788567 664.0231863 300.935157)
(791.633237 272.9766515 170.4921325)
(773.3727464 892.9141907 -23.59208377)
(1402.163365 701.9055482 -31.62949005)
(115.6883799 -294.8971143 305.3307488)
(707.2264461 98.95183971 115.1123271)
(-3.920821088 93.25787109 -25.90635123)
(-529.3326224 -286.3540475 -368.3036797)
(565.1621653 645.3152767 -184.7190778)
(887.6456952 -394.4044289 900.4571169)
(935.721039 569.6550742 45.85238077)
(-12.79771306 -859.8326388 792.0335212)
(1690.511048 -13.91044972 -509.7106353)
(662.3291219 48.07155476 111.2813567)
(-742.5221267 455.9987117 -373.8707716)
(1156.529054 661.3971287 -178.2487341)
(275.3211702 363.9338938 490.9866939)
(1839.166031 439.9457075 190.8796729)
(652.5505369 933.7089477 499.4780305)
(1399.284001 528.2076745 -790.7213641)
(1186.396749 886.3610379 -1376.167767)
(1816.843177 253.7593368 -85.88888066)
(1512.063024 558.9501558 221.0694203)
(-391.5337196 204.532566 -364.0839794)
(985.4292818 341.0566566 413.2966864)
(314.8590902 279.8368301 -667.9079508)
(-461.7697396 436.3602979 -372.9498429)
(54.58142579 -280.7714668 379.4213698)
(677.71837 421.4917475 721.9620429)
(1164.749323 356.940651 719.1872466)
(543.0802384 400.5850417 500.3803825)
(954.4963174 902.2426446 577.2770338)
(560.8739732 12.78009565 56.58805392)
(693.6530767 -829.1910868 -263.8577654)
(766.7563869 541.703885 650.0462166)
(853.6731314 131.4179765 757.2016378)
(929.3032234 418.1968266 -109.478571)
(683.7813402 -11.45020463 -229.9129544)
(704.0334084 1333.171234 33.1744362)
(1559.881752 230.9689991 529.2943133)
(529.9443483 -82.7197173 78.86082689)
(838.9957756 -350.885951 -132.8611244)
(2268.086975 666.1921159 112.204364)
(864.1143298 -128.508963 584.4319084)
(1387.53854 171.0965441 26.59627612)
(1121.292281 -177.4236433 -231.5666624)
(50.9236115 235.8172896 170.1586581)
(-77.06100699 291.8341179 780.5303659)
(64.8086458 317.1851171 336.2747138)
(-126.4893661 827.0123877 354.2871427)
(69.33741748 491.4848921 121.5858149)
(758.3554578 -124.9288707 537.9115972)
(518.9520662 381.0600658 -845.1382622)
(923.5190456 -399.0103173 -673.2376332)
(745.5478922 313.5859609 332.4487363)
(104.8602377 -204.2136293 236.4599404)
(780.9162822 -548.1996043 722.5048971)
(474.2287506 329.5963062 -109.1446368)
(-536.9593464 433.2440941 -874.2438793)
(1261.163316 566.9685393 429.9371141)
(200.2150617 176.9413587 -1557.518262)
(-179.5097639 983.752185 -89.17891937)
(1668.384941 1289.314882 -1728.232743)
(1054.391778 11.97883654 -235.80975)
(968.0895024 279.9573492 299.2913851)
(627.5361572 1041.251229 683.5860392)
(1211.889231 301.9154646 -728.2505495)
(-180.6957585 -194.3710617 82.44481811)
(541.2995174 368.4046585 637.4220604)
(1742.155094 -354.5943539 -448.1020556)
(765.4316334 -100.1282586 399.2245176)
(918.8192311 -586.2247543 7.059339523)
(1096.758436 188.2792667 673.5320414)
(1615.887668 695.3249446 37.04916674)
(124.8766973 1342.262272 307.5434545)
(1704.960674 202.6426791 -746.494454)
(706.4427519 538.8231086 -111.5063249)
(788.879665 1167.384845 -382.7103351)
(169.129268 330.9226239 -132.2116208)
(-401.1038947 -319.9402657 -54.72274817)