/*--------------------------------*- C++ -*----------------------------------*\
| =========                 |                                                 |
| \\      /  F ield         | OpenFOAM: The Open Source CFD Toolbox           |
|  \\    /   O peration     | Version:  2406                                  |
|   \\  /    A nd           | Website:  www.openfoam.com                      |
|    \\/     M anipulation  |                                                 |
\*---------------------------------------------------------------------------*/
FoamFile
{
    version     2.0;
    format      ascii;
    arch        "LSB;label=32;scalar=64";
    class       volScalarField;
    location    "0.007";
    object      dsmcRhoNMean;
}
// * * * * * * * * * * * * * * * * * * * * * * * * * * * * * * * * * * * * * //

dimensions      [0 -3 0 0 0 0 0];

internalField   nonuniform List<scalar> 
546
(
27.06228571
26.876
26.666
26.61914286
26.10485714
25.744
25.89914286
25.58514286
25.58685714
25.12828571
24.72171429
24.666
23.90514286
24.27771429
24.11028571
23.29085714
22.37
22.84428571
22.61142857
22.13857143
21.89
21.75457143
21.354
20.83628571
19.806
19.12542857
18.34685714
17.506
15.99885714
13.04657143
24.36942857
24.16514286
23.75342857
23.822
23.52514286
23.71228571
23.27542857
23.22257143
22.71485714
22.50542857
22.28742857
22.32514286
22.20428571
22.21428571
22.03885714
21.55028571
20.942
21.11485714
20.70028571
20.34285714
20.02885714
19.60942857
19.43114286
18.92257143
18.28485714
18.01485714
17.13485714
16.06714286
14.41114286
11.97514286
22.94285714
23.10057143
22.948
22.59371429
22.18742857
22.04285714
21.84314286
21.68942857
21.76914286
21.30571429
21.30628571
21.35
21.03828571
20.89314286
20.76714286
19.99914286
20.20371429
19.99228571
19.60942857
19.40457143
18.71257143
18.50514286
18.81942857
17.836
17.108
16.75685714
16.22457143
15.33857143
13.89571429
12.13171429
21.52571429
21.62685714
22.09428571
21.88742857
21.85857143
21.70457143
21.44942857
21.33428571
21.29514286
20.984
20.78742857
20.51428571
20.47971429
20.36285714
19.97742857
19.52
19.27428571
19.23514286
19.09171429
18.90457143
18.46942857
18.17114286
17.73914286
17.27657143
16.888
16.42571429
15.84228571
14.79628571
14.00085714
12.78342857
19.90657143
20.17485714
20.79457143
21.176
21.41371429
21.14685714
20.93285714
20.81457143
21.038
20.67714286
20.52171429
20.53857143
20.35171429
20.096
19.84857143
19.57285714
18.94971429
19.00657143
18.78057143
18.50142857
18.12314286
17.72971429
17.30514286
17.06571429
16.544
16.20028571
15.96771429
14.88828571
13.97114286
12.80542857
18.71314286
19.23228571
19.66114286
20.02257143
20.29857143
20.32114286
20.42028571
20.56257143
20.55971429
20.58457143
20.576
20.18828571
19.84971429
19.86314286
19.64742857
19.57828571
19.00428571
19.12628571
18.84714286
18.55371429
18.15942857
17.55971429
17.25885714
17.23342857
16.75514286
16.20085714
15.54714286
15.00171429
14.38171429
13.02514286
17.02114286
17.86114286
18.41085714
18.88971429
19.46314286
19.93885714
19.97314286
20.14828571
19.99828571
20.16628571
20.24085714
20.35714286
20.19628571
20.07085714
19.70828571
19.36828571
19.236
19.08628571
18.852
18.424
18.15314286
17.79371429
17.44285714
17.138
16.94428571
16.32657143
15.81857143
15.278
14.44657143
13.49
15.31085714
16.17114286
16.97485714
17.786
18.20114286
18.76028571
19.25942857
19.57171429
19.61142857
19.718
19.948
20.126
19.836
19.82628571
19.74914286
19.62342857
19.52057143
19.10571429
18.92828571
18.73771429
18.48628571
17.81371429
17.60571429
17.15228571
16.95942857
16.60514286
16.11485714
15.35885714
14.88085714
14.1
13.95857143
14.71428571
15.45685714
16.158
16.88057143
17.44
18.052
18.40342857
18.83285714
18.97428571
19.14742857
19.50657143
19.704
19.66228571
19.686
19.64228571
19.46085714
19.18571429
18.992
18.82085714
18.532
18.27485714
17.79514286
17.42171429
17.11571429
16.87
16.31571429
15.70057143
15.07485714
14.36657143
12.56142857
13.09428571
13.79228571
14.60171429
15.33285714
15.97942857
16.78
17.27228571
17.79857143
18.33428571
18.64771429
19.10857143
19.08685714
19.32
19.39142857
19.27114286
19.27342857
19.22285714
18.87857143
18.75857143
18.70971429
18.42714286
18.07057143
17.486
17.31371429
16.976
16.51114286
16.05514286
15.36828571
14.65057143
11.80742857
12.34057143
12.86428571
13.50628571
14.09685714
14.73571429
15.42571429
16.23428571
16.874
17.55628571
17.94571429
18.17371429
18.57542857
18.81542857
18.87057143
18.89628571
18.96371429
19.14771429
18.90314286
18.68742857
18.64771429
18.44628571
18.17742857
17.87514286
17.22171429
17.01257143
16.64942857
16.36685714
15.926
15.14657143
11.00142857
11.46857143
11.88314286
12.43771429
13.01171429
13.53085714
14.26714286
14.88142857
15.56171429
16.15742857
16.70885714
17.23057143
17.73857143
18.20285714
18.402
18.58742857
18.60171429
18.73657143
18.858
18.74914286
18.54
18.54257143
18.22114286
17.95171429
17.67914286
17.36228571
17.01542857
16.422
16.15457143
15.75885714
10.42142857
10.66571429
11.11457143
11.45542857
11.92142857
12.48857143
13.03857143
13.56285714
14.07171429
14.60942857
15.20914286
16.07914286
16.75342857
17.28142857
17.72285714
17.98571429
18.14228571
18.38142857
18.53028571
18.62514286
18.48142857
18.58485714
18.32257143
18.24914286
17.97885714
17.68257143
17.33914286
16.96485714
16.53771429
15.95885714
9.882285714
10.13257143
10.36571429
10.78085714
11.12714286
11.49085714
11.86142857
12.39228571
13.00371429
13.69142857
14.38514286
14.82857143
15.31257143
16.04028571
16.65314286
17.228
17.69142857
18.02228571
18.15857143
18.27714286
18.26685714
18.23914286
18.58257143
18.51657143
18.14028571
17.76142857
17.696
17.34257143
16.84
16.25971429
9.786571429
9.923142857
10.04628571
10.10457143
10.42971429
10.74885714
11.11457143
11.506
12.016
12.53314286
13.09257143
13.56628571
14.32485714
14.98514286
15.598
16.332
16.82542857
17.16314286
17.53114286
17.92342857
18.14914286
18.37
18.36885714
18.24
18.23914286
18.02885714
17.88057143
17.57257143
17.18685714
16.69
9.410571429
9.350857143
9.549428571
9.621428571
9.810857143
10.09028571
10.43828571
10.85342857
11.22971429
11.6
12.12228571
12.77142857
13.17228571
13.738
14.40942857
14.93228571
15.57857143
16.12057143
16.57142857
17.07685714
17.37657143
17.544
17.74
18.002
18.04571429
17.91285714
17.758
17.53714286
17.24314286
9.33
9.365714286
9.396571429
9.615142857
9.666
9.850285714
10.05771429
10.31885714
10.52742857
10.88685714
11.254
11.57514286
12.00057143
12.48571429
13.02485714
13.72914286
14.43628571
15.13342857
15.83428571
16.00571429
16.50314286
17.156
17.40028571
17.65771429
17.58171429
9.272
9.336857143
9.370857143
9.355428571
9.433428571
9.471142857
9.526857143
9.623428571
9.881142857
10.13942857
10.34857143
10.77742857
11.29428571
11.83228571
12.28085714
12.72514286
13.25228571
13.89828571
14.45657143
9.154857143
9.138
9.143142857
9.193142857
9.237714286
9.258571429
9.347428571
9.393714286
9.569428571
9.697428571
10.08857143
10.30914286
10.53428571
10.894
9.094285714
9.055714286
9.024285714
9.022
9.068285714
9.044285714
9.112857143
9.247714286
9.000285714
)
;

boundaryField
{
    flow
    {
        type            calculated;
        value           nonuniform List<scalar> 
15
(
13.04657143
11.97514286
12.13171429
12.78342857
12.80542857
13.02514286
13.49
14.1
14.36657143
14.65057143
15.14657143
15.75885714
15.95885714
16.25971429
16.69
)
;
    }
    obstacle
    {
        type            calculated;
        value           nonuniform List<scalar> 
30
(
27.06228571
26.876
26.666
26.61914286
26.10485714
25.744
25.89914286
25.58514286
25.58685714
25.12828571
24.72171429
24.666
23.90514286
24.27771429
24.11028571
23.29085714
22.37
22.84428571
22.61142857
22.13857143
21.89
21.75457143
21.354
20.83628571
19.806
19.12542857
18.34685714
17.506
15.99885714
13.04657143
)
;
    }
    frontAndBack
    {
        type            empty;
    }
    procBoundary1to0
    {
        type            processor;
        value           nonuniform List<scalar> 
21
(
27.61657143
24.43628571
22.96571429
21.22285714
19.60171429
17.74828571
16.27085714
14.55028571
13.22342857
11.94485714
11.32742857
10.66685714
10.23342857
9.828857143
9.654285714
9.458
9.294
9.233714286
9.174571429
9.095142857
9.07
)
;
    }
    procBoundary1to3
    {
        type            processor;
        value           nonuniform List<scalar> 
36
(
16.91428571
17.62342857
17.76342857
17.542
16.91428571
17.35914286
15.10657143
15.65142857
16.09142857
16.558
17.004
17.62342857
17.39628571
11.35171429
11.89114286
12.34628571
12.80114286
15.10657143
13.37771429
9.331714286
9.434857143
9.492857143
9.738571429
9.930571429
11.35171429
10.20028571
8.990285714
8.964285714
8.892
8.920571429
9.036571429
9.055142857
9.331714286
9.096857143
8.990285714
9.094571429
)
;
    }
}


// ************************************************************************* //
