/*--------------------------------*- C++ -*----------------------------------*\
| =========                 |                                                 |
| \\      /  F ield         | OpenFOAM: The Open Source CFD Toolbox           |
|  \\    /   O peration     | Version:  2406                                  |
|   \\  /    A nd           | Website:  www.openfoam.com                      |
|    \\/     M anipulation  |                                                 |
\*---------------------------------------------------------------------------*/
FoamFile
{
    version     2.0;
    format      ascii;
    arch        "LSB;label=32;scalar=64";
    class       volVectorField;
    location    "0.007";
    object      fD;
}
// * * * * * * * * * * * * * * * * * * * * * * * * * * * * * * * * * * * * * //

dimensions      [1 -1 -2 0 0 0 0];

internalField   uniform (0 0 0);

boundaryField
{
    flow
    {
        type            zeroGradient;
    }
    obstacle
    {
        type            calculated;
        value           nonuniform List<vector> 
30
(
(2.186882466 -6.856262029 0.6558683676)
(-0.2069801937 -1.634864493 0.8330962358)
(4.877581533 -8.769051325 -0.8746643409)
(0.7563525953 -2.061120057 -1.306491159)
(2.23149876 -2.318533493 1.153295711)
(3.454497951 -5.40783998 -1.594858587)
(0 0 0)
(0 0 0)
(5.526059677 -4.811799446 -3.004332141)
(4.969289688 -3.557778122 -0.6854276506)
(0 0 0)
(0 0 0)
(1.750676828 -2.900931759 2.061845346)
(0 0 0)
(2.303566148 -2.96630637 0.4550715098)
(0.733639022 -2.958366592 1.755791268)
(0 0 0)
(2.199748377 -4.121778242 -2.627390375)
(6.149988098 -4.89349085 -1.009206234)
(0 0 0)
(4.485777741 -3.570993275 0.7964077096)
(0 0 0)
(1.3332417 -1.415769338 2.036036001)
(0 0 0)
(0 0 0)
(0 0 0)
(1.995344351 -1.54551714 0.6343940514)
(0.6123411504 -1.743625547 0.2660288252)
(2.811766564 -4.340994381 -1.435664371)
(-1.101409442 -1.504151392 0.9738361019)
)
;
    }
    frontAndBack
    {
        type            empty;
    }
    procBoundary1to0
    {
        type            processor;
        value           uniform (0 0 0);
    }
    procBoundary1to3
    {
        type            processor;
        value           uniform (0 0 0);
    }
}


// ************************************************************************* //
