/*--------------------------------*- C++ -*----------------------------------*\
| =========                 |                                                 |
| \\      /  F ield         | OpenFOAM: The Open Source CFD Toolbox           |
|  \\    /   O peration     | Version:  2406                                  |
|   \\  /    A nd           | Website:  www.openfoam.com                      |
|    \\/     M anipulation  |                                                 |
\*---------------------------------------------------------------------------*/
FoamFile
{
    version     2.0;
    format      ascii;
    arch        "LSB;label=32;scalar=64";
    class       volVectorField;
    location    "0.007";
    object      fDMean;
}
// * * * * * * * * * * * * * * * * * * * * * * * * * * * * * * * * * * * * * //

dimensions      [1 -1 -2 0 0 0 0];

internalField   uniform (0 0 0);

boundaryField
{
    flow
    {
        type            calculated;
        value           uniform (0 0 0);
    }
    obstacle
    {
        type            calculated;
        value           nonuniform List<vector> 
30
(
(2.360515689 -2.727766072 -0.003524241284)
(2.360810624 -2.72191334 -0.001082874719)
(2.249440046 -2.719249432 -0.01469663737)
(2.182060116 -2.694873244 0.01285755647)
(2.086889621 -2.648344149 0.0001355899048)
(2.093192125 -2.62309353 0.01250464466)
(2.031227834 -2.647518278 -0.01043854778)
(2.032757767 -2.705649442 0.02221470015)
(1.969132027 -2.661317651 -0.0001021077819)
(1.908209062 -2.605393928 0.03598979841)
(1.857181284 -2.573951674 -0.02048805813)
(1.901012514 -2.588399206 -0.05327785825)
(1.823799859 -2.560743605 -0.03859156207)
(1.825348609 -2.622469633 0.008370593455)
(1.867790006 -2.648502792 -0.0355796089)
(1.771449441 -2.517529438 -0.01075919444)
(1.719770914 -2.488660844 -0.03085675082)
(1.644428474 -2.460026886 0.02671353226)
(1.696044453 -2.496189282 0.001011532854)
(1.704908893 -2.48834291 -0.008034852381)
(1.663547981 -2.45618181 0.02084500089)
(1.570208557 -2.419958732 0.01606940714)
(1.622597013 -2.388399245 -0.02966378584)
(1.620440345 -2.410985712 0.01317024706)
(1.609180997 -2.31366075 -0.004609347838)
(1.540915885 -2.218896154 0.006176826963)
(1.571624965 -2.138400419 0.01185842139)
(1.545301647 -2.020208666 0.006347335142)
(1.478994035 -1.843904902 -0.01907740303)
(1.521460573 -1.652925672 0.01719735233)
)
;
    }
    frontAndBack
    {
        type            empty;
    }
    procBoundary1to0
    {
        type            processor;
        value           uniform (0 0 0);
    }
    procBoundary1to3
    {
        type            processor;
        value           uniform (0 0 0);
    }
}


// ************************************************************************* //
