/*--------------------------------*- C++ -*----------------------------------*\
| =========                 |                                                 |
| \\      /  F ield         | OpenFOAM: The Open Source CFD Toolbox           |
|  \\    /   O peration     | Version:  2406                                  |
|   \\  /    A nd           | Website:  www.openfoam.com                      |
|    \\/     M anipulation  |                                                 |
\*---------------------------------------------------------------------------*/
FoamFile
{
    version     2.0;
    format      ascii;
    arch        "LSB;label=32;scalar=64";
    class       volScalarField;
    location    "0.007";
    object      iDofMean;
}
// * * * * * * * * * * * * * * * * * * * * * * * * * * * * * * * * * * * * * //

dimensions      [0 -3 0 0 0 0 0];

internalField   nonuniform List<scalar> 
546
(
6.071126686e+20
6.073855102e+20
6.071224918e+20
6.105977499e+20
6.033225146e+20
5.995095161e+20
6.0774645e+20
6.050167517e+20
6.097684315e+20
6.035393952e+20
5.984706535e+20
6.01882461e+20
5.880044247e+20
6.020067861e+20
6.027383078e+20
5.87048159e+20
5.685196995e+20
5.854345337e+20
5.843599235e+20
5.770117374e+20
5.754332378e+20
5.768273967e+20
5.711541621e+20
5.622200633e+20
5.391734434e+20
5.253187897e+20
5.084970723e+20
4.896258445e+20
4.515993106e+20
3.7169314e+20
5.467013755e+20
5.461213583e+20
5.408100481e+20
5.46436062e+20
5.437014372e+20
5.521962766e+20
5.461786579e+20
5.491485747e+20
5.413248972e+20
5.40542753e+20
5.395407368e+20
5.447625041e+20
5.461677563e+20
5.508406014e+20
5.509542113e+20
5.431768989e+20
5.322279637e+20
5.411141626e+20
5.349691784e+20
5.302088886e+20
5.265084571e+20
5.199484476e+20
5.197236175e+20
5.105828099e+20
4.97763778e+20
4.948146874e+20
4.749055727e+20
4.493824059e+20
4.067829421e+20
3.411684422e+20
5.146978113e+20
5.220625229e+20
5.224723221e+20
5.18261282e+20
5.127848482e+20
5.133197102e+20
5.125687978e+20
5.128940532e+20
5.187872833e+20
5.117276228e+20
5.157889367e+20
5.209677509e+20
5.174871848e+20
5.180806407e+20
5.191623481e+20
5.04080203e+20
5.134648894e+20
5.123458269e+20
5.067775414e+20
5.057537483e+20
4.919066037e+20
4.906680609e+20
5.03362132e+20
4.812641364e+20
4.657265106e+20
4.602611586e+20
4.496763128e+20
4.290049691e+20
3.922339537e+20
3.456291183e+20
4.829057672e+20
4.887572426e+20
5.030352433e+20
5.020602924e+20
5.051844646e+20
5.054419327e+20
5.033299418e+20
5.044959223e+20
5.0749124e+20
5.040005837e+20
5.032282882e+20
5.005752356e+20
5.037477784e+20
5.049313144e+20
4.994201079e+20
4.92003364e+20
4.898440377e+20
4.929423936e+20
4.933979582e+20
4.927219287e+20
4.855149882e+20
4.818119756e+20
4.744677941e+20
4.661692207e+20
4.597375094e+20
4.511656466e+20
4.390809744e+20
4.138377643e+20
3.952018187e+20
3.641962732e+20
4.465820748e+20
4.559426958e+20
4.734437865e+20
4.857413333e+20
4.949031469e+20
4.924542457e+20
4.912081333e+20
4.922061395e+20
5.013631878e+20
4.96630388e+20
4.967957973e+20
5.011678394e+20
5.005993113e+20
4.983141424e+20
4.9619878e+20
4.93335633e+20
4.815952562e+20
4.870847541e+20
4.85356918e+20
4.822145583e+20
4.764120039e+20
4.70107396e+20
4.62859622e+20
4.604797179e+20
4.503728902e+20
4.449737917e+20
4.425573205e+20
4.164109158e+20
3.943630743e+20
3.64823049e+20
4.198088157e+20
4.346410061e+20
4.476382679e+20
4.592836492e+20
4.691305185e+20
4.732255489e+20
4.791801883e+20
4.862470475e+20
4.899650106e+20
4.944069771e+20
4.981099617e+20
4.926204119e+20
4.882514144e+20
4.925400568e+20
4.911703653e+20
4.934724607e+20
4.829821549e+20
4.901526924e+20
4.87077361e+20
4.835773151e+20
4.773658652e+20
4.655998091e+20
4.616216236e+20
4.650051087e+20
4.561207718e+20
4.449894879e+20
4.30900868e+20
4.195834023e+20
4.059522615e+20
3.710826436e+20
3.818506527e+20
4.036537937e+20
4.191721839e+20
4.332978373e+20
4.498225072e+20
4.64323128e+20
4.686875829e+20
4.764503542e+20
4.7658543e+20
4.843604542e+20
4.89996724e+20
4.967407465e+20
4.967761721e+20
4.976906829e+20
4.926917463e+20
4.881793913e+20
4.8887103e+20
4.891276054e+20
4.872028885e+20
4.80196492e+20
4.772006327e+20
4.718043738e+20
4.66543059e+20
4.624301876e+20
4.61269766e+20
4.484424904e+20
4.384237169e+20
4.273108458e+20
4.077829861e+20
3.843262995e+20
3.434822704e+20
3.654605542e+20
3.86477821e+20
4.079805141e+20
4.20655789e+20
4.368773233e+20
4.519396417e+20
4.628160597e+20
4.673661162e+20
4.735933812e+20
4.829071499e+20
4.911005595e+20
4.87914079e+20
4.916261227e+20
4.937131445e+20
4.946102917e+20
4.961032358e+20
4.896255024e+20
4.891743793e+20
4.883730223e+20
4.859581162e+20
4.723346703e+20
4.708989853e+20
4.628156513e+20
4.616819879e+20
4.560940132e+20
4.466354925e+20
4.295723378e+20
4.200415535e+20
4.017050203e+20
3.131452253e+20
3.325362381e+20
3.519165085e+20
3.706369696e+20
3.901353972e+20
4.061313692e+20
4.23606255e+20
4.351893846e+20
4.488117355e+20
4.557306075e+20
4.635266766e+20
4.75985698e+20
4.846672226e+20
4.875594675e+20
4.921346216e+20
4.950855833e+20
4.945856342e+20
4.916756805e+20
4.908209856e+20
4.905400277e+20
4.871598343e+20
4.845619858e+20
4.75965624e+20
4.700855722e+20
4.659365121e+20
4.633688573e+20
4.522024086e+20
4.391297589e+20
4.255175863e+20
4.092995688e+20
2.81801859e+20
2.959249667e+20
3.140181081e+20
3.349384289e+20
3.543653917e+20
3.721185321e+20
3.937576418e+20
4.084410344e+20
4.241633474e+20
4.403588766e+20
4.514294466e+20
4.662739799e+20
4.694871086e+20
4.790719163e+20
4.847705641e+20
4.85730898e+20
4.898222571e+20
4.926275471e+20
4.878895869e+20
4.889166394e+20
4.918314974e+20
4.88599872e+20
4.833324956e+20
4.718201769e+20
4.713266173e+20
4.662803629e+20
4.576188558e+20
4.49046778e+20
4.338001867e+20
4.173906449e+20
2.648866968e+20
2.788913623e+20
2.928897159e+20
3.098111646e+20
3.257995726e+20
3.431557241e+20
3.619781237e+20
3.838952516e+20
4.021295961e+20
4.216726186e+20
4.344352165e+20
4.434622505e+20
4.569072978e+20
4.665602185e+20
4.717495462e+20
4.762825898e+20
4.819510524e+20
4.907018438e+20
4.885246003e+20
4.870623936e+20
4.902016728e+20
4.891074533e+20
4.861905972e+20
4.823203171e+20
4.688221218e+20
4.672848715e+20
4.614515534e+20
4.577651243e+20
4.495427768e+20
4.315215527e+20
2.468049725e+20
2.591845565e+20
2.70551389e+20
2.852999593e+20
3.007202887e+20
3.150977932e+20
3.347912093e+20
3.519039753e+20
3.708561001e+20
3.880744127e+20
4.044930153e+20
4.204483422e+20
4.363227856e+20
4.51370479e+20
4.600356228e+20
4.684978176e+20
4.727510543e+20
4.801654174e+20
4.873579479e+20
4.886708925e+20
4.873701301e+20
4.916604826e+20
4.873598122e+20
4.843864239e+20
4.812745858e+20
4.768904898e+20
4.715955213e+20
4.593074165e+20
4.559946523e+20
4.489653921e+20
2.337933078e+20
2.410403435e+20
2.53052812e+20
2.627679998e+20
2.755221459e+20
2.908257241e+20
3.059616915e+20
3.207234705e+20
3.353474447e+20
3.508940388e+20
3.681874772e+20
3.923519821e+20
4.120908267e+20
4.285221068e+20
4.43057582e+20
4.53331551e+20
4.610749578e+20
4.710641088e+20
4.788886425e+20
4.854390053e+20
4.858304422e+20
4.927817062e+20
4.900727245e+20
4.924118615e+20
4.894336193e+20
4.856877798e+20
4.805675042e+20
4.744906044e+20
4.668096154e+20
4.546633356e+20
2.216982297e+20
2.289915565e+20
2.360030853e+20
2.472944796e+20
2.571650083e+20
2.675916011e+20
2.783389818e+20
2.930427424e+20
3.098956012e+20
3.288452143e+20
3.482398389e+20
3.618364168e+20
3.766494836e+20
3.977458776e+20
4.163155606e+20
4.342332975e+20
4.496167027e+20
4.618602877e+20
4.692822202e+20
4.763688548e+20
4.80189889e+20
4.836150094e+20
4.97026929e+20
4.996278169e+20
4.938281461e+20
4.878537558e+20
4.904580708e+20
4.850549024e+20
4.753422261e+20
4.632346749e+20
2.195509864e+20
2.242585666e+20
2.28730445e+20
2.317816402e+20
2.410463868e+20
2.5031239e+20
2.608133159e+20
2.720845772e+20
2.863570717e+20
3.010251287e+20
3.169488858e+20
3.310350073e+20
3.523542804e+20
3.715818377e+20
3.899378167e+20
4.116495365e+20
4.276078489e+20
4.398428861e+20
4.530672329e+20
4.671497772e+20
4.770954795e+20
4.870847203e+20
4.913107258e+20
4.921651622e+20
4.96519312e+20
4.951992298e+20
4.955736124e+20
4.914877837e+20
4.851329578e+20
4.754933936e+20
2.111158376e+20
2.113251637e+20
2.174181676e+20
2.206991668e+20
2.267436656e+20
2.349760072e+20
2.449436713e+20
2.566530961e+20
2.676188518e+20
2.786126002e+20
2.934599167e+20
3.116394549e+20
3.240040143e+20
3.406568316e+20
3.602244564e+20
3.763696114e+20
3.959197499e+20
4.131247244e+20
4.282647907e+20
4.450850449e+20
4.567865168e+20
4.651831428e+20
4.744907213e+20
4.857432703e+20
4.912536534e+20
4.920130452e+20
4.921764479e+20
4.904968809e+20
4.867217287e+20
2.093083061e+20
2.1166093e+20
2.139379693e+20
2.205549832e+20
2.233957991e+20
2.293870416e+20
2.360132202e+20
2.440119799e+20
2.508824563e+20
2.614841014e+20
2.724402007e+20
2.824485331e+20
2.951828886e+20
3.096042997e+20
3.256112525e+20
3.460442841e+20
3.668892626e+20
3.878270405e+20
4.092143913e+20
4.171671603e+20
4.338262611e+20
4.54895227e+20
4.654043996e+20
4.764535027e+20
4.786223138e+20
2.080071413e+20
2.110087715e+20
2.13352512e+20
2.145975787e+20
2.180207236e+20
2.205578112e+20
2.235561881e+20
2.275670515e+20
2.354806203e+20
2.435321153e+20
2.50521311e+20
2.629832655e+20
2.778100945e+20
2.934014385e+20
3.070118362e+20
3.207383788e+20
3.367986357e+20
3.561738139e+20
3.736093427e+20
2.053791699e+20
2.065146896e+20
2.08167993e+20
2.108750227e+20
2.13497472e+20
2.156075845e+20
2.193457335e+20
2.221349522e+20
2.280520592e+20
2.329160146e+20
2.442271551e+20
2.515564854e+20
2.591160663e+20
2.70135065e+20
2.040203149e+20
2.04655068e+20
2.054618922e+20
2.069492974e+20
2.095817245e+20
2.106174399e+20
2.138413077e+20
2.186824641e+20
2.019115296e+20
)
;

boundaryField
{
    flow
    {
        type            calculated;
        value           nonuniform List<scalar> 
15
(
3.7169314e+20
3.411684422e+20
3.456291183e+20
3.641962732e+20
3.64823049e+20
3.710826436e+20
3.843262995e+20
4.017050203e+20
4.092995688e+20
4.173906449e+20
4.315215527e+20
4.489653921e+20
4.546633356e+20
4.632346749e+20
4.754933936e+20
)
;
    }
    obstacle
    {
        type            calculated;
        value           nonuniform List<scalar> 
30
(
267.0366958
269.2813185
272.6729765
276.0839024
270.5791584
262.0046951
271.966871
256.282226
278.7690323
261.2314056
256.8617876
266.9880612
252.9402121
264.8569294
268.9935444
249.9993986
247.9128069
246.8732316
256.3956162
262.1696428
245.6523358
237.2082735
250.3640094
248.6855602
237.0409671
219.5104888
220.2819532
219.2599716
193.7750373
172.2919361
)
;
    }
    frontAndBack
    {
        type            empty;
    }
    procBoundary1to0
    {
        type            processor;
        value           nonuniform List<scalar> 
21
(
6.150394027e+20
5.442123258e+20
5.114617226e+20
4.726471356e+20
4.365432069e+20
3.952661206e+20
3.623628039e+20
3.240445345e+20
2.94494544e+20
2.660199084e+20
2.522693637e+20
2.375579999e+20
2.279052565e+20
2.188951803e+20
2.150073601e+20
2.106359468e+20
2.069835578e+20
2.056409549e+20
2.043238056e+20
2.02554877e+20
2.019949289e+20
)
;
    }
    procBoundary1to3
    {
        type            processor;
        value           nonuniform List<scalar> 
36
(
4.818832303e+20
4.840633095e+20
4.923269092e+20
4.906327305e+20
4.818832303e+20
4.899960576e+20
3.937322254e+20
4.114368308e+20
4.266678816e+20
4.428758378e+20
4.588144966e+20
4.840633095e+20
4.735744331e+20
2.837839882e+20
2.997173284e+20
3.137732067e+20
3.280571436e+20
3.937322254e+20
3.457278281e+20
2.223870153e+20
2.26609488e+20
2.298059237e+20
2.376338009e+20
2.442662649e+20
2.837839882e+20
2.529332518e+20
2.031764146e+20
2.040958339e+20
2.03967319e+20
2.061678236e+20
2.104377946e+20
2.124869922e+20
2.223870153e+20
2.151151164e+20
2.031764146e+20
2.040267246e+20
)
;
    }
}


// ************************************************************************* //
