/*--------------------------------*- C++ -*----------------------------------*\
| =========                 |                                                 |
| \\      /  F ield         | OpenFOAM: The Open Source CFD Toolbox           |
|  \\    /   O peration     | Version:  2406                                  |
|   \\  /    A nd           | Website:  www.openfoam.com                      |
|    \\/     M anipulation  |                                                 |
\*---------------------------------------------------------------------------*/
FoamFile
{
    version     2.0;
    format      ascii;
    arch        "LSB;label=32;scalar=64";
    class       volScalarField;
    location    "0.007";
    object      iDof;
}
// * * * * * * * * * * * * * * * * * * * * * * * * * * * * * * * * * * * * * //

dimensions      [0 -3 0 0 0 0 0];

internalField   nonuniform List<scalar> 
546
(
7.178848676e+20
5.649887541e+20
5.691915658e+20
4.817041937e+20
5.777876042e+20
6.520457758e+20
5.397154812e+20
5.20238195e+20
5.719515404e+20
4.803665495e+20
5.083742809e+20
5.368285957e+20
7.133246774e+20
4.215436117e+20
4.999843759e+20
7.057425303e+20
6.60773902e+20
6.663065795e+20
6.719326893e+20
3.648909483e+20
7.88624812e+20
8.484872595e+20
4.27951044e+20
9.44395872e+20
5.716773862e+20
5.493406725e+20
5.265994224e+20
3.915664243e+20
3.387236775e+20
1.424485897e+20
5.608475532e+20
6.101878545e+20
5.008885779e+20
4.358276038e+20
4.853415875e+20
4.65746983e+20
4.458519192e+20
7.567101018e+20
7.626020538e+20
5.524215315e+20
5.3258258e+20
4.392233965e+20
5.65740261e+20
6.199170755e+20
4.749851568e+20
7.057425303e+20
6.861882829e+20
6.406794029e+20
6.202455589e+20
7.297818972e+20
5.257498751e+20
6.893958989e+20
3.209632833e+20
3.507756096e+20
4.083409901e+20
3.845384711e+20
5.265994228e+20
5.314115763e+20
7.056743281e+20
2.564074614e+20
6.505831612e+20
5.649887541e+20
5.691915658e+20
3.440744241e+20
6.240106129e+20
4.191722844e+20
4.693178094e+20
4.256494323e+20
5.004575982e+20
5.04384877e+20
6.052074768e+20
4.148220967e+20
5.903376636e+20
3.471535623e+20
5.749820323e+20
3.780763555e+20
2.795581893e+20
6.66306579e+20
4.651841695e+20
5.734000621e+20
5.520373679e+20
4.507588566e+20
4.814449249e+20
8.634476544e+20
5.716773862e+20
4.120055044e+20
5.820309405e+20
5.034425455e+20
3.104967044e+20
3.703663334e+20
4.935458465e+20
4.51991003e+20
5.919592285e+20
7.340254386e+20
5.777876042e+20
3.958849353e+20
7.27442605e+20
5.438853857e+20
5.719515404e+20
5.04384877e+20
4.357493837e+20
4.392233962e+20
6.149350663e+20
5.207303438e+20
4.499859384e+20
5.545119881e+20
5.082876169e+20
5.381706984e+20
4.651841692e+20
5.212727837e+20
3.154499251e+20
5.568197645e+20
8.291551478e+20
6.745684794e+20
5.172319208e+20
4.39472538e+20
5.543151819e+20
2.517212732e+20
4.234045973e+20
5.128149214e+20
3.365085317e+20
4.971901033e+20
4.781209149e+20
2.98197834e+20
6.240106125e+20
6.287584271e+20
4.693178097e+20
6.384741484e+20
5.481202262e+20
3.842932393e+20
2.904995891e+20
6.832363951e+20
5.165454561e+20
6.19917076e+20
4.249867196e+20
6.805374399e+20
4.066300939e+20
3.3315329e+20
2.584356497e+20
4.952091441e+20
3.417374182e+20
4.242436294e+20
5.884326855e+20
4.317238272e+20
6.261228526e+20
3.570714365e+20
6.374624564e+20
5.034425473e+20
3.66950651e+20
2.848971801e+20
2.467729236e+20
4.745905538e+20
4.325855903e+20
6.193339638e+20
6.933451255e+20
3.493102373e+20
4.693178097e+20
3.783550509e+20
5.481202262e+20
3.122382569e+20
4.357493833e+20
7.320389936e+20
5.165454552e+20
2.97560196e+20
3.999875004e+20
5.545119881e+20
4.574588552e+20
5.894250506e+20
3.618099096e+20
4.95209145e+20
5.783248626e+20
3.977284039e+20
4.814449274e+20
4.856893056e+20
5.989001147e+20
4.120055044e+20
4.98883666e+20
3.076593339e+20
3.951776227e+20
3.41876613e+20
3.813763359e+20
5.423892036e+20
3.870502645e+20
2.064446543e+20
3.466725625e+20
3.260228881e+20
4.927837002e+20
6.148269577e+20
5.24288912e+20
4.56348222e+20
3.631244867e+20
5.124272963e+20
4.673506507e+20
4.959336608e+20
5.749820319e+20
2.520509035e+20
3.812157127e+20
7.431881073e+20
3.618099108e+20
5.212727877e+20
7.360498301e+20
5.568197674e+20
5.349388064e+20
4.047410908e+20
2.722273301e+20
4.12005508e+20
3.048733514e+20
5.873496375e+20
5.645394661e+20
2.848971827e+20
3.365085317e+20
3.163937023e+20
3.87050265e+20
3.670127193e+20
3.697840667e+20
4.191722844e+20
3.989201383e+20
3.310606695e+20
5.004575982e+20
5.524215319e+20
5.809991778e+20
4.148220964e+20
6.395324689e+20
3.471535626e+20
5.999812526e+20
3.276661756e+20
5.337019969e+20
4.356619918e+20
4.651841672e+20
4.691455034e+20
5.783248577e+20
4.242436251e+20
3.209632811e+20
5.396547831e+20
7.350137784e+20
4.394725342e+20
4.434521396e+20
3.356283613e+20
5.363124879e+20
3.133868952e+20
2.916407277e+20
3.163937023e+20
2.732119514e+20
2.981978342e+20
4.391185795e+20
3.958849356e+20
4.927837002e+20
3.547078602e+20
4.766262837e+20
2.882199295e+20
3.147078875e+20
5.368285962e+20
6.395324699e+20
5.207303447e+20
6.499796893e+20
4.788967139e+20
7.116026625e+20
6.150522288e+20
5.42714864e+20
7.558455333e+20
2.891624313e+20
5.303045403e+20
5.081918661e+20
4.856893048e+20
4.627864531e+20
4.944066053e+20
6.097467028e+20
4.475044857e+20
2.822697305e+20
3.703663341e+20
1.570373148e+20
2.711946018e+20
3.187472769e+20
2.981978342e+20
3.466725625e+20
3.260228879e+20
3.754542472e+20
4.256494329e+20
4.051323408e+20
3.12238256e+20
5.325825821e+20
4.148220964e+20
4.673506485e+20
3.719502456e+20
7.249773428e+20
3.528712657e+20
3.303869532e+20
4.356619954e+20
5.944019939e+20
5.212727859e+20
5.520373688e+20
5.03789309e+20
4.814449258e+20
3.50775609e+20
3.811182588e+20
5.218736389e+20
4.434521436e+20
3.635973946e+20
3.951776227e+20
4.55835484e+20
2.467729232e+20
2.711946012e+20
2.959796129e+20
2.523212438e+20
5.315645958e+20
4.191722854e+20
3.519883589e+20
4.965910066e+20
5.48120227e+20
5.043848758e+20
3.631244844e+20
4.880259958e+20
3.443636385e+20
2.975601965e+20
4.499859405e+20
3.528712657e+20
3.558013284e+20
4.356619918e+20
6.719326888e+20
3.127636689e+20
4.205999001e+20
7.689415835e+20
5.88432687e+20
6.206030006e+20
3.811182555e+20
2.746703363e+20
2.771575922e+20
5.314115768e+20
3.951776263e+20
4.27345774e+20
1.794712175e+20
2.711946032e+20
2.959796157e+20
3.440744248e+20
3.235610581e+20
2.328734905e+20
2.346589031e+20
2.837662852e+20
4.051323386e+20
4.563482245e+20
4.115410887e+20
5.124272995e+20
3.93558444e+20
4.215436117e+20
5.499828118e+20
5.293068986e+20
4.066300962e+20
4.612891716e+20
6.719326888e+20
2.085091126e+20
4.994623771e+20
4.242436251e+20
3.477102182e+20
4.587065656e+20
5.444546602e+20
6.042747451e+20
5.543151844e+20
4.475044857e+20
3.669506496e+20
5.128149195e+20
2.243390205e+20
1.807964001e+20
2.049089632e+20
3.211361299e+20
2.773380498e+20
2.561608414e+20
3.754542506e+20
4.49296625e+20
2.859757706e+20
1.921466194e+20
3.873327834e+20
2.928155952e+20
3.443636357e+20
5.207303438e+20
3.249898433e+20
5.293068943e+20
4.574588545e+20
3.84407643e+20
5.168712991e+20
4.952091466e+20
2.628749398e+20
3.712131782e+20
2.139755226e+20
3.777583482e+20
5.444546507e+20
3.296044006e+20
4.711679026e+20
2.517212732e+20
5.080855149e+20
3.41876613e+20
3.140746287e+20
1.581968513e+20
3.187472762e+20
5.275807809e+20
1.61780529e+20
1.862987924e+20
3.05056574e+20
3.783550498e+20
3.098070848e+20
1.921466194e+20
3.389161854e+20
3.172168972e+20
2.951688306e+20
3.22356877e+20
3.999874995e+20
3.528712657e+20
5.337019969e+20
4.100348158e+20
4.393406042e+20
3.648909471e+20
4.468873901e+20
3.712131751e+20
6.151796274e+20
4.047410873e+20
6.261228483e+20
4.669395717e+20
6.097466974e+20
5.593806021e+20
3.387236766e+20
4.843252062e+20
1.12169511e+20
2.485950538e+20
2.276766275e+20
2.981978349e+20
3.466725648e+20
3.725975875e+20
2.815906858e+20
2.837662895e+20
3.574697133e+20
2.642016016e+20
2.904995898e+20
2.928155997e+20
3.443636385e+20
3.223568795e+20
5.499828162e+20
4.788967178e+20
5.845307585e+20
5.12543524e+20
4.65184173e+20
3.648909501e+20
4.468873938e+20
3.446979512e+20
7.221673886e+20
5.126720439e+20
6.805683193e+20
4.12005508e+20
5.265994252e+20
4.754735161e+20
4.234045996e+20
3.418766161e+20
2.243390205e+20
1.807964001e+20
2.73211951e+20
2.293829499e+20
1.848920332e+20
2.561608414e+20
3.050565786e+20
3.074134802e+20
3.098070872e+20
2.161649484e+20
3.147078865e+20
3.416181944e+20
3.689610383e+20
2.231701474e+20
2.249929685e+20
3.528712657e+20
4.574588582e+20
4.100348192e+20
6.202455589e+20
3.127636716e+20
5.257498795e+20
3.181827242e+20
4.279510451e+20
5.396547831e+20
4.355637205e+20
5.493406677e+20
5.543151795e+20
5.593806071e+20
4.234045957e+20
2.243390205e+20
3.163937025e+20
2.959796157e+20
1.835063599e+20
3.004495539e+20
2.095861414e+20
1.642612322e+20
2.128247139e+20
2.144818263e+20
2.40183276e+20
1.694580953e+20
2.928155997e+20
4.427532494e+20
1.983734643e+20
3.999874995e+20
4.284865335e+20
5.337019969e+20
4.100348192e+20
5.68558429e+20
4.430818643e+20
5.520373642e+20
5.303045313e+20
4.012041014e+20
4.587065696e+20
3.811182621e+20
1.794712177e+20
2.259955018e+20
1.366059745e+20
2.293829482e+19
2.311150415e+20
4.19172286e+20
1.40795344e+20
1.891775263e+20
4.051323417e+20
2.401832742e+20
3.147078865e+20
2.928155975e+20
2.705714302e+20
3.967469286e+20
4.749851594e+20
2.016407249e+20
3.812157121e+20
6.663065757e+20
5.168712991e+20
1.570373155e+20
2.711946022e+20
1.82141302e+20
2.981978349e+20
2.311150415e+20
2.561608395e+20
1.407953419e+20
3.310606685e+20
2.383131422e+20
3.362565839e+20
2.420829915e+20
2.684142977e+20
2.21376623e+20
1.735767813e+20
3.365085307e+20
6.779865006e+19
2.504442884e+20
2.523212449e+20
1.386690259e+20
2.09586143e+20
2.346589049e+20
1.655303355e+20
2.692068265e+20
)
;

boundaryField
{
    flow
    {
        type            zeroGradient;
    }
    obstacle
    {
        type            calculated;
        value           nonuniform List<scalar> 
30
(
303.3281357
155.7467527
706.1384402
277.688441
79.69538032
437.4849963
1e-300
1e-300
426.132233
660.0850605
1e-300
1e-300
79.2589347
1e-300
281.7273593
308.736537
1e-300
1289.654847
151.5058884
1e-300
580.4169202
1e-300
125.6290571
1e-300
1e-300
1e-300
121.9970772
165.4873743
231.7191446
182.020839
)
;
    }
    frontAndBack
    {
        type            empty;
    }
    procBoundary1to0
    {
        type            processor;
        value           nonuniform List<scalar> 
21
(
6.013079471e+20
6.681199412e+20
4.899546236e+20
5.122252883e+20
2.895186414e+20
4.00871965e+20
2.227066471e+20
5.122252883e+20
3.786013e+20
2.227066471e+20
2.227066471e+20
1.11353324e+20
1.781653177e+20
1.781653164e+20
1.781653177e+20
2.672479765e+20
8.908265883e+19
1.55894653e+20
2.227066487e+20
1.336239882e+20
1.113533235e+20
)
;
    }
    procBoundary1to3
    {
        type            processor;
        value           nonuniform List<scalar> 
36
(
5.413046422e+20
4.944066096e+20
5.265994252e+20
4.754735161e+20
5.413046422e+20
6.492203801e+20
2.867000299e+20
3.417374188e+20
5.303045403e+20
5.349388064e+20
3.50775609e+20
4.944066096e+20
3.811182555e+20
3.749882808e+20
4.032814433e+20
4.066300929e+20
2.56271762e+20
2.867000299e+20
4.134970393e+20
1.668191995e+20
2.88219929e+20
2.178746906e+20
2.196116981e+20
3.93558444e+20
3.749882808e+20
3.223568795e+20
2.259955035e+20
2.049089647e+20
3.211361299e+20
1.61780529e+20
1.630114445e+20
2.346589066e+20
1.668191995e+20
2.128247171e+20
2.259955035e+20
2.916407266e+20
)
;
    }
}


// ************************************************************************* //
