/*--------------------------------*- C++ -*----------------------------------*\
| =========                 |                                                 |
| \\      /  F ield         | OpenFOAM: The Open Source CFD Toolbox           |
|  \\    /   O peration     | Version:  2406                                  |
|   \\  /    A nd           | Website:  www.openfoam.com                      |
|    \\/     M anipulation  |                                                 |
\*---------------------------------------------------------------------------*/
FoamFile
{
    version     2.0;
    format      ascii;
    arch        "LSB;label=32;scalar=64";
    class       volScalarField;
    location    "0.007";
    object      internalEMean;
}
// * * * * * * * * * * * * * * * * * * * * * * * * * * * * * * * * * * * * * //

dimensions      [1 -1 -2 0 0 0 0];

internalField   nonuniform List<scalar> 
546
(
2.96048843
2.949713979
2.925597384
2.953068174
2.911902295
2.901009375
3.015938834
2.908076573
2.907760223
2.864810691
2.861661089
2.885439366
2.822850458
2.927736264
2.918744377
2.822238892
2.675942065
2.754524781
2.739069293
2.725813695
2.697770341
2.669219059
2.639205674
2.595978513
2.459536164
2.402594834
2.346139525
2.303563478
2.077259993
1.693870375
2.850938059
2.895524607
2.858943252
2.873524698
2.900461305
2.984609347
2.935527135
2.91310414
2.869004552
2.895140138
2.870443483
2.90747221
2.924527677
2.961267248
2.960147375
2.865227004
2.754446921
2.805279819
2.786841625
2.7481074
2.7420861
2.660202631
2.666602009
2.570064835
2.532157519
2.469838483
2.369984759
2.265069074
2.037829249
1.725485859
2.737443177
2.805482087
2.860818359
2.859223357
2.868161071
2.849094206
2.83679715
2.8695868
2.877693642
2.853650169
2.877600332
2.883183128
2.858293988
2.905834628
2.879104918
2.810047661
2.872095551
2.792590674
2.742560818
2.777299713
2.67897273
2.661024023
2.714296476
2.579829422
2.497848018
2.429390942
2.356786611
2.265191213
2.061854796
1.831845845
2.423960567
2.525111007
2.701459391
2.695247631
2.748738661
2.788457873
2.77743315
2.782295837
2.838169639
2.849765682
2.867816564
2.866466295
2.879824716
2.892521377
2.819947303
2.790076898
2.760677151
2.738934373
2.778348683
2.757701935
2.744194424
2.717403428
2.632914073
2.564061225
2.570323707
2.479037981
2.451711119
2.219888202
2.08272129
1.908540355
2.115097811
2.242185109
2.396323076
2.492999203
2.586752555
2.615909988
2.631853803
2.683370826
2.772070471
2.749341917
2.796141599
2.811261845
2.836194393
2.827097161
2.832081894
2.774253049
2.714805138
2.741799093
2.751196264
2.744584873
2.69274919
2.668851297
2.624036311
2.644269911
2.570156972
2.487115829
2.474804061
2.304587004
2.164383212
1.967749374
1.886378981
1.996017919
2.123345973
2.253050923
2.33682557
2.438493726
2.51081397
2.585105569
2.630943532
2.692143906
2.735153717
2.693896145
2.688459581
2.753026961
2.786934501
2.790087846
2.763122739
2.781772513
2.778832208
2.739859776
2.683936996
2.641344792
2.664913963
2.696684154
2.58433283
2.491357687
2.416678686
2.331413579
2.229487392
2.026882805
1.581022719
1.718031512
1.870923003
1.995547072
2.144986029
2.265383129
2.337212017
2.397738892
2.441739817
2.512157757
2.591463896
2.691697004
2.707768344
2.743879829
2.73646551
2.72231103
2.748984682
2.773939699
2.746817536
2.713545157
2.701864528
2.636147689
2.634848865
2.622456892
2.598816278
2.517509893
2.426634303
2.383630414
2.29406326
2.105549509
1.311318084
1.454570073
1.589659659
1.736632387
1.855417718
1.996405358
2.143466431
2.214279102
2.273574789
2.34789343
2.42789425
2.501083513
2.537746876
2.61248596
2.656406324
2.649775776
2.711790241
2.719628492
2.73051941
2.735236303
2.712826036
2.607504699
2.593240548
2.582929972
2.607917774
2.568026935
2.497522608
2.396875812
2.342655265
2.227395247
1.091919947
1.226226912
1.341162786
1.463500459
1.605187182
1.733116318
1.855173105
1.96422891
2.070779785
2.15180331
2.238402968
2.340655856
2.406336012
2.468494955
2.554629911
2.589955313
2.627230628
2.631936184
2.658005719
2.72585376
2.709384656
2.703726061
2.645143087
2.59440395
2.559184163
2.565365158
2.534299483
2.457931626
2.348670677
2.25170211
0.8888382962
0.9766652253
1.102983988
1.21522153
1.347534607
1.475624623
1.624827248
1.746300003
1.867757017
1.96569016
2.059616165
2.184613244
2.238102167
2.314788577
2.397852073
2.4625039
2.520733828
2.578948971
2.594003345
2.60966954
2.633983333
2.651680626
2.645734076
2.612767187
2.590987663
2.541162082
2.50128369
2.45830657
2.354607896
2.254466709
0.7788922649
0.8604273193
0.9464452267
1.046279898
1.121711861
1.216567329
1.339344617
1.494778013
1.614965783
1.777301922
1.879708858
1.968993237
2.083346417
2.17237349
2.230008146
2.293583588
2.381931101
2.479660493
2.485893437
2.509012594
2.56091142
2.585671503
2.588099362
2.617527426
2.533679001
2.535066387
2.471809053
2.453499865
2.439838068
2.321936229
0.6774162837
0.7390862981
0.8009457652
0.8836630337
0.9537788224
1.041296524
1.161025973
1.268740669
1.375612864
1.494668647
1.634300179
1.763790236
1.881141665
2.007003846
2.105103396
2.169301439
2.213766976
2.318717707
2.394729104
2.429345282
2.470481713
2.5274343
2.522136835
2.503722514
2.522324037
2.511400324
2.486700171
2.44187399
2.425494707
2.390959681
0.5919503033
0.6348097138
0.706610133
0.7626123742
0.8340053457
0.9062542682
0.9834595807
1.089695255
1.19252331
1.292919815
1.376407438
1.547669909
1.680941772
1.801803631
1.931334279
2.018125816
2.093532261
2.179858092
2.256878562
2.335838214
2.349874973
2.433447012
2.465052184
2.514299931
2.476305853
2.478533186
2.48048235
2.452240187
2.427930862
2.381918553
0.5405042034
0.5732795043
0.6120791017
0.6809505168
0.7311719612
0.8020819911
0.8539117238
0.9278383243
1.010852637
1.118615264
1.232012267
1.327872313
1.424323749
1.571917187
1.696891298
1.820128221
1.943229161
2.043101037
2.126811218
2.194761335
2.240974335
2.292622887
2.409960508
2.447967961
2.470147484
2.458108614
2.490351213
2.47206488
2.444268359
2.382948748
0.5090589083
0.532039718
0.5601565886
0.5805797753
0.6315691287
0.6849780363
0.7387645189
0.7961578765
0.8759299223
0.9586025594
1.062248388
1.152250716
1.253743902
1.365797063
1.486532213
1.616991721
1.743546158
1.827572812
1.946830141
2.061825397
2.139428656
2.225932923
2.282093632
2.314287963
2.374567915
2.404132282
2.433570313
2.439169469
2.3964917
2.355964234
0.4858273294
0.4949032824
0.5190775219
0.5457765923
0.5718417791
0.6123048959
0.6589964818
0.7175160676
0.7687664147
0.8296116928
0.895061989
0.9910230553
1.081120199
1.161564104
1.287783646
1.384541597
1.531187913
1.631541619
1.733270608
1.840195288
1.946635176
2.029514474
2.097018179
2.199191378
2.276635965
2.319596909
2.339081065
2.364279021
2.353488176
0.4656550081
0.4723818851
0.4887278004
0.5153511865
0.5393260953
0.5670655519
0.6037286222
0.6234659894
0.6586564797
0.7122482324
0.7703767539
0.8228064906
0.9125278917
1.001414165
1.090106757
1.206594251
1.318793119
1.447521428
1.573229486
1.644244351
1.734196445
1.871643993
1.985406562
2.056512154
2.103507975
0.459555421
0.4698056702
0.482609841
0.4986794766
0.5127284259
0.5212209387
0.543803977
0.5721618689
0.5996280154
0.6379052448
0.6885348028
0.7405295305
0.7977886407
0.888953035
0.954874462
1.02549643
1.129119954
1.251723502
1.352694961
0.4439283724
0.4518406859
0.4618296344
0.4743111727
0.4919333581
0.5032896154
0.5192065236
0.5312489872
0.5726466001
0.5924470621
0.6330941714
0.6758714058
0.7134164214
0.7729936283
0.442158738
0.4483034935
0.4497680536
0.4594507368
0.4719186546
0.4815630468
0.4932969003
0.5102331021
0.4284057882
)
;

boundaryField
{
    flow
    {
        type            calculated;
        value           nonuniform List<scalar> 
15
(
1.693870375
1.725485859
1.831845845
1.908540355
1.967749374
2.026882805
2.105549509
2.227395247
2.25170211
2.254466709
2.321936229
2.390959681
2.381918553
2.382948748
2.355964234
)
;
    }
    obstacle
    {
        type            calculated;
        value           nonuniform List<scalar> 
30
(
1.169335824e-18
1.153131012e-18
1.175238421e-18
1.206425898e-18
1.193451173e-18
1.137803003e-18
1.175223162e-18
1.154869898e-18
1.229445267e-18
1.10684721e-18
1.133080958e-18
1.138675322e-18
1.07843622e-18
1.134225445e-18
1.199508337e-18
1.087508503e-18
1.07102649e-18
1.076249534e-18
1.084223731e-18
1.031424533e-18
1.080641968e-18
9.636150857e-19
1.050144256e-18
1.110581681e-18
1.019363167e-18
9.152501042e-19
9.287997836e-19
9.277688901e-19
8.212529956e-19
7.299743435e-19
)
;
    }
    frontAndBack
    {
        type            empty;
    }
    procBoundary1to0
    {
        type            processor;
        value           nonuniform List<scalar> 
21
(
2.97611081
2.830125584
2.645535337
2.308765642
2.018912294
1.728904942
1.420216412
1.157391852
0.9733587773
0.7936604166
0.7085636858
0.6147394912
0.5553499893
0.5106531212
0.4996430708
0.4737289302
0.4558616523
0.447081385
0.4387678096
0.4369185131
0.4301546604
)
;
    }
    procBoundary1to3
    {
        type            processor;
        value           nonuniform List<scalar> 
36
(
2.333406338
2.165216652
2.253376302
2.297054835
2.333406338
2.309353884
1.46569999
1.586983314
1.690271389
1.805242062
1.916916333
2.165216652
2.021310634
0.8387418381
0.9087485727
0.9993108041
1.073155848
1.46569999
1.18421855
0.5279901433
0.5492339801
0.5707527842
0.5988649549
0.6370946781
0.8387418381
0.6802182698
0.4305761425
0.4386767131
0.4409324851
0.4501298769
0.4636146458
0.4732689707
0.5279901433
0.4850732177
0.4305761425
0.4284301859
)
;
    }
}


// ************************************************************************* //
