/*--------------------------------*- C++ -*----------------------------------*\
| =========                 |                                                 |
| \\      /  F ield         | OpenFOAM: The Open Source CFD Toolbox           |
|  \\    /   O peration     | Version:  2406                                  |
|   \\  /    A nd           | Website:  www.openfoam.com                      |
|    \\/     M anipulation  |                                                 |
\*---------------------------------------------------------------------------*/
FoamFile
{
    version     2.0;
    format      ascii;
    arch        "LSB;label=32;scalar=64";
    class       volScalarField;
    location    "0.007";
    object      internalT;
}
// * * * * * * * * * * * * * * * * * * * * * * * * * * * * * * * * * * * * * //

dimensions      [1 2 -2 0 0 0 0];

internalField   nonuniform List<scalar> 
546
(
706.3833778
703.4963972
698.046952
700.5911905
699.1553169
700.9700291
718.8636062
696.2814686
690.780474
687.6013234
692.662598
694.4590836
695.4304073
704.4934566
701.4773702
696.4123117
681.8323255
681.5767153
678.9987802
684.3179314
679.1354966
670.3239498
669.3700687
668.8691292
660.8016487
662.5276417
668.3620426
681.5257184
666.3217428
660.1490842
755.4122333
768.0411634
765.7855749
761.7666929
772.7748747
782.9615215
778.5701907
768.4445736
767.7496616
775.8646049
770.6747994
773.1339833
775.6683601
778.749997
778.2949723
764.1245321
749.6924157
750.9891887
754.6228052
750.8152687
754.4355318
741.1409863
743.2452594
729.1624389
736.9089426
723.0567246
722.9107548
730.149486
725.6905316
732.6371732
770.4406518
778.4511792
793.1829933
799.1820417
810.2419989
804.0170666
801.7196257
810.472159
803.5291448
807.8082224
808.1739556
801.6924359
800.1173632
812.4935632
803.342423
807.5333051
810.2789015
789.5697086
783.9444779
795.4814151
788.9183149
785.6107262
781.129682
776.5222251
776.9292075
764.6091308
759.2182683
764.8723192
761.4813833
767.7591461
727.1258038
748.3998081
777.9405841
777.6589896
788.1880799
799.1700817
799.3504925
798.8993064
810.1327671
819.0765856
825.529735
829.5143006
828.1315093
829.8329408
817.9398489
821.4752804
816.40225
804.8813329
815.7100241
810.7590988
818.763803
817.0016377
803.8524607
796.766735
809.8867271
795.9642378
808.8557473
777.0471687
763.4113639
759.1231719
686.0812762
712.3732446
733.2015039
743.470049
757.148506
769.4905812
776.1445465
789.7325993
800.9367515
801.9399739
815.3191553
812.5769575
820.7145725
821.8336512
826.7924723
814.6104655
816.5877497
815.4127363
821.120221
824.4849755
818.765636
822.3821797
821.2340401
831.8435921
826.6731009
809.6698685
810.0609361
801.7101856
795.031455
781.3289438
650.9142703
665.2427296
687.1316527
710.618356
721.5708969
746.4485133
759.0354871
770.1364955
777.8446303
788.7876068
795.4317279
792.16353
797.6390361
809.6835329
821.9416817
819.0329139
828.734637
822.1226574
826.4389513
820.7460764
814.4554886
821.7859295
836.2640872
840.0763478
820.7577506
811.0221788
812.4337216
804.9101797
795.5664389
791.2330049
599.778608
616.55026
646.5615254
667.1474859
690.7639818
706.7531355
722.3722619
729.0052099
742.1727807
751.3194452
766.1227955
784.951428
789.5818348
798.6416861
804.5649152
807.8015826
814.5625066
821.5258629
816.7071456
818.5862937
820.1795889
809.3831775
818.1075016
821.5019132
816.1443664
813.2252012
801.7827184
808.0558907
814.934467
793.6184428
553.0318251
576.5547278
595.8349525
616.6161192
638.9416927
661.9659068
687.0409888
693.0592101
704.6905055
718.1565979
728.303722
737.7414125
753.4446444
769.7778537
779.4104314
776.0547746
791.8272292
804.6220885
808.5892512
811.3151481
808.6665952
799.6900149
797.7401445
808.4459559
818.2713797
815.6270139
810.0327812
808.2684446
807.9091499
803.2235396
505.1163242
534.1684857
552.0625062
571.9927512
596.0143629
618.1695013
634.4077411
653.8230152
668.3687114
683.9758568
699.5357883
712.3444735
719.2154679
733.4171284
751.9526126
757.8066104
769.4902106
775.4307618
784.4751416
804.9603702
805.6484786
808.2761145
805.0446733
799.4790233
795.6483997
801.9896224
811.8419005
810.817898
799.5599098
796.9224218
456.9043607
478.0909422
508.8161805
525.5776331
550.8521195
574.4351314
597.7568981
619.3496347
637.8721447
646.6282988
660.9107343
678.7030172
690.5619331
699.9338804
716.5269747
734.3914211
745.478071
758.3513322
770.1855766
773.2093498
775.7880454
786.1660136
792.9514444
802.177733
796.3239492
789.4627427
791.7816613
793.0322622
786.2764351
782.4336397
425.9549228
446.9156119
468.0990513
489.2121285
498.7434445
513.5601298
535.9896585
564.0405913
581.7597707
610.565426
626.7754296
643.1821251
660.5106033
674.4863842
684.7646884
697.5836037
715.9334605
732.0166028
737.1272529
746.2161447
756.7739361
765.8001843
771.1179073
786.1439615
782.8704389
785.8759793
775.9526213
776.4075229
786.2060432
779.4606485
397.6016014
413.0783455
428.8443968
448.6744884
459.4426878
478.7132579
502.3591163
522.2700082
537.3251887
557.9256323
585.2847386
607.6880386
624.5396388
644.1120911
662.8700052
670.7469871
678.3374538
699.5252559
711.7946802
720.1437112
734.2925691
744.6650485
749.6617096
748.7565431
759.1967638
762.8579606
763.8360484
770.1338088
770.5254363
771.4464517
366.7748687
381.5049916
404.4968014
420.414582
438.4890176
451.4021729
465.6245396
492.1763208
515.1316971
533.7550531
541.532338
571.4113811
590.8892937
609.0888154
631.4568434
644.8796763
657.7404043
670.3391815
682.6845154
697.0348438
700.6585565
715.3419849
728.63828
739.6648417
732.9205262
739.23745
747.7013054
748.6550985
753.4300207
758.8979362
353.1695475
362.6547287
375.695739
398.8848398
411.8642078
434.2028659
444.4115531
458.6566932
472.51852
492.7601897
512.4871461
531.6066928
547.7945888
572.4932544
590.4427267
607.1909069
626.0773339
640.8046003
656.509841
667.4063582
676.036695
686.7192964
702.3869028
709.750191
724.5918477
729.8906736
735.5379967
738.2702445
744.8844163
745.1780257
335.8760581
343.6698324
354.7577339
362.8517898
379.5479638
396.4064366
410.3199818
423.8787739
443.1062219
461.2987012
485.4933098
504.2192962
515.4371066
532.4490969
552.2368302
569.0187325
590.6554007
601.8988519
622.4605124
639.355105
649.5893639
661.9938661
672.8582974
681.1659429
692.7792142
703.2743823
711.3480143
718.9118566
715.5855266
717.7457083
333.3554236
339.2466116
345.8460261
358.2288924
365.3314976
377.4771007
389.7294922
404.9780842
416.1252771
431.3407702
441.8254441
460.6570484
483.3592
493.9380446
517.8644625
532.8903501
560.231758
572.0886978
586.2736835
598.9179243
617.3304357
631.9963687
640.2076651
655.8471419
671.3271287
682.9396098
688.4475269
698.2466762
700.4508784
322.2732164
323.2949594
330.9219487
338.4798376
349.7219011
358.1053287
370.55428
370.1246562
380.3076611
394.5776575
409.6173809
421.9925499
447.8178162
468.5469825
484.9712855
505.0983734
520.7005892
540.6712961
556.913284
570.9560035
579.0670482
596.0164729
617.9671181
625.2549732
636.6454204
320.0413152
322.525564
327.6761342
336.6224494
340.6716684
342.3306693
352.3725604
364.213406
368.8698361
379.4428122
398.1324898
407.9065381
415.9931934
438.8973682
450.5443601
463.1584818
485.6419085
509.0879509
524.4795301
313.1143032
316.9427223
321.3765914
325.8251553
333.7797112
338.1429473
342.8919959
346.4396688
363.746721
368.4653031
375.5093568
389.2019012
398.8367403
414.5160498
313.943284
317.3189568
317.10546
321.603965
326.1821072
331.2113589
334.1667103
337.9878358
307.3552315
)
;

boundaryField
{
    flow
    {
        type            calculated;
        value           nonuniform List<scalar> 
15
(
660.1490842
732.6371732
767.7591461
759.1231719
781.3289438
791.2330049
793.6184428
803.2235396
796.9224218
782.4336397
779.4606485
771.4464517
758.8979362
745.1780257
717.7457083
)
;
    }
    obstacle
    {
        type            calculated;
        value           nonuniform List<scalar> 
30
(
634.3292062
620.3243447
624.3531115
633.0032868
638.9350496
629.0778589
625.9659873
652.7711807
638.867904
613.7742805
639.0102709
617.8093337
617.6223243
620.346655
645.9632515
630.1444212
625.8174208
631.5174753
612.5685725
569.9036695
637.2463111
588.4643479
607.60797
646.9136803
622.9481857
603.9916137
610.7867192
612.9525422
613.9394431
613.7465208
)
;
    }
    frontAndBack
    {
        type            empty;
    }
    procBoundary1to0
    {
        type            processor;
        value           nonuniform List<scalar> 
21
(
700.9589025
753.3273446
749.2846373
707.6022727
669.9410916
633.6186078
567.7502235
517.3948699
478.7867187
432.182303
406.8747859
374.8589217
352.9870918
337.9373467
336.6300955
325.7945513
319.0388793
314.9367738
311.0729068
312.4669879
308.4825231
)
;
    }
    procBoundary1to3
    {
        type            processor;
        value           nonuniform List<scalar> 
36
(
701.4471557
647.9561125
663.0198752
678.2054014
701.4471557
682.7226349
539.2504569
558.7474997
573.8691612
590.472744
605.2188207
647.9561125
618.2885605
428.1409985
439.2161366
461.3506376
473.8705245
539.2504569
496.1853305
343.9242408
351.095859
359.7768523
365.062382
377.821688
428.1409985
389.5729225
306.98918
311.3557133
313.1539593
316.2738985
319.1389441
322.6428764
343.9242408
326.6500772
306.98918
304.1861269
)
;
    }
}


// ************************************************************************* //
