/*--------------------------------*- C++ -*----------------------------------*\
| =========                 |                                                 |
| \\      /  F ield         | OpenFOAM: The Open Source CFD Toolbox           |
|  \\    /   O peration     | Version:  2406                                  |
|   \\  /    A nd           | Website:  www.openfoam.com                      |
|    \\/     M anipulation  |                                                 |
\*---------------------------------------------------------------------------*/
FoamFile
{
    version     2.0;
    format      ascii;
    arch        "LSB;label=32;scalar=64";
    class       volScalarField;
    location    "0.007";
    object      internalE;
}
// * * * * * * * * * * * * * * * * * * * * * * * * * * * * * * * * * * * * * //

dimensions      [1 -1 -2 0 0 0 0];

internalField   nonuniform List<scalar> 
546
(
3.638288899
2.792089019
1.875519498
1.831665767
3.367613362
4.292679358
2.619473182
2.312742278
2.96415126
2.816356396
1.765226218
2.692303515
3.252923308
1.18552781
2.807478683
2.260914705
1.704185537
3.196186737
2.495063043
1.422699126
3.398958666
2.832788983
2.865568391
5.186022586
2.161764413
2.265571487
3.086656132
1.663493118
2.151856785
0.5941472063
2.473049493
5.266499257
1.877953905
2.23577476
1.929605217
2.666240147
3.197974852
4.463603886
3.837703539
3.638853556
3.086106706
1.940296617
2.489631921
2.89958983
2.539516133
2.564678941
3.934545405
2.713604823
4.006221697
4.574872652
3.025464857
3.871279032
1.763143054
2.564356408
2.452548933
1.093331333
1.871864853
2.846937094
3.472121261
0.7434445493
3.2656876
2.125534611
3.48989789
2.295056049
2.624095157
2.150433871
2.75838749
2.397181999
3.740374218
2.735557015
3.851588562
2.806663704
3.658991013
2.31612874
3.168509857
2.990652501
1.280233626
2.551403878
2.5467559
3.880686344
3.785052313
1.636053034
2.729745907
4.600940174
2.610972877
1.665640379
1.606466895
2.032230751
1.174536003
1.417741153
1.373654701
1.872386971
3.096981224
3.140125447
2.576836229
3.243033334
4.101481353
2.371270196
3.544377054
2.491307952
1.468744613
1.257451706
4.64678771
4.416353216
3.028094532
2.669732551
2.112528432
2.963003806
2.400464049
3.496171347
1.309768042
3.230465777
4.511527132
4.362084299
3.340756551
2.052561298
3.918472273
1.474057208
1.169009145
2.226352048
1.614385331
3.176359741
2.287624437
1.059927486
4.727622676
4.359098127
2.358340707
3.633353691
4.457483609
2.182612862
1.245659434
3.555323706
1.947176812
2.265482798
1.725855535
4.179895793
2.411010129
1.953144172
0.8667593618
2.711474213
1.463887131
2.720880494
3.459942897
1.673426433
4.377941198
2.14210412
2.9020449
2.73333152
1.971883604
1.69317539
0.6725825447
1.921350434
2.013842205
2.15938026
3.990559559
1.621968785
2.423546424
1.899136174
1.824541829
1.723463526
2.012378891
4.547017249
3.272016581
1.422553251
2.361912293
3.821307015
1.641431281
4.547505014
2.072756966
2.173876311
3.054560523
1.888697595
2.79323859
3.897448559
3.689675438
3.075939202
2.50266182
1.801845184
2.146656001
2.5142705
1.649288052
2.143493006
1.231947777
0.9263516326
1.254386347
0.9319405748
2.259847122
2.50753285
3.99879786
2.005740198
1.828228244
2.155864339
2.018151455
3.435906345
3.564266543
1.693560939
1.775553393
4.862181394
2.48930658
3.509098324
4.922064472
3.001643274
2.302009661
2.449144742
1.272953462
2.090443142
1.354822102
3.110412567
2.083412841
1.823155352
0.6253354075
1.655749906
1.399223986
1.593450447
0.8813744006
1.844436259
1.561542136
1.607509407
2.186746939
2.02469575
4.041802924
2.681197105
2.491009478
2.685454577
3.158145384
1.890941838
3.065980792
2.957735479
2.386107373
3.11183573
4.055378613
1.59551394
1.520416346
2.664878228
5.892988367
1.936469871
3.201140176
2.20951931
3.268239165
1.814076167
0.6926626119
1.5711099
0.7476529334
1.235356693
1.707048385
1.538645207
2.625085501
1.725831206
2.957228105
1.012599801
0.9003102913
2.507104425
3.929037734
2.022770729
3.74990951
1.864116631
2.917755519
3.373553783
3.445435848
4.515130526
1.80042881
3.322314457
2.210753957
2.831298419
2.083149336
3.098332627
4.297203889
1.410703489
1.972714101
2.612923884
0.3978298801
0.7659258078
1.063268768
1.631447019
1.042618124
2.164943756
1.119718163
1.79149055
3.125721954
1.107707026
2.152253548
2.424688525
4.20167232
1.746285239
4.142212748
1.118401644
0.7492583162
2.058318175
2.839081742
3.04953611
2.560270921
2.44066475
4.198626816
2.355021735
1.846686429
2.094073979
3.392133967
2.172314758
2.588666081
1.909945433
0.7357998776
1.140055778
0.9692241969
0.9036453785
1.886204352
1.018314606
1.090001342
2.055210841
1.874524113
2.167333959
1.099195787
2.360350949
1.85293374
2.411785427
2.465188832
1.8652709
2.677376293
1.265202641
4.170357333
2.563884635
2.11235862
3.74194177
1.928301347
2.380075656
1.917387939
1.400415313
1.685905207
3.466048593
2.474988093
2.397187849
0.428707421
1.785135739
0.5493265319
1.497865328
1.267692779
0.5671780739
0.4437774278
0.5240527401
1.744251093
2.054443519
1.928093905
2.488827733
0.9985435724
1.621565902
2.617733431
2.134663546
1.91563715
2.038864196
3.477815756
0.4910290153
2.508546873
1.102910934
1.36640827
2.205513285
3.954078099
2.777173755
3.046559514
1.80756946
2.453804921
4.385894293
0.7850857999
0.3624530771
0.4795922458
0.7936598586
0.5409961674
1.2594956
0.6629150583
1.294326792
1.222096378
0.4816616081
1.653354044
1.999987548
2.787174994
1.914553126
1.982910779
2.755764491
2.674974449
1.206479741
2.286856588
2.185974819
1.865389015
1.565564229
1.719999693
3.192244635
2.340220195
1.92654027
2.332261224
2.796625929
2.827240492
1.180626263
0.6485805086
0.5002883946
0.8479650761
1.67414569
0.3718529903
0.9043636341
0.8254354751
1.292841126
0.6305721021
0.9512938417
0.7732458094
1.181968355
0.9672645332
1.485391173
1.778650344
1.284740622
2.677161424
2.410040301
1.376236857
1.938907663
3.388456249
1.304579403
2.768405674
2.139668673
4.105958416
2.239988824
2.963843208
4.400371147
1.882806731
2.719712663
0.3626280146
0.8627580677
0.8493373517
0.9837435236
0.7602834846
0.4752733061
0.9814313849
0.3494780123
1.620452614
0.6905015922
1.197793213
0.9176993138
1.212701219
1.632170142
2.324278819
2.452423739
2.106032978
2.264053828
1.745409808
1.989621846
2.036185698
1.268400135
3.819899889
2.092231891
4.413074687
2.038980946
2.392408962
2.395763443
2.509075226
1.199217298
0.1943150306
0.5225724187
0.4888621029
0.6657030447
0.3376409449
0.576509565
0.5554642921
0.6256175816
0.6175097429
0.878669811
1.06791885
1.125815231
0.8304962643
1.019852746
0.4872377449
1.264083059
1.552454474
2.108623017
2.426426739
1.236369411
1.215091677
1.587543224
2.43799054
2.440881842
1.754530332
2.323628429
2.559168551
2.405418054
2.776419528
0.6769728463
0.7331827089
0.6294924147
0.3149087883
0.3250813036
0.4051270204
0.3254175
0.2112201708
0.2256556985
0.8080539359
0.6422393954
0.9113033879
1.373337414
0.6079892644
1.458277295
1.478908528
2.04395
1.844189519
1.501652231
2.143565962
3.345075378
3.706279269
0.9646257556
1.907599178
2.323260647
0.153170391
0.504985994
0.2380250697
0.04559924134
0.7564586347
0.8897137985
0.3721048899
0.3353982932
1.033636651
0.4883278199
0.6957228892
0.8141690609
0.6675373748
1.53663523
1.51279582
0.5697154908
2.086765414
2.954177274
1.307524004
0.2290122864
0.5332075879
0.3808230019
0.5456902999
0.4707241687
1.057830511
0.2369256447
0.7905597383
0.510862605
1.051392905
0.9974777893
0.5502517195
0.4698056984
0.7902339662
0.817074934
0.2185041485
0.3716322506
0.4912960423
0.3208571043
0.431889308
0.4785932391
0.2950932735
0.6036307627
)
;

boundaryField
{
    flow
    {
        type            zeroGradient;
    }
    obstacle
    {
        type            calculated;
        value           nonuniform List<scalar> 
30
(
1.343904741e-18
3.109115869e-19
1.63880078e-18
3.661248536e-19
3.710651569e-19
2.578623836e-18
0
0
8.809390239e-19
1.740438033e-18
0
0
1.998633574e-19
0
1.04839951e-18
6.046285053e-19
0
2.760371541e-18
3.164855748e-19
0
8.508549534e-19
0
4.701588821e-19
0
0
0
1.049215085e-19
3.235988184e-19
9.243169878e-19
2.880089284e-18
)
;
    }
    frontAndBack
    {
        type            empty;
    }
    procBoundary1to0
    {
        type            processor;
        value           nonuniform List<scalar> 
21
(
2.956654335
2.670062276
1.457576236
3.166982234
0.8591623748
1.223237152
0.6265169558
1.563028496
2.049170944
0.5672655833
0.3953198381
0.4374889928
0.2082578021
0.3083983338
0.3632896061
0.4383916613
0.2128705661
0.3786550012
0.4460502769
0.1629523859
0.251976264
)
;
    }
    procBoundary1to3
    {
        type            processor;
        value           nonuniform List<scalar> 
36
(
2.161896823
2.470026058
2.92869508
2.103001613
2.161896823
3.626182735
0.9689783095
1.109946794
3.164095395
2.068018139
0.9398117166
2.470026058
1.941615487
0.774782048
0.7700755333
1.116922255
0.7618497399
0.9689783095
1.503978331
0.587393946
1.287327565
1.243576894
0.5490698663
1.20725067
0.774782048
0.9819224245
0.3766451284
0.269600379
0.5687601762
0.4154466848
0.4604193876
0.420061643
0.587393946
0.3491524735
0.3766451284
0.4730768122
)
;
    }
}


// ************************************************************************* //
