/*--------------------------------*- C++ -*----------------------------------*\
| =========                 |                                                 |
| \\      /  F ield         | OpenFOAM: The Open Source CFD Toolbox           |
|  \\    /   O peration     | Version:  2406                                  |
|   \\  /    A nd           | Website:  www.openfoam.com                      |
|    \\/     M anipulation  |                                                 |
\*---------------------------------------------------------------------------*/
FoamFile
{
    version     2.0;
    format      ascii;
    arch        "LSB;label=32;scalar=64";
    class       volScalarField;
    location    "0.007";
    object      linearKE;
}
// * * * * * * * * * * * * * * * * * * * * * * * * * * * * * * * * * * * * * //

dimensions      [1 -1 -2 0 0 0 0];

internalField   nonuniform List<scalar> 
546
(
8.99825053
6.065821686
5.449356152
4.30642644
6.102919096
4.35587452
5.686360104
6.525519937
8.784694796
3.345131677
6.015374228
7.297580251
6.75541807
4.957099959
4.716024087
4.478028179
6.430477515
4.732597962
6.973429117
3.180020237
7.054890923
6.581670611
4.510609542
9.203025512
3.926708738
4.50343441
4.974054823
3.419490368
3.864690914
0.9962507665
6.946140778
9.319743215
6.700022095
7.721220835
8.22613558
7.602835165
5.747590757
9.55680222
9.421427137
6.404598567
5.963946414
2.736752615
7.32607056
7.809480649
5.99541945
9.207915215
8.344244338
8.859809604
6.373501752
8.847685895
6.377715401
6.698632552
3.440494596
3.269277228
5.207834966
3.189799249
4.979918943
6.034180189
10.36985319
3.979673081
11.0447954
11.87846452
11.248126
6.096455201
11.90676006
5.146963361
7.540596621
7.079400635
9.190137157
8.044840032
7.070714488
7.389396255
10.53125904
3.461821962
9.280103788
5.493031558
2.796723236
8.821872133
4.745292693
8.864255714
7.02298897
6.636068649
5.362973437
11.38857828
6.417581548
4.886595523
8.580438145
8.362231712
3.748857165
4.049077322
11.2396687
11.87579112
13.34003891
19.70562309
10.90712582
7.199577095
13.21321108
11.35092547
12.14219939
8.787205169
7.375509461
7.628142124
11.176772
8.375692134
8.840484179
8.126064216
7.9411051
7.729903315
6.668496682
10.2372653
4.494286979
9.327263562
8.947325328
9.012360462
6.813890507
6.180038971
6.370381907
4.462634531
7.475427852
6.10948665
7.681435703
16.90557863
14.88010906
6.96736363
15.70780443
11.26762826
10.94564756
11.29769034
9.818431751
9.932046737
5.218405261
15.17736736
9.023498423
13.80359468
7.624072273
14.46399483
6.033788169
6.187614456
3.728271538
11.4107928
5.005781467
6.372395832
10.47572144
7.466908312
11.16701646
6.781404159
12.10091815
11.15577777
6.26965954
4.66330381
6.821787456
13.60790289
14.53081795
23.83606781
19.98915062
5.85525635
15.64520292
10.18379267
12.02402129
6.511783601
9.182300831
14.23667005
10.95816574
6.7938555
6.888435302
15.60509262
8.707489858
9.015136122
6.198490131
10.37530472
13.84838019
6.619635258
8.168941661
11.5683303
9.27488064
4.943145149
6.093660132
6.990648199
6.444631435
4.895899282
12.58227199
14.31285382
9.894764891
5.638391198
11.13261017
8.097769768
15.0680916
16.72339212
10.62831672
12.23867822
9.477878615
11.42995752
11.29953495
13.90031934
12.94204026
6.483396359
9.963930551
17.2031652
7.563364754
12.8237483
16.8372376
9.563648495
10.40058341
9.061552213
3.974876355
7.976861704
9.1818125
10.78941155
11.57008983
5.504070495
13.58488969
10.42925891
12.98107335
10.47228001
10.4051198
9.421627617
15.41661763
11.79489609
16.96609694
14.05858163
18.17202378
10.0591343
18.43788878
11.39963826
13.03282089
5.37366284
14.57018449
8.352633198
10.40281185
10.10885558
12.45272941
6.598437486
7.727694375
9.859702695
14.17921127
6.781391286
10.48224013
6.486514438
13.23879647
6.067350123
7.23900175
10.57497338
10.31558502
11.71817464
14.6819293
13.35488159
14.87320295
10.21246857
13.32503984
10.80316244
9.733331226
16.55991563
15.28493649
16.17109351
15.0360903
13.66218518
18.08310447
16.12132176
14.42386749
19.53463471
7.682549249
11.99929368
11.79568533
10.65936977
10.72093996
12.69565001
14.44802752
11.3910669
3.299420923
9.336099764
4.66603369
10.91835475
14.24701869
8.912482984
12.14617709
11.43128526
13.65403463
15.42266668
13.57381164
7.055637565
17.18768473
10.33834492
13.66391677
11.11007079
21.92638035
11.87789261
9.828049276
13.15703815
16.06954974
12.12947536
16.17982269
13.07237459
8.924668588
7.832855648
9.227809967
10.86281845
11.76060955
10.30338146
11.4624673
12.80291498
7.603156526
10.65701885
10.96368558
10.32175329
17.58229675
14.13695627
10.7005834
13.23720218
19.55762471
16.71478844
9.264849175
16.475146
11.83270022
8.339092954
13.0143071
9.143971688
10.67057743
13.09973956
17.84056752
8.705046375
9.857901862
22.13316616
16.41021317
17.27485825
9.891720121
7.218546701
5.596460584
10.59033876
10.30962657
10.60375847
6.897142704
7.847520489
9.230066523
13.34768589
11.02352719
7.511051611
9.616208165
8.457806947
13.97990925
18.13704775
15.55241102
13.33968124
12.05869172
11.86045135
17.25162402
17.38960154
10.59671888
11.23349582
19.37889358
4.67731787
11.69196548
12.2738216
9.371226394
11.17217373
12.97745839
15.9936465
17.96656042
12.48133479
7.706286298
10.83984029
7.283491709
7.787544085
8.585937761
11.98746129
11.60783544
10.37649209
12.62974506
14.45266668
12.33324702
5.814687255
15.421544
7.519193596
8.727649277
18.05626307
9.526430524
16.24819227
16.59323952
14.39870058
16.13694657
17.29675502
5.639207467
12.44744459
6.004707461
12.21281149
14.50776796
9.040579548
14.66633103
3.992318417
12.60988135
7.015946896
9.973073044
6.257079402
12.14535154
18.04673912
6.153650263
7.386888522
8.344116673
14.60817564
9.510168089
6.992913675
12.37901162
9.742157722
9.230809966
6.355633113
14.7681586
12.90183151
16.06217653
11.82170541
13.26231905
14.45069894
15.48165285
9.98894381
18.60738619
10.62682299
20.39995987
12.07326329
20.7210511
19.36272699
9.648565264
10.24888578
3.507919773
10.9811021
9.124209899
11.35856785
12.26231761
11.99344581
9.902018837
8.831161547
14.49650785
10.82586057
6.939874723
8.616171224
11.41888291
9.079536815
19.16144917
15.4197419
16.90233745
14.89152913
12.53256371
14.20779717
12.56030774
7.32806444
23.66318965
17.37289377
23.91941025
14.60260795
15.3295461
12.3953564
13.64770747
7.980563046
7.608507857
8.2048569
8.96778939
6.960290494
7.372293674
10.2447958
12.75822758
10.15124848
11.28457279
9.388048131
13.17448966
10.92304765
10.57227378
5.419082731
5.690288446
11.67833852
18.37865699
12.01082164
18.2113618
9.125825089
20.77939014
9.254924427
10.83584142
18.62975348
13.44642959
17.00039607
16.51173537
16.37734909
13.21110747
10.06654715
14.40496882
11.34338227
6.793125501
9.675424999
9.369276523
6.243810417
8.096301371
8.021054776
7.158063836
6.440955064
10.53680017
17.03202799
11.62676052
13.51303611
14.5735654
18.19546692
17.73764335
19.00552952
16.10130314
18.65896728
15.7523201
14.92973881
13.00667348
11.01339762
7.996152249
8.586359767
6.167699144
1.19354456
6.997334434
15.07265351
4.72974785
5.650292122
14.59464866
8.602536205
13.43237878
9.13064569
10.47833844
12.37595792
17.54947914
6.401249683
12.93336635
23.82959789
20.49070043
6.643978922
11.75337817
7.077600042
9.40448165
7.01656809
8.960358196
4.35662293
11.69780808
9.481865224
10.94251053
8.091830695
10.53050094
7.028869273
6.349798202
12.57023398
2.029811486
11.67139106
9.853954889
5.563231052
8.377727411
8.342926228
6.364583763
10.37493724
)
;

boundaryField
{
    flow
    {
        type            zeroGradient;
    }
    obstacle
    {
        type            calculated;
        value           nonuniform List<scalar> 
30
(
2.645636043e-18
1.210841224e-18
7.107269377e-18
9.447261478e-19
1.453185945e-18
2.49748471e-18
0
0
3.459952042e-18
3.715119599e-18
0
0
1.0686975e-18
0
1.232472887e-18
2.013302921e-18
0
9.301544391e-18
2.757003035e-18
0
3.220249864e-18
0
9.599083156e-19
0
0
0
1.287469104e-18
9.105043266e-19
1.761230621e-18
1.230223345e-18
)
;
    }
    frontAndBack
    {
        type            empty;
    }
    procBoundary1to0
    {
        type            processor;
        value           nonuniform List<scalar> 
21
(
6.377687204
14.08080399
8.6584878
11.21070867
9.285838385
16.0480539
8.816717424
16.29596727
12.60161403
5.626543918
9.09536553
3.88102428
6.424617894
6.865897132
6.246040129
10.60683175
4.309089248
5.979118146
7.044124457
5.750698081
5.624587454
)
;
    }
    procBoundary1to3
    {
        type            processor;
        value           nonuniform List<scalar> 
36
(
13.15716303
15.21366366
16.58156458
14.86635179
13.15716303
20.96068536
8.720572472
12.12844613
16.33874015
16.73338678
14.19055355
15.21366366
12.26071544
13.03383653
14.15376501
14.5221515
7.092427738
8.720572472
15.70875967
5.114931061
9.006284224
8.11533793
7.558509349
14.11019911
13.03383653
10.34329483
8.87205775
6.979676634
12.61722674
5.803373324
5.835303606
8.493192218
5.114931061
9.256487492
8.87205775
10.77907555
)
;
    }
}


// ************************************************************************* //
