/*--------------------------------*- C++ -*----------------------------------*\
| =========                 |                                                 |
| \\      /  F ield         | OpenFOAM: The Open Source CFD Toolbox           |
|  \\    /   O peration     | Version:  2406                                  |
|   \\  /    A nd           | Website:  www.openfoam.com                      |
|    \\/     M anipulation  |                                                 |
\*---------------------------------------------------------------------------*/
FoamFile
{
    version     2.0;
    format      ascii;
    arch        "LSB;label=32;scalar=64";
    class       volScalarField;
    location    "0.007";
    object      linearKEMean;
}
// * * * * * * * * * * * * * * * * * * * * * * * * * * * * * * * * * * * * * //

dimensions      [1 -1 -2 0 0 0 0];

internalField   nonuniform List<scalar> 
546
(
6.985743375
6.757134944
6.581303628
6.41852018
6.205587271
6.103203647
6.101726684
5.966232926
5.891599395
5.763554733
5.633421429
5.61055006
5.471971433
5.553726188
5.428429517
5.205517496
5.068323125
5.123578921
5.063177463
5.001294108
4.997043502
4.927433072
4.871197266
4.900469065
4.7027168
4.580198419
4.424834926
4.217624722
4.008717526
3.566163642
8.752527851
8.457778514
8.17317928
7.978915002
7.767225984
7.637893166
7.360725952
7.203696422
7.005548513
6.857521141
6.67488453
6.625166968
6.525449332
6.43321484
6.352935875
6.178170177
6.005748036
5.98277477
5.830845605
5.750732989
5.682618409
5.586576469
5.554618381
5.436513928
5.289665447
5.217930431
5.026756204
4.818939813
4.505325804
4.103346082
10.27082363
10.1236515
9.879566817
9.55750605
9.145447382
8.784152037
8.630331427
8.43252771
8.257003972
8.062981878
7.899097639
7.757873386
7.530784281
7.330392125
7.251562926
7.015389475
6.967870375
6.858096341
6.688705051
6.605736345
6.361023844
6.331679139
6.293607973
6.063901049
5.888010945
5.718004867
5.601141793
5.41670676
5.156062162
4.868728751
11.37535353
11.26652203
11.15493704
10.86221446
10.70394925
10.48258494
10.1298627
9.877123521
9.559204389
9.297818336
9.070086174
8.814521765
8.684622873
8.521983879
8.259072973
8.005328367
7.883824547
7.725005245
7.623002389
7.471800378
7.294152265
7.080431366
6.912190172
6.780828193
6.65361675
6.509186304
6.242082538
6.078404908
5.885994911
5.669043842
11.81896959
11.80091607
11.97371382
11.97416461
11.79695616
11.53660301
11.27118077
10.99155954
10.88231995
10.56468688
10.30537627
10.15109024
9.936891674
9.678777251
9.418939107
9.150232497
8.80371878
8.726798808
8.535827061
8.328763895
8.104332053
7.909754731
7.739666373
7.612073775
7.426771576
7.263583878
7.188147862
6.821621145
6.557919489
6.237674834
11.92573328
12.10284162
12.2695637
12.33843161
12.27315427
12.15460336
12.10801061
11.97813329
11.79870353
11.72383662
11.55291015
11.23375661
10.90748073
10.72648858
10.47145539
10.31686762
9.9690749
9.858801288
9.602721082
9.385832442
9.052115838
8.810955644
8.617900749
8.494065895
8.285679693
8.062786803
7.781362946
7.604635006
7.402084151
7.015478106
11.66940642
12.08411907
12.28978433
12.41691561
12.63439542
12.86939702
12.84672304
12.79815101
12.66737388
12.57039083
12.37433236
12.2117298
12.06715235
11.85306466
11.52783559
11.2759003
11.01478774
10.75745971
10.6037374
10.24341363
10.08771999
9.867996341
9.626426553
9.415686087
9.320322021
8.949138048
8.754469442
8.536515983
8.197176667
7.835971285
10.95112359
11.46393411
12.02319042
12.50639172
12.66395687
12.86369127
13.11375004
13.21067744
13.18356192
13.15255865
13.11017062
13.02789143
12.77004296
12.64675966
12.48054118
12.34019872
12.10992235
11.7508847
11.61222146
11.40837217
11.18498494
10.83335464
10.58134208
10.28602659
10.05146656
9.789243623
9.530036444
9.190046284
9.00248861
8.666670099
10.54244045
10.98283612
11.41747167
11.81936966
12.32453885
12.55585382
12.86195555
13.04923025
13.32135209
13.33292378
13.40172417
13.49829014
13.51071537
13.38905016
13.32254544
13.15895876
12.943205
12.72504423
12.42476191
12.24361229
11.88800704
11.72101625
11.38291868
11.17608503
10.94303917
10.76299124
10.42014518
10.14792766
9.802089907
9.510328149
9.824009756
10.16427912
10.63822625
11.13408041
11.61004423
12.05545589
12.5153952
12.86791448
13.17473989
13.52977439
13.68812626
13.87033587
13.83198304
13.83988121
13.74408698
13.64972649
13.61285735
13.40714454
13.18989334
13.02539025
12.82809656
12.58965505
12.34197726
11.96036295
11.81366872
11.52552295
11.22514018
10.96083519
10.55940205
10.17441219
9.468478379
9.795958
10.15170632
10.6637671
11.03071661
11.5249188
11.99502797
12.49447946
12.9384579
13.33135022
13.6018351
13.74249532
14.04298219
14.11970711
14.09193052
14.08516034
14.08781347
14.08592966
13.80533512
13.6706849
13.53091547
13.38354878
13.13494711
12.85830007
12.41981613
12.27272357
11.93543907
11.72428104
11.49838045
11.05510517
9.012201238
9.346234731
9.667168444
10.05316499
10.55086452
10.89529615
11.38577798
11.80357387
12.34337497
12.73657528
13.21962837
13.47854339
13.81738621
14.15967124
14.34628333
14.39361022
14.40583418
14.4246223
14.47750799
14.30907497
14.09268713
13.99179892
13.78433296
13.52541395
13.29786919
13.08077957
12.84386161
12.40889381
12.1405692
11.93079641
8.760398978
8.976884555
9.314679537
9.529873679
9.883594303
10.32723131
10.71004483
11.14665175
11.55120912
11.94438871
12.40129054
12.97591448
13.44100578
13.81749362
14.13706292
14.3846927
14.42853209
14.57827113
14.71010094
14.77135409
14.71035679
14.68649748
14.45751762
14.3436832
14.13689421
13.88262258
13.59292325
13.29366817
13.05876077
12.70620514
8.382149966
8.600589243
8.791639153
9.157928884
9.437703947
9.733112359
10.00477013
10.38169766
10.83146467
11.32748691
11.88934392
12.28145846
12.65659956
13.1589643
13.57518842
14.10326685
14.4719607
14.69895396
14.89078691
14.99029242
15.01042604
14.94946221
15.12167556
14.95769437
14.77169437
14.48777167
14.45421938
14.17896315
13.83042048
13.43196596
8.396825783
8.53118093
8.647497445
8.703703543
8.986726595
9.21094778
9.523595417
9.850985208
10.22186114
10.61589965
11.06968311
11.46094412
12.04716083
12.59866517
13.15402135
13.70252446
14.11738629
14.45095029
14.72282865
15.00011052
15.17942946
15.41962868
15.42055224
15.34933061
15.27378603
15.14346304
14.98506471
14.73530562
14.49216469
14.17417868
8.095516267
8.078476643
8.295269851
8.35705346
8.554331302
8.780350502
9.069996466
9.415990061
9.749115049
10.06388692
10.52995808
11.07411382
11.43219438
11.93752838
12.40935063
12.81051936
13.30542731
13.78122919
14.18994373
14.62864377
14.92243665
15.04567129
15.23291004
15.35428111
15.52802358
15.40470667
15.2507827
15.14832294
14.89221831
8.109948781
8.184609044
8.241193387
8.42270207
8.516425259
8.696624994
8.907072941
9.16527023
9.371974046
9.689666319
9.984990364
10.25764945
10.61038189
11.03422265
11.45686158
12.07643285
12.66800798
13.23008175
13.86052794
14.09310603
14.51838591
14.99997944
15.23980685
15.49496362
15.52592489
8.062611183
8.123037309
8.186836129
8.229197746
8.338050159
8.430077183
8.541646812
8.651480977
8.887492363
9.136211033
9.323905899
9.710510142
10.18173024
10.66975874
11.04717372
11.42464188
11.90598689
12.45466601
12.94433985
7.946972471
7.984926056
8.0659677
8.140470475
8.211008373
8.254802531
8.3610863
8.445652795
8.634866057
8.795000492
9.194028486
9.400975937
9.601948997
9.912314716
7.9756712
8.0046417
8.013892103
8.024713071
8.121908586
8.148995667
8.227805959
8.386976442
7.879016119
)
;

boundaryField
{
    flow
    {
        type            calculated;
        value           nonuniform List<scalar> 
15
(
3.566163642
4.103346082
4.868728751
5.669043842
6.237674834
7.015478106
7.835971285
8.666670099
9.510328149
10.17441219
11.05510517
11.93079641
12.70620514
13.43196596
14.17417868
)
;
    }
    obstacle
    {
        type            calculated;
        value           nonuniform List<scalar> 
30
(
2.336455833e-18
2.395248949e-18
2.306328327e-18
2.325613138e-18
2.199574521e-18
2.155790627e-18
2.192599967e-18
2.071502893e-18
2.145796967e-18
2.029487901e-18
2.062656608e-18
2.040399161e-18
1.97177345e-18
2.053123932e-18
2.045056206e-18
1.910813472e-18
1.886563923e-18
1.843163526e-18
1.888054612e-18
1.982913851e-18
1.843686863e-18
1.776412825e-18
1.816803476e-18
1.886193523e-18
1.78526103e-18
1.698469005e-18
1.719037556e-18
1.652512869e-18
1.484952943e-18
1.401020699e-18
)
;
    }
    frontAndBack
    {
        type            empty;
    }
    procBoundary1to0
    {
        type            processor;
        value           nonuniform List<scalar> 
21
(
7.251244532
9.078898014
10.52756147
11.53979523
11.71113484
11.56309855
11.26259236
10.51160134
10.0323359
9.457342194
9.125395146
8.795145703
8.563781271
8.339541001
8.272678785
8.093060149
8.05531533
7.981594043
7.949604407
7.925168575
7.878669411
)
;
    }
    procBoundary1to3
    {
        type            processor;
        value           nonuniform List<scalar> 
36
(
14.6600494
15.62078349
15.72708726
15.5023075
14.6600494
15.42952693
13.4604129
14.01400304
14.43276155
14.87189547
15.24375309
15.62078349
15.50888079
10.33764976
10.83632874
11.23631422
11.6527631
13.4604129
12.11865075
8.498823485
8.64349087
8.727057477
8.980475544
9.23690068
10.33764976
9.460801429
7.941105439
7.957723378
7.944570861
8.039019225
8.19299878
8.263808765
8.498823485
8.331740075
7.941105439
7.996702928
)
;
    }
}


// ************************************************************************* //
