/*--------------------------------*- C++ -*----------------------------------*\
| =========                 |                                                 |
| \\      /  F ield         | OpenFOAM: The Open Source CFD Toolbox           |
|  \\    /   O peration     | Version:  2406                                  |
|   \\  /    A nd           | Website:  www.openfoam.com                      |
|    \\/     M anipulation  |                                                 |
\*---------------------------------------------------------------------------*/
FoamFile
{
    version     2.0;
    format      ascii;
    arch        "LSB;label=32;scalar=64";
    class       volVectorField;
    location    "0.007";
    object      momentum;
}
// * * * * * * * * * * * * * * * * * * * * * * * * * * * * * * * * * * * * * //

dimensions      [1 -2 -1 0 0 0 0];

internalField   nonuniform List<vector> 
546
(
(0.009914761768 0.002948236752 0.001069843497)
(0.005235929008 0.0009957742051 0.0009018372761)
(0.005235636332 0.001812169647 8.367018158e-05)
(0.0009600898364 0.0009231083782 -0.000314765416)
(0.005873232405 -0.0006949309467 -0.00118589733)
(0.002819449233 0.001209118226 -0.0006499348865)
(0.004714047715 -0.0001637133592 -0.0006966211435)
(0.004622535901 -0.0006314004161 8.172377822e-05)
(0.006171215677 0.002178602155 0.002001338749)
(0.003240115079 0.001095843401 0.0002704229167)
(0.00433694712 -0.001251688825 -0.001189981643)
(0.006497413511 -0.0005739557591 0.001482718855)
(0.004773045068 0.0008373293833 -0.001104821748)
(0.004696918953 0.001563440349 -0.000405674684)
(-0.0002051567431 0.00218267814 0.001286746705)
(0.001602560498 0.003583715347 -0.0003182153032)
(0.005489109468 0.001872926242 -0.0005198799741)
(0.001452330771 0.001051148059 0.001101979982)
(0.006665057805 0.00123665023 -0.002379610488)
(0.002087106415 0.0008082277155 -0.000419787275)
(0.00431112708 0.001469592907 -0.0006879551179)
(0.004837799178 0.004076241321 0.000698987093)
(0.003770326326 -0.002463879284 0.0006349287445)
(0.006194506527 -0.0009182645765 0.002920822028)
(0.002874001226 -0.0009605463801 -0.0006318055333)
(0.002205617662 0.0001095353424 0.0009775227618)
(0.003366895313 0.001760974771 0.001948492068)
(0.002567385197 -0.0007416079992 -1.44551011e-05)
(0.004284012542 -0.001146801446 -0.0008210243028)
(0.0007287507539 0.0005278617706 0.001315867824)
(0.006675105729 0.003130095781 -0.001475288441)
(0.008728559625 0.003475920471 0.0003818131615)
(0.005579907286 0.0026289421 0.0007087440126)
(0.007637117662 -0.0003101568839 -0.0001166277343)
(0.006496569315 0.002674227305 0.00206641955)
(0.008552303999 0.000823036236 -0.0007255686294)
(0.006113778684 3.581301484e-05 -0.000624635322)
(0.008336934829 0.002616995322 -0.001296884538)
(0.009967168116 0.003444129694 -0.0001585432357)
(0.00311218881 0.003821146891 -0.001433671671)
(0.005733465604 0.001520877688 -0.0001875195638)
(0.003471196127 0.002353930746 -0.0006747558917)
(0.00698698245 -0.0001734129914 0.0007463189371)
(0.007279682152 0.00309213413 0.0008882805229)
(0.004169718438 0.002338632215 -0.00143415314)
(0.007950891974 0.002432066045 -0.00093518204)
(0.01070505442 0.003255979564 -0.001625905198)
(0.01071919469 0.001174732933 -0.0007102287119)
(0.004718227128 0.003184050033 0.0009978775146)
(0.01088609195 0.004190717522 -0.00293852483)
(0.004852374126 0.0003210997675 -0.003597815585)
(0.007360152339 0.00153792119 0.0009855873605)
(0.004133738516 0.001095413423 -0.0002191608271)
(0.002523125175 0.001597195795 -0.000274608668)
(0.004264004042 0.001283760583 0.0005278690993)
(0.002599537111 0.002222064814 -0.0007420231602)
(0.005795641434 0.002653008475 0.002601174828)
(0.006392051432 0.001676196986 -5.819042062e-05)
(0.009922618204 0.0008634800121 -3.409988141e-05)
(0.004079332864 0.001674151747 0.001271207536)
(0.009916094649 0.006180042364 -0.001774842321)
(0.01158212492 0.004637531456 -0.0006370571753)
(0.01173421604 0.004654525726 0.001120301743)
(0.006571520184 0.0004765578332 -0.0006118850658)
(0.01167441519 0.004599254277 -4.252711639e-06)
(0.005783691318 0.001941738143 -0.0003485847562)
(0.007816415734 0.00245529027 -0.0006166969161)
(0.008252326374 0.0009941217102 -0.0009407134507)
(0.01028649625 0.001753936254 0.001564350667)
(0.006891208326 0.002415594083 0.001161130074)
(0.00642570235 0.004520128151 -0.001485038944)
(0.008067309173 0.001294525553 -0.0005894349966)
(0.01170750127 0.002405512318 0.0004168490012)
(0.001731802277 0.0008857133247 -0.001065058641)
(0.008434408519 0.002938357696 -0.000965806768)
(0.00687934551 0.0007802116619 -0.001876999396)
(0.003711921478 0.000423752054 0.0001826535385)
(0.008977340389 0.003239758701 -0.004623424288)
(0.005159476548 0.001125844175 0.0008913224735)
(0.008167467353 0.003743256826 0.001044182794)
(0.009030685197 0.0002769633389 0.0005974605735)
(0.006720086714 -0.001364368814 -0.0009946988546)
(0.006024045349 0.0004747043936 -0.0009915370725)
(0.012778201 0.001942623104 0.0006666887899)
(0.006678333379 0.001937365037 0.0002200008175)
(0.004361711332 0.001846930203 -0.00228853713)
(0.00805435599 0.004982289477 -0.001195454697)
(0.007676488422 0.001175314437 0.0002675361538)
(0.004375774412 0.001027080173 0.0004981285544)
(0.004731467896 0.003009194376 0.0006377584264)
(0.01172489801 0.003727441672 -0.002337644957)
(0.01176784746 0.002586582956 0.001602608577)
(0.01435016573 0.003195087397 -0.002238813464)
(0.01836277754 0.00621040062 0.002140845056)
(0.01166290213 0.003481956797 0.000848700945)
(0.007716459049 0.002431354572 0.002213900892)
(0.01450526507 0.004415360879 0.00106771373)
(0.01129269114 0.004428146206 -0.0003849915759)
(0.01269533364 0.004312699873 0.0001052127764)
(0.01024202881 0.003767402811 0.001129853019)
(0.007783127421 0.003919349021 0.001829801614)
(0.007619653425 0.002328558892 -0.002820324846)
(0.01244789602 0.004354761102 -0.0003088117156)
(0.008990044126 0.002385779316 0.0003589862296)
(0.00949803636 0.00235262597 -0.0006215611559)
(0.008894297905 0.001927043526 0.00200588128)
(0.008058492781 0.003010329407 -0.0004271494285)
(0.007990161436 0.002871459125 0.002893036586)
(0.005835790128 0.002974240053 -0.0002088691939)
(0.009952981076 0.002030464515 0.0004269586335)
(0.004877757062 0.002652480351 -0.0007339413574)
(0.008714782891 0.003977676922 9.026928933e-06)
(0.01117059524 0.005119892908 0.001181192571)
(0.0107290256 0.001646997048 -0.0003317300921)
(0.006265536203 0.003147703666 -0.0002317437435)
(0.007424806042 -0.0009045910704 -4.509205405e-05)
(0.00729956503 0.001659230511 -0.002448970545)
(0.006178864656 0.0002767326769 -0.0008978293675)
(0.008143589653 0.002462129541 0.001403986653)
(0.009149969356 0.0007363564421 -0.001093862581)
(0.007597864037 0.003270946065 0.001040071701)
(0.0164918764 0.001674358555 6.221110941e-05)
(0.01441881004 0.005898033234 0.0003410965971)
(0.006287130959 0.002127646042 -0.001719777277)
(0.01599559825 0.003945372847 -0.0005003852726)
(0.01327426705 0.003583525586 0.000660897459)
(0.009847225309 0.002636565262 -0.0003548190895)
(0.01259349874 0.003236562418 0.0008362231738)
(0.009447001378 0.004575219491 -0.0004884389529)
(0.01081710773 0.003128687057 -0.0003968820978)
(0.00530911065 0.001725466041 -0.0005870067214)
(0.01671702755 0.003622407164 -0.0003107315694)
(0.009212204321 0.004431718886 0.000568769697)
(0.01576079023 0.001259248413 -0.0003926832595)
(0.008573537938 0.00290522114 -0.0002736141652)
(0.01554410299 0.002135492894 -0.004485358321)
(0.006278915046 0.00319769662 1.952630526e-05)
(0.007466597356 0.001497450283 0.002238697661)
(0.004931818681 0.0002381632843 0.0001694276529)
(0.01079624004 0.003988641134 -0.0008511855771)
(0.006041347734 0.001082995414 -0.0002738226761)
(0.007143256709 0.001409067022 -0.001412359082)
(0.01138753739 0.003124583881 -0.002981151369)
(0.007110123114 0.003681190435 0.000596679096)
(0.0132484409 0.0008966841891 -0.002661529969)
(0.006205077681 0.002990835956 -0.0006984268081)
(0.01218512857 0.00456146649 -0.001737265478)
(0.01019184007 0.003110551022 0.001145934531)
(0.007913091654 0.0005321394631 0.0007304173806)
(0.005614269398 0.0002851826908 0.001128657485)
(0.007782969504 0.0006098605034 0.0005245919888)
(0.01291137986 0.005414041356 0.000813925946)
(0.0118286786 0.005017203833 -0.00312453331)
(0.02232942205 0.004392059549 -0.003678252707)
(0.01961356586 0.008091335131 -0.0005441497824)
(0.00691750684 0.003291657899 0.001064540389)
(0.01393123134 0.005103697917 -0.002879006895)
(0.009306566366 0.005254739166 -0.001323651131)
(0.01367236575 0.002656836734 -0.001075864293)
(0.006611584902 0.00130217686 -0.0007821698218)
(0.01011189394 0.005127716677 5.912837605e-05)
(0.01504030549 0.00577690477 -0.0005408958813)
(0.01146801728 0.003969622454 0.001422072616)
(0.007891037057 0.001231282669 0.0003288583403)
(0.006881372712 0.002794414647 0.0001365362931)
(0.0153104006 0.006360614298 0.0002042667009)
(0.009230519964 0.004858206285 -0.000378850702)
(0.009640267815 0.00496986872 0.0001019731358)
(0.004987321398 0.00283731367 -0.001413915343)
(0.009988877225 0.00167357859 0.003246783491)
(0.01296584753 0.004262105573 0.001131745912)
(0.007390284682 0.0007956103937 0.001391965077)
(0.009159694351 0.002081369642 -0.001028021375)
(0.01142098382 0.00307294073 -0.0009818222568)
(0.009190163077 0.003314044913 0.001066404308)
(0.006622468831 0.003871536115 0.0009307308563)
(0.007725361678 0.001631385872 0.0002166342905)
(0.008467410213 0.0005721945736 0.0003887216701)
(0.007281027579 0.0002512329113 -0.0001237905758)
(0.006237130854 0.001177699676 -0.0007662017009)
(0.01295326853 0.002308439943 0.0001427742309)
(0.01523540143 0.005567447895 0.0004668139382)
(0.01133650799 0.002293617866 -3.555782416e-05)
(0.006152414951 0.0004336793258 0.001437747308)
(0.01023918923 0.003289150306 -0.0008691731586)
(0.008729967656 0.002967788964 -0.0005875763711)
(0.0152875095 0.005661838531 4.297965676e-05)
(0.01823177246 0.004103078134 0.001198872262)
(0.01279123247 0.004028375229 -0.0002211519071)
(0.01274652138 0.004884625062 -0.0004890508587)
(0.01028924362 0.003463840047 5.650267233e-05)
(0.01247030217 0.001461146753 0.001562058208)
(0.01266316304 0.003895642972 -0.001186719497)
(0.0139269596 0.00448548482 -0.001445416559)
(0.01436481608 0.004242450572 -0.001221086552)
(0.006350644842 0.002185369306 0.002276030483)
(0.01028304771 0.001045283814 -0.002891393956)
(0.01903887886 0.00527233702 -0.001885154817)
(0.008309432423 0.003590578395 -6.797010159e-05)
(0.01197478077 0.003910764319 -0.003350658459)
(0.01777709595 0.006117136841 0.001189503875)
(0.01175521976 0.002447076225 -0.0006060161139)
(0.0128938863 0.003508835568 -0.0003602330218)
(0.009348398926 0.002623428756 0.0002861807012)
(0.004257692523 0.001394951933 0.001165180593)
(0.006840788494 0.005583819763 0.0004269349917)
(0.008757351023 0.001835390606 -0.001491625468)
(0.0132374106 0.003225752942 0.001850413477)
(0.01293116743 0.003584594115 0.003979504075)
(0.006305118661 0.002264587582 -8.396068341e-05)
(0.01395514419 0.0002909218324 0.0009552308286)
(0.01090173966 0.002986585017 0.000550497838)
(0.0125303634 0.004745846043 0.0001284798347)
(0.01084938264 0.00340264409 -0.001283502447)
(0.01125470263 0.003652350793 0.0008928471657)
(0.01032911684 0.002837163741 0.0006218793076)
(0.01374528431 0.006832342186 -0.00034819323)
(0.01119815455 0.00178421576 0.0008546693122)
(0.01561786282 0.005905843406 0.002695748525)
(0.01550631872 0.005614203559 0.0001320429767)
(0.01759899606 0.005871582148 0.0001949322103)
(0.01090987753 0.002824676658 0.00223195994)
(0.01830855263 0.007060058645 0.001862144096)
(0.01065317947 0.0047073585 -0.001915528357)
(0.01373038877 0.00664369969 0.0001472234419)
(0.006355352722 0.00151628993 0.000522499773)
(0.01277265631 0.006416552331 3.441984909e-05)
(0.009285394681 0.00404265019 0.001726887572)
(0.01171999659 5.377948306e-05 -0.0001804710489)
(0.01009290359 0.004825577523 -0.003930882129)
(0.01375038381 0.004031630843 0.001981564699)
(0.007841591115 0.00352702597 0.0003257037955)
(0.008770187736 0.001626177673 -0.001082475327)
(0.01167314294 0.004163246859 6.51134657e-05)
(0.01603985382 0.004402482235 0.003847032011)
(0.00934608891 0.003246822279 -0.002552910088)
(0.01100765315 0.004116503375 0.0007265013441)
(0.007935168711 0.002515244617 -0.001129957582)
(0.01358130007 0.00435335191 -0.00314284809)
(0.007055466158 0.002624878725 0.0004620153925)
(0.008398636189 0.001313084518 -0.0001991286644)
(0.01029183912 0.002610908985 -0.0003908500089)
(0.01009345103 0.00182631944 0.001130037399)
(0.01136604763 0.001874124012 0.0002623473401)
(0.0144852215 0.004245531305 -0.0005391211575)
(0.01282993033 0.004323633066 -0.001869388119)
(0.01419765145 0.005351304823 -0.0008008223426)
(0.01008994394 0.004109123594 -0.0006116046181)
(0.0146203895 0.004187655205 0.0006552806153)
(0.009519290503 0.004538273548 0.0008914152474)
(0.01041499223 0.001283543243 0.0008101348918)
(0.01747535546 0.003713997903 -0.0003997402335)
(0.01585350681 0.005677966442 0.0001172601323)
(0.01609676777 0.005522285677 0.000207295051)
(0.01728480067 0.003609203023 0.0002733249712)
(0.01277266573 0.006340883611 -0.0005285110048)
(0.01880993222 0.008234229109 -0.0003851708437)
(0.01650924577 0.003664036951 -0.0001557580007)
(0.01438391554 0.00278018195 8.555060557e-05)
(0.02117733675 0.006890558484 -0.0008378080374)
(0.006008635652 0.003967282553 -0.001430986797)
(0.01237652598 0.006587011181 4.511150604e-05)
(0.01223865907 0.004437508037 -0.001104737264)
(0.01007530185 0.002798639563 0.0004331132007)
(0.01093879459 0.004442134592 -0.000197658381)
(0.01305544687 0.004669756489 0.002228489692)
(0.01514685556 0.00736806541 -0.0006376879916)
(0.01243606473 0.002972982967 0.001155583586)
(0.004829785006 0.0002127108414 -0.001043574556)
(0.01071026298 0.002592653374 -0.001152843232)
(0.005366326482 0.0001595369937 0.0004498328668)
(0.01072554881 0.0008826947226 -0.0001948543006)
(0.01317856148 0.00206810803 -0.0008199603753)
(0.009485515685 0.00204295082 0.000280488585)
(0.01192484535 0.003069736227 7.941784714e-05)
(0.01176254053 0.0033060592 0.0005191877382)
(0.01248554725 0.005228544319 0.000407113438)
(0.01511666711 0.005847281962 0.001433556336)
(0.01404644976 0.003939282046 -0.001640628984)
(0.00804717272 0.003091723594 0.001483755034)
(0.01709200397 0.005409533149 0.001150614558)
(0.01213971989 0.002928701018 0.001016437799)
(0.01380366531 0.004818254144 0.001074984716)
(0.01190871863 0.001729105756 -0.001226424081)
(0.02296345671 0.006232094801 0.0005214875173)
(0.01112168351 0.003893844005 -0.001615218025)
(0.009306348023 0.002329097603 -0.001973743083)
(0.01153525222 0.003628327469 -0.0009641325053)
(0.01633305005 0.006402152344 0.001552853852)
(0.0130614308 0.002538121787 -0.0002948367573)
(0.01483357254 0.008257211547 -0.002610409476)
(0.01386270481 0.005042862881 0.0008161960691)
(0.01085323915 0.005006475156 -0.0007027313075)
(0.007478242262 0.004438971933 -0.001184142928)
(0.009700604606 0.002514679546 -0.0003405581254)
(0.01197011613 0.004517580694 0.0006244388198)
(0.01330746493 0.003243457686 -0.0003543207193)
(0.01114492948 0.003221067562 0.0007344131503)
(0.0109852647 0.005007066104 -0.000198637342)
(0.01380706111 0.001502209042 -0.00262428505)
(0.00825228299 0.001041541305 -0.001496155089)
(0.01030303453 0.002270836296 -0.0002431077874)
(0.01086218422 0.002114886665 0.0009774866953)
(0.01000029388 0.0006573044158 0.0005349442546)
(0.01768360867 0.004118911995 -0.002745034299)
(0.01376317731 0.001480180685 0.0003536582028)
(0.01033616977 0.003693646117 0.0008544834097)
(0.0144494271 0.003853458719 0.0009059621988)
(0.01757526487 0.007043314264 0.0006491503598)
(0.01533010667 0.007276166947 -0.002100171179)
(0.01028849683 0.002934103027 -0.0001160674459)
(0.01601234626 0.005599168021 -0.001223067113)
(0.01101773522 0.004573821826 -0.0004089284617)
(0.008449183311 0.003236331874 0.0001165181504)
(0.01368451142 0.005225227538 0.0005591864753)
(0.009927211466 0.003828938914 -0.0009465092466)
(0.009537449149 0.005735943602 0.0008867985803)
(0.01298543815 0.003711047836 -0.0001994751279)
(0.01918932297 0.005055283736 0.0008299532734)
(0.007746350592 0.005045009726 0.0004666913249)
(0.01019043734 0.003380711786 0.00088993276)
(0.02318258412 0.0071616265 -7.532581886e-05)
(0.01493486077 0.00654840814 -0.003781169)
(0.01636648879 0.007233768479 -0.0009933424905)
(0.01048473636 0.002508267828 -0.002669516396)
(0.007750486577 0.001544841036 -0.001678780253)
(0.006442031496 0.00270364468 -0.001654562081)
(0.0134593372 0.003127067634 0.0006280794301)
(0.01085684359 0.004599808796 -0.0001051603917)
(0.01103971624 0.003903455961 0.001389617846)
(0.007106453108 -2.176592063e-05 0.0006347069632)
(0.008459790547 0.001475302432 -0.0007616366035)
(0.009668774321 0.001811389953 0.0004872711224)
(0.0128571512 0.002695730359 -0.001622711437)
(0.0114295208 0.002352381583 -0.001165758212)
(0.007948977219 0.00162062242 -0.0002147989724)
(0.009637447449 0.001201417423 -9.731109686e-05)
(0.009052622152 0.00185054766 -0.0002797395238)
(0.013383527 0.002220595506 0.00128937147)
(0.01608303376 0.005723548613 0.001460278212)
(0.01589071825 0.003448539519 0.0002516628907)
(0.01512577789 0.005597447329 2.52170329e-05)
(0.01320852838 0.002525091057 -0.0002937552993)
(0.01347362777 0.001843972657 0.0001886873121)
(0.0161299257 0.007271309957 -0.00194983557)
(0.01659977192 0.006175737442 -0.001000043149)
(0.01129116346 0.004758781439 0.001068820389)
(0.01029881834 0.006518149404 0.00230903445)
(0.02050235325 0.007819314734 -0.0001930687209)
(0.00531497528 0.002641671327 0.002049232207)
(0.01404081917 0.003717655308 7.840497869e-05)
(0.01303152921 0.003777208357 -0.0005720160168)
(0.008688090181 0.005049366849 0.001215853103)
(0.01287966051 0.001492674123 0.0003995403941)
(0.01442710246 0.00421395678 0.002699866165)
(0.01567354243 0.008580710573 0.002842034796)
(0.01718437074 0.005748065924 0.0004172529003)
(0.01424334694 0.0039321657 -0.0003813335666)
(0.008464867192 0.004799812346 3.657406407e-05)
(0.01231891636 0.004160570405 0.0002356989108)
(0.007731019436 0.0007582025049 0.0002834668086)
(0.00776041143 -0.0003040320614 -0.0003471399073)
(0.00910068605 -0.0003801862736 -0.0002093212953)
(0.01242993169 0.00179238843 0.0002729243124)
(0.0110698656 0.001448355168 -0.0002021525906)
(0.01008648013 0.001421715991 -0.0004921729384)
(0.01377013043 0.0009525104797 -0.0003303881297)
(0.01520378755 0.00458401612 0.0008460433444)
(0.01125962894 0.003524883001 0.000362860394)
(0.006167068096 0.001021096293 -0.0002648803996)
(0.01436826384 0.002691474534 0.00064758596)
(0.006948073735 0.003225035817 -0.002138120678)
(0.009192443813 0.002370752449 0.001090241104)
(0.01761849355 0.004377582826 -0.00169013836)
(0.01017790258 0.00302037892 0.0003703007103)
(0.01653726385 0.005158686629 0.0004179898457)
(0.01603436732 0.004434716999 -0.002427523825)
(0.01395167571 0.003798341299 0.0004841654726)
(0.01523496278 0.009089441236 0.001809428879)
(0.01749118558 0.004437688703 -0.002864581925)
(0.006437192129 0.003160500502 0.001017681586)
(0.01200196766 0.004977778606 -0.0004588838183)
(0.004986970117 0.003520301533 -0.0004473494206)
(0.01254473168 0.003713088277 0.0005787168807)
(0.01497840909 0.005304305446 -0.0002703234419)
(0.009178754843 0.001739424431 -0.002681829041)
(0.01423003273 0.005874946617 -0.00369816767)
(0.004934995763 0.001954060172 -0.001276726375)
(0.0135832918 0.004624870715 0.002085161813)
(0.009138190933 0.001497879151 0.000136348764)
(0.01116125335 0.00237009413 0.0006704279563)
(0.006163355749 0.0004996359634 0.0005403332983)
(0.012476922 0.0001362947597 0.0003794781935)
(0.01826893589 0.004214785885 0.0008700151924)
(0.006396035744 -2.07813789e-05 -0.000895496033)
(0.007122226682 0.001555484392 0.001030782059)
(0.009988089311 0.001336150665 -0.0005260056537)
(0.01427265148 0.0007871791316 0.002963406974)
(0.01091749487 0.0003348264847 0.0002228552475)
(0.007149786513 0.001644454099 0.0008223536805)
(0.01145762555 0.004805198259 -0.001077012441)
(0.01013313022 0.003889285408 0.0006038047029)
(0.008902574602 0.002953549204 0.0004046068855)
(0.007602254153 0.003362314539 -0.0003888440539)
(0.01374197045 0.005578298812 -0.0002184259712)
(0.0121021018 0.00343286702 -0.002906918913)
(0.01714281423 0.004444938414 -0.002228850452)
(0.0127215715 0.003573535374 -0.0004513914138)
(0.01361965349 0.004264777797 0.002159955832)
(0.012585062 0.006099755299 -0.0006085132823)
(0.01495115253 0.005670470701 0.001699896624)
(0.01117310678 0.004186573554 0.0001410573739)
(0.01966956066 0.007518606583 0.0003231225628)
(0.01024485127 0.005859646675 -0.001027655545)
(0.02109465729 0.005437505658 0.0002235692799)
(0.01207146171 0.005711233761 -0.0007682626898)
(0.019553405 0.005506700076 0.0005270627346)
(0.01771636902 0.009040047671 -0.0002149725998)
(0.009435861042 0.004930627018 -0.001978241965)
(0.0126050052 0.002982564036 -0.000341005273)
(0.003973405 -5.237580904e-05 -0.0002513667792)
(0.01078907033 0.0004591743101 0.0003859404826)
(0.009357000682 -0.0005205875416 5.045509727e-06)
(0.01195438166 0.0008602560002 -0.0001550886218)
(0.01285567 0.001873079268 0.0004490903688)
(0.01345013309 0.001213278862 0.001582894412)
(0.009451403925 0.001415510199 -0.0005838453812)
(0.009547932274 0.002006043497 0.0006002508425)
(0.01455343107 0.001212712736 -0.0001190131393)
(0.0110021379 0.0006841169895 -6.320462183e-05)
(0.007837430555 0.002008070759 0.0003647050695)
(0.009600159105 0.001231288676 0.002043436824)
(0.0104806857 0.003798678616 0.00204374974)
(0.00968300787 0.002411036687 0.0006100381617)
(0.01860285922 0.004379908661 -0.0008487744683)
(0.01526849667 0.002856341589 0.0015194378)
(0.017674286 0.003476682798 0.0004584551713)
(0.0160136327 0.003475917284 -0.0004251472762)
(0.0133813273 0.005118677558 -0.0006374038249)
(0.01213981237 0.006330763387 -0.0009821608708)
(0.01304869079 0.005945211321 0.0004608763636)
(0.008611112742 0.002465634636 0.0005455578071)
(0.02447032279 0.004687540364 0.002545967568)
(0.01717659007 0.005123788082 -0.0009426756495)
(0.02201978373 0.008229543818 -0.0002137904859)
(0.01312688981 0.005834560355 -0.0005532287763)
(0.01598414968 0.006195005721 0.001363342815)
(0.01387440982 0.004597183761 0.0008859424577)
(0.01336535371 0.0057438721 -0.001245924129)
(0.007997908746 0.005038924795 -0.0003096820514)
(0.008672440548 -0.0004097031494 0.0001982408324)
(0.008173509691 0.0007749356381 0.0002055576397)
(0.009595502881 0.0007267147126 -0.001508360826)
(0.007812165234 0.0002701634278 7.877990788e-05)
(0.008005743654 -6.920605172e-05 -0.0003519077678)
(0.01005656247 0.001225475243 0.0004260342192)
(0.01231071496 -0.0001280770891 0.0001980182091)
(0.01143192267 -2.118840443e-05 0.0005511473235)
(0.01189412104 0.000687698291 0.0003194580578)
(0.008721970826 0.002371254028 0.0005024857569)
(0.01272685816 0.0007391401897 -0.0001490040723)
(0.01185822957 0.001780912541 0.000223010393)
(0.01109044839 0.003286824881 -0.0009732513214)
(0.006399512611 0.001094316511 0.0004750805025)
(0.00687827107 -3.086476815e-05 0.0004216248019)
(0.01236814103 0.002701498721 0.0009769592397)
(0.01761603419 0.002720345621 -0.001367315879)
(0.0122157829 0.002422329109 -0.0004413670408)
(0.01883998295 0.002126134671 -0.003501261432)
(0.008501098412 0.004954090061 0.0009279554249)
(0.01918664105 0.007849545487 -0.001235181372)
(0.01100054053 0.00199356803 -0.000549502519)
(0.01140956127 0.006371701022 7.705138393e-05)
(0.01865886041 0.004333495388 -0.0002523839151)
(0.01431865895 0.002462772032 0.0004721708708)
(0.01779619859 0.004046888444 -0.001035531074)
(0.01796379345 0.004300162051 -0.0003120793604)
(0.01638738492 0.007809492518 -0.00157502377)
(0.01370310825 0.00294895202 0.0005958080793)
(0.009726856667 0.0008364400095 0.0002115258008)
(0.01398609201 0.0002645390044 0.000385024135)
(0.01214314785 0.0007332600793 -0.0007079536903)
(0.007408034769 -0.0006047489764 0.0004335759577)
(0.0110393407 0.0004671033857 -0.001206481568)
(0.009177290022 -0.0003285487979 0.0006456015526)
(0.006725044391 0.000906119843 -0.0003377615167)
(0.008766080744 -0.0004785409626 -0.0008361612611)
(0.008532295471 0.0003685925308 -0.0007275492923)
(0.007667982448 0.001699316525 0.00107393101)
(0.006863897036 0.001158679759 0.0001105838589)
(0.01050249265 0.001436092573 4.536676751e-06)
(0.01707030842 0.002536883666 -0.0007964312376)
(0.009279742434 0.0009815493894 0.0009688562589)
(0.01430974654 0.002960106707 -0.0009868831268)
(0.01405343168 0.005270176903 0.001696067029)
(0.01869229561 0.001350335154 0.0002968028735)
(0.0151876318 0.004925488715 -0.0004991598521)
(0.019180298 0.003806887713 -0.0005004202998)
(0.01557177538 0.003949431715 0.0009620718025)
(0.01854382704 0.005674955371 -0.00111664337)
(0.0160498584 0.006111501687 0.0007484729521)
(0.01526060646 -0.0001679306825 0.0008078106818)
(0.01446506536 0.00392886053 0.0004390835885)
(0.01234680605 0.0024070854 -0.0009512132186)
(0.007942461784 0.0003895559687 0.0003067445427)
(0.00926525664 -0.0003298174274 -0.0003450404399)
(0.006185386133 0.0003180897009 0.0001205580221)
(0.001077526573 -0.0002847253176 -0.0001758955887)
(0.008322799591 1.095270753e-05 -0.0001925729663)
(0.01699127039 0.001074837104 0.0004044023429)
(0.005555927916 4.14460604e-05 0.0003323046375)
(0.006659376677 0.0004802190215 -0.0004412516192)
(0.0154737018 0.001992233977 -0.0002741306064)
(0.009124397104 0.0009898481323 0.0005046618154)
(0.01315820936 0.001981912005 -0.0002476099031)
(0.01012778147 0.0003662573476 0.0001194020014)
(0.01107322472 0.0003697272268 0.0002681051131)
(0.01282535405 0.002240102004 -0.00160982559)
(0.01781705359 0.002539900375 6.708371088e-05)
(0.006927191052 0.001331355261 5.604632082e-05)
(0.01278306858 0.004215726182 -0.001427885667)
(0.02271376619 0.00922483697 0.001072189544)
(0.02059700999 0.003554807353 -0.0002012909499)
(0.006667877458 0.0006730525662 9.941040579e-05)
(0.01174533829 0.0001380080494 -0.000334101225)
(0.007563417012 0.0002964877933 5.060928223e-05)
(0.01069414674 0.0009007763637 -0.0002812246063)
(0.008229690865 -0.001618134869 0.0008269282842)
(0.01016013534 0.000777964178 0.001081241181)
(0.005024906182 0.0003432669025 0.001160671358)
(0.01282417425 0.0009045647409 -0.0005594160447)
(0.009963475278 -0.0003651365781 -0.0003063641305)
(0.01240234831 -0.0004145301042 -0.0003480854047)
(0.00880326754 0.001534207267 7.371776328e-05)
(0.01099000294 0.001058517716 -0.001390929609)
(0.007309661415 0.001775515076 -0.0005058675596)
(0.005995297774 0.00140865031 0.0002789044877)
(0.01359169942 -0.0005149510032 0.0001277407969)
(0.002342573506 -2.509069105e-05 -0.0002535105936)
(0.01167063976 0.0007149896924 -0.0006212007284)
(0.0103061354 0.0003506621664 -0.0004454490466)
(0.005734817992 -0.0001765440655 -0.0003568345242)
(0.00881013605 -0.000536629773 0.0004877330966)
(0.009503388195 -0.000152940543 -0.0001574945955)
(0.006878727902 0.0003828511128 -0.0001719147822)
(0.01105269697 -0.001135438819 0.0001361842434)
)
;

boundaryField
{
    flow
    {
        type            zeroGradient;
    }
    obstacle
    {
        type            calculated;
        value           nonuniform List<vector> 
30
(
(-1.853373439e-22 -4.966099171e-23 -2.940809603e-21)
(1.018080387e-21 2.72793818e-22 2.102622205e-21)
(4.718017747e-21 1.264189041e-21 2.514787893e-22)
(1.92967921e-21 5.170559869e-22 1.066841516e-21)
(1.223059269e-21 3.277177424e-22 -8.412091932e-22)
(1.426148554e-21 3.821353539e-22 -9.03907281e-23)
(0 0 0)
(0 0 0)
(1.515560251e-21 4.060931461e-22 -4.53730047e-21)
(-1.456143133e-21 -3.901723773e-22 -3.516244862e-21)
(0 0 0)
(0 0 0)
(-3.460840133e-22 -9.273293205e-23 -4.981041323e-22)
(0 0 0)
(1.414076589e-21 3.789006807e-22 1.929925087e-22)
(-2.723467823e-22 -7.297510014e-23 -2.599933308e-21)
(0 0 0)
(-2.557697645e-21 -6.853330197e-22 -1.716522648e-20)
(1.769699595e-21 4.74189576e-22 -5.584784688e-22)
(0 0 0)
(2.726374908e-21 7.305299561e-22 -4.887096909e-21)
(0 0 0)
(3.532501567e-22 9.465309438e-23 2.562510408e-22)
(0 0 0)
(0 0 0)
(0 0 0)
(7.290913621e-22 1.953594411e-22 -1.705790863e-21)
(-1.091270153e-21 -2.924049568e-22 1.678871984e-21)
(2.141923047e-21 5.739265518e-22 1.060169835e-21)
(1.503693008e-21 4.02913326e-22 1.255618164e-21)
)
;
    }
    frontAndBack
    {
        type            empty;
    }
    procBoundary1to0
    {
        type            processor;
        value           nonuniform List<vector> 
21
(
(0.00491981063 0.002304554473 -0.0008444600508)
(0.01145279502 0.002602981978 0.0006009357475)
(0.008172269902 0.004515327301 0.0007441170857)
(0.01269309551 0.004078189308 -0.001477505099)
(0.008788773285 0.004004145869 2.025101312e-05)
(0.01400718901 0.004010775742 -0.0009148420963)
(0.008233653399 0.002472227168 0.000180614612)
(0.01689944616 0.002281924127 -0.00029767501)
(0.01146304684 0.004402723554 -0.001776673673)
(0.006953084119 -0.000460326226 -0.0004562877129)
(0.009365012327 0.0008381527495 0.0005438802668)
(0.004332473845 0.0003218095453 0.0001203771272)
(0.006998768844 0.0001546991537 -0.0004575475611)
(0.007024721704 -0.0003067870744 0.0006964554291)
(0.007056291766 -0.0006486083982 9.203753906e-05)
(0.01088715879 0.001121394922 -0.0006263972101)
(0.004087879359 0.0005774367897 -8.400908389e-05)
(0.006542439928 -0.0004103312634 -0.0001540632585)
(0.008246219359 -0.0003207624229 -0.0008675146231)
(0.005607445385 7.341854183e-05 0.0004205594907)
(0.005273070354 -0.0002435847973 -0.0001080263689)
)
;
    }
    procBoundary1to3
    {
        type            processor;
        value           nonuniform List<vector> 
36
(
(0.01501790165 0.005072750764 0.0008236849168)
(0.01511670124 0.007586987389 -0.0002915488744)
(0.01526501243 0.00724910211 0.0008610265623)
(0.01630952818 0.00511439063 -0.0005181971035)
(0.01501790165 0.005072750764 0.0008236849168)
(0.02133887181 0.00676178355 0.0006192596156)
(0.008978157873 0.004015581421 -0.001552087146)
(0.0121593293 0.003132204575 -0.0004866626462)
(0.01735743785 0.005205516879 -0.00126812231)
(0.01762473129 0.00634249496 -0.0002947720588)
(0.01240413878 0.004227545689 0.0006783162138)
(0.01511670124 0.007586987389 -0.0002915488744)