/*--------------------------------*- C++ -*----------------------------------*\
| =========                 |                                                 |
| \\      /  F ield         | OpenFOAM: The Open Source CFD Toolbox           |
|  \\    /   O peration     | Version:  2406                                  |
|   \\  /    A nd           | Website:  www.openfoam.com                      |
|    \\/     M anipulation  |                                                 |
\*---------------------------------------------------------------------------*/
FoamFile
{
    version     2.0;
    format      ascii;
    arch        "LSB;label=32;scalar=64";
    class       volVectorField;
    location    "0.007";
    object      momentumMean;
}
// * * * * * * * * * * * * * * * * * * * * * * * * * * * * * * * * * * * * * //

dimensions      [1 -2 -1 0 0 0 0];

internalField   nonuniform List<vector> 
546
(
(0.005492863221 0.001524503151 4.532556481e-05)
(0.005201576655 0.001513010204 1.305702919e-06)
(0.005023896539 0.001403549781 2.740634849e-05)
(0.004841168325 0.001348836597 -5.048259773e-07)
(0.004670820903 0.001297509949 -4.468052766e-05)
(0.00452571755 0.001269681688 -0.0001365192759)
(0.004484695688 0.001198506566 -6.972677329e-05)
(0.004369300636 0.001230495789 3.758534083e-05)
(0.004208904489 0.001182098436 3.853941103e-05)
(0.004067038295 0.001114756787 8.150606592e-05)
(0.003934323166 0.001124039282 5.660057146e-05)
(0.003865921065 0.001029345128 -5.308560551e-05)
(0.003730954126 0.001050250163 -4.862907545e-05)
(0.00366725965 0.001002938374 3.00107811e-05)
(0.003527927642 0.0009936692005 -4.235746762e-05)
(0.003404595923 0.0009489532808 -5.352124886e-05)
(0.003287148009 0.0008948050381 -6.585993598e-05)
(0.003349305755 0.0008861429403 4.114500868e-05)
(0.003219366269 0.0008983297185 -3.800168009e-05)
(0.003134818023 0.0008534479083 -1.029142592e-05)
(0.003183091724 0.0008071987098 -2.988757868e-05)
(0.003213263182 0.0008809137572 7.18482972e-06)
(0.003082666092 0.0008617992711 0.000130250454)
(0.003176697204 0.0007833087465 9.129676553e-05)
(0.003175275551 0.0008121106722 -4.096891433e-05)
(0.00313430763 0.0008740757158 -1.880950798e-05)
(0.003088916953 0.0008302566716 2.279054367e-05)
(0.003137694317 0.0008065931386 8.307148359e-05)
(0.003291220493 0.0007996220145 0.0001438677975)
(0.003589781754 0.0006875263851 3.492568429e-06)
(0.008402383177 0.002619110897 -8.229707397e-05)
(0.008111020973 0.002474175538 -4.360105356e-05)
(0.007789994992 0.002331756659 1.505685851e-06)
(0.007550696239 0.002260880531 2.672595724e-05)
(0.007376998788 0.002133330025 4.219022169e-05)
(0.007243057464 0.002070937855 -6.591195358e-05)
(0.00692570011 0.001989370044 5.942769537e-06)
(0.006731461899 0.001951357006 -6.35955486e-05)
(0.006530392082 0.001946663329 -7.917773818e-05)
(0.006381005887 0.001853972553 -2.43206768e-05)
(0.006213453899 0.001823256366 3.188485203e-05)
(0.006056437682 0.001744047207 -7.863244324e-06)
(0.005874631213 0.001726356422 -2.588699984e-05)
(0.005704877266 0.001633361161 6.738553638e-05)
(0.005558905685 0.001590935821 4.49562283e-05)
(0.005498552962 0.001599015632 3.56593976e-05)
(0.005364563013 0.001489069566 -3.490898988e-05)
(0.005170346748 0.001433415369 1.61220215e-05)
(0.005088271893 0.001465124393 -6.456434603e-06)
(0.005016616975 0.001352094776 5.287525729e-05)
(0.004950064182 0.001299386248 -2.140625161e-05)
(0.004763316347 0.001336547162 5.474757173e-05)
(0.004860212191 0.001295899754 -5.143413683e-05)
(0.004770385816 0.001200604815 6.306518962e-05)
(0.004703459127 0.001293246078 -2.128770126e-06)
(0.004689674876 0.001263211188 -1.887879941e-05)
(0.004700065789 0.001257821862 0.0001093199675)
(0.004677948182 0.001127478829 6.729877518e-05)
(0.004735121225 0.001114128208 3.075421452e-05)
(0.004967276594 0.0007343125172 7.333850218e-08)
(0.0103537479 0.003312840241 -9.540916627e-05)
(0.01022269897 0.003219578626 -9.13540562e-05)
(0.009998799906 0.003181835928 -7.482744254e-05)
(0.00963410624 0.00298825461 -7.469917736e-05)
(0.009253886756 0.002808054597 2.562446342e-05)
(0.008896071896 0.00276029636 -8.365989899e-05)
(0.008725003915 0.002658552701 -9.761771699e-05)
(0.008506667217 0.002582501645 -0.0001371229615)
(0.008375633328 0.002524361316 -3.832178549e-05)
(0.008124901551 0.002423605906 -2.194490845e-05)
(0.00793919773 0.002440570457 -2.491311401e-05)
(0.007738330336 0.002337870906 4.813866988e-05)
(0.007472843894 0.002241962201 4.788094466e-05)
(0.007249639579 0.002187923948 3.825126309e-05)
(0.007116538192 0.002113594986 5.277723658e-05)
(0.007009347248 0.002025183007 3.096256852e-05)
(0.006946780325 0.001996022133 -7.333861437e-05)
(0.006794174111 0.001948984999 -2.741360856e-05)
(0.006616582686 0.001939766001 -3.702590915e-05)
(0.006481667194 0.001805352607 3.440228767e-05)
(0.006264759516 0.001761629217 -1.286016504e-05)
(0.006263746799 0.001661977602 -4.930772388e-05)
(0.006201348707 0.001722409812 1.3012619e-05)
(0.005980636983 0.001639210377 1.233473501e-08)
(0.005867855539 0.001582961788 3.362238029e-06)
(0.005766623316 0.001563507227 5.997426027e-05)
(0.005773873143 0.001518169119 4.47599836e-05)
(0.005841627682 0.001448110761 2.138267312e-06)
(0.005844983387 0.001286654762 3.806317805e-05)
(0.005978179866 0.0008615574056 1.424252375e-05)
(0.01146669975 0.003657016498 1.82976496e-06)
(0.01143618419 0.003652151533 -3.361455641e-05)
(0.01132193203 0.003743369527 -5.17179227e-05)
(0.01112757562 0.003659454135 -5.444214696e-05)
(0.01097000576 0.003538988322 -4.51144487e-05)
(0.01077490724 0.003331660942 -4.604442665e-05)
(0.01051382417 0.00328028784 -2.433221022e-05)
(0.01024470129 0.003212587501 -2.123281212e-05)
(0.009909427455 0.003158788312 -4.291372442e-05)
(0.009630808547 0.003036477707 -7.897303825e-06)
(0.009440366202 0.002918182027 -2.262444269e-05)
(0.009133291733 0.002859909716 -3.805736003e-05)
(0.009012309971 0.002793847917 -5.441477501e-05)
(0.008876915159 0.00274751708 -6.014362599e-05)
(0.008607044964 0.002624512656 -1.129100121e-05)
(0.008388780468 0.002433432179 -1.935465594e-05)
(0.008269346221 0.002423381359 7.811026909e-05)
(0.008066531847 0.002412058687 -4.006800715e-06)
(0.007921209061 0.002386048429 -4.866297001e-05)
(0.007761711154 0.002270060483 -2.666073475e-05)
(0.007626397399 0.002155227193 7.444676927e-05)
(0.007376976886 0.002048615978 7.473536911e-05)
(0.007191755114 0.002065370876 -3.871721164e-05)
(0.007083200803 0.002034302582 3.567065078e-05)
(0.007040076367 0.001923544855 5.157349928e-05)
(0.00697269623 0.001887968434 -2.968161257e-06)
(0.006808727967 0.001806970436 -2.930628764e-06)
(0.006844118461 0.001622805771 1.71350188e-05)
(0.006881613611 0.001487561815 2.946625284e-06)
(0.006916281129 0.001157717341 6.360857324e-05)
(0.01183065173 0.003710585024 3.417362141e-05)
(0.01190052676 0.003753241667 4.812589827e-05)
(0.01208134497 0.003920644623 2.860063658e-05)
(0.01214899499 0.0039349256 -1.997216887e-05)
(0.01206209327 0.003875216719 -3.101330092e-05)
(0.0118606665 0.003839130126 -8.733043863e-06)
(0.01164122915 0.003809870039 2.533371586e-05)
(0.01141051133 0.00371738234 -2.544112245e-05)
(0.01130253968 0.003694265286 -0.0001030859739)
(0.01104520809 0.003528464235 -4.745732081e-05)
(0.01076837128 0.003482371616 -6.234303884e-05)
(0.0106608062 0.003356973959 1.888083851e-05)
(0.01047326305 0.003275552171 -2.255546837e-05)
(0.01017646264 0.003251951259 -6.643009763e-06)
(0.01001493341 0.003141138875 -1.210649084e-05)
(0.009718858729 0.002970395515 -1.597613073e-05)
(0.009373125129 0.002825687615 3.68056691e-05)
(0.009210647176 0.002874033974 5.519518357e-05)
(0.009004721451 0.002708659832 1.404220908e-05)
(0.008827201137 0.002664536498 7.974712102e-06)
(0.008694310801 0.002570194503 2.842839409e-05)
(0.008473810912 0.002477097643 -4.271852879e-05)
(0.008299390024 0.002401344615 3.930141416e-06)
(0.008177241198 0.002376953567 4.61309553e-05)
(0.008027869075 0.002224769702 9.594733241e-05)
(0.007944273637 0.002186446034 2.335733867e-05)
(0.007988306326 0.002100559018 -3.490589779e-05)
(0.007770832993 0.001902107074 -3.129549582e-05)
(0.007677125978 0.001657526322 -3.728072006e-06)
(0.007549865029 0.001402297623 -1.504628165e-05)
(0.01192704569 0.003527592106 -1.38257532e-05)
(0.0121327788 0.003700138737 -1.581388701e-05)
(0.01233658426 0.003810465361 1.604832829e-06)
(0.01242645649 0.003971409822 -9.490615741e-06)
(0.01245053647 0.004068315458 4.61921068e-06)
(0.01241729777 0.004114978686 2.53878621e-05)
(0.0124305674 0.004043621543 1.149433025e-05)
(0.01235250439 0.003988736409 1.547098229e-05)
(0.01221569549 0.003973589667 -1.529121673e-05)
(0.01217426923 0.00402131476 8.815923123e-06)
(0.01204034107 0.003945851971 -2.951123378e-05)
(0.01171999207 0.003814591008 -2.027538185e-05)
(0.01141437666 0.003695232122 1.361064238e-05)
(0.01124484025 0.003637413322 5.971507193e-05)
(0.01107300678 0.003529270666 5.286000173e-05)
(0.0109087329 0.003473632619 2.014020285e-05)
(0.01063907792 0.003322654219 2.191733617e-05)
(0.01046840327 0.003297626429 7.388143542e-05)
(0.0102463516 0.003213024161 4.279883179e-05)
(0.01002911088 0.003058871787 2.588797895e-05)
(0.009725070199 0.003003761533 -1.234753728e-05)
(0.009521997516 0.002866432103 1.69076637e-05)
(0.009369893758 0.002753361139 -7.857862812e-05)
(0.009249777634 0.002733023282 8.015079053e-06)
(0.009050827599 0.002579897804 4.072451925e-05)
(0.008897693065 0.002470515695 2.707595945e-05)
(0.008708002773 0.002350152531 -3.681924346e-05)
(0.008654118756 0.002171014131 -4.984559351e-05)
(0.008567590019 0.001981201544 1.870686056e-06)
(0.008333088565 0.001700137073 -5.893900691e-05)
(0.01163618418 0.003088070032 -3.599786422e-05)
(0.01204939996 0.003398285509 -2.840121811e-05)
(0.01228058853 0.003659390532 -8.19924568e-05)
(0.0124880013 0.003865696452 -5.112568658e-05)
(0.0127498428 0.004029602207 -3.511970117e-05)
(0.01300879196 0.004184230296 -6.356836447e-05)
(0.0130513818 0.004213937109 -7.749905312e-07)
(0.01303960978 0.00427935529 -2.871571816e-05)
(0.01298278257 0.004191710814 1.174875208e-05)
(0.01293164938 0.00418912203 3.891063857e-05)
(0.01276932254 0.004271077462 4.407534153e-05)
(0.01265825831 0.004221872266 -3.120640493e-05)
(0.01259015041 0.004111030577 -2.600598001e-05)
(0.01240193228 0.004068652025 4.748610919e-06)
(0.0120654206 0.003965895516 -3.134968443e-05)
(0.01185431221 0.003888162179 1.119620726e-05)
(0.01163680404 0.003707056245 -6.300863643e-06)
(0.01140404869 0.003620030162 -8.903883294e-06)
(0.01124589093 0.003572934327 2.2691274e-05)
(0.01090372957 0.003498122992 -1.792170577e-05)
(0.0108001287 0.003352617997 5.189588225e-05)
(0.01064168163 0.003292105142 -1.105340141e-05)
(0.01042501735 0.003112935757 1.180358425e-05)
(0.01026819673 0.003012272484 -8.11200335e-07)
(0.01017826079 0.00302891746 2.889834314e-05)
(0.009925943623 0.002819431619 4.846527172e-05)
(0.009759433309 0.002702394006 8.186581243e-05)
(0.00961044505 0.002470502239 6.803811969e-05)
(0.009354333823 0.002310939382 4.678109694e-05)
(0.009128722802 0.002028721484 4.003124339e-05)
(0.01099660799 0.002540387913 -1.779285082e-05)
(0.01146842811 0.002940544339 -3.45738158e-05)
(0.01201812683 0.00326579279 -3.564276038e-05)
(0.01248171718 0.003554374105 -3.346382099e-05)
(0.01270874306 0.003712744975 -6.150733151e-05)
(0.01291439359 0.00401645538 -1.212292285e-05)
(0.01320782366 0.004161782605 -1.651054104e-05)
(0.0133797455 0.00427217326 1.885306705e-05)
(0.01338586078 0.004339531254 1.390710828e-06)
(0.01340095532 0.004346621312 -6.024578824e-05)
(0.01341740032 0.004425915261 -1.654170815e-05)
(0.01340242005 0.004463533134 1.432279865e-05)
(0.01319327566 0.004372277539 1.290166563e-06)
(0.01308193035 0.004392984606 4.011918812e-06)
(0.01298783932 0.004295075513 -3.317273462e-06)
(0.01286498598 0.004227211139 7.076670841e-06)
(0.0126718992 0.00414127639 4.634858762e-05)
(0.01237415096 0.004023848205 -5.513235679e-06)
(0.01222906803 0.003995141638 1.058734323e-05)
(0.01206080005 0.003872417112 -7.422333581e-05)
(0.01187697125 0.003757415466 -2.1058079e-05)
(0.01154802477 0.003592025753 1.672017865e-05)
(0.01136208831 0.003487651961 -2.279298101e-05)
(0.01114768393 0.003317969245 -1.228933229e-05)
(0.01092011079 0.003294171621 -3.525491306e-05)
(0.01072685315 0.003170780977 3.551773662e-05)
(0.01053668418 0.003002691896 -3.258070846e-05)
(0.01030318013 0.002771049924 1.745303808e-05)
(0.01018928758 0.002651403985 9.069044927e-06)
(0.009977385895 0.002338659789 -1.283676408e-05)
(0.01059750532 0.002064926417 -1.645902585e-06)
(0.01101078158 0.00240430006 -2.009198268e-06)
(0.01143860319 0.002730577589 1.105036665e-05)
(0.01182261727 0.003091409892 -1.056788971e-05)
(0.01232326016 0.003361800216 2.528694317e-05)
(0.0125749287 0.003620755579 -1.902673516e-05)
(0.01290128342 0.003908318686 -3.258774803e-05)
(0.01314818078 0.004039523487 -1.727348908e-05)
(0.01339790973 0.00430481777 -1.213581017e-05)
(0.01347815209 0.004338515248 2.676212461e-05)
(0.01358664226 0.004423902479 4.854462741e-06)
(0.01368859823 0.004536189735 0.0001003721935)
(0.01380999165 0.004546360671 4.39845845e-05)
(0.01374538274 0.004554339158 -3.146092382e-05)
(0.01372101942 0.004517428908 -1.308052648e-05)
(0.01359444881 0.004522062597 -3.783200853e-07)
(0.01341193529 0.004481392849 -4.699083329e-05)
(0.01326481437 0.004333880263 -2.204504621e-05)
(0.01305308861 0.004254192881 2.174668966e-05)
(0.01284875378 0.004229544024 4.389569115e-06)
(0.01259085641 0.004124476718 -6.983177683e-05)
(0.01246857176 0.00399744022 4.994462099e-06)
(0.01216062574 0.003819783669 -5.416606474e-05)
(0.01201561755 0.003695306003 -6.354219566e-06)
(0.01178252712 0.003581636992 -2.395738455e-05)
(0.01162672611 0.003493925587 -7.299716267e-05)
(0.0113834844 0.003306479788 -2.979775426e-05)
(0.01116169523 0.003137632197 -5.629325805e-05)
(0.01088025178 0.002917926122 -2.394727008e-05)
(0.01070735723 0.002663258491 -5.868909677e-06)
(0.009951889233 0.0015741219 8.666937523e-06)
(0.01025777179 0.001846301745 4.594139273e-05)
(0.01067889709 0.002204216432 4.346257342e-05)
(0.0111461044 0.002527086548 4.961662042e-05)
(0.01160718132 0.002891076194 3.191463749e-05)
(0.01206178695 0.003205610181 7.323968011e-06)
(0.01256027573 0.003490758276 9.984659049e-06)
(0.01288488526 0.003764828621 6.799031137e-06)
(0.01323150208 0.0039429713 -3.196865905e-05)
(0.01356775083 0.004193868501 -2.742801301e-05)
(0.0137993904 0.004316781567 3.44210935e-05)
(0.01398518911 0.004495153655 -5.823938428e-06)
(0.01400496202 0.004543152336 3.284862381e-05)
(0.01403833306 0.004639391501 3.208640361e-05)
(0.01404885225 0.004659184641 1.264644193e-05)
(0.01399377162 0.004656790395 -2.628526255e-05)
(0.01397570399 0.004663867541 -3.467664958e-05)
(0.0138485337 0.004666880073 -5.027189985e-05)
(0.0136893086 0.004507184678 -8.089464945e-05)
(0.0135833697 0.004482075634 -3.552523675e-05)
(0.01343183712 0.004406101133 -7.873473447e-05)
(0.01324260113 0.004305024295 -1.775269451e-06)
(0.01302790885 0.00418624621 2.344060875e-05)
(0.01269761379 0.00398668699 -4.768387739e-06)
(0.01256746918 0.00389054322 1.950089811e-05)
(0.0123246998 0.00379810209 -2.429168992e-05)
(0.01209222586 0.003667042124 -2.373081119e-05)
(0.01191387945 0.00347563524 1.50623387e-05)
(0.01157516635 0.003223473486 2.861973702e-06)
(0.01127223717 0.002970809873 2.440856849e-07)
(0.009697491702 0.001227487706 -6.284934866e-06)
(0.009990248268 0.001491450679 -4.672129021e-06)
(0.01030416814 0.001742528933 -3.53693865e-05)
(0.01074369705 0.002068679396 -1.817616493e-05)
(0.01110290333 0.00234096141 3.017400828e-05)
(0.01156278441 0.002646786492 8.868467266e-05)
(0.0120158159 0.002998299978 4.457225271e-05)
(0.01253146958 0.003329858206 6.138538068e-05)
(0.01297240443 0.003614487329 1.764864286e-05)
(0.01338362032 0.00389109216 -3.114512323e-05)
(0.01366666159 0.004106471853 -3.082010774e-05)
(0.01381912337 0.004288012254 -5.84259887e-05)
(0.0141009298 0.004511893443 -5.427034481e-05)
(0.01419930786 0.004643213196 -2.019516662e-05)
(0.01424094642 0.004669567162 -7.821119536e-06)
(0.01429424971 0.004643656713 3.062355549e-05)
(0.01432894652 0.004774502954 5.951983921e-05)
(0.01435522553 0.004819992028 2.982871422e-05)
(0.01416831827 0.004766346707 -2.358383131e-06)
(0.01409227916 0.004661272293 3.594746859e-05)
(0.01397117219 0.004605631897 3.498087451e-05)
(0.01386878552 0.004562389206 -3.214514867e-05)
(0.01364680782 0.00447142861 -5.533399061e-06)
(0.01345636369 0.004351013169 4.04345111e-05)
(0.01306669753 0.004188675199 4.180789956e-05)
(0.01294126915 0.004046155215 7.686283329e-05)
(0.01268662773 0.003884382116 3.750504242e-05)
(0.01261416129 0.003759633657 5.449472442e-05)
(0.01244072251 0.003606040514 2.436513761e-05)
(0.01207306581 0.00332181744 -9.159748463e-06)
(0.009278014045 0.0009029670994 1.204762294e-05)
(0.009573301655 0.001127736806 1.291147443e-05)
(0.009876233256 0.00134779067 1.937676017e-05)
(0.01023035596 0.001594894276 2.576397154e-05)
(0.01067239729 0.001898874968 -1.854564265e-06)
(0.01098907247 0.00219371987 -5.31885083e-06)
(0.01145358983 0.00249870145 4.124190456e-05)
(0.01187907356 0.002737482626 3.688538145e-05)
(0.01238356262 0.003084628686 5.559609209e-05)
(0.01277889172 0.003424815756 1.897890777e-05)
(0.01323322361 0.003765603083 -6.999252417e-05)
(0.01352113633 0.003991983808 -2.578201177e-05)
(0.01385855377 0.004233931774 -2.080611167e-05)
(0.01419076216 0.004465310858 3.344345478e-07)
(0.01437552979 0.004609342082 4.391522647e-05)
(0.01450609804 0.004722013162 3.493025987e-05)
(0.01454316939 0.004780515795 2.371359305e-05)
(0.01460647791 0.004815827555 2.258377514e-05)
(0.01468661241 0.004893805269 3.419466733e-05)
(0.01459988425 0.004845936736 -1.082923906e-05)
(0.01442488349 0.00479249324 4.27744825e-05)
(0.01436554431 0.00480838684 8.465627283e-05)
(0.0141976466 0.004719055509 4.519663055e-05)
(0.01402888909 0.004593488858 2.436390381e-05)
(0.01387243146 0.004463749944 3.879462362e-05)
(0.01369931865 0.004336785229 8.793157704e-06)
(0.01350139283 0.00421843271 3.08997912e-05)
(0.01315576873 0.003998347615 1.575613803e-05)
(0.01298258283 0.003884146602 5.453886242e-05)
(0.01288212893 0.003674252575 3.643390462e-05)
(0.00906276146 0.0006452090822 -1.351100893e-05)
(0.009241367788 0.0008200216123 -1.2766826e-05)
(0.009556727279 0.001023724849 -1.795901381e-05)
(0.009750406882 0.001222226038 7.770830961e-06)
(0.01007316842 0.001461327693 -5.266459616e-06)
(0.01047277487 0.001738689459 -1.055770726e-05)
(0.01085103257 0.001999400859 -3.1642652e-05)
(0.01123200486 0.002304154048 -2.566181743e-05)
(0.01158870349 0.002640693929 -2.100967879e-05)
(0.01195857889 0.002909762317 6.290562976e-06)
(0.01240264923 0.003194105579 2.482676716e-05)
(0.0129900944 0.00355496448 -2.609017971e-05)
(0.01349506608 0.003830181743 -3.597881002e-05)
(0.01385285932 0.004162656966 -3.028212223e-05)
(0.0141677231 0.004402277633 9.373574074e-06)
(0.01440780067 0.00455721974 1.442844428e-05)
(0.01451248173 0.004661504751 1.572131553e-06)
(0.01468446128 0.004783709197 2.130013611e-05)
(0.01485081839 0.004884438725 2.918010072e-06)
(0.01495298365 0.004940948417 4.340008375e-05)
(0.01490977377 0.00491411081 1.229113464e-05)
(0.01491263459 0.004983450421 1.936247459e-05)
(0.01476358482 0.004896885976 3.428128725e-06)
(0.01468066907 0.004827012998 5.577073916e-05)
(0.01458062742 0.004711773558 3.049358781e-05)
(0.01440196061 0.004647073474 -1.035933926e-05)
(0.01416185485 0.004542072128 2.679791226e-05)
(0.01394702482 0.004341828855 5.87854173e-05)
(0.01377693266 0.004110847992 4.615562207e-05)
(0.01349924559 0.003922798377 0.0001088773194)
(0.00873367066 0.0004880460352 -8.648865633e-06)
(0.008932622773 0.0005875164272 -2.103398763e-05)
(0.009096151451 0.0007220636382 7.941221701e-06)
(0.009432318102 0.0009022919162 -1.542352619e-05)
(0.009655805456 0.001118428104 -2.596233721e-05)
(0.009915482011 0.001320110767 -2.864505167e-05)
(0.01018679432 0.00155678217 -1.277305744e-05)
(0.01054055161 0.001859298918 -3.21198687e-05)
(0.01097560828 0.002122789524 -4.116587141e-06)
(0.01145085865 0.002445273566 3.943434345e-06)
(0.01199653149 0.002722641817 -7.181450023e-06)
(0.01233374468 0.003013024297 1.393196949e-05)
(0.01270368219 0.003331477856 -1.181274014e-05)
(0.01320344889 0.003671013402 -7.21391325e-05)
(0.01361667952 0.004011149261 -5.641472409e-05)
(0.01411726669 0.00428115491 -1.75513838e-05)
(0.01448496335 0.004471393378 -2.550645772e-05)
(0.0147823028 0.004638753641 -2.81870873e-05)
(0.01495304973 0.004801340324 -3.3844778e-06)
(0.01509037887 0.004902595572 1.411107134e-05)
(0.01515517252 0.004937893266 -9.533747485e-06)
(0.01512800086 0.004956585439 1.324790988e-05)
(0.01535598021 0.00506613642 2.396845079e-05)
(0.01528083418 0.005018950689 -1.68665138e-05)
(0.01511213552 0.004949231792 3.785112994e-05)
(0.01490267354 0.004829210211 2.275074979e-05)
(0.01488937931 0.004758328687 -2.228612087e-05)
(0.01467334829 0.004636852209 -5.49578179e-06)
(0.01442707239 0.004426296834 -2.669917989e-06)
(0.01413233383 0.004156093045 -1.604488561e-06)
(0.008775638914 0.0003542567869 -9.778170613e-06)
(0.008902929945 0.0004413335067 -1.635404781e-05)
(0.008997739625 0.0005318887151 -2.69655677e-05)
(0.009036991814 0.0006495951329 -2.455019003e-05)
(0.009269703431 0.0008623531448 -1.397724976e-05)
(0.00948659493 0.001038515493 -1.675333106e-05)
(0.009779702433 0.001202359171 -3.267117175e-05)
(0.0100565396 0.001460119413 -4.161609487e-05)
(0.01042221621 0.001669854793 -4.244295423e-05)
(0.01080364862 0.001908289234 -3.046100882e-05)
(0.0112155174 0.002261784285 1.570814028e-05)
(0.011566366 0.002549569936 2.46355719e-05)
(0.01214782819 0.002852996956 4.253597477e-06)
(0.01269532894 0.003158152689 1.138231333e-05)
(0.01322368091 0.003459906096 -1.365575623e-05)
(0.01375757345 0.003827268538 -4.521888076e-05)
(0.01416034854 0.004121949831 -1.17072314e-05)
(0.01447548434 0.004381431732 -1.232174621e-06)
(0.01478077699 0.004562923298 -3.110320186e-05)
(0.01510288262 0.004743818728 1.93949487e-06)
(0.01532132686 0.00485927298 8.267555945e-06)
(0.01555742362 0.004986132542 7.977508219e-06)
(0.01558517841 0.005051369221 -9.02066768e-06)
(0.01552766947 0.005110181477 1.912550513e-05)
(0.01552522318 0.005086863765 -2.307620017e-05)
(0.01548433112 0.004993957797 4.421657354e-06)
(0.01538313818 0.004965805757 -1.15389265e-05)
(0.01517628698 0.004834040145 3.020080838e-05)
(0.01497826839 0.0047097055 1.403691484e-05)
(0.01475496596 0.0045297867 -1.984974636e-05)
(0.008508357783 0.0002712152862 2.08437598e-05)
(0.008472568338 0.0003220606981 9.798796651e-06)
(0.008662421481 0.0004266177426 6.779034659e-06)
(0.008711633988 0.0005265002979 -9.530055318e-07)
(0.008889095299 0.0005942950259 -4.448157699e-06)
(0.00910046314 0.0007451296963 2.260850874e-05)
(0.009371500124 0.0009104852922 2.280361454e-05)
(0.00969615321 0.001076084301 2.583279447e-05)
(0.009996396429 0.001303200708 5.254037421e-06)
(0.01030854808 0.001519999016 1.309980646e-05)
(0.01074309561 0.001786128276 1.902129635e-05)
(0.01123686825 0.002085734884 -2.644231029e-05)
(0.01158375359 0.002346769547 -1.244473638e-05)
(0.01205194588 0.00264185517 2.797757371e-05)
(0.01249565868 0.002997835903 1.190709711e-05)
(0.01289655478 0.003291562877 2.177292089e-05)
(0.01336888728 0.003635034118 2.651597358e-05)
(0.0138459849 0.003938000564 1.50758104e-05)
(0.01423396831 0.004167339832 9.568085526e-06)
(0.01468807382 0.004442279756 -3.835535328e-05)
(0.01499622253 0.004652239004 -1.579767441e-05)
(0.01513374887 0.004831656128 3.263022303e-06)
(0.01533295859 0.004952220491 1.578409127e-06)
(0.01552399689 0.005055875782 -1.359013157e-05)
(0.01570987836 0.005075722118 4.071100927e-05)
(0.01565570429 0.005081663422 4.376179227e-05)
(0.01557519339 0.00507149222 2.672716777e-05)
(0.01549193852 0.004988641258 -9.981006667e-06)
(0.01530504144 0.004915303132 9.033489558e-06)
(0.0085203976 0.0002250621318 1.084696361e-05)
(0.00859124477 0.0002661052828 -2.832200548e-06)
(0.008643242071 0.0003089008903 4.939807387e-06)
(0.008819640183 0.000379767625 1.168250973e-05)
(0.008884520964 0.0004685603621 1.671283395e-05)
(0.009055634151 0.0005603935749 5.352728337e-08)
(0.00923544212 0.0006827777122 2.487117303e-06)
(0.009464209555 0.00081810976 -1.643514884e-05)
(0.009628464422 0.001004302321 -1.24954374e-05)
(0.009929247801 0.001176145712 -6.495478411e-06)
(0.01019620715 0.001409380504 -1.811004159e-05)
(0.01044281899 0.001619262006 -1.663392675e-05)
(0.01077633666 0.001914410698 -3.45985593e-05)
(0.01118300701 0.002138519736 -1.606996642e-05)
(0.01158731293 0.002438297412 -9.09310487e-06)
(0.01217426207 0.002784185156 -3.470225545e-05)
(0.01273623925 0.003098502611 -3.535522963e-05)
(0.01328289285 0.003472468259 4.856769701e-06)
(0.01388695155 0.003821144649 2.417146967e-06)
(0.01411487058 0.004024490123 -7.063681865e-06)
(0.0145537981 0.004320564764 -4.960171642e-05)
(0.01506941227 0.004554072066 -1.689703343e-05)
(0.01533947764 0.004725247264 1.037591133e-05)
(0.0155647275 0.004951754801 3.065735493e-08)
(0.01562768651 0.00500067888 -2.677240149e-05)
(0.008498139685 0.0001686594506 -1.131283143e-05)
(0.008578536871 0.000191554751 -1.186730854e-05)
(0.008626810678 0.0002364581897 -4.708074588e-06)
(0.008644073385 0.000294157419 -7.659156264e-06)
(0.008740777414 0.0003489017667 -4.428121516e-06)
(0.00880883735 0.0004102963319 -6.521736942e-06)
(0.008895444897 0.0004815733784 -1.047149237e-07)
(0.008978525283 0.0006102265217 -2.873068907e-06)
(0.009208214344 0.0007252401126 5.537412624e-07)
(0.009412979888 0.0009285165807 -8.322487633e-06)
(0.009579548348 0.001094049184 -2.102395796e-06)
(0.009966832338 0.001255692703 4.629111902e-06)
(0.01040187629 0.001502173464 -1.15728531e-05)
(0.01085058209 0.001763334168 -3.41001643e-05)
(0.01120582972 0.002017088503 -5.754861086e-05)
(0.01156288542 0.002276517212 -2.983049938e-05)
(0.01201062023 0.002566846121 -4.231157782e-05)
(0.012537472 0.002921856554 -3.194155194e-05)
(0.01300088357 0.003282876257 2.160511318e-05)
(0.008403388417 0.000125191404 -5.685433209e-06)
(0.008431815697 0.0001374315681 -1.879709154e-06)
(0.008506901165 0.0001582715552 -8.685526975e-06)
(0.008570844948 0.0002082576994 -3.855158564e-06)
(0.008621045909 0.0002807398619 -2.823987173e-06)
(0.008665537487 0.0003248783497 -1.509966329e-06)
(0.00877058873 0.0003966483634 8.074781935e-06)
(0.008841413694 0.0004663577886 -6.960701531e-06)
(0.00900504701 0.0005727757582 -4.465984391e-06)
(0.009152949538 0.0006483345857 -1.166604003e-06)
(0.009502255159 0.0008261372242 9.858202846e-06)
(0.009693405961 0.0009936785332 7.57020128e-06)
(0.009888261138 0.001130275507 3.325001184e-05)
(0.01018502317 0.001339677206 2.28691808e-05)
(0.008412285984 8.519116991e-05 -2.108814794e-05)
(0.008439383352 0.0001042585154 -1.27782842e-05)
(0.008451876759 0.0001412687719 -7.432429127e-06)
(0.008474742914 0.0001559205464 -1.753468256e-05)
(0.008546295333 0.0002210109261 -6.735516435e-06)
(0.008551076204 0.000274785712 3.65184408e-06)
(0.008646099669 0.0002995536952 6.561584482e-07)
(0.008809518708 0.0003380087422 8.300759801e-06)
(0.008333278824 6.552949541e-05 2.320308314e-05)
)
;

boundaryField
{
    flow
    {
        type            calculated;
        value           nonuniform List<vector> 
15
(
(0.003589781754 0.0006875263851 3.492568429e-06)
(0.004967276594 0.0007343125172 7.333850218e-08)
(0.005978179866 0.0008615574056 1.424252375e-05)
(0.006916281129 0.001157717341 6.360857324e-05)
(0.007549865029 0.001402297623 -1.504628165e-05)
(0.008333088565 0.001700137073 -5.893900691e-05)
(0.009128722802 0.002028721484 4.003124339e-05)
(0.009977385895 0.002338659789 -1.283676408e-05)
(0.01070735723 0.002663258491 -5.868909677e-06)
(0.01127223717 0.002970809873 2.440856849e-07)
(0.01207306581 0.00332181744 -9.159748463e-06)
(0.01288212893 0.003674252575 3.643390462e-05)
(0.01349924559 0.003922798377 0.0001088773194)
(0.01413233383 0.004156093045 -1.604488561e-06)
(0.01475496596 0.0045297867 -1.984974636e-05)
)
;
    }
    obstacle
    {
        type            calculated;
        value           nonuniform List<vector> 
30
(
(1.277636485e-21 3.423416651e-22 -3.173091914e-23)
(1.151057016e-21 3.084247985e-22 3.474841353e-23)
(1.206688006e-21 3.233310757e-22 5.849224906e-23)
(1.217518569e-21 3.262331179e-22 -2.618853071e-23)
(1.02857293e-21 2.756052852e-22 -4.523233494e-23)
(1.084488335e-21 2.905877741e-22 -1.790582363e-23)
(1.047009982e-21 2.805454796e-22 -4.068913541e-25)
(9.275781796e-22 2.485438234e-22 -2.652655641e-23)
(1.126932469e-21 3.019606455e-22 5.654931745e-23)
(9.639927488e-22 2.58301079e-22 -1.140926787e-22)
(1.017633018e-21 2.726739446e-22 -2.765709615e-23)
(8.367920807e-22 2.242177626e-22 6.55373935e-23)
(9.233158955e-22 2.47401749e-22 3.741532174e-23)
(9.1055977e-22 2.439837543e-22 -4.110064745e-23)
(7.883544334e-22 2.112389342e-22 1.098511759e-22)
(8.35835289e-22 2.2396139e-22 -6.732577369e-23)
(7.438601312e-22 1.993167218e-22 1.243913921e-23)
(8.191019644e-22 2.194777103e-22 -4.497410618e-24)
(8.448139242e-22 2.263672081e-22 -9.777588797e-23)
(9.805509107e-22 2.627378251e-22 1.776868584e-22)
(7.801743241e-22 2.090470805e-22 -4.111796935e-24)
(7.508872006e-22 2.011996184e-22 2.981640393e-24)
(8.238186534e-22 2.207415433e-22 -1.289831219e-23)
(8.369212195e-22 2.242523653e-22 -3.075430949e-23)
(8.095248602e-22 2.169115319e-22 6.997357757e-23)
(7.582079358e-22 2.031612045e-22 5.73222717e-24)
(7.659403739e-22 2.05233104e-22 3.579046908e-23)
(8.7418371e-22 2.342368195e-22 -5.438360052e-23)
(8.752347288e-22 2.345184392e-22 8.441825445e-24)
(9.131802438e-22 2.446859081e-22 6.521766613e-23)
)
;
    }
    frontAndBack
    {
        type            empty;
    }
    procBoundary1to0
    {
        type            processor;
        value           nonuniform List<vector> 
21
(
(0.005740006592 0.001676497929 1.135680905e-06)
(0.008695893053 0.00262738163 1.692934253e-05)
(0.0105320619 0.003430142678 -4.07778092e-05)
(0.01149938733 0.003690623836 -2.483585146e-05)
(0.01167176583 0.003596559219 2.393377442e-05)
(0.01149200093 0.003204015799 -9.554860027e-06)
(0.01124094349 0.002748858274 -2.47444928e-05)
(0.01057889669 0.002202657954 1.072955567e-05)