/*--------------------------------*- C++ -*----------------------------------*\
| =========                 |                                                 |
| \\      /  F ield         | OpenFOAM: The Open Source CFD Toolbox           |
|  \\    /   O peration     | Version:  2406                                  |
|   \\  /    A nd           | Website:  www.openfoam.com                      |
|    \\/     M anipulation  |                                                 |
\*---------------------------------------------------------------------------*/
FoamFile
{
    version     2.0;
    format      ascii;
    arch        "LSB;label=32;scalar=64";
    class       volScalarField;
    location    "0.007";
    object      overallT;
}
// * * * * * * * * * * * * * * * * * * * * * * * * * * * * * * * * * * * * * //

dimensions      [1 2 -2 0 0 0 0];

internalField   nonuniform List<scalar> 
546
(
842.8543351
829.9077421
818.1893789
807.5644255
797.6836181
795.9658243
798.8588557
781.9106219
774.0872045
769.4577588
766.1109505
764.6008375
764.9096036
768.1751854
757.8007999
748.6308111
745.9078718
737.4530061
734.2005815
737.7118753
735.527141
722.7611171
723.9500582
731.7306107
725.1515516
723.9482087
723.8439678
718.8238061
712.8887462
703.3564843
916.9311068
913.6519688
909.2297574
899.5689277
896.0079153
890.0362614
882.1085829
870.7205417
865.7761384
863.0439031
851.2761199
852.4823536
850.9445275
848.1022273
846.5242703
830.3701618
821.4982928
822.3396831
815.0561333
812.8435707
812.9766425
809.7740989
803.529906
796.5229075
794.6524675
783.9723785
775.6532137
775.0263266
759.4448762
728.2395573
925.8426058
926.4689415
926.1797355
930.9121111
927.8541988
915.5469004
914.0233222
914.3053561
900.5994513
905.1092687
897.7729567
893.0920421
888.865191
886.9114178
883.8089423
876.596156
871.0991343
861.6705805
854.9068684
861.2878696
853.3514043
851.4107389
839.603601
840.2058651
837.7878987
822.3106751
812.6349851
799.937512
785.0884638
754.6592647
905.5283385
906.9322613
917.8067592
907.830935
915.0941305
920.3770473
907.7453259
907.6485713
908.4066322
912.000093
909.113958
910.6270527
906.4817471
900.9934111
893.6790262
891.1491747
885.718191
877.6528241
881.7974516
878.0949776
876.3839069
873.4762997
865.5298938
859.7023762
858.326102
845.0394826
836.461027
813.1562463
785.1052188
757.7833511
877.6080712
881.1152531
890.6572199
891.5779746
893.0199717
891.4698264
889.2520857
892.3191213
899.2117362
895.4233738
901.8293718
898.5229486
898.7258985
899.5017086
890.817336
888.4072224
887.1231593
890.54597
894.5779733
889.2847137
876.0299594
878.1298396
876.5177091
877.5292135
873.0761224
855.864076
844.9848572
824.5752464
803.318462
768.6204052
846.0530729
850.9201418
858.6846764
867.454782
863.3727445
864.105698
869.4577284
875.2334426
876.456554
877.6121435
880.5503034
882.7936388
885.1562438
891.2829336
888.8201798
889.7585478
884.7272964
888.7655082
886.0488463
885.5582185
875.4611839
874.9097381
876.4147073
875.55995
866.9954078
854.7891649
843.1576658
826.8233689
808.5682556
777.9526467
810.099418
819.2121074
828.6973175
828.1133408
836.9661779
843.3040717
843.8043684
846.4984869
847.7988066
853.0445404
858.3315664
867.0530638
865.2112501
869.2823294
875.4133102
873.473887
878.052129
880.7411454
879.9018262
877.4184276
875.1061441
862.7506929
866.2058383
861.8640883
857.61817
842.6834843
833.5200575
829.8011212
817.0043209
784.5297981
764.2375934
779.862451
786.2603831
800.8219119
803.412355
813.5367437
821.9991889
818.8004813
822.0966934
828.0973335
830.9172082
833.1677655
837.5835805
847.5053861
849.5040199
850.7727341
859.7326879
860.4558947
863.8161962
865.9686935
863.9640215
857.6406204
852.0336726
848.6096749
851.8982308
844.1822193
834.28887
818.5304523
807.7253283
786.6622531
715.6553663
738.9653643
750.9672016
762.6691101
774.0523567
784.4673918
790.4481908
792.3025402
799.1614557
802.6909755
807.0429496
819.4242364
816.2107074
819.401834
829.6663926
832.5035607
837.6318008
837.4578544
836.3983815
850.4112495
843.1088577
843.4003033
842.4639917
834.1350136
835.81753
837.4572538
830.5203449
821.9348171
808.5661583
788.4552627
659.2336894
682.0647432
709.9456104
729.0262839
741.3030558
747.7461132
756.3772587
769.2620262
775.4968453
783.0291952
783.2870646
796.1263494
795.8037004
804.2055061
803.9614858
809.314382
815.976966
817.7428502
821.2405276
820.1251512
824.660955
827.5820483
829.0505564
829.584504
830.4197779
824.7917915
817.558602
809.7284143
799.6418562
784.494617
596.3737539
629.2549873
657.0732441
682.8863136
695.4691641
707.5733094
719.7699092
733.417554
742.3875207
756.6566292
762.0659032
766.8712737
777.0824487
784.9990248
785.7033128
789.7066951
793.6959935
805.8843405
801.6245472
803.016078
814.9585352
816.311725
820.4857687
821.2547373
813.6788148
819.3775474
810.6561209
797.1077634
794.5619647
780.4942013
549.7664722
582.4732311
600.921414
628.9344529
646.2818638
666.3770511
689.4441326
701.815544
712.7115415
720.5272936
730.063397
742.5427736
751.2956348
763.0353588
771.0301974
767.418388
770.2217947
781.8871286
787.7212302
787.6809262
794.3022178
800.4275573
801.0709139
796.3071437
798.3285353
799.2343783
797.8380994
791.4147202
784.9085416
773.6169718
493.0302945
521.6493381
552.534142
580.5861249
605.8167674
628.6597533
644.2487171
667.0336737
684.4041779
699.948758
706.6342595
721.3455167
726.2785028
735.5002555
747.3278744
754.321775
756.1346327
762.667082
766.0172833
771.9678389
774.0303914
783.5948693
784.7008635
794.5535429
783.9534332
779.9599303
780.9539941
777.8121549
775.9649346
767.8739946
451.492669
475.3178697
502.5485287
530.9041128
564.8989098
593.3448491
605.7232718
624.9375864
642.1842044
661.186583
675.4771133
691.4581591
696.7085857
711.3384977
720.6314129
730.0678569
742.0043739
741.8354536
748.5790722
750.9092716
751.7099775
757.8410823
765.4840897
767.5264715
770.7712907
767.9605669
775.476286
774.0271601
767.5888244
757.7389798
417.14134
432.173599
456.5700422
476.0007113
511.0123669
535.0077564
554.9480675
582.3472074
604.8182958
622.7414985
642.8938283
660.4565658
671.2380359
679.1920431
690.8169973
702.8136779
712.3458133
715.7206296
723.4587018
729.001692
732.2426947
740.059485
744.5618651
747.6461726
752.3333379
750.4895859
752.4824963
757.0776696
752.3407913
742.2583887
393.8711485
408.0097819
428.6234347
448.5835725
466.6787369
492.2751154
516.4417166
542.4506894
563.0431174
576.3411739
592.6633904
618.7108472
630.1725686
643.1578622
666.0834404
674.3344426
691.8764043
695.2235159
704.9531932
707.8358659
712.2907867
717.8129041
723.246045
728.6852008
735.6583113
735.4639007
733.5394853
739.4479909
736.3238296
371.6431497
378.4592899
390.9414756
413.0267516
433.800917
450.6126746
474.9298563
492.5626066
517.3031938
538.4215105
563.2622259
582.354425
602.0195484
619.0905415
635.9205255
651.2756674
666.6186402
678.8121365
688.9882063
690.3930932
691.3638991
702.344703
707.677898
715.2846771
714.7702105
357.4940752
362.0942452
378.2800695
393.6870933
405.9127752
418.8142729
435.715258
459.2166366
475.8763745
503.734384
527.0550014
540.5742889
561.8346132
587.2175761
603.5578012
617.907198
636.4333092
652.1631802
661.5336333
342.9641895
351.2804433
354.0040467
369.3550283
389.5042746
400.0485828
410.8407214
423.6258637
449.0253916
460.4212851
488.518189
508.3212672
523.9620221
544.3894953
337.044725
338.8037186
342.1139276
349.9200941
367.2177563
381.7203854
385.4563533
394.5577855
325.4000536
)
;

boundaryField
{
    flow
    {
        type            calculated;
        value           nonuniform List<scalar> 
15
(
703.3564843
728.2395573
754.6592647
757.7833511
768.6204052
777.9526467
784.5297981
786.6622531
788.4552627
784.494617
780.4942013
773.6169718
767.8739946
757.7389798
742.2583887
)
;
    }
    obstacle
    {
        type            calculated;
        value           nonuniform List<scalar> 
30
(
731.0497819
739.860767
714.4048067
716.1152901
707.8295186
706.1965858
698.3845221
712.5066612
680.3405751
677.8324381
700.5841559
677.187308
681.4637707
681.9888715
687.587779
680.3746036
679.6163539
670.963826
657.5394954
647.5621846
676.7401377
656.3391903
649.4773464
683.5763043
670.4439742
674.533437
680.8461216
661.1900371
663.2370416
680.214549
)
;
    }
    frontAndBack
    {
        type            empty;
    }
    procBoundary1to0
    {
        type            processor;
        value           nonuniform List<scalar> 
21
(
849.4560248
931.8321201
926.2047528
909.4994189
877.6437509
847.5234266
796.074532
743.3098487
691.3708697
628.2345345
567.6541228
514.5033536
467.3996507
430.4687703
402.7941787
378.7698935
359.9436028
343.4389801
335.0945826
327.8104932
321.93908
)
;
    }
    procBoundary1to3
    {
        type            processor;
        value           nonuniform List<scalar> 
36
(
733.2675987
720.7775358
725.383797
727.340854
733.2675987
723.2045864
670.5454002
683.1787601
690.4951834
692.5000035
702.1994736
720.7775358
705.8399765
566.0933992
587.4598685
604.3460909
621.6396882
670.5454002
635.0801421
413.1074082
430.7573227
447.2145388
473.471998
490.3600231
566.0933992
508.5321317
324.3789043
330.7610545
336.2983586
348.5542699
361.7935622
368.7451919
413.1074082
376.7351828
324.3789043
317.8281597
)
;
    }
}


// ************************************************************************* //
