/*--------------------------------*- C++ -*----------------------------------*\
| =========                 |                                                 |
| \\      /  F ield         | OpenFOAM: The Open Source CFD Toolbox           |
|  \\    /   O peration     | Version:  2406                                  |
|   \\  /    A nd           | Website:  www.openfoam.com                      |
|    \\/     M anipulation  |                                                 |
\*---------------------------------------------------------------------------*/
FoamFile
{
    version     2.0;
    format      ascii;
    arch        "LSB;label=32;scalar=64";
    class       volScalarField;
    location    "0.007";
    object      p;
}
// * * * * * * * * * * * * * * * * * * * * * * * * * * * * * * * * * * * * * //

dimensions      [1 -1 -2 0 0 0 0];

internalField   nonuniform List<scalar> 
546
(
3.91374956
3.833104694
3.764815932
3.704574569
3.595834224
3.556253015
3.575295708
3.504138525
3.492210243
3.433219504
3.367401048
3.371164593
3.292893612
3.3688175
3.309333584
3.174934838
3.095063803
3.130888939
3.110207806
3.080283298
3.071116815
3.017225637
2.997870795
3.002602789
2.858725325
2.773821452
2.670734902
2.513676637
2.31921461
1.878646149
3.866896153
3.810448811
3.75148809
3.739883845
3.671347017
3.66488175
3.586163741
3.55930244
3.479529967
3.43732298
3.370787543
3.404805545
3.397554652
3.400797454
3.392650014
3.279227514
3.194150532
3.249489724
3.158811377
3.126497049
3.096710538
3.070781252
3.027082299
2.965771751
2.862853512
2.816634295
2.658168842
2.497097231
2.195806577
1.708223963
3.657704454
3.694557712
3.66029659
3.644704995
3.56204992
3.507784625
3.499087715
3.482312704
3.457093085
3.426523655
3.409313653
3.431027892
3.386690184
3.349419637
3.359745852
3.210588216
3.231398831
3.217607448
3.15632029
3.160221392
3.043637627
3.032487499
3.052941807
2.932454933
2.823951862
2.734949263
2.633149392
2.438268829
2.168389185
1.779752765
3.41517077
3.416595385
3.510953072
3.44717453
3.486362029
3.493315169
3.405149874
3.413523963
3.41198073
3.388604636
3.351756772
3.333621131
3.333929225
3.305924227
3.255147375
3.184480169
3.151332073
3.151658441
3.153510427
3.139427086
3.066063335
3.030467754
2.969608076
2.901614718
2.826542405
2.733780155
2.591167734
2.391817094
2.181362415
1.902926198
3.099184097
3.127373742
3.254010819
3.320723513
3.360413772
3.30703113
3.271087196
3.264322067
3.338959144
3.283500412
3.290620384
3.306838876
3.285508712
3.272392354
3.197598158
3.193125803
3.105638604
3.162854229
3.16140151
3.104098967
3.006633192
2.970378207
2.918443565
2.886312837
2.810604796
2.723612104
2.652629905
2.414133078
2.201983944
1.914406031
2.8289141
2.924539759
3.006889471
3.081813768
3.102207011
3.079096754
3.119590306
3.1730678
3.186843756
3.197409694
3.222965094
3.207569757
3.180090643
3.215440857
3.1648729
3.191640149
3.074268961
3.157598936
3.112887727
3.100458883
3.01899816
2.925924774
2.878159894
2.886524177
2.826981559
2.715435442
2.568998601
2.437199103
2.290214327
1.970182841
2.505035832
2.659234694
2.749318509
2.798005667
2.901640198
2.994869781
2.992028086
3.04180882
3.020920478
3.079048198
3.111301582
3.160925033
3.140037105
3.148377949
3.13807841
3.091173142
3.106092533
3.107180624
3.101053564
3.038584503
3.003432853
2.925842888
2.893029783
2.837201907
2.818921937
2.669500427
2.586725298
2.490538433
2.303774421
2.065361029
2.145983562
2.309433498
2.436403163
2.601291763
2.651426139
2.758269446
2.845215856
2.883837742
2.904896262
2.946948314
2.998019702
3.040272616
3.010073816
3.052141129
3.054564223
3.074973081
3.099386072
3.034159608
3.041345219
3.042331028
3.022002275
2.922431886
2.887396859
2.796797233
2.786538349
2.717871851
2.622168037
2.447594849
2.3417669
2.150852563
1.850463966
2.009773212
2.14651717
2.276607904
2.404341037
2.510178237
2.615677816
2.657600767
2.746162915
2.774270664
2.811745921
2.927068945
2.947210405
2.950832595
2.994661955
3.015441536
3.014984472
2.982819327
2.951221444
2.982372496
2.919349215
2.899546488
2.850058116
2.781841926
2.774522584
2.754452031
2.631479267
2.514098424
2.392763083
2.211828885
1.544840118
1.671142993
1.82964635
1.999232508
2.124026211
2.21763458
2.343432322
2.450780949
2.539389784
2.656766988
2.695224614
2.814551425
2.806580812
2.889525646
2.88551695
2.881213592
2.918038046
2.915573276
2.880593828
2.873579821
2.910541752
2.884502733
2.846479134
2.761544507
2.775882834
2.730693592
2.637001747
2.544566743
2.421315406
2.264364044
1.298266117
1.445510856
1.583253905
1.736632796
1.859130319
1.982560383
2.104735906
2.242894856
2.358137144
2.486066196
2.555939103
2.600082234
2.696153982
2.765601998
2.777870203
2.798402435
2.813128053
2.896697735
2.848412029
2.827311229
2.889071075
2.869919392
2.864254559
2.812367521
2.699859192
2.715181108
2.656056609
2.562523446
2.483056373
2.327067648
1.109502745
1.244226304
1.336588216
1.475365449
1.600225971
1.721639966
1.88166106
1.995684969
2.123960817
2.220678206
2.308079885
2.41614103
2.517466328
2.624596806
2.677584642
2.690385676
2.713544087
2.773726136
2.820468727
2.809063968
2.806979602
2.842869357
2.81040252
2.768725227
2.739007012
2.710991317
2.671192
2.55433346
2.500954352
2.402171576
0.9315634373
1.023467768
1.137617599
1.246851844
1.364433826
1.499370741
1.612255401
1.734928882
1.845629367
1.963874069
2.075803998
2.224498541
2.32285947
2.425053163
2.521994054
2.588950453
2.615499819
2.680255818
2.71602656
2.754352332
2.760000173
2.820417582
2.78116055
2.825266579
2.76367918
2.706092047
2.664340768
2.611414743
2.548962259
2.428873132
0.7912999889
0.8701066904
0.9565242363
1.056575188
1.183969595
1.292040828
1.370497333
1.488467467
1.615791904
1.755856727
1.885055114
1.993346554
2.069643931
2.207305239
2.320480002
2.434025766
2.542922928
2.579968388
2.623919465
2.652425954
2.659052932
2.688358172
2.770781893
2.780090646
2.73252516
2.671793431
2.715719962
2.6716156
2.568439002
2.449894965
0.7143370888
0.7603960965
0.8280898374
0.8823190219
0.9961645001
1.084142678
1.172759543
1.292234819
1.408715807
1.517746697
1.636229682
1.747310932
1.885358191
1.993153075
2.108257867
2.250671266
2.342239437
2.403576532
2.473306159
2.543653645
2.593127855
2.663421446
2.687414871
2.690736602
2.714780469
2.673139652
2.668110117
2.65498843
2.601646974
2.490066972
0.6328185532
0.6620929587
0.7261441009
0.7752084373
0.8362344653
0.9226609693
1.016094212
1.123459035
1.2211362
1.294418325
1.404348005
1.557731554
1.628411249
1.746416076
1.902082012
1.997035423
2.130858461
2.216822599
2.318047853
2.397951965
2.445701124
2.488815374
2.55034242
2.606259888
2.640240825
2.616927208
2.594423077
2.596793326
2.554374417
0.5845466581
0.6067206662
0.6364625935
0.7045197192
0.7554311739
0.8112103369
0.887153239
0.9672055764
1.05409507
1.145000096
1.251982363
1.343932562
1.436228143
1.537669362
1.655606858
1.788582143
1.934744415
2.063921288
2.195062268
2.217504401
2.294709545
2.428140337
2.465778322
2.55003663
2.533721597
0.5491876967
0.5658682921
0.6068278042
0.6395740545
0.6763804753
0.715306459
0.7581703206
0.8209044333
0.8895411137
0.98616258
1.060134871
1.141946596
1.263944618
1.389638421
1.495363702
1.596554582
1.713437934
1.83803551
1.941826294
0.5144628454
0.5334284003
0.5399743309
0.5799235683
0.6288139148
0.6568561455
0.69068628
0.7285180049
0.7964036723
0.838870316
0.9506416649
1.020634082
1.086444705
1.176642437
0.4963856451
0.4988924123
0.5088861873
0.5268725131
0.5708689438
0.603958611
0.6194865193
0.6525649548
0.4703252864
)
;

boundaryField
{
    flow
    {
        type            calculated;
        value           nonuniform List<scalar> 
15
(
1.878646149
1.708223963
1.779752765
1.902926198
1.914406031
1.970182841
2.065361029
2.150852563
2.211828885
2.264364044
2.327067648
2.402171576
2.428873132
2.449894965
2.490066972
)
;
    }
    obstacle
    {
        type            calculated;
        value           nonuniform List<scalar> 
30
(
3.245766115
3.240189144
3.208791178
3.167806381
3.098230789
3.075471773
3.083026729
3.139573096
3.080284322
3.010498131
2.966920284
2.992219886
2.945522521
3.005546131
3.041676875
2.890231555
2.848971249
2.801812911
2.8501023
2.844817573
2.803047345
2.743900516
2.726975524
2.748234189
2.65131136
2.542107479
2.472302664
2.351325222
2.16386719
1.990386568
)
;
    }
    frontAndBack
    {
        type            empty;
    }
    procBoundary1to0
    {
        type            processor;
        value           nonuniform List<scalar> 
21
(
4.026918708
3.947813522
3.686635951
3.406682774
3.062122056
2.701680189
2.372131287
1.9996633
1.693653922
1.393711578
1.175219946
0.9964161792
0.8553563013
0.7436916847
0.6633164228
0.6021122528
0.5532734729
0.5145171737
0.4952386983
0.4726762185
0.4614281806
)
;
    }
    procBoundary1to3
    {
        type            processor;
        value           nonuniform List<scalar> 
36
(
2.509827381
2.570784651
2.606632136
2.574421222
2.509827381
2.53757529
2.060473082
2.176010063
2.26278757
2.325119009
2.428862842
2.570784651
2.498349511
1.289163742
1.419948217
1.515537472
1.630900822
2.060473082
1.736706375
0.7050060193
0.7569302623
0.8019391557
0.8952650729
0.9533707444
1.289163742
1.026401756
0.4712268717
0.484244483
0.495246118
0.5267004258
0.5668889199
0.5859776703
0.7050060193
0.6090333056
0.4712268717
0.4604536637
)
;
    }
}


// ************************************************************************* //
