/*--------------------------------*- C++ -*----------------------------------*\
| =========                 |                                                 |
| \\      /  F ield         | OpenFOAM: The Open Source CFD Toolbox           |
|  \\    /   O peration     | Version:  2406                                  |
|   \\  /    A nd           | Website:  www.openfoam.com                      |
|    \\/     M anipulation  |                                                 |
\*---------------------------------------------------------------------------*/
FoamFile
{
    version     2.0;
    format      ascii;
    arch        "LSB;label=32;scalar=64";
    class       volScalarField;
    location    "0.007";
    object      rhoMMean;
}
// * * * * * * * * * * * * * * * * * * * * * * * * * * * * * * * * * * * * * //

dimensions      [1 -3 0 0 0 0 0];

internalField   nonuniform List<scalar> 
546
(
1.457140879e-05
1.456389326e-05
1.456526604e-05
1.465561835e-05
1.447465879e-05
1.438095382e-05
1.45873495e-05
1.451097958e-05
1.462895012e-05
1.449355379e-05
1.437832364e-05
1.445253118e-05
1.41048948e-05
1.444114002e-05
1.446447357e-05
1.409864654e-05
1.363590299e-05
1.404905483e-05
1.404086615e-05
1.385720395e-05
1.381328415e-05
1.3821302e-05
1.37055797e-05
1.350764189e-05
1.295565658e-05
1.262109489e-05
1.221693049e-05
1.17450118e-05
1.084385812e-05
8.927651319e-06
1.312021332e-05
1.311257211e-05
1.298556286e-05
1.311164388e-05
1.304593525e-05
1.32569818e-05
1.310206048e-05
1.317190201e-05
1.299977476e-05
1.297504855e-05
1.295243297e-05
1.308408495e-05
1.311728124e-05
1.321979759e-05
1.322609404e-05
1.301971514e-05
1.276101917e-05
1.298438499e-05
1.28301344e-05
1.2722772e-05
1.262200983e-05
1.248389617e-05
1.247721433e-05
1.22497624e-05
1.195266828e-05
1.18779499e-05
1.13923127e-05
1.07887203e-05
9.765305877e-06
8.180689742e-06
1.235132888e-05
1.253625562e-05
1.254301889e-05
1.243766389e-05
1.229761777e-05
1.23161027e-05
1.230196773e-05
1.231693046e-05
1.24578353e-05
1.22961927e-05
1.23850477e-05
1.251271868e-05
1.241907736e-05
1.243261428e-05
1.245853904e-05
1.210118223e-05
1.231797586e-05
1.229523566e-05
1.216421825e-05
1.213476677e-05
1.179312863e-05
1.17780012e-05
1.208251814e-05
1.154654057e-05
1.117907047e-05
1.104930574e-05
1.079207638e-05
1.029431334e-05
9.409289952e-06
8.294558024e-06
1.158390406e-05
1.173350351e-05
1.207450586e-05
1.205469989e-05
1.213533439e-05
1.213142477e-05
1.207666751e-05
1.211677632e-05
1.217865968e-05
1.209666388e-05
1.207643727e-05
1.200778537e-05
1.20842599e-05
1.211755911e-05
1.199066616e-05
1.181524697e-05
1.176196519e-05
1.18242808e-05
1.182982658e-05
1.183606585e-05
1.165327445e-05
1.156379711e-05
1.139008409e-05
1.118251858e-05
1.103349294e-05
1.083300356e-05
1.053438532e-05
9.932180022e-06
9.481709728e-06
8.736294162e-06
1.07203474e-05
1.095041082e-05
1.137304718e-05
1.166025079e-05
1.187865526e-05
1.18166876e-05
1.178669098e-05
1.181440043e-05
1.203681352e-05
1.192042321e-05
1.192754578e-05
1.203298635e-05
1.20211538e-05
1.196342846e-05
1.191614856e-05
1.184252752e-05
1.156035081e-05
1.168847846e-05
1.165372404e-05
1.157476185e-05
1.143419678e-05
1.128243773e-05
1.110147582e-05
1.104600166e-05
1.080791334e-05
1.068109428e-05
1.06298362e-05
9.999438446e-06
9.475689721e-06
8.759057413e-06
1.006842124e-05
1.042605827e-05
1.074275223e-05
1.102873136e-05
1.125791262e-05
1.135376371e-05
1.150078311e-05
1.16709763e-05
1.175566897e-05
1.186420873e-05
1.194770617e-05
1.182655106e-05
1.172680742e-05
1.183068181e-05
1.179826859e-05
1.185181099e-05
1.15937018e-05
1.175886282e-05
1.168700317e-05
1.160898476e-05
1.145097934e-05
1.118087112e-05
1.108923526e-05
1.116974303e-05
1.094814229e-05
1.068683625e-05
1.035599288e-05
1.008012884e-05
9.747087033e-06
8.90771839e-06
9.159564814e-06
9.680791859e-06
1.005477629e-05
1.039527559e-05
1.079442282e-05
1.11459015e-05
1.125152614e-05
1.143504051e-05
1.143826065e-05
1.16185884e-05
1.176143149e-05
1.191757197e-05
1.192135588e-05
1.19460017e-05
1.182453848e-05
1.172159608e-05
1.17342474e-05
1.174055535e-05
1.169630069e-05
1.153176096e-05
1.145399917e-05
1.132307103e-05
1.119483069e-05
1.109614746e-05
1.107359753e-05
1.076626135e-05
1.051991663e-05
1.025563914e-05
9.790772556e-06
9.228808585e-06
8.236991229e-06
8.761039183e-06
9.266921048e-06
9.787254215e-06
1.009002465e-05
1.048060994e-05
1.083930091e-05
1.110136001e-05
1.121730808e-05
1.136505121e-05
1.158785333e-05
1.178320689e-05
1.170084318e-05
1.180108443e-05
1.184573265e-05
1.186486927e-05
1.191080834e-05
1.175828739e-05
1.173805626e-05
1.17214709e-05
1.166427326e-05
1.133848475e-05
1.130045671e-05
1.110521156e-05
1.10787793e-05
1.095158838e-05
1.072391979e-05
1.031361477e-05
1.009607218e-05
9.651670145e-06
7.504498371e-06
7.970329027e-06
8.435164001e-06
8.884047572e-06
9.357912954e-06
9.739911294e-06
1.016503744e-05
1.043783923e-05
1.076033854e-05
1.092970756e-05
1.111527896e-05
1.141699422e-05
1.162758693e-05
1.169715447e-05
1.1815439e-05
1.18841435e-05
1.187338501e-05
1.180115531e-05
1.178315879e-05
1.177466374e-05
1.168905593e-05
1.162858743e-05
1.142925937e-05
1.128253056e-05
1.118204788e-05
1.111345523e-05
1.085424177e-05
1.054069175e-05
1.02121248e-05
9.829536671e-06
6.761783719e-06
7.093170486e-06
7.531224117e-06
8.028306822e-06
8.492753731e-06
8.922134437e-06
9.441186714e-06
9.801962905e-06
1.017658069e-05
1.056475089e-05
1.083736091e-05
1.118265841e-05
1.12646931e-05
1.149848222e-05
1.163353843e-05
1.165920998e-05
1.175172473e-05
1.182030518e-05
1.171036005e-05
1.1738251e-05
1.180734282e-05
1.173315058e-05
1.159846495e-05
1.132783612e-05
1.131251682e-05
1.119353827e-05
1.098195653e-05
1.077975312e-05
1.042055188e-05
1.00244708e-05
6.352021318e-06
6.688098524e-06
7.021730112e-06
7.427068863e-06
7.81091622e-06
8.227694992e-06
8.676903049e-06
9.207389252e-06
9.644891083e-06
1.011548555e-05
1.042399843e-05
1.06355782e-05
1.096118626e-05
1.119112294e-05
1.131519596e-05
1.14229464e-05
1.15583362e-05
1.177027337e-05
1.172065148e-05
1.168227313e-05
1.176467619e-05
1.173958563e-05
1.166643351e-05
1.157479687e-05
1.124759361e-05
1.121065887e-05
1.106983483e-05
1.099263819e-05
1.07911052e-05
1.036376472e-05
5.913014745e-06
6.211321026e-06
6.483502241e-06
6.836922011e-06
7.208479531e-06
7.552906479e-06
8.024368429e-06
8.433982819e-06
8.892810622e-06
9.304594022e-06
9.700369294e-06
1.008478963e-05
1.045624037e-05
1.082468847e-05
1.103126261e-05
1.123406046e-05
1.133749021e-05
1.152285362e-05
1.169374678e-05
1.172008975e-05
1.169004222e-05
1.179628551e-05
1.169667844e-05
1.162520703e-05
1.155526358e-05
1.145287402e-05
1.132070109e-05
1.102090513e-05
1.094492864e-05
1.077453401e-05
5.605698707e-06
5.783334102e-06
6.070997488e-06
6.303487308e-06
6.609989434e-06
6.975719338e-06
7.341321728e-06
7.693336918e-06
8.042555699e-06
8.416572703e-06
8.830532523e-06
9.408541829e-06
9.882193276e-06
1.02766263e-05
1.062888675e-05
1.087264897e-05
1.105832985e-05
1.129571293e-05
1.148942991e-05
1.165463534e-05
1.165760064e-05
1.182215336e-05
1.17610437e-05
1.181626409e-05
1.174995562e-05
1.165634599e-05
1.152458168e-05
1.137809347e-05
1.11910109e-05
1.090323916e-05
5.317104953e-06
5.49229972e-06
5.658765539e-06
5.927783552e-06
6.166093905e-06
6.418193735e-06
6.679720082e-06
7.029163217e-06
7.431823664e-06
7.885107231e-06
8.349899848e-06
8.674639834e-06
9.028476326e-06
9.535564742e-06
9.981033856e-06
1.04104986e-05
1.078144627e-05
1.108298436e-05
1.125735529e-05
1.143130672e-05
1.152538877e-05
1.160694636e-05
1.19225013e-05
1.199038903e-05
1.184649023e-05
1.170847131e-05
1.176882245e-05
1.164069475e-05
1.141200447e-05
1.111987418e-05
5.265123589e-06
5.375568045e-06
5.485413376e-06
5.561469839e-06
5.78388276e-06
6.00378875e-06
6.252164568e-06
6.525493444e-06
6.869880867e-06
7.216529775e-06
7.59713296e-06
7.93450734e-06
8.444910115e-06
8.905535583e-06
9.349665091e-06
9.873650774e-06
1.02558243e-05
1.054514727e-05
1.086422602e-05
1.120291338e-05
1.144205766e-05
1.168082159e-05
1.178347819e-05
1.18101966e-05
1.191387414e-05
1.188746198e-05
1.189577942e-05
1.179636936e-05
1.164009279e-05
1.141041273e-05
5.070194479e-06
5.073028373e-06
5.219194701e-06
5.293801826e-06
5.436263244e-06
5.636162213e-06
5.874385096e-06
6.155507402e-06
6.417900023e-06
6.683899535e-06
7.040162607e-06
7.474560846e-06
7.769599255e-06
8.16865985e-06
8.639844842e-06
9.024788338e-06
9.493454965e-06
9.909117587e-06
1.026674582e-05
1.067262957e-05
1.095311833e-05
1.115475896e-05
1.137963913e-05
1.164521958e-05
1.178132982e-05
1.180062899e-05
1.181019012e-05
1.176946906e-05
1.168124947e-05
5.021889417e-06
5.078013741e-06
5.132854102e-06
5.289928924e-06
5.360392468e-06
5.502717078e-06
5.659695041e-06
5.848809532e-06
6.014512515e-06
6.270147952e-06
6.534420979e-06
6.774941391e-06
7.083433964e-06
7.426520986e-06
7.812556911e-06
8.301727682e-06
8.796624515e-06
9.299861128e-06
9.815000974e-06
1.000414018e-05
1.040430153e-05
1.091002315e-05
1.116127427e-05
1.143027873e-05
1.148077728e-05
4.990237075e-06
5.060884767e-06
5.11762734e-06
5.144998119e-06
5.224493522e-06
5.28495033e-06
5.359039608e-06
5.457206466e-06
5.647765385e-06
5.842156612e-06
6.01036059e-06
6.309058685e-06
6.665349871e-06
7.037938472e-06
7.362601675e-06
7.69029135e-06
8.078847175e-06
8.544704471e-06
8.961716458e-06
4.921944495e-06
4.948959655e-06
4.988453063e-06
5.054804257e-06
5.118562933e-06
5.172081899e-06
5.261435034e-06
5.330440525e-06
5.471512935e-06
5.585792191e-06
5.855733792e-06
6.032355405e-06
6.212546004e-06
6.47633533e-06
4.893745686e-06
4.908437787e-06
4.927495603e-06
4.965570291e-06
5.029729348e-06
5.052867676e-06
5.127354328e-06
5.245719842e-06
4.840600512e-06
)
;

boundaryField
{
    flow
    {
        type            calculated;
        value           nonuniform List<scalar> 
15
(
8.927651319e-06
8.180689742e-06
8.294558024e-06
8.736294162e-06
8.759057413e-06
8.90771839e-06
9.228808585e-06
9.651670145e-06
9.829536671e-06
1.00244708e-05
1.036376472e-05
1.077453401e-05
1.090323916e-05
1.111987418e-05
1.141041273e-05
)
;
    }
    obstacle
    {
        type            calculated;
        value           nonuniform List<scalar> 
30
(
6.402445783e-24
6.45842318e-24
6.533074145e-24
6.62435564e-24
6.477761866e-24
6.28066696e-24
6.537676801e-24
6.153268098e-24
6.681282352e-24
6.273463672e-24
6.164964976e-24
6.419427115e-24
6.065720306e-24
6.357433341e-24
6.451701659e-24
5.994696356e-24
5.950556028e-24
5.921077901e-24
6.173695683e-24
6.291465486e-24
5.89971896e-24
5.687605743e-24
5.995405204e-24
5.968432193e-24
5.711534663e-24
5.279414423e-24
5.295002783e-24
5.247298335e-24
4.654124404e-24
4.14137753e-24
)
;
    }
    frontAndBack
    {
        type            empty;
    }
    procBoundary1to0
    {
        type            processor;
        value           nonuniform List<scalar> 
21
(
1.476559272e-05
1.306894699e-05
1.227506047e-05
1.134233462e-05
1.047814973e-05
9.475428454e-06
8.690860036e-06
7.771779737e-06
7.05466637e-06
6.381889632e-06
6.047025054e-06
5.695487027e-06
5.464552681e-06
5.250287406e-06
5.156272977e-06
5.057059711e-06
4.969572141e-06
4.93332288e-06
4.896738703e-06
4.857611974e-06
4.842002592e-06
)
;
    }
    procBoundary1to3
    {
        type            processor;
        value           nonuniform List<scalar> 
36
(
1.155757539e-05
1.161130379e-05
1.181387183e-05
1.177318303e-05
1.155757539e-05
1.17644517e-05
9.442516792e-06
9.86602177e-06
1.023330058e-05
1.062511597e-05
1.10043507e-05
1.161130379e-05
1.136428938e-05
6.803995145e-06
7.185652769e-06
7.522667828e-06
7.865859168e-06
9.442516792e-06
8.293429927e-06
5.334684627e-06
5.435599276e-06
5.514991356e-06
5.699537711e-06
5.857983277e-06
6.803995145e-06
6.065840412e-06
4.871964573e-06
4.896445295e-06
4.893722898e-06
4.947230617e-06
5.050100407e-06
5.099106529e-06
5.334684627e-06
5.160788659e-06
4.871964573e-06
4.894934298e-06
)
;
    }
}


// ************************************************************************* //
