/*--------------------------------*- C++ -*----------------------------------*\
| =========                 |                                                 |
| \\      /  F ield         | OpenFOAM: The Open Source CFD Toolbox           |
|  \\    /   O peration     | Version:  2406                                  |
|   \\  /    A nd           | Website:  www.openfoam.com                      |
|    \\/     M anipulation  |                                                 |
\*---------------------------------------------------------------------------*/
FoamFile
{
    version     2.0;
    format      ascii;
    arch        "LSB;label=32;scalar=64";
    class       volScalarField;
    location    "0.007";
    object      rhoM;
}
// * * * * * * * * * * * * * * * * * * * * * * * * * * * * * * * * * * * * * //

dimensions      [1 -3 0 0 0 0 0];

internalField   nonuniform List<scalar> 
546
(
1.713636047e-05
1.351001109e-05
1.353514776e-05
1.180702855e-05
1.412205351e-05
1.569963217e-05
1.278140123e-05
1.240862684e-05
1.353451826e-05
1.13275236e-05
1.246073779e-05
1.296587467e-05
1.723613797e-05
9.965043013e-06
1.19556264e-05
1.690908692e-05
1.586772283e-05
1.61702356e-05
1.622123043e-05
8.915067777e-06
1.920564292e-05
2.016615579e-05
1.030399126e-05
2.276101983e-05
1.38321427e-05
1.322675004e-05
1.261039322e-05
9.566806816e-06
7.968756783e-06
3.500531642e-06
1.348524291e-05
1.456089017e-05
1.187174233e-05
1.043669481e-05
1.143719007e-05
1.121402298e-05
1.067674551e-05
1.845450408e-05
1.8124906e-05
1.340030525e-05
1.26229334e-05
1.037348057e-05
1.40490525e-05
1.482345711e-05
1.137439455e-05
1.682565807e-05
1.645860718e-05
1.574405565e-05
1.484842024e-05
1.783013557e-05
1.283276583e-05
1.664281246e-05
7.639461081e-06
8.423471524e-06
9.584035266e-06
9.213267098e-06
1.297734988e-05
1.272562911e-05
1.678065325e-05
5.961473477e-06
1.564585201e-05
1.343520658e-05
1.40626745e-05
8.303433385e-06
1.50437403e-05
1.036240462e-05
1.114465536e-05
1.00528937e-05
1.210892906e-05
1.196545038e-05
1.463198013e-05
9.967686958e-06
1.413243769e-05
8.481705427e-06
1.386481674e-05
9.29084836e-06
6.583849502e-06
1.591575773e-05
1.098661634e-05
1.376290467e-05
1.344395003e-05
1.083120502e-05
1.145919162e-05
2.07896609e-05
1.374203545e-05
1.003370738e-05
1.380743685e-05
1.216792663e-05
7.312479658e-06
8.988221118e-06
1.184622201e-05
1.073320435e-05
1.413985688e-05
1.774942325e-05
1.427505166e-05
9.589730374e-06
1.753441735e-05
1.303669622e-05
1.345563661e-05
1.204495105e-05
1.037156158e-05
1.061578547e-05
1.47043273e-05
1.268151964e-05
1.079316272e-05
1.347640567e-05
1.24065383e-05
1.319107636e-05
1.132878513e-05
1.237840416e-05
7.595245571e-06
1.338488653e-05
2.007464854e-05
1.621959435e-05
1.238607114e-05
1.039956827e-05
1.325478463e-05
6.037674583e-06
9.937588168e-06
1.248875272e-05
7.972335793e-06
1.193369246e-05
1.134239416e-05
7.009025396e-06
1.489074213e-05
1.500403906e-05
1.114465537e-05
1.507934055e-05
1.345373011e-05
9.093819142e-06
6.914374387e-06
1.6369856e-05
1.282385588e-05
1.531591925e-05
1.004643606e-05
1.665678397e-05
9.706514485e-06
7.830639947e-06
6.179713257e-06
1.177242454e-05
8.206429787e-06
1.030249139e-05
1.421225417e-05
1.021620472e-05
1.527821429e-05
8.483742662e-06
1.573839373e-05
1.19827717e-05
8.905327759e-06
6.81246137e-06
5.885982905e-06
1.163266647e-05
1.013297594e-05
1.500692071e-05
1.688526496e-05
8.583949771e-06
1.106698327e-05
9.109843738e-06
1.313820351e-05
7.498041465e-06
1.045169104e-05
1.718144321e-05
1.225393404e-05
7.082428599e-06
9.79619387e-06
1.322611912e-05
1.147713439e-05
1.412826219e-05
8.497622599e-06
1.18586952e-05
1.396812268e-05
9.334950792e-06
1.154772405e-05
1.156021496e-05
1.446507113e-05
1.012462327e-05
1.214948021e-05
7.430811985e-06
9.281311008e-06
8.137233184e-06
9.089768458e-06
1.305937605e-05
9.225001539e-06
4.875763969e-06
8.289634314e-06
7.811275526e-06
1.192325361e-05
1.484263217e-05
1.23474805e-05
1.092809882e-05
8.683032725e-06
1.223700785e-05
1.143582445e-05
1.177668868e-05
1.378206931e-05
6.110470053e-06
9.283873323e-06
1.770325326e-05
8.668707028e-06
1.237840425e-05
1.772223978e-05
1.312159039e-05
1.296852148e-05
9.499543229e-06
6.329285424e-06
9.851875708e-06
7.08830542e-06
1.448907649e-05
1.340583643e-05
6.718160465e-06
8.120848225e-06
7.804980645e-06
9.149640589e-06
8.912674505e-06
8.979974944e-06
9.745755613e-06
9.740925799e-06
7.775432768e-06
1.179340246e-05
1.316180327e-05
1.390887823e-05
9.886918648e-06
1.527621692e-05
8.235474371e-06
1.452879602e-05
7.86852513e-06
1.257681463e-05
1.038361917e-05
1.107215849e-05
1.151152747e-05
1.396812256e-05
1.012696048e-05
7.639461029e-06
1.281491231e-05
1.735939208e-05
1.067231582e-05
1.076895805e-05
8.081091869e-06
1.265612791e-05
7.474847246e-06
7.003415566e-06
7.730176134e-06
6.502899796e-06
7.388654183e-06
1.043900421e-05
9.512649255e-06
1.215626991e-05
8.716590957e-06
1.139708769e-05
7.178117344e-06
7.477217323e-06
1.272356977e-05
1.503196473e-05
1.268151966e-05
1.52775226e-05
1.155149284e-05
1.738597791e-05
1.472409409e-05
1.278920499e-05
1.817730317e-05
6.897049736e-06
1.276840757e-05
1.225812275e-05
1.13815892e-05
1.121032126e-05
1.176770122e-05
1.454356749e-05
1.068221176e-05
6.843065076e-06
8.988221135e-06
3.651117569e-06
6.529688025e-06
7.561596114e-06
7.084951158e-06
8.213135236e-06
7.965437771e-06
9.117671734e-06
1.036598252e-05
9.813735173e-06
7.65704277e-06
1.286332186e-05
1.004845525e-05
1.111015479e-05
9.058228314e-06
1.760044995e-05
8.371114626e-06
7.681496661e-06
1.055327116e-05
1.407647296e-05
1.229213356e-05
1.335693845e-05
1.215192844e-05
1.145919164e-05
8.423471509e-06
9.041214008e-06
1.240630975e-05
1.067721899e-05
8.731371897e-06
9.655036131e-06
1.11639808e-05
5.960239113e-06
6.4548835e-06
7.258330816e-06
6.094246186e-06
1.274137225e-05
9.82283676e-06
8.416745637e-06
1.201537411e-05
1.305932188e-05
1.244245434e-05
8.763162141e-06
1.215428742e-05
8.250706803e-06
7.08242861e-06
1.062766795e-05
8.454543476e-06
8.524745684e-06
1.029879321e-05
1.622123041e-05
7.530567239e-06
9.952970885e-06
1.875554583e-05
1.394665709e-05
1.496489696e-05
9.041213929e-06
6.749748844e-06
6.627392345e-06
1.29107841e-05
9.468173655e-06
1.012439118e-05
4.32121824e-06
6.380079035e-06
7.107608957e-06
8.227507647e-06
7.752291837e-06
5.568470904e-06
5.688835788e-06
6.754110531e-06
9.577090172e-06
1.116660087e-05
9.968977666e-06
1.247931283e-05
9.557320837e-06
9.882965992e-06
1.311809003e-05
1.264010079e-05
9.958879343e-06
1.123392896e-05
1.647785701e-05
5.19291945e-06
1.196054668e-05
1.021472588e-05
8.172794944e-06
1.111149198e-05
1.310910708e-05
1.441305135e-05
1.325478469e-05
1.086736675e-05
9.092190289e-06
1.211154881e-05
5.364394658e-06
4.278320814e-06
5.140938211e-06
7.618266532e-06
6.830605051e-06
6.109901815e-06
9.039999718e-06
1.115059634e-05
6.806699967e-06
4.705910891e-06
9.245875622e-06
6.969499191e-06
8.250706739e-06
1.25173656e-05
7.556013857e-06
1.255667184e-05
1.080416157e-05
9.276781512e-06
1.23594265e-05
1.203123654e-05
6.372877165e-06
8.981768e-06
5.063463272e-06
8.782881595e-06
1.274867787e-05
7.936049956e-06
1.122987122e-05
5.945097093e-06
1.19064195e-05
8.231534149e-06
7.376491332e-06
3.752881303e-06
7.486235134e-06
1.241810467e-05
3.990894536e-06
4.485609174e-06
7.24790954e-06
9.10984371e-06
7.439659673e-06
4.626410228e-06
8.12018972e-06
7.617597768e-06
7.025510117e-06
7.65895143e-06
9.547951605e-06
8.454543476e-06
1.266093623e-05
9.787787325e-06
1.047129565e-05
8.656255811e-06
1.056415503e-05
8.894002523e-06
1.501118532e-05
9.67816888e-06
1.482767796e-05
1.10381768e-05
1.436008904e-05
1.337590896e-05
8.249050604e-06
1.154346394e-05
2.682197348e-06
6.079053047e-06
5.368842553e-06
7.084951173e-06
8.136636211e-06
8.817056162e-06
6.546983445e-06
6.675838431e-06
8.784460734e-06
6.222187901e-06
6.994503873e-06
7.131035906e-06
8.1692894e-06
7.823105532e-06
1.303534272e-05
1.155149293e-05
1.375858334e-05
1.251041861e-05
1.115770083e-05
8.915067821e-06
1.073817832e-05
8.189758169e-06
1.741011839e-05
1.236618935e-05
1.618364241e-05
9.94279159e-06
1.261039329e-05
1.133249172e-05
1.040474463e-05
8.231534224e-06
5.438650873e-06
4.577538856e-06
6.653621713e-06
5.409079341e-06
4.604736087e-06
6.186982941e-06
7.325581747e-06
7.147363416e-06
7.51854138e-06
5.025835051e-06
7.637476239e-06
8.104159622e-06
8.659761543e-06
5.434936989e-06
5.396581345e-06
8.454543476e-06
1.105652646e-05
9.702961453e-06
1.484842024e-05
7.35802601e-06
1.257173112e-05
7.836575345e-06
1.021545892e-05
1.317216377e-05
1.057739273e-05
1.359041345e-05
1.316304541e-05
1.365364155e-05
1.003101941e-05
5.364394658e-06
7.505762606e-06
7.258330884e-06
4.418374381e-06
7.214949365e-06
4.949958914e-06
4.129762036e-06
5.104718998e-06
5.065584112e-06
5.902263826e-06
4.2604186e-06
6.807962694e-06
1.053826526e-05
4.694260066e-06
9.796193847e-06
1.02960273e-05
1.257681463e-05
9.787787406e-06
1.364669447e-05
1.047419464e-05
1.326992674e-05
1.276840735e-05
9.593592472e-06
1.102217921e-05
9.221428579e-06
4.321218243e-06
5.329199928e-06
3.326810832e-06
5.333153546e-07
5.449923793e-06
1.02082424e-05
3.428835943e-06
4.476649688e-06
9.813735195e-06
5.663761789e-06
7.4772173e-06
6.969499245e-06
6.535037962e-06
9.552674174e-06
1.12916472e-05
4.771575704e-06
9.031508507e-06
1.58309317e-05
1.26160531e-05
3.873886233e-06
6.679297056e-06
4.385507199e-06
6.933099661e-06
5.526422872e-06
6.26406402e-06
3.351163795e-06
7.931977146e-06
5.777425506e-06
7.976966903e-06
5.948947433e-06
6.725242234e-06
5.391258692e-06
4.199814206e-06
7.97233577e-06
1.576318614e-06
6.124273558e-06
5.9423947e-06
3.300553932e-06
5.104121202e-06
5.68883583e-06
4.005124704e-06
6.407571149e-06
)
;

boundaryField
{
    flow
    {
        type            zeroGradient;
    }
    obstacle
    {
        type            calculated;
        value           nonuniform List<scalar> 
30
(
7.052379156e-24
3.621112001e-24
1.672458798e-23
7.375404993e-24
1.852917592e-24
1.074386951e-23
1e-300
1e-300
1.024383891e-23
1.534697766e-23
1e-300
1e-300
1.842770232e-24
1e-300
7.086639502e-24
7.707868091e-24
1e-300
3.19230309e-23
3.734835926e-24
1e-300
1.452194212e-23
1e-300
2.920875577e-24
1e-300
1e-300
1e-300
2.836432044e-24
3.847581453e-24
5.387470112e-24
4.231984506e-24
)
;
    }
    frontAndBack
    {
        type            empty;
    }
    procBoundary1to0
    {
        type            processor;
        value           nonuniform List<scalar> 
21
(
1.457013697e-05
1.612351583e-05
1.17600245e-05
1.242524925e-05
6.878740213e-06
9.541420887e-06
5.399077245e-06
1.249896515e-05
9.023627926e-06
5.251645445e-06
5.251645445e-06
2.662680684e-06
4.142343636e-06
4.216059506e-06
4.216059536e-06
6.434663154e-06
2.071171818e-06
3.845698382e-06
5.325361383e-06
3.106757727e-06
2.588964772e-06
)
;
    }
    procBoundary1to3
    {
        type            processor;
        value           nonuniform List<scalar> 
36
(
1.286823583e-05
1.176770132e-05
1.251865412e-05
1.133249172e-05
1.286823583e-05
1.565496152e-05
6.75204634e-06
8.2064298e-06
1.268064217e-05
1.296852148e-05
8.512784376e-06
1.176770132e-05
9.221428418e-06
9.049467183e-06
9.543151253e-06
9.706514461e-06
6.127970373e-06
6.75204634e-06
9.870432763e-06
3.957428039e-06
6.780614014e-06
5.305974966e-06
5.105971981e-06
9.557320837e-06
9.049467183e-06
7.658951491e-06
5.47880899e-06
4.914855358e-06
7.694192288e-06
3.837896379e-06
3.867097212e-06
5.611163775e-06
3.957428039e-06
5.182991277e-06
5.47880899e-06
7.003415541e-06
)
;
    }
}


// ************************************************************************* //
