/*--------------------------------*- C++ -*----------------------------------*\
| =========                 |                                                 |
| \\      /  F ield         | OpenFOAM: The Open Source CFD Toolbox           |
|  \\    /   O peration     | Version:  2406                                  |
|   \\  /    A nd           | Website:  www.openfoam.com                      |
|    \\/     M anipulation  |                                                 |
\*---------------------------------------------------------------------------*/
FoamFile
{
    version     2.0;
    format      ascii;
    arch        "LSB;label=32;scalar=64";
    class       volScalarField;
    location    "0.007";
    object      rhoN;
}
// * * * * * * * * * * * * * * * * * * * * * * * * * * * * * * * * * * * * * //

dimensions      [0 -3 0 0 0 0 0];

internalField   nonuniform List<scalar> 
546
(
3.589424338e+20
2.824943771e+20
2.845957829e+20
2.408520969e+20
2.888938021e+20
3.260228879e+20
2.698577406e+20
2.601190975e+20
2.859757702e+20
2.401832748e+20
2.541871405e+20
2.684142979e+20
3.566623387e+20
2.107718058e+20
2.49992188e+20
3.528712651e+20
3.30386951e+20
3.331532898e+20
3.359663447e+20
1.824454742e+20
3.94312406e+20
4.242436298e+20
2.13975522e+20
4.72197936e+20
2.858386931e+20
2.746703363e+20
2.632997112e+20
1.957832121e+20
1.693618388e+20
7.122429483e+19
2.804237766e+20
3.050939272e+20
2.50444289e+20
2.179138019e+20
2.426707937e+20
2.328734915e+20
2.229259596e+20
3.783550509e+20
3.813010269e+20
2.762107658e+20
2.6629129e+20
2.196116983e+20
2.828701305e+20
3.099585378e+20
2.374925784e+20
3.528712651e+20
3.430941414e+20
3.203397014e+20
3.101227794e+20
3.648909486e+20
2.628749375e+20
3.446979495e+20
1.604816416e+20
1.753878048e+20
2.041704951e+20
1.922692356e+20
2.632997114e+20
2.657057882e+20
3.528371641e+20
1.282037307e+20
3.252915806e+20
2.824943771e+20
2.845957829e+20
1.72037212e+20
3.120053065e+20
2.095861422e+20
2.346589047e+20
2.128247161e+20
2.502287991e+20
2.521924385e+20
3.026037384e+20
2.074110484e+20
2.951688318e+20
1.735767811e+20
2.874910162e+20
1.890381778e+20
1.397790947e+20
3.331532895e+20
2.325920848e+20
2.867000311e+20
2.76018684e+20
2.253794283e+20
2.407224625e+20
4.317238272e+20
2.858386931e+20
2.060027522e+20
2.910154703e+20
2.517212728e+20
1.552483522e+20
1.851831667e+20
2.467729232e+20
2.259955015e+20
2.959796142e+20
3.670127193e+20
2.888938021e+20
1.979424676e+20
3.637213025e+20
2.719426928e+20
2.859757702e+20
2.521924385e+20
2.178746918e+20
2.196116981e+20
3.074675331e+20
2.603651719e+20
2.249929692e+20
2.77255994e+20
2.541438085e+20
2.690853492e+20
2.325920846e+20
2.606363919e+20
1.577249625e+20
2.784098823e+20
4.145775739e+20
3.372842397e+20
2.586159604e+20
2.19736269e+20
2.77157591e+20
1.258606366e+20
2.117022986e+20
2.564074607e+20
1.682542658e+20
2.485950516e+20
2.390604575e+20
1.49098917e+20
3.120053062e+20
3.143792135e+20
2.346589049e+20
3.192370742e+20
2.740601131e+20
1.921466197e+20
1.452497946e+20
3.416181976e+20
2.58272728e+20
3.09958538e+20
2.124933598e+20
3.4026872e+20
2.033150469e+20
1.66576645e+20
1.292178249e+20
2.476045721e+20
1.708687091e+20
2.121218147e+20
2.942163428e+20
2.158619136e+20
3.130614263e+20
1.785357183e+20
3.187312282e+20
2.517212737e+20
1.834753255e+20
1.4244859e+20
1.233864618e+20
2.372952769e+20
2.162927952e+20
3.096669819e+20
3.466725627e+20
1.746551186e+20
2.346589049e+20
1.891775254e+20
2.740601131e+20
1.561191285e+20
2.178746917e+20
3.660194968e+20
2.582727276e+20
1.48780098e+20
1.999937502e+20
2.77255994e+20
2.287294276e+20
2.947125253e+20
1.809049548e+20
2.476045725e+20
2.891624313e+20
1.98864202e+20
2.407224637e+20
2.428446528e+20
2.994500574e+20
2.060027522e+20
2.49441833e+20
1.53829667e+20
1.975888113e+20
1.709383065e+20
1.906881679e+20
2.711946018e+20
1.935251322e+20
1.032223271e+20
1.733362812e+20
1.630114441e+20
2.463918501e+20
3.074134789e+20
2.62144456e+20
2.28174111e+20
1.815622433e+20
2.562136482e+20
2.336753254e+20
2.479668304e+20
2.874910159e+20
1.260254517e+20
1.906078563e+20
3.715940537e+20
1.809049554e+20
2.606363938e+20
3.68024915e+20
2.784098837e+20
2.674694032e+20
2.023705454e+20
1.36113665e+20
2.06002754e+20
1.524366757e+20
2.936748187e+20
2.82269733e+20
1.424485913e+20
1.682542658e+20
1.581968512e+20
1.935251325e+20
1.835063596e+20
1.848920333e+20
2.095861422e+20
1.994600691e+20
1.655303348e+20
2.502287991e+20
2.76210766e+20
2.904995889e+20
2.074110482e+20
3.197662345e+20
1.735767813e+20
2.999906263e+20
1.638330878e+20
2.668509985e+20
2.178309959e+20
2.325920836e+20
2.345727517e+20
2.891624289e+20
2.121218125e+20
1.604816405e+20
2.698273915e+20
3.675068892e+20
2.197362671e+20
2.217260698e+20
1.678141806e+20
2.68156244e+20
1.566934476e+20
1.458203638e+20
1.581968512e+20
1.366059757e+20
1.490989171e+20
2.195592897e+20
1.979424678e+20
2.463918501e+20
1.773539301e+20
2.383131418e+20
1.441099647e+20
1.573539437e+20
2.684142981e+20
3.19766235e+20
2.603651723e+20
3.249898446e+20
2.394483569e+20
3.558013313e+20
3.075261144e+20
2.71357432e+20
3.779227666e+20
1.445812157e+20
2.651522702e+20
2.54095933e+20
2.428446524e+20
2.313932265e+20
2.472033026e+20
3.048733514e+20
2.237522429e+20
1.411348652e+20
1.851831671e+20
7.851865739e+19
1.355973009e+20
1.593736384e+20
1.490989171e+20
1.733362812e+20
1.630114439e+20
1.877271236e+20
2.128247165e+20
2.025661704e+20
1.56119128e+20
2.66291291e+20
2.074110482e+20
2.336753243e+20
1.859751228e+20
3.624886714e+20
1.764356329e+20
1.651934766e+20
2.178309977e+20
2.97200997e+20
2.60636393e+20
2.760186844e+20
2.518946545e+20
2.407224629e+20
1.753878045e+20
1.905591294e+20
2.609368195e+20
2.217260718e+20
1.817986973e+20
1.975888113e+20
2.27917742e+20
1.233864616e+20
1.355973006e+20
1.479898065e+20
1.261606219e+20
2.657822979e+20
2.095861427e+20
1.759941794e+20
2.482955033e+20
2.740601135e+20
2.521924379e+20
1.815622422e+20
2.440129979e+20
1.721818192e+20
1.487800982e+20
2.249929703e+20
1.764356329e+20
1.779006642e+20
2.178309959e+20
3.359663444e+20
1.563818345e+20
2.1029995e+20
3.844707917e+20
2.942163435e+20
3.103015003e+20
1.905591277e+20
1.373351681e+20
1.385787961e+20
2.657057884e+20
1.975888131e+20
2.13672887e+20
8.973560877e+19
1.355973016e+20
1.479898079e+20
1.720372124e+20
1.61780529e+20
1.164367452e+20
1.173294515e+20
1.418831426e+20
2.025661693e+20
2.281741122e+20
2.057705444e+20
2.562136498e+20
1.96779222e+20
2.107718058e+20
2.749914059e+20
2.646534493e+20
2.033150481e+20
2.306445858e+20
3.359663444e+20
1.042545563e+20
2.497311886e+20
2.121218125e+20
1.738551091e+20
2.293532828e+20
2.722273301e+20
3.021373726e+20
2.771575922e+20
2.237522429e+20
1.834753248e+20
2.564074597e+20
1.121695102e+20
9.039820007e+19
1.024544816e+20
1.605680649e+20
1.386690249e+20
1.280804207e+20
1.877271253e+20
2.246483125e+20
1.429878853e+20
9.607330968e+19
1.936663917e+20
1.464077976e+20
1.721818179e+20
2.603651719e+20
1.624949217e+20
2.646534471e+20
2.287294272e+20
1.922038215e+20
2.584356495e+20
2.476045733e+20
1.314374699e+20
1.856065891e+20
1.069877613e+20
1.888791741e+20
2.722273253e+20
1.648022003e+20
2.355839513e+20
1.258606366e+20
2.540427574e+20
1.709383065e+20
1.570373143e+20
7.909842564e+19
1.593736381e+20
2.637903904e+20
8.089026452e+19
9.314939619e+19
1.52528287e+20
1.891775249e+20
1.549035424e+20
9.607330968e+19
1.694580927e+20
1.586084486e+20
1.475844153e+20
1.611784385e+20
1.999937497e+20
1.764356329e+20
2.668509985e+20
2.050174079e+20
2.196703021e+20
1.824454736e+20
2.23443695e+20
1.856065875e+20
3.075898137e+20
2.023705437e+20
3.130614241e+20
2.334697858e+20
3.048733487e+20
2.796903011e+20
1.693618383e+20
2.421626031e+20
5.608475552e+19
1.242975269e+20
1.138383137e+20
1.490989174e+20
1.733362824e+20
1.862987938e+20
1.407953429e+20
1.418831447e+20
1.787348566e+20
1.321008008e+20
1.452497949e+20
1.464077999e+20
1.721818192e+20
1.611784398e+20
2.749914081e+20
2.394483589e+20
2.922653793e+20
2.56271762e+20
2.325920865e+20
1.824454751e+20
2.234436969e+20
1.723489756e+20
3.610836943e+20
2.56336022e+20
3.402841596e+20
2.06002754e+20
2.632997126e+20
2.37736758e+20
2.117022998e+20
1.709383081e+20
1.121695102e+20
9.039820007e+19
1.366059755e+20
1.146914749e+20
9.24460166e+19
1.280804207e+20
1.525282893e+20
1.537067401e+20
1.549035436e+20
1.080824742e+20
1.573539432e+20
1.708090972e+20
1.844805192e+20
1.115850737e+20
1.124964842e+20
1.764356329e+20
2.287294291e+20
2.050174096e+20
3.101227794e+20
1.563818358e+20
2.628749398e+20
1.590913621e+20
2.139755226e+20
2.698273915e+20
2.177818603e+20
2.746703339e+20
2.771575897e+20
2.796903036e+20
2.117022979e+20
1.121695102e+20
1.581968513e+20
1.479898079e+20
9.175317996e+19
1.50224777e+20
1.047930707e+20
8.213061608e+19
1.064123569e+20
1.072409132e+20
1.20091638e+20
8.472904767e+19
1.464077999e+20
2.213766247e+20
9.918673216e+19
1.999937497e+20
2.142432667e+20
2.668509985e+20
2.050174096e+20
2.842792145e+20
2.215409322e+20
2.760186821e+20
2.651522657e+20
2.006020507e+20
2.293532848e+20
1.905591311e+20
8.973560883e+19
1.129977509e+20
6.830298725e+19
1.146914741e+19
1.155575207e+20
2.09586143e+20
7.039767198e+19
9.458876315e+19
2.025661709e+20
1.200916371e+20
1.573539432e+20
1.464077987e+20
1.352857151e+20
1.983734643e+20
2.374925797e+20
1.008203624e+20
1.90607856e+20
3.331532879e+20
2.584356495e+20
7.851865773e+19
1.355973011e+20
9.1070651e+19
1.490989174e+20
1.155575207e+20
1.280804198e+20
7.039767093e+19
1.655303343e+20
1.191565711e+20
1.681282919e+20
1.210414957e+20
1.342071488e+20
1.106883115e+20
8.678839064e+19
1.682542654e+20
3.389932503e+19
1.252221442e+20
1.261606224e+20
6.933451296e+19
1.047930715e+20
1.173294524e+20
8.276516776e+19
1.346034132e+20
)
;

boundaryField
{
    flow
    {
        type            zeroGradient;
    }
    obstacle
    {
        type            calculated;
        value           nonuniform List<scalar> 
30
(
151.6640679
77.87337636
353.0692201
138.8442205
39.84769016
218.7424981
1e-300
1e-300
213.0661165
330.0425302
1e-300
1e-300
39.62946735
1e-300
140.8636796
154.3682685
1e-300
644.8274233
75.75294418
1e-300
290.2084601
1e-300
62.81452853
1e-300
1e-300
1e-300
60.99853859
82.74368717
115.8595723
91.01041949
)
;
    }
    frontAndBack
    {
        type            empty;
    }
    procBoundary1to0
    {
        type            processor;
        value           nonuniform List<scalar> 
21
(
3.006539735e+20
3.340599706e+20
2.449773118e+20
2.561126441e+20
1.447593207e+20
2.004359825e+20
1.113533235e+20
2.561126441e+20
1.8930065e+20
1.113533235e+20
1.113533235e+20
5.567666201e+19
8.908265883e+19
8.908265819e+19
8.908265883e+19
1.336239882e+20
4.454132941e+19
7.794732648e+19
1.113533243e+20
6.681199412e+19
5.567666177e+19
)
;
    }
    procBoundary1to3
    {
        type            processor;
        value           nonuniform List<scalar> 
36
(
2.706523211e+20
2.472033048e+20
2.632997126e+20
2.37736758e+20
2.706523211e+20
3.246101901e+20
1.433500149e+20
1.708687094e+20
2.651522702e+20
2.674694032e+20
1.753878045e+20
2.472033048e+20
1.905591277e+20
1.874941404e+20
2.016407216e+20
2.033150464e+20
1.28135881e+20
1.433500149e+20
2.067485196e+20
8.340959977e+19
1.441099645e+20
1.089373453e+20
1.09805849e+20
1.96779222e+20
1.874941404e+20
1.611784398e+20
1.129977517e+20
1.024544824e+20
1.605680649e+20
8.089026452e+19
8.150572227e+19
1.173294533e+20
8.340959977e+19
1.064123585e+20
1.129977517e+20
1.458203633e+20
)
;
    }
}


// ************************************************************************* //
