/*--------------------------------*- C++ -*----------------------------------*\
| =========                 |                                                 |
| \\      /  F ield         | OpenFOAM: The Open Source CFD Toolbox           |
|  \\    /   O peration     | Version:  2406                                  |
|   \\  /    A nd           | Website:  www.openfoam.com                      |
|    \\/     M anipulation  |                                                 |
\*---------------------------------------------------------------------------*/
FoamFile
{
    version     2.0;
    format      ascii;
    arch        "LSB;label=32;scalar=64";
    class       volScalarField;
    location    "0.007";
    object      rhoNMean;
}
// * * * * * * * * * * * * * * * * * * * * * * * * * * * * * * * * * * * * * //

dimensions      [0 -3 0 0 0 0 0];

internalField   nonuniform List<scalar> 
546
(
3.035563343e+20
3.036927551e+20
3.035612459e+20
3.052988749e+20
3.016612573e+20
2.997547581e+20
3.03873225e+20
3.025083759e+20
3.048842158e+20
3.017696976e+20
2.992353267e+20
3.009412305e+20
2.940022124e+20
3.01003393e+20
3.013691539e+20
2.935240795e+20
2.842598498e+20
2.927172669e+20
2.921799617e+20
2.885058687e+20
2.877166189e+20
2.884136983e+20
2.855770811e+20
2.811100317e+20
2.695867217e+20
2.626593949e+20
2.542485362e+20
2.448129223e+20
2.257996553e+20
1.8584657e+20
2.733506877e+20
2.730606791e+20
2.70405024e+20
2.73218031e+20
2.718507186e+20
2.760981383e+20
2.730893289e+20
2.745742873e+20
2.706624486e+20
2.702713765e+20
2.697703684e+20
2.72381252e+20
2.730838781e+20
2.754203007e+20
2.754771057e+20
2.715884494e+20
2.661139818e+20
2.705570813e+20
2.674845892e+20
2.651044443e+20
2.632542285e+20
2.599742238e+20
2.598618087e+20
2.552914049e+20
2.48881889e+20
2.474073437e+20
2.374527864e+20
2.24691203e+20
2.033914711e+20
1.705842211e+20
2.573489057e+20
2.610312614e+20
2.61236161e+20
2.59130641e+20
2.563924241e+20
2.566598551e+20
2.562843989e+20
2.564470266e+20
2.593936417e+20
2.558638114e+20
2.578944684e+20
2.604838754e+20
2.587435924e+20
2.590403204e+20
2.59581174e+20
2.520401015e+20
2.567324447e+20
2.561729135e+20
2.533887707e+20
2.528768741e+20
2.459533019e+20
2.453340305e+20
2.51681066e+20
2.406320682e+20
2.328632553e+20
2.301305793e+20
2.248381564e+20
2.145024846e+20
1.961169769e+20
1.728145592e+20
2.414528836e+20
2.443786213e+20
2.515176216e+20
2.510301462e+20
2.525922323e+20
2.527209663e+20
2.516649709e+20
2.522479612e+20
2.5374562e+20
2.520002919e+20
2.516141441e+20
2.502876178e+20
2.518738892e+20
2.524656572e+20
2.497100539e+20
2.46001682e+20
2.449220188e+20
2.464711968e+20
2.466989791e+20
2.463609644e+20
2.427574941e+20
2.409059878e+20
2.372338971e+20
2.330846104e+20
2.298687547e+20
2.255828233e+20
2.195404872e+20
2.069188822e+20
1.976009093e+20
1.820981366e+20
2.232910374e+20
2.279713479e+20
2.367218933e+20
2.428706666e+20
2.474515735e+20
2.462271229e+20
2.456040666e+20
2.461030698e+20
2.506815939e+20
2.48315194e+20
2.483978987e+20
2.505839197e+20
2.502996557e+20
2.491570712e+20
2.4809939e+20
2.466678165e+20
2.407976281e+20
2.435423771e+20
2.42678459e+20
2.411072792e+20
2.382060019e+20
2.35053698e+20
2.31429811e+20
2.302398589e+20
2.251864451e+20
2.224868959e+20
2.212786603e+20
2.082054579e+20
1.971815372e+20
1.824115245e+20
2.099044078e+20
2.173205031e+20
2.238191339e+20
2.296418246e+20
2.345652592e+20
2.366127744e+20
2.395900941e+20
2.431235237e+20
2.449825053e+20
2.472034886e+20
2.490549809e+20
2.46310206e+20
2.441257072e+20
2.462700284e+20
2.455851826e+20
2.467362303e+20
2.414910774e+20
2.450763462e+20
2.435386805e+20
2.417886576e+20
2.386829326e+20
2.327999045e+20
2.308108118e+20
2.325025543e+20
2.280603859e+20
2.22494744e+20
2.15450434e+20
2.097917011e+20
2.029761308e+20
1.855413218e+20
1.909253263e+20
2.018268969e+20
2.09586092e+20
2.166489186e+20
2.249112536e+20
2.32161564e+20
2.343437915e+20
2.382251771e+20
2.38292715e+20
2.421802271e+20
2.44998362e+20
2.483703732e+20
2.483880861e+20
2.488453415e+20
2.463458731e+20
2.440896956e+20
2.44435515e+20
2.445638027e+20
2.436014443e+20
2.40098246e+20
2.386003163e+20
2.359021869e+20
2.332715295e+20
2.312150938e+20
2.30634883e+20
2.242212452e+20
2.192118585e+20
2.136554229e+20
2.03891493e+20
1.921631497e+20
1.717411352e+20
1.827302771e+20
1.932389105e+20
2.03990257e+20
2.103278945e+20
2.184386616e+20
2.259698208e+20
2.314080298e+20
2.336830581e+20
2.367966906e+20
2.41453575e+20
2.455502798e+20
2.439570395e+20
2.458130614e+20
2.468565723e+20
2.473051458e+20
2.480516179e+20
2.448127512e+20
2.445871896e+20
2.441865112e+20
2.429790581e+20
2.361673351e+20
2.354494926e+20
2.314078257e+20
2.30840994e+20
2.280470066e+20
2.233177463e+20
2.147861689e+20
2.100207768e+20
2.008525101e+20
1.565726126e+20
1.662681191e+20
1.759582543e+20
1.853184848e+20
1.950676986e+20
2.030656846e+20
2.118031275e+20
2.175946923e+20
2.244058678e+20
2.278653038e+20
2.317633383e+20
2.37992849e+20
2.423336113e+20
2.437797337e+20
2.460673108e+20
2.475427916e+20
2.472928171e+20
2.458378403e+20
2.454104928e+20
2.452700139e+20
2.435799171e+20
2.422809929e+20
2.37982812e+20
2.350427861e+20
2.329682561e+20
2.316844286e+20
2.261012043e+20
2.195648795e+20
2.127587931e+20
2.046497844e+20
1.409009295e+20
1.479624833e+20
1.57009054e+20
1.674692144e+20
1.771826959e+20
1.860592661e+20
1.968788209e+20
2.042205172e+20
2.120816737e+20
2.201794383e+20
2.257147233e+20
2.3313699e+20
2.347435543e+20
2.395359582e+20
2.42385282e+20
2.42865449e+20
2.449111286e+20
2.463137735e+20
2.439447935e+20
2.444583197e+20
2.459157487e+20
2.44299936e+20
2.416662478e+20
2.359100884e+20
2.356633086e+20
2.331401814e+20
2.288094279e+20
2.24523389e+20
2.169000933e+20
2.086953224e+20
1.324433484e+20
1.394456811e+20
1.464448579e+20
1.549055823e+20
1.628997863e+20
1.71577862e+20
1.809890619e+20
1.919476258e+20
2.010647981e+20
2.108363093e+20
2.172176082e+20
2.217311253e+20
2.284536489e+20
2.332801093e+20
2.358747731e+20
2.381412949e+20
2.409755262e+20
2.453509219e+20
2.442623001e+20
2.435311968e+20
2.451008364e+20
2.445537267e+20
2.430952986e+20
2.411601585e+20
2.344110609e+20
2.336424358e+20
2.307257767e+20
2.288825621e+20
2.247713884e+20
2.157607764e+20
1.234024863e+20
1.295922782e+20
1.352756945e+20
1.426499796e+20
1.503601443e+20
1.575488966e+20
1.673956047e+20
1.759519877e+20
1.854280501e+20
1.940372063e+20
2.022465076e+20
2.102241711e+20
2.181613928e+20
2.256852395e+20
2.300178114e+20
2.342489088e+20
2.363755272e+20
2.400827087e+20
2.436789739e+20
2.443354462e+20
2.436850651e+20
2.458302413e+20
2.436799061e+20
2.42193212e+20
2.406372929e+20
2.384452449e+20
2.357977607e+20
2.296537083e+20
2.279973262e+20
2.24482696e+20
1.168966539e+20
1.205201717e+20
1.26526406e+20
1.313839999e+20
1.377610729e+20
1.454128621e+20
1.529808458e+20
1.603617352e+20
1.676737224e+20
1.754470194e+20
1.840937386e+20
1.961759911e+20
2.060454134e+20
2.142610534e+20
2.21528791e+20
2.266657755e+20
2.305374789e+20
2.355320544e+20
2.394443212e+20
2.427195026e+20
2.429152211e+20
2.463908531e+20
2.450363623e+20
2.462059308e+20
2.447168096e+20
2.428438899e+20
2.402837521e+20
2.372453022e+20
2.334048077e+20
2.273316678e+20
1.108491149e+20
1.144957782e+20
1.180015426e+20
1.236472398e+20
1.285825042e+20
1.337958006e+20
1.391694909e+20
1.465213712e+20
1.549478006e+20
1.644226071e+20
1.741199194e+20
1.809182084e+20
1.883247418e+20
1.988729388e+20
2.081577803e+20
2.171166488e+20
2.248083514e+20
2.309301439e+20
2.346411101e+20
2.381844274e+20
2.400949445e+20
2.418075047e+20
2.485134645e+20
2.498139084e+20
2.46914073e+20
2.439268779e+20
2.452290354e+20
2.425274512e+20
2.376711131e+20
2.316173375e+20
1.097754932e+20
1.121292833e+20
1.143652225e+20
1.158908201e+20
1.205231934e+20
1.25156195e+20
1.30406658e+20
1.360422886e+20
1.431785358e+20
1.505125644e+20
1.584744429e+20
1.655175037e+20
1.761771402e+20
1.857909189e+20
1.949689083e+20
2.058247683e+20
2.138039245e+20
2.199214431e+20
2.265336164e+20
2.335748886e+20
2.385477398e+20
2.435423602e+20
2.456553629e+20
2.460825811e+20
2.48259656e+20
2.475996149e+20
2.477868062e+20
2.457438919e+20
2.425664789e+20
2.377466968e+20
1.055579188e+20
1.056625819e+20
1.087090838e+20
1.103495834e+20
1.133718328e+20
1.174880036e+20
1.224718356e+20
1.283265481e+20
1.338094259e+20
1.393063001e+20
1.467299583e+20
1.558197274e+20
1.620020071e+20
1.703284158e+20
1.801122282e+20
1.881848057e+20
1.97959875e+20
2.065623622e+20
2.141323953e+20
2.225425224e+20
2.283932584e+20
2.325915714e+20
2.372453606e+20
2.428716351e+20
2.456268267e+20
2.460065226e+20
2.460882239e+20
2.452484405e+20
2.433608644e+20
1.04654153e+20
1.05830465e+20
1.069689846e+20
1.102774916e+20
1.116978996e+20
1.146935208e+20
1.180066101e+20
1.220059899e+20
1.254412281e+20
1.307420507e+20
1.362201004e+20
1.412242666e+20
1.475914443e+20
1.548021498e+20
1.628056262e+20
1.730221421e+20
1.834446313e+20
1.939135202e+20
2.046071957e+20
2.085835802e+20
2.169131306e+20
2.274476135e+20
2.327021998e+20
2.382267514e+20
2.393111569e+20
1.040035706e+20
1.055043858e+20
1.06676256e+20
1.072987894e+20
1.090103618e+20
1.102789056e+20
1.11778094e+20
1.137835257e+20
1.177403101e+20
1.217660576e+20
1.252606555e+20
1.314916328e+20
1.389050472e+20
1.467007192e+20
1.535059181e+20
1.603691894e+20
1.683993178e+20
1.78086907e+20
1.868046714e+20
1.026895849e+20
1.032573448e+20
1.040839965e+20
1.054375114e+20
1.06748736e+20
1.078037923e+20
1.096728668e+20
1.110674761e+20
1.140260296e+20
1.164580073e+20
1.221135776e+20
1.257782427e+20
1.295580332e+20
1.350675325e+20
1.020101575e+20
1.02327534e+20
1.027309461e+20
1.034746487e+20
1.047908622e+20
1.053087199e+20
1.069206539e+20
1.09341232e+20
1.009557648e+20
)
;

boundaryField
{
    flow
    {
        type            calculated;
        value           nonuniform List<scalar> 
15
(
1.8584657e+20
1.705842211e+20
1.728145592e+20
1.820981366e+20
1.824115245e+20
1.855413218e+20
1.921631497e+20
2.008525101e+20
2.046497844e+20
2.086953224e+20
2.157607764e+20
2.24482696e+20
2.273316678e+20
2.316173375e+20
2.377466968e+20
)
;
    }
    obstacle
    {
        type            calculated;
        value           nonuniform List<scalar> 
30
(
133.5183479
134.6406593
136.3364883
138.0419512
135.2895792
131.0023476
135.9834355
128.141113
139.3845162
130.6157028
128.4308938
133.4940306
126.4701061
132.4284647
134.4967722
124.9996993
123.9564034
123.4366158
128.1978081
131.0848214
122.8261679
118.6041367
125.1820047
124.3427801
118.5204835
109.7552444
110.1409766
109.6299858
96.88751866
86.14596805
)
;
    }
    frontAndBack
    {
        type            empty;
    }
    procBoundary1to0
    {
        type            processor;
        value           nonuniform List<scalar> 
21
(
3.075197013e+20
2.721061629e+20
2.557308613e+20
2.363235678e+20
2.182716034e+20
1.976330603e+20
1.81181402e+20
1.620222673e+20
1.47247272e+20
1.330099542e+20
1.261346819e+20
1.18779e+20
1.139526283e+20
1.094475902e+20
1.075036801e+20
1.053179734e+20
1.034917789e+20
1.028204774e+20
1.021619028e+20
1.012774385e+20
1.009974644e+20
)
;
    }
    procBoundary1to3
    {
        type            processor;
        value           nonuniform List<scalar> 
36
(
2.409416152e+20
2.420316547e+20
2.461634546e+20
2.453163653e+20
2.409416152e+20
2.449980288e+20
1.968661127e+20
2.057184154e+20
2.133339408e+20
2.214379189e+20
2.294072483e+20
2.420316547e+20
2.367872165e+20
1.418919941e+20
1.498586642e+20
1.568866033e+20
1.640285718e+20
1.968661127e+20
1.72863914e+20
1.111935077e+20
1.13304744e+20
1.149029619e+20
1.188169005e+20
1.221331325e+20
1.418919941e+20
1.264666259e+20
1.015882073e+20
1.02047917e+20
1.019836595e+20
1.030839118e+20
1.052188973e+20
1.062434961e+20
1.111935077e+20
1.075575582e+20
1.015882073e+20
1.020133623e+20
)
;
    }
}


// ************************************************************************* //
