/*--------------------------------*- C++ -*----------------------------------*\
| =========                 |                                                 |
| \\      /  F ield         | OpenFOAM: The Open Source CFD Toolbox           |
|  \\    /   O peration     | Version:  2406                                  |
|   \\  /    A nd           | Website:  www.openfoam.com                      |
|    \\/     M anipulation  |                                                 |
\*---------------------------------------------------------------------------*/
FoamFile
{
    version     2.0;
    format      ascii;
    arch        "LSB;label=32;scalar=64";
    class       volScalarField;
    location    "0.007";
    object      translationalT;
}
// * * * * * * * * * * * * * * * * * * * * * * * * * * * * * * * * * * * * * //

dimensions      [1 2 -2 0 0 0 0];

internalField   nonuniform List<scalar> 
546
(
933.8349733
914.181972
898.2843302
878.8799155
863.3691523
859.2963544
852.189022
838.9967241
829.6250247
824.0287157
815.0765188
811.3620067
811.2290678
810.6296713
795.349753
783.443144
788.6249026
774.7038667
771.0017823
773.3078378
773.1215706
757.7192286
760.3367178
773.638265
768.0514869
764.8952534
760.8319179
743.6891979
743.9334152
732.1614177
1024.610356
1010.725839
1004.859212
991.4370842
978.1632757
961.4194213
951.1341777
938.9045204
931.1271229
921.1634353
905.0103335
905.3812671
901.1286391
894.3370475
892.0104691
874.533915
869.3688776
869.9066793
855.3450188
854.195772
852.0040497
855.5295072
843.7196704
841.4298865
833.1481508
824.5828144
810.8148529
804.9442203
781.9477726
725.3078133
1029.443908
1025.14745
1014.84423
1018.732157
1006.262332
989.9001229
988.8924533
983.5274875
965.3129889
969.9766329
957.505624
954.0251128
948.0304095
936.523321
937.4532884
922.6380566
911.6459562
909.7378284
902.2151288
905.1588393
896.3067973
895.2774141
878.5862137
882.661625
878.3603595
860.7783713
848.2461297
823.3143072
800.8265174
745.9260105
1024.463362
1012.620563
1011.050876
994.612232
999.6981643
1001.181691
980.0085481
980.1480812
973.9225422
973.9490979
964.8367733
964.7022208
958.7152389
948.4337247
944.171811
937.5984375
931.9288183
926.1671517
925.8557366
922.9855634
914.7973096
911.1260743
906.6481825
901.6594703
890.6190187
877.7563125
854.8645467
837.2289647
799.5677887
756.8901373
1005.292601
993.6099255
995.6276973
990.3165916
983.6009488
972.7893233
964.6571119
960.710136
964.7283928
957.7456404
959.5028494
955.820276
950.7334492
951.2804136
933.5005785
937.6050603
934.1467658
940.6347925
943.5498082
932.4845392
914.2061749
915.2949462
913.3734884
907.9862945
904.01147
886.6602144
868.2674713
839.8186202
808.8431333
760.1480462
976.1456081
974.7050832
973.0533589
972.0123993
957.9073096
942.5438211
943.0725559
945.298074
942.1978365
936.8285013
937.2960204
943.2137113
943.5010489
945.682534
933.4058452
936.9089704
922.055736
933.1940754
925.7887762
928.7663133
916.1316475
910.3256105
903.1817873
899.2156848
897.8205125
883.9671557
863.6402953
841.4321617
817.2361335
769.0990746
950.3132914
954.3200056
950.1211789
935.4239107
934.4343087
934.3380292
924.7591061
924.8273383
918.2161571
920.8612706
919.8040803
921.7874877
915.6308603
916.3760917
922.6455735
917.2554233
920.378544
920.2180004
922.0316133
916.6398503
911.7238476
898.3290365
898.271396
888.7722051
885.2673724
862.3223398
854.6782836
844.2979416
818.3842235
778.4707017
905.0414389
915.4009332
913.2106702
923.6257736
913.0594632
914.5839684
911.9713223
902.6279955
900.3674853
901.3911572
899.3261989
896.7853342
893.6762045
899.323741
896.2330789
900.5847071
905.0029936
897.6784321
900.6341595
902.4043904
900.8289724
896.2743574
888.229358
875.3854875
874.3161315
863.2190229
850.4595959
825.3717909
807.6027807
775.6213954
856.0147277
875.4966167
883.5703319
889.7866827
892.7443525
895.3326521
894.4751574
884.6222236
886.3566187
881.8343879
878.7143904
890.810745
880.8742003
876.7249711
881.4755794
882.3015275
883.0595275
878.8092496
871.0138748
880.7118357
868.0824439
866.8164292
867.4102039
857.2390071
862.5969502
861.1023414
842.9726412
829.3460965
814.570324
782.81049
794.1199086
818.0472772
844.031897
864.6587178
868.2703466
863.2867678
862.1241658
869.2036206
867.2466458
873.9631262
864.8712848
874.4085709
865.9648785
873.7199232
862.2511599
859.2630226
862.9762294
857.3371956
855.2771616
851.4023522
857.2428947
855.1927381
853.116631
847.8556847
853.1503303
848.3444907
834.7432291
820.8591823
808.5521369
785.8686019
709.986308
750.814571
783.0560393
812.002437
826.6196438
836.9154291
842.2900763
846.3355292
849.4726874
854.0507648
852.2595523
849.3307061
854.7970124
858.6741185
852.9957291
851.1220894
845.5376822
855.1294989
844.6227434
840.8827003
853.748268
849.9860855
853.3976762
844.6619211
834.2177321
841.7119262
833.7917873
810.9079237
800.132579
781.1832364
651.2097194
695.4031548
715.6394254
749.1077626
770.8413145
791.4862466
814.1674767
821.5125678
829.6357768
828.9284012
826.5825027
832.4459302
835.799632
842.3175372
843.1369922
831.8659887
831.478022
836.7950437
838.3389302
832.7057362
834.3086502
837.6025632
835.3437168
828.007544
824.416383
823.4853234
820.5061334
805.6019944
794.4972785
775.0639852
577.2005784
615.0789025
651.2257023
687.3671535
717.3686006
746.8314736
763.3315021
783.6052424
797.2524985
810.7445612
816.7022072
821.3016071
816.5379755
819.7745488
824.5752284
827.283174
821.730785
824.2190157
821.5724618
821.9231691
822.944948
829.0967922
822.0759191
831.1460104
817.9753711
807.1082505
803.1224533
797.2501925
790.9882105
773.8580336
517.0414166
550.4266303
587.1170552
618.9169614
666.9220444
699.4395045
713.2644176
735.7915151
755.2946607
773.4708452
784.1370915
798.0258034
795.9845836
803.9019932
807.4238704
811.9858236
819.2890673
809.1893558
809.9585596
806.5778806
802.1588324
805.2556061
807.5488811
806.0439918
801.557586
793.3404958
802.1018121
797.8651038
782.7250964
766.1129493
471.3181945
491.17611
524.4449144
551.4333256
598.6553023
627.4086363
651.3667913
687.9928298
712.626345
730.3700301
747.8275073
764.6147456
775.1053221
777.0206739
783.2037754
792.0103081
793.472755
791.6018148
790.790828
788.7660834
787.3449152
792.103231
792.3642435
791.9663258
792.036087
781.9663884
779.9054843
782.5215449
776.8443011
758.6001757
434.2149651
453.8518955
483.8083737
508.8200259
534.2435631
568.8071252
600.9165329
634.0990928
660.9883442
673.0081097
693.2220212
724.0800465
728.0481477
742.6377405
764.8960924
768.6305043
779.6395017
777.3133946
784.0728663
780.4478269
775.5976874
775.0239276
778.604965
777.2439067
778.5457664
770.4800946
763.600791
766.9155341
760.2391304
404.5564385
415.2355103
430.9544936
462.7246942
489.8535943
512.2842384
544.5135738
574.1879069
608.6335489
634.3174126
665.6921225
689.2623417
704.8207032
719.4529143
736.5533522
748.7271967
763.8973409
770.90603
777.0381545
770.0178196
766.2284665
773.2301897
767.4850846
775.3044796
766.8534039
382.4625818
388.473366
412.0160264
431.7301893
449.4068464
469.8033419
491.2770564
522.5521236
547.2140668
586.5954319
613.0033425
629.0194561
659.0622264
686.0977147
705.5667619
721.0730088
736.9609097
747.5466664
752.9030354
362.8641137
374.1722572
375.7556835
398.3749436
426.6539835
441.3190064
456.1398718
475.083327
505.8778386
521.7252731
563.8574105
587.7341778
607.3788765
630.9717924
352.4456856
353.1268932
358.7862393
368.7975134
394.5748556
415.3930697
419.6494487
432.2710853
337.429935
)
;

boundaryField
{
    flow
    {
        type            calculated;
        value           nonuniform List<scalar> 
15
(
732.1614177
725.3078133
745.9260105
756.8901373
760.1480462
769.0990746
778.4707017
775.6213954
782.81049
785.8686019
781.1832364
775.0639852
773.8580336
766.1129493
758.6001757
)
;
    }
    obstacle
    {
        type            calculated;
        value           nonuniform List<scalar> 
30
(
795.5301657
819.5517152
774.4392701
771.5232922
753.7591645
757.6090704
746.6635453
752.330315
707.9890225
720.5378765
741.6334126
716.7726242
724.024735
723.0836825
715.3374641
713.8613919
715.4823093
697.2613932
687.5201106
699.3345279
703.0693554
701.5890852
677.390264
708.0180536
702.1078332
721.5613191
727.5523899
693.3483671
696.1021073
724.5265678
)
;
    }
    frontAndBack
    {
        type            empty;
    }
    procBoundary1to0
    {
        type            processor;
        value           nonuniform List<scalar> 
21
(
948.4541063
1050.835304
1044.151496
1044.097516
1016.11219
990.1266392
948.2907376
893.9198346
833.0936371
758.9360221
674.8403474
607.5996416
543.6746899
492.1563861
446.9035674
414.0867883
387.2134185
362.4404509
351.1090332
338.0394967
330.9101179
)
;
    }
    procBoundary1to3
    {
        type            processor;
        value           nonuniform List<scalar> 
36
(
754.4812273
769.3251514
766.9597448
760.0978224
754.4812273
750.1925542
758.0753623
766.1329336
768.2458648
760.5181766
766.8532421
769.3251514
764.2075872
658.0616664
686.2890231
699.6763931
720.152464
758.0753623
727.6766831
459.2295198
483.8649652
505.5063298
545.7450754
565.3855798
658.0616664
587.8382712
335.9720539
343.6979486
351.7279582
370.0745175
390.2299743
399.480069
459.2295198
410.1252533
335.9720539
326.9228481
)
;
    }
}


// ************************************************************************* //
