/*--------------------------------*- C++ -*----------------------------------*\
| =========                 |                                                 |
| \\      /  F ield         | OpenFOAM: The Open Source CFD Toolbox           |
|  \\    /   O peration     | Version:  2406                                  |
|   \\  /    A nd           | Website:  www.openfoam.com                      |
|    \\/     M anipulation  |                                                 |
\*---------------------------------------------------------------------------*/
FoamFile
{
    version     2.0;
    format      ascii;
    arch        "LSB;label=32;scalar=64";
    class       volVectorField;
    location    "0.007";
    object      UMean;
}
// * * * * * * * * * * * * * * * * * * * * * * * * * * * * * * * * * * * * * //

dimensions      [0 1 -1 0 0 0 0];

internalField   nonuniform List<vector> 
546
(
(376.9617131 104.6229073 3.110582199)
(357.1556424 103.887757 0.08965342542)
(344.923088 96.36279749 1.881623612)
(330.3284931 92.0354614 -0.0344459009)
(322.6895342 89.64010607 -3.086810426)
(314.7021823 88.28911516 -9.493061284)
(307.4373235 82.16068079 -4.779948083)
(301.1030793 84.79756878 2.590131191)
(287.7106322 80.80541845 2.634461852)
(280.6101494 76.91397177 5.62360806)
(273.6287806 78.17596195 3.936520895)
(267.4909341 71.22248105 -3.673100916)
(264.5148496 74.4599785 -3.447673743)
(253.9453011 69.45008308 2.078144874)
(243.9029409 68.69722535 -2.928379482)
(241.4838838 67.30811202 -3.79619765)
(241.0656641 65.62125288 -4.829891797)
(238.400789 63.07491509 2.928667387)
(229.2854468 63.97965118 -2.706505402)
(226.2229837 61.58875278 -0.7426769469)
(230.4369974 58.4364081 -2.163683767)
(232.4862869 63.73594594 0.5198374016)
(224.9205184 62.87944691 9.503461863)
(235.1777779 57.99004393 6.758897392)
(245.0879685 62.68386843 -3.162241457)
(248.3388056 69.25514177 -1.490322999)
(252.8390382 67.95951508 1.865488528)
(267.1512272 68.67537915 7.072916144)
(303.5101029 73.73962347 13.26721504)
(402.0969934 77.01089128 0.391207979)
(640.4151343 199.6241092 -6.272540846)
(618.5682646 188.687278 -3.325133559)
(599.8965988 179.565313 0.1159507576)
(575.8771598 172.4330337 2.03833764)
(565.4633911 163.5244989 3.233974481)
(546.3579547 156.2148825 -4.971867243)
(528.5962557 151.8364266 0.4535751875)
(511.0470678 148.1454239 -4.828121904)
(502.3465562 149.7459275 -6.090700774)
(491.790521 142.8875234 -1.874418943)
(479.7132642 140.7655512 2.461688248)
(462.8858423 133.2953136 -0.6009777798)
(447.8543309 131.6093168 -1.973503454)
(431.5404397 123.5541732 5.097319827)
(420.2983637 120.2876537 3.399055545)
(422.3251356 122.8149476 2.738876943)
(420.3867215 116.6889217 -2.735595756)
(398.1972773 110.3953226 1.24164691)
(396.5875752 114.194002 -0.5032242376)
(394.3021988 106.2735995 4.155954165)
(392.177177 102.9460653 -1.695946359)
(381.55687 107.0617013 4.38545555)
(389.5270261 103.8613043 -4.122245196)
(389.4268035 98.01045729 5.148278599)
(393.507041 108.1972701 -0.1780999921)
(394.8219109 106.3492605 -1.589398808)
(412.5646752 110.409703 9.595941614)
(433.5962053 104.505335 6.237883021)
(484.8922588 114.0904568 3.149334482)
(607.1953284 89.76168763 0.008964831144)
(838.2699547 268.2173128 -7.724607384)
(815.4507438 256.8213926 -7.287188374)
(797.1605557 253.6738529 -5.965664503)
(774.5913 240.2585113 -6.00588487)
(752.4942576 228.3413462 2.083693273)
(722.3122538 224.1209276 -6.792725025)
(709.2364492 216.1079234 -7.935130306)
(690.6483106 209.6708797 -11.13288427)
(672.3185152 202.6324202 -3.076119131)
(660.7656328 197.1021409 -1.784691326)
(641.0308562 197.0578165 -2.011547684)
(618.4371703 186.8395642 3.847179106)
(601.7229524 180.5256652 3.855434931)
(583.1146544 175.9826131 3.076687029)
(571.2177142 169.6503081 4.236229979)
(579.2283029 167.3541451 2.558639967)
(563.9546954 162.0414064 -5.953787797)
(552.5859202 158.5154651 -2.229612292)
(543.9381757 159.4649126 -3.04383795)
(534.1402366 148.7752209 2.835018449)
(531.221164 149.3775971 -1.090479503)
(531.8174701 141.1086291 -4.186425444)
(513.2496915 142.5538777 1.076979058)
(517.9592059 141.9654976 0.001068262389)
(524.8965513 141.6004838 0.30076186)
(521.8991539 141.5027572 5.427875894)
(535.010404 140.6744232 4.147485807)
(567.4616159 140.6709426 0.2077134473)
(621.192823 136.743024 4.045276343)
(720.7351915 103.8702006 1.717092546)
(989.8821413 315.6980996 0.1579575375)
(974.6606528 311.2584004 -2.864835416)
(937.6724946 310.0225856 -4.283233061)
(923.0902241 303.5707375 -4.516259009)
(903.972268 291.6267658 -3.717610676)
(888.1815156 274.6306395 -3.795467352)
(870.5898512 271.6219386 -2.014811636)
(845.4972693 265.1354962 -1.752348278)
(813.6714315 259.3707678 -3.523682043)
(796.1541004 251.0177796 -0.6528497365)
(781.7178189 241.642627 -1.873436858)
(760.6141727 238.1712887 -3.16939043)
(745.789154 231.1972714 -4.502946431)
(732.5662764 226.738492 -4.963344963)
(717.8120756 218.879637 -0.941649201)
(709.9962011 205.9569457 -1.638108453)
(703.0582123 206.0354133 6.640919933)
(682.2006332 203.9919999 -0.3388621079)
(669.5963804 201.6976675 -4.113582702)
(655.7678247 191.7918092 -2.252499698)
(654.4424431 184.9460599 6.388485023)
(637.9372463 177.157724 6.462874468)
(631.4049183 181.3306083 -3.399203319)
(633.4173069 181.9181043 3.189858395)
(638.0641563 174.3368909 4.674267663)
(643.6530916 174.2793145 -0.2739924566)
(646.3336742 171.5306951 -0.2781964658)
(689.0852206 163.3886787 1.725202198)
(725.777714 156.8875085 0.3107694043)
(791.6721897 132.5181272 7.280955982)
(1103.569808 346.1254458 3.187734513)
(1086.765324 342.7489367 4.394894315)
(1062.27863 344.7312371 2.514773405)
(1041.915411 337.4649201 -1.712842137)
(1015.442658 326.2336212 -2.610842747)
(1003.721762 324.8905493 -0.7390433052)
(987.6588069 323.2349134 2.149349287)
(965.8138297 314.6484124 -2.15339937)
(938.9976564 306.9138921 -8.564224558)
(926.5785193 296.0015908 -3.98117751)
(902.8153379 291.9604484 -5.22681195)
(885.9651203 278.9809496 1.569089996)
(871.2360909 272.4823445 -1.876314765)
(850.6309603 271.8243579 -0.5552764232)
(840.4505335 263.6035342 -1.015973473)
(820.6743628 250.8244553 -1.34904738)
(810.7993677 244.4292272 3.183784792)
(788.0107928 245.886065 4.722187218)
(772.6904654 232.4286917 1.20495466)
(762.6248605 230.202274 0.6889741844)
(760.377923 224.7813774 2.486260699)
(751.0620588 219.553407 -3.786285359)
(747.5933975 216.308593 0.354019725)
(740.2896951 215.1867835 4.176258227)
(742.7769652 205.8463675 8.877507558)
(743.7696388 204.7024374 2.186792668)
(751.4985341 197.6097259 -3.283766289)
(777.1269392 190.2213894 -3.129725333)
(810.191786 174.9240816 -0.3934354243)
(861.9494853 160.096864 -1.717796897)
(1184.599393 350.3619906 -1.373179854)
(1163.697582 354.893349 -1.516765646)
(1148.363473 354.7010374 0.1493874935)
(1126.734897 360.0967048 -0.8605355801)
(1105.936499 361.3738706 0.4103079174)
(1093.672379 362.4330037 2.236074552)
(1080.845303 351.5953223 0.9994389198)
(1058.395122 341.7654449 1.325594525)
(1039.132314 338.0147635 -1.300752579)
(1026.134107 338.9450448 0.7430687814)
(1007.753363 330.2602118 -2.47003344)
(990.9898511 322.54467 -1.714395157)
(973.3575603 315.1098155 1.160643463)
(950.4811668 307.4559338 5.047475108)
(938.5281151 299.1346263 4.480318558)
(920.4275118 293.0887627 1.699335474)
(917.6601317 286.5913127 1.890451948)
(890.2564334 280.4375287 6.283042549)
(876.7304551 274.9228451 3.662087807)
(863.9093843 263.4917565 2.229995084)
(849.2784688 262.3148156 -1.078295307)
(851.632884 256.3693001 1.512195564)
(844.954006 248.2913451 -7.08602769)
(828.1101549 244.6809451 0.7175705859)
(826.6998509 235.6470839 3.71976525)
(832.5843927 231.1737205 2.533580457)
(840.866045 226.9364762 -3.555356197)
(858.5325538 215.3756331 -4.944936151)
(878.9897935 203.2608858 0.1919225764)
(935.4907958 190.861116 -6.616622162)
(1270.386139 337.1415667 -3.930084556)
(1244.670904 351.0338368 -2.933770142)
(1221.368649 363.9454948 -8.154577929)
(1201.315078 371.8705118 -4.91816558)
(1181.150953 373.3040919 -3.253504311)
(1167.136814 375.405282 -5.703295016)
(1159.96547 374.5213811 -0.06887870335)
(1140.320383 374.2317559 -2.511203885)
(1135.031188 366.4640056 1.027144987)
(1113.013813 360.5534412 3.348998796)
(1085.69459 363.1426554 3.747447032)
(1062.150776 354.2560748 -2.618520368)
(1056.100542 344.8458898 -2.181461594)
(1038.165957 340.5869283 0.3975062985)
(1020.371376 335.3953748 -2.651239579)
(1011.32236 331.7092784 0.9551777064)
(991.6958157 315.9176826 -0.5369635929)
(971.3380967 308.3355135 -0.758386893)
(961.4912636 305.4755878 1.940038531)
(945.5389868 303.3468179 -1.554117003)
(942.9133475 292.7028321 4.530808975)
(939.8229161 290.7431326 -0.9761840563)
(931.2349273 278.0690341 1.054378094)
(925.383947 271.4701202 -0.07310648475)
(919.1467148 273.5260561 2.60966168)
(921.9489758 261.8765724 4.501587891)
(927.7101383 256.8835954 7.781983007)
(937.0888463 240.8920795 6.634215455)
(955.4234632 236.0323834 4.778080246)
(989.1550701 219.8248523 4.337639363)
(1335.027279 308.4121183 -2.160115305)
(1309.026004 335.6387613 -3.946314482)
(1296.88456 352.4140081 -3.846235465)
(1275.303257 363.1635622 -3.419122488)
(1259.535383 367.9619332 -6.095855426)
(1232.21775 383.2272552 -1.156700127)
(1218.512501 383.9530464 -1.523210877)
(1205.234809 384.833323 1.698266432)
(1193.322024 386.8603075 0.1239790169)
(1179.137257 382.4550572 -5.30096936)
(1157.884893 381.9443632 -1.427504101)
(1137.417018 378.8046138 1.215526366)
(1127.549139 373.6720056 0.1102627001)
(1108.53629 372.2526206 0.3399618768)
(1096.41503 362.5842016 -0.280039535)
(1084.292265 356.279622 0.5964390064)
(1063.899178 347.6906244 3.891304963)
(1052.376979 342.2137996 -0.4688808408)
(1041.830757 340.3580244 0.9019673275)
(1028.949365 330.3695537 -6.332254409)
(1018.234997 322.1302675 -1.805348566)
(1018.480425 316.7994519 1.474639604)
(1005.453904 308.6292927 -2.016996445)
(1003.824544 298.77587 -1.106627481)
(985.6781591 297.3406664 -3.182201947)
(979.4792119 289.527041 3.243158472)
(982.5403763 279.9994737 -3.038134293)
(998.9882651 268.6788274 1.692232885)
(1009.232838 262.6173761 0.8982745729)
(1033.747087 242.3062283 -1.330004433)
(1412.153724 275.158487 -0.2193221323)
(1381.471397 301.6563121 -0.2520847334)
(1356.061742 323.7136336 1.31003578)
(1330.769244 347.9731358 -1.18953547)
(1316.881255 359.2467928 2.702199015)
(1291.072199 371.7442048 -1.95348136)
(1269.182085 384.4864033 -3.20586601)
(1259.665003 387.0076364 -1.654891277)
(1245.119722 400.0634139 -1.127827914)
(1233.166763 396.9470569 2.448567308)
(1222.339296 398.0019301 0.4367378236)
(1198.966905 397.3190883 8.791472741)
(1187.691972 390.9977794 3.782778383)
(1175.104833 389.3544512 -2.689621985)
(1161.27885 382.332718 -1.107070713)
(1143.914899 380.5122849 -0.03183402197)
(1129.579751 377.4317807 -3.95766104)
(1124.02676 367.2420325 -1.868041359)
(1107.77499 361.0401044 1.845573844)
(1091.220443 359.2072027 0.3727978321)
(1077.149128 352.8494296 -5.974116065)
(1072.234425 343.7597425 0.4294986066)
(1063.990705 334.2109533 -4.739245386)
(1064.975406 327.524573 -0.5631909911)
(1053.700292 320.3024195 -2.142486314)
(1046.184636 314.3869763 -6.568358908)
(1048.75906 304.6255885 -2.745263546)
(1058.91487 297.668528 -5.340565819)
(1065.424875 285.7315376 -2.34498408)
(1089.304368 270.9444585 -0.5970688012)
(1471.784613 232.7968426 1.281753141)
(1446.147644 260.2928759 6.476848797)
(1417.949714 292.6770466 5.770983939)
(1388.350576 314.772044 6.18020979)
(1366.715872 340.4168172 3.757866824)
(1351.894778 359.2873659 0.8208762222)
(1330.370441 369.7372356 1.057563986)
(1314.520917 384.0892541 0.693639754)
(1300.19134 387.4554157 -3.141394938)
(1284.247113 396.9680444 -2.596181708)
(1273.316495 398.3240573 3.176150891)
(1250.613995 401.975406 -0.5208008877)
(1243.261747 403.3090202 2.916069131)
(1220.885748 403.4785994 2.790490345)
(1207.61644 400.4959172 1.087067535)
(1200.233261 399.4087422 -2.254463431)
(1189.247053 396.866643 -2.95077109)
(1171.588507 394.8189155 -4.253012006)
(1168.991264 384.8886505 -6.907955783)
(1157.188555 381.8350481 -3.026450598)
(1137.583394 373.1661899 -6.668285632)
(1128.648358 366.9111944 -0.1513037303)
(1123.244232 360.9310568 2.021009578)
(1120.921389 351.9372058 -0.420944273)
(1110.934851 343.9149115 1.723833734)
(1101.054868 339.3120207 -2.170152934)
(1101.099411 333.9151921 -2.160891015)
(1105.208934 322.422527 1.397280488)
(1110.801662 309.3380775 0.2746470374)
(1124.472044 296.355781 0.02434898458)
(1526.678079 193.2436377 -0.9894385663)
(1493.735212 223.000704 -0.6985735937)
(1467.468554 248.1623339 -5.03713272)
(1446.559504 278.5324108 -2.447286442)
(1421.45979 299.7038176 3.863056193)
(1405.349179 321.6923445 10.77879926)
(1384.804675 345.5495539 5.136884953)
(1361.023113 361.6506389 6.666969213)
(1345.002687 374.7566767 1.829843666)
(1323.082342 384.6668693 -3.078954843)
(1311.076712 393.9440207 -2.956649308)
(1299.329769 403.1762234 -5.493447331)
(1286.441948 411.6245576 -4.95113791)
(1268.80099 414.9014554 -1.804570169)
(1258.568253 412.6810686 -0.6912049567)
(1251.362758 406.5200476 2.680880609)
(1239.706673 413.07874 5.149516174)
(1219.617003 409.5055294 2.534241413)
(1208.833681 406.6622676 -0.2012160447)
(1206.295985 399.003879 3.077095373)
(1187.552633 391.4796993 2.973381838)
(1181.369255 388.6329 -2.738184268)
(1169.749762 383.2729692 -0.4743008271)
(1162.557222 375.9040627 3.493323602)
(1161.732721 372.4063425 3.71705282)
(1154.371862 360.9203761 6.856228006)
(1146.053932 350.8979292 3.388039931)
(1147.509912 342.0137724 4.95738361)
(1152.868245 334.1678584 2.257890843)
(1164.930518 320.5222743 -0.8838244312)
(1569.083529 152.7084133 2.037475545)
(1541.266603 181.5615071 2.078700227)
(1523.286781 207.8800345 2.988625507)
(1496.339426 233.2766518 3.768358261)
(1480.533757 263.4223985 -0.2572753737)
(1454.946185 290.4471115 -0.7042124571)
(1427.350942 311.3891731 5.139582626)
(1408.477325 324.5776858 4.373423831)
(1392.536415 346.8676909 6.251802097)
(1373.395948 368.0779353 2.039735181)
(1364.197919 388.1917244 -7.215449438)
(1340.745501 395.8420506 -2.556524499)
(1325.385921 404.9191319 -1.989827216)
(1310.962638 412.5117199 0.03089553559)
(1303.162684 417.843564 3.980979153)
(1291.260457 420.3300472 3.109317419)
(1282.750337 421.655561 2.09160869)
(1267.60943 417.937059 1.959911657)
(1255.937271 418.4976263 2.924184009)
(1245.714373 413.4726642 -0.923989431)
(1233.946228 409.9637239 3.659052868)
(1217.802358 407.6187233 7.176519486)
(1213.818664 403.4526154 3.864056858)
(1206.764667 395.1317897 2.095782359)
(1200.52921 386.2958134 3.357311874)
(1196.146804 378.6634884 0.7677686569)
(1192.628683 372.6299879 2.729494486)
(1193.710368 362.7966638 1.429659165)
(1186.173365 354.8809436 4.98302586)
(1195.608917 341.0126668 3.381483097)
(1616.705059 115.09878 -2.410227455)
(1597.930817 141.7904617 -2.207520052)
(1574.160967 168.6254774 -2.958165251)
(1546.8274 193.8968032 1.232782836)
(1523.931092 221.078673 -0.7967425165)
(1501.318267 249.2487692 -1.513493698)
(1478.076152 272.3488948 -4.310211862)
(1459.965289 299.4999533 -3.335589965)
(1440.923001 328.3401481 -2.612313744)
(1420.837116 345.7181943 0.7474019649)
(1404.518833 361.711547 2.811468855)
(1380.670314 377.8443615 -2.773031166)
(1365.594226 387.5841766 -3.640771741)
(1347.996795 405.0606536 -2.946698785)
(1332.945155 414.1805003 0.8818961283)
(1325.141712 419.1453023 1.327040385)
(1312.357465 421.5378647 0.1421671785)
(1300.003052 423.4977665 1.8856832)
(1292.563556 425.1245503 0.2539734429)
(1283.007422 423.9470625 3.72384742)
(1278.974485 421.5370694 1.054345145)
(1261.414409 421.5349158 1.637812842)
(1255.295465 416.3649162 0.2914816756)
(1242.412065 408.5058493 4.719828427)
(1240.909148 401.0035196 2.595208765)
(1235.546767 398.6732615 -0.8887295609)
(1228.83895 394.1203469 2.325282861)
(1225.778718 381.595464 5.166543717)
(1231.071329 367.3348215 4.124347878)
(1238.094973 359.7828426 9.985777425)
(1642.561269 91.78792585 -1.626611795)
(1626.390261 106.9709333 -3.829723194)
(1607.444484 127.6009111 1.403348777)
(1591.204878 152.2140456 -2.601904414)
(1565.951736 181.3835665 -4.210499809)
(1544.902261 205.6825988 -4.463101746)
(1525.033114 233.0609892 -1.912214476)
(1499.545718 264.5121276 -4.569515276)
(1476.839168 285.6350769 -0.5539134575)
(1452.213434 310.1129121 0.5001116953)
(1436.72759 326.0687992 -0.8600642108)
(1421.816342 347.3371062 1.606057399)
(1407.068228 368.9966874 -1.308386899)
(1384.653059 384.9812257 -7.565271114)
(1364.255418 401.8771321 -5.652192438)
(1356.060572 411.2343772 -1.685931142)
(1343.508375 414.7303866 -2.3657733)
(1333.783602 418.5473416 -2.543275924)
(1328.291534 426.5069548 -0.3006459077)
(1320.092203 428.8744666 1.234423298)
(1314.938075 428.4361563 -0.8271953054)
(1303.357523 427.0361286 1.141377712)
(1287.983102 424.9222786 2.010354219)
(1274.423552 418.5811384 -1.406669438)
(1275.663528 417.7804309 3.195134526)
(1272.811211 412.4543747 1.943101639)
(1265.154554 404.3164648 -1.893657668)
(1260.521697 398.3312259 -0.4721180229)
(1264.201432 387.8632229 -0.2339569701)
(1270.907711 373.7536036 -0.1442901723)
(1666.748893 67.28366027 -1.857158801)
(1656.184029 82.09988284 -3.042292029)
(1640.302928 96.96419915 -4.91586793)
(1624.928675 116.8027791 -4.414334832)
(1602.678307 149.0958895 -2.416585941)
(1580.101387 172.9766879 -2.790459784)
(1564.210655 192.3108642 -5.225577701)
(1541.115578 223.7561688 -6.377463287)
(1517.088348 243.0689594 -6.178120852)
(1497.069776 264.4330854 -4.221005077)
(1476.28289 297.7155063 2.067640564)
(1457.729574 321.3268104 3.104864719)
(1438.479276 337.8362726 0.5036877147)
(1425.554794 354.6280467 1.278116653)
(1414.348085 370.0566879 -1.460561004)
(1393.36237 387.6244589 -4.579752899)
(1380.712864 401.9130701 -1.141520277)
(1372.715238 415.4927019 -0.1168475498)
(1360.499768 419.9952474 -2.862900845)
(1348.120985 423.4450958 0.1731241513)
(1339.035977 424.6852378 0.7225584932)
(1331.877514 426.8648829 0.6829578)
(1322.629715 428.6823583 -0.7655352292)
(1314.768077 432.6923293 1.619406161)
(1303.121302 426.9697418 -1.936918243)
(1302.57671 420.1029458 0.3719597472)
(1293.159334 417.4426562 -0.9700017203)
(1286.521855 409.7905041 2.56017826)
(1286.782559 404.6106491 1.205910906)
(1293.114133 396.9871036 -1.73961686)
(1678.112707 53.4920874 4.111037531)
(1670.120432 63.48489983 1.931547772)
(1659.723765 81.74014711 1.298866022)
(1645.629035 99.45598933 -0.1800228953)
(1635.148061 109.3205018 -0.8182380984)
(1614.656001 132.2051545 4.011330385)
(1595.31593 154.9924422 3.881872599)
(1575.199667 174.8165067 4.196696192)
(1557.580578 203.0571844 0.8186536722)
(1542.295486 227.4120082 1.959904752)
(1525.972653 253.7055428 2.701826281)
(1503.348288 279.044472 -3.53764065)
(1490.907473 302.045121 -1.601721785)
(1475.388387 323.4135364 3.424989438)
(1446.282764 346.9779791 1.378160989)
(1429.014654 364.724662 2.412568592)
(1408.221489 382.898969 2.793079408)
(1397.297467 397.411831 1.521407962)
(1386.414795 405.9065942 0.9319491968)
(1376.237573 416.2310447 -3.593805353)
(1369.12814 424.741052 -1.442299255)
(1356.707834 433.1475153 0.2925228877)
(1347.402884 435.1825601 0.1387046731)
(1333.078933 434.1589049 -1.167013766)
(1333.455442 430.8276058 3.455552972)
(1326.683883 430.6264885 3.70842879)
(1318.792775 429.4166452 2.263059909)
(1316.281851 423.8628974 -0.8480422196)
(1310.222976 420.785734 0.7733324745)
(1696.651776 44.81622616 2.159936772)
(1691.851422 52.40341921 -0.5577378661)
(1683.905659 60.18111642 0.9623899859)
(1667.251169 71.79068575 2.208443611)
(1657.438521 87.41157759 3.117837742)
(1645.665954 101.8394308 0.009727427852)
(1631.791475 120.6386046 0.4394436953)
(1618.142889 139.8762869 -2.809998983)
(1600.871957 166.9798373 -2.077547826)
(1583.574722 187.5786219 -1.035937024)
(1560.384184 215.6855992 -2.771483755)
(1541.388831 239.0075297 -2.45521338)
(1521.343563 270.265906 -4.884433098)
(1505.820428 287.9571391 -2.163861982)
(1483.16525 312.0997952 -1.163908945)
(1466.473309 335.374185 -4.180124521)
(1447.85528 352.23768 -4.0191814)
(1428.289376 373.3892595 0.5222410996)
(1414.870114 389.3167875 0.2462706803)
(1410.902918 402.2824601 -0.7060758582)
(1398.825098 415.2671616 -4.767423962)
(1381.244756 417.420935 -1.54876238)
(1374.34824 423.3609131 0.9296350113)
(1361.710232 433.2138278 0.002682117878)
(1361.20457 435.5697142 -2.331932833)
(1702.953097 33.79788335 -2.266992782)
(1695.066627 37.85005187 -2.344907875)
(1685.705134 46.20465188 -0.9199721424)
(1680.092623 57.17347455 -1.488660654)
(1673.038234 66.78193117 -0.8475695295)
(1666.777699 77.63485109 -1.23402048)
(1659.895344 89.86188078 -0.01953986747)
(1645.260325 111.8203105 -0.5264724589)
(1630.417292 128.4118697 0.098046081)
(1611.21663 158.9338736 -1.424557434)
(1593.839205 182.0272124 -0.3497952851)
(1579.765356 199.0301194 0.7337246542)
(1560.589691 225.3705347 -1.736270912)
(1541.72733 250.5469712 -4.845192159)
(1521.993205 273.9640948 -7.81634175)
(1503.569226 296.0248329 -3.878981695)
(1486.675013 317.7243071 -5.237328656)
(1467.279768 341.9493984 -3.738169301)
(1450.713558 366.3222634 2.410823114)
(1707.331 25.43535469 -1.155119326)
(1703.75519 27.76978954 -0.3798190498)
(1705.318474 31.72758232 -1.74112633)
(1695.583946 41.19995331 -0.7626721765)
(1684.270765 54.84739869 -0.5517148484)
(1675.444754 62.81384479 -0.2919455566)
(1666.957526 75.38786678 1.534710945)
(1658.66473 87.48953982 -1.305839827)
(1645.80567 104.6832503 -0.8162247708)
(1638.612613 116.0685116 -0.2088520237)
(1622.726629 141.0817591 1.683512809)
(1606.902331 164.7247993 1.254932903)
(1591.660027 181.9343481 5.35207495)
(1572.652226 206.8572948 3.531191582)
(1718.987157 17.40817267 -4.309203888)
(1719.362396 21.24067165 -2.603330175)
(1715.247956 28.66948715 -1.508358348)
(1706.700825 31.40033012 -3.531252511)
(1699.156106 43.94091826 -1.33914093)
(1692.321421 54.38213102 0.7227270363)
(1686.269198 58.42266324 0.1279721288)
(1679.372703 64.43514949 1.582387175)
(1721.538227 13.53747231 4.793430709)
)
;

boundaryField
{
    flow
    {
        type            calculated;
        value           nonuniform List<vector> 
15
(
(402.0969934 77.01089128 0.391207979)
(607.1953284 89.76168763 0.008964831144)
(720.7351915 103.8702006 1.717092546)
(791.6721897 132.5181272 7.280955982)
(861.9494853 160.096864 -1.717796897)
(935.4907958 190.861116 -6.616622162)
(989.1550701 219.8248523 4.337639363)
(1033.747087 242.3062283 -1.330004433)
(1089.304368 270.9444585 -0.5970688012)
(1124.472044 296.355781 0.02434898458)
(1164.930518 320.5222743 -0.8838244312)
(1195.608917 341.0126668 3.381483097)
(1238.094973 359.7828426 9.985777425)
(1270.907711 373.7536036 -0.1442901723)
(1293.114133 396.9871036 -1.73961686)
)
;
    }
    obstacle
    {
        type            calculated;
        value           nonuniform List<vector> 
30
(
(199.5544404 53.47045125 -4.956062139)
(178.2257037 47.75543348 5.380324664)
(184.7044713 49.49141377 8.953250456)
(183.7942639 49.24752469 -3.953370279)
(158.7852335 42.54637494 -6.982710367)
(172.670887 46.26702481 -2.85094302)
(160.1501594 42.91210595 -0.06223791211)
(150.7456143 40.3921655 -4.310970363)
(168.670086 45.19501342 8.463841891)
(153.661964 41.17359923 -18.18655286)
(165.0671208 44.22960157 -4.486172469)
(130.3530776 34.92800193 10.20922776)
(152.2186729 40.78687056 6.168322945)
(143.2275765 38.37771333 -6.464974975)
(122.1932561 32.74158436 17.02669803)
(139.4291286 37.35992229 -11.23088972)
(125.0068275 33.49547855 2.090416282)
(138.3366303 37.06718843 -0.7595594405)
(136.8408758 36.66640205 -15.83749718)
(155.8541349 41.76098966 28.24252295)
(132.2392354 35.43339639 -0.6969479332)
(132.0216686 35.37509938 0.5242347181)
(137.4083361 36.81845276 -2.151366213)
(140.2246339 37.57307749 -5.152828832)
(141.7350866 37.97780188 12.25127426)
(143.6159155 38.48176866 1.085769502)
(144.6534412 38.75977264 6.759291836)
(166.5969141 44.63950868 -10.36411445)
(188.0557228 50.38937915 1.813837515)
(220.5015692 59.0832172 15.74781957)
)
;
    }
    frontAndBack
    {
        type            empty;
    }
    procBoundary1to0
    {
        type            processor;
        value           nonuniform List<vector> 
21
(
(388.7420369 113.5408486 0.07691400717)
(665.3858997 201.0400403 1.295386885)
(858.0048896 279.4399821 -3.32200475)
(1013.846595 325.3848489 -2.189659562)
(1113.914777 343.2437319 2.284160374)
(1212.821245 338.1394113 -1.0083829)
(1293.4213 316.2930093 -2.847185745)
(1361.193582 283.4174447 1.38057897)
(1436.723153 244.4358089 -4.56377383)
(1506.020776 201.368235 -1.509865985)
(1551.485779 167.2764666 3.705052807)
(1595.917763 129.0839186 -0.2135293516)
(1629.472338 97.65501261 -1.310406339)
(1657.33656 71.30610799 -1.281140114)
(1679.077722 59.55931779 2.27539113)
(1685.780709 40.61624802 0.702472105)
(1704.827153 37.63128678 2.508477708)
(1709.479121 24.05807442 -2.800062719)
(1715.524147 21.33220698 -3.172285118)
(1723.606743 15.59914213 -2.671790482)
(1722.860919 11.81564942 4.663902694)
)
;
    }
    procBoundary1to3
    {
        type            processor;
        value           nonuniform List<vector> 
36
(
(1308.818578 415.1980106 -1.195933386)
(1354.94522 436.496452 0.2622657155)
(1345.076954 437.3963817 2.347475636)
(1338.440694 431.3517946 1.451181513)
(1308.818578 415.1980106 -1.195933386)
(1339.401395 426.5903691 2.265363862)
(1433.23834 377.1115361 0.456353735)
(1423.978815 389.2001826 -1.264527592)
(1411.279745 406.9894892 -5.760120815)
(1403.629123 415.5363148 -6.549398537)
(1387.945772 426.5516521 -0.8172251449)
(1354.94522 436.496452 0.2622657155)
(1372.529228 431.2769894 -6.593797291)
(1553.452163 238.8900125 1.7627832)
(1534.828364 259.9520075 -1.364627551)
(1517.306958 284.1000221 0.3436028826)
(1499.028952 306.1914486 -3.53089523)
(1433.23834 377.1115361 0.456353735)
(1479.29656 325.4647827 -1.429870632)
(1668.388792 79.14149758 1.241125451)
(1659.476381 93.28473892 0.3373921936)
(1648.132723 110.7852112 1.363757251)
(1631.689831 132.7479789 5.96142149)
(1625.46667 152.3318351 4.740661034)
(1553.452163 238.8900125 1.7627832)
(1607.022029 170.9261372 -2.092970694)
(1723.222502 15.41401909 4.402323698)
(1718.523837 19.33516611 4.346188748)
(1715.394592 25.29211888 4.710532543)
(1711.641909 28.02347876 3.520557235)
(1704.876423 36.36040973 1.668393711)
(1701.365284 43.34752609 1.085435404)
(1668.388792 79.14149758 1.241125451)
(1694.683024 53.61196785 1.817031508)
(1723.222502 15.41401909 4.402323698)
(1727.712927 11.97151343 -0.8837886024)
)
;
    }
}


// ************************************************************************* //
