/*--------------------------------*- C++ -*----------------------------------*\
| =========                 |                                                 |
| \\      /  F ield         | OpenFOAM: The Open Source CFD Toolbox           |
|  \\    /   O peration     | Version:  2406                                  |
|   \\  /    A nd           | Website:  www.openfoam.com                      |
|    \\/     M anipulation  |                                                 |
\*---------------------------------------------------------------------------*/
FoamFile
{
    version     2.0;
    format      ascii;
    arch        "LSB;label=32;scalar=64";
    class       Cloud<dsmcParcel>;
    location    "0.011/lagrangian/dsmc";
    object      coordinates;
}
// * * * * * * * * * * * * * * * * * * * * * * * * * * * * * * * * * * * * * //

6862
(
(0.5921257805 0.2039371098 0.1349752723 0.0689618375) 458 893 2
(0.06484120742 0.02630790305 0.4675793963 0.4412714932) 517 1008 2
(0.2211123292 0.3894438354 0.06389984745 0.3255439879) 477 931 2
(0.2256510254 0.0425990641 0.3871744873 0.3445754232) 529 1028 1
(0.145598244 0.427200878 0.4148138748 0.01238700318) 533 1019 1
(0.1824992844 0.4087503578 0.2837095526 0.1250408052) 538 1029 1
(0.290008101 0.3549959495 0.04427916703 0.3107167825) 468 915 1
(0.5099400952 0.1471559889 0.09787396354 0.2450299524) 76 152 1
(0.02994177189 0.4850291141 0.366634119 0.118394995) 478 915 1
(0.8449700835 0.07751495826 0.06540452684 0.01211043142) 447 875 1
(0.3773733205 0.3113133398 0.279171441 0.03214189872) 448 874 2
(0.06170174589 0.4691491271 0.1410858715 0.3280632555) 448 874 2
(0.6531708681 0.04961748949 0.173414566 0.1237970765) 447 875 2
(0.6502284822 0.1748857589 0.1174414086 0.05744435035) 469 916 1
(0.4064028415 0.07637367021 0.220424909 0.2967985792) 569 1087 2
(0.4723782137 0.1515767273 0.2638108931 0.1122341658) 444 866 1
(0.6682090363 0.1658954819 0.03092707921 0.1349684027) 468 915 1
(0.1980452505 0.0855187414 0.4009773748 0.3154586334) 548 1067 2
(0.05166228501 0.4741688575 0.3556094689 0.1185593886) 469 2618 2
(0.7106557408 0.1446721296 0.09391992443 0.05075220518) 457 893 2
(0.6021680848 0.05294036698 0.1459755906 0.1989159576) 456 891 1
(0.0257745112 0.2845309495 0.4871127444 0.2025817949) 488 950 1
(0.06134391029 0.2905341014 0.4693280449 0.1787939434) 488 950 1
(0.2115240093 0.3942379954 0.1082734049 0.2859645904) 477 913 1
(0.8243239523 0.02464966628 0.08783802384 0.06318835756) 449 876 1
(0.1055816291 0.1156705771 0.4472091855 0.3315386083) 469 914 1
(0.3142904125 0.06869058471 0.3428547938 0.274164209) 459 897 2
(0.3880733006 0.06177581565 0.2441875341 0.3059633497) 459 878 2
(0.09920860079 0.2245685395 0.2258271601 0.4503956996) 541 1052 1
(0.3403706012 0.03451047797 0.3298146994 0.2953042214) 467 913 2
(0.4689797704 0.2655101148 0.2430518675 0.02245824728) 477 932 1
(0.5492227752 0.01035749139 0.215031121 0.2253886124) 498 971 1
(0.1285152928 0.4357423536 0.02327447612 0.4124678775) 508 972 1
(0.2213212985 0.3893393508 0.282686543 0.1066528078) 489 935 1
(0.02392969464 0.02869701403 0.4593381386 0.4880351527) 449 1307 1
(0.4048836506 0.2120951131 0.08546306164 0.2975581747) 442 864 1
(0.2429949542 0.3785025229 0.1924586941 0.1860438288) 457 891 2
(0.1801681533 0.4099159233 0.1828795974 0.2270363259) 448 877 1
(0.1668736534 0.4165631733 0.292704076 0.1238590973) 446 870 2
(0.650672849 0.1746635755 0.06014766562 0.1145159099) 519 992 1
(0.05864574802 0.470677126 0.2195393317 0.2511377943) 535 1041 2
(0.3855489648 0.01989985494 0.2873256627 0.3072255176) 448 1306 1
(0.05285025945 0.4735748703 0.1774874502 0.2960874201) 458 896 1
(0.07135910175 0.4643204491 0.2120296041 0.2522908451) 457 893 2
(0.1111422498 0.4444288751 0.2073787353 0.2370501398) 576 1117 2
(0.2476126579 0.3264572057 0.04973646537 0.376193671) 477 913 2
(0.1623751468 0.3081976861 0.4188124266 0.1106147405) 490 956 2
(0.05950025189 0.02308073546 0.4471691386 0.4702498741) 509 973 2
(0.08902415181 0.4554879241 0.07438424276 0.3811036813) 448 1306 2
(0.213588587 0.3932057065 0.09959320589 0.2936125006) 467 910 2
(0.06651249815 0.4667437509 0.1437100517 0.3230336993) 449 2616 2
(0.3913135308 0.3043432346 0.09522340784 0.2091198268) 457 875 1
(0.1747950976 0.4126024512 0.2615729653 0.1510294859) 444 869 1
(0.1225563765 0.3449757547 0.4387218118 0.09374605711) 447 872 1
(0.03405057393 0.08776698243 0.3952077306 0.482974713) 448 876 1
(0.490040459 0.06606103517 0.2549797705 0.1889187353) 478 934 2
(0.0158533271 0.4920733365 0.3733954525 0.118677884) 479 2619 2
(0.9130597703 0.02162504125 0.02184507361 0.04347011485) 479 916 2
(0.708925869 0.1455370655 0.07649578392 0.06904128156) 443 864 2
(0.071348038 0.464325981 0.3357423257 0.1285836553) 503 962 1
(0.2799034139 0.1627528397 0.1972954534 0.3600482931) 478 915 2
(0.8347508903 0.08262455486 0.01437052583 0.06825402904) 449 878 1
(0.1581800338 0.2466621747 0.4209099831 0.1742478084) 519 1009 1
(0.1904063045 0.0192363898 0.3855604579 0.4047968477) 449 2616 1
(0.6369534886 0.1815232557 0.1139621391 0.06756111661) 476 929 2
(0.5428287303 0.2168777624 0.2285856348 0.01170787245) 457 894 2
(0.008607738447 0.4956961308 0.1712295892 0.3244665416) 452 884 1
(0.3444033829 0.3054467171 0.02235159148 0.3277983086) 457 875 2
(0.1358656116 0.4320671942 0.04413801678 0.3879291774) 448 1306 2
(0.1351868532 0.4324065734 0.03968504007 0.3927215333) 446 870 2
(0.7807950374 0.1096024813 0.07568313249 0.03391934881) 452 884 1
(0.4332110143 0.2833944928 0.1871545125 0.0962399803) 498 953 1
(0.1265268907 0.1769267055 0.4367365547 0.2598098492) 443 867 2
(0.1311023314 0.1034804823 0.4344488343 0.3309683519) 476 927 1
(0.7318588329 0.1340705836 0.09564743628 0.03842314729) 458 895 2
(0.08163837881 0.2427835675 0.4591808106 0.2163972431) 498 972 2
(0.3536791216 0.3231604392 0.0822923128 0.2408681264) 498 969 2
(0.2487647955 0.3756176023 0.2557152482 0.119902354) 538 1045 2
(0.2508199222 0.2765939976 0.09799604128 0.3745900389) 508 990 1
(0.67710564 0.1484475819 0.16144718 0.01299959811) 448 874 1
(0.4210594171 0.2894702915 0.03571040523 0.2537598862) 459 2617 2
(0.6186463116 0.1906768442 0.06354484454 0.1271319997) 566 1082 1
(0.3260066177 0.2783161919 0.0586804992 0.3369966911) 474 925 1
(0.3696987678 0.3151506161 0.2517467329 0.06340388318) 509 2622 2
(0.6442752137 0.1778623931 0.0001802144018 0.1776821787) 486 930 1
(0.1643945205 0.1857202765 0.2320824632 0.4178027398) 478 915 2
(0.2444873668 0.09612284234 0.2816334743 0.3777563166) 519 992 2
(0.122128323 0.4389358385 0.2979318198 0.1410040187) 478 931 2
(0.4052578583 0.2973710708 0.027710999 0.2696600718) 447 1305 2
(0.1212781773 0.2928690055 0.1464919058 0.4393609114) 468 896 2
(0.4474054046 0.2762972977 0.04283518417 0.2334621135) 457 893 2
(0.6454699954 0.1133712555 0.1772650023 0.06389374681) 498 972 2
(0.09760104448 0.4511994778 0.4504191976 0.0007802801817) 446 872 2
(0.05220210474 0.2251552562 0.2487436914 0.4738989476) 519 992 2
(0.4630735384 0.08585438138 0.1826088494 0.2684632308) 73 146 1
(0.2176276093 0.2483448963 0.3911861954 0.1428412991) 475 928 2
(0.659657587 0.1701712065 0.0003007599568 0.1698704465) 525 1020 2
(0.0891245211 0.4554377394 0.04920598101 0.4062317584) 497 951 1
(0.1808598461 0.4095700769 0.03013388172 0.3794361952) 567 1084 1
(0.04007984088 0.4799600796 0.2838836779 0.1960764017) 514 1002 1
(0.05723508038 0.1903690197 0.2810134401 0.4713824598) 498 953 2
(0.5508646545 0.2245676727 0.1611802811 0.06338739164) 495 965 2
(0.6247138908 0.1876430546 0.1186041954 0.06903885922) 447 875 1
(0.7577849313 0.07113165519 0.1211075343 0.04997587913) 503 978 1
(0.1483270054 0.2425110032 0.1833254941 0.4258364973) 455 871 2
(0.3696419442 0.135756563 0.3151790279 0.1794224649) 477 929 1
(0.01730134775 0.4913493261 0.4715244628 0.01982486327) 468 896 1
(0.09491199122 0.4525440044 0.2741362012 0.1784078032) 466 892 1
(0.9594217423 0.02028912884 0.01752030804 0.002768820806) 454 888 1
(0.1610881196 0.4194559402 0.3652306825 0.05422525766) 448 1306 2
(0.2088363373 0.3955818314 0.02690226028 0.3686795711) 454 888 1
(0.3188121964 0.3405939018 0.1719385067 0.1686553951) 499 971 2
(0.2042045909 0.3978977046 0.2119820277 0.1859156768) 478 931 2
(0.2240115657 0.3211983612 0.3879942172 0.06679585597) 449 876 1
(0.06765963151 0.4661701842 0.07593796489 0.3902322194) 444 866 2
(0.1431702612 0.2756292546 0.1527856149 0.4284148694) 457 893 1
(0.5235864313 0.03630111759 0.2019056668 0.2382067844) 559 1068 2
(0.3020908626 0.3489545687 0.2676077236 0.08134684509) 462 900 2
(0.003796870367 0.07552573215 0.4981015648 0.4225758327) 449 876 1
(0.4411341625 0.1618975874 0.1175353313 0.2794329187) 496 949 2
(0.1362087948 0.162150572 0.2697450306 0.4318956026) 494 963 1
(0.1363331241 0.431833438 0.1689791011 0.2628543369) 482 922 1
(0.1721302351 0.4139348824 0.2676361107 0.1462987718) 469 2618 2
(0.3817504605 0.2541464626 0.3091247697 0.05497830714) 469 914 1
(0.4402222354 0.02950954317 0.2798888823 0.2503793391) 447 872 1
(0.04098077702 0.06259415463 0.4795096115 0.4169154569) 443 864 1
(0.1070930681 0.2037649869 0.242688479 0.446453466) 509 973 2
(0.1308141867 0.4345929066 0.1213076362 0.3132852704) 508 972 1
(0.08696262918 0.1983771949 0.2581414905 0.4565186854) 479 916 2
(0.2278229021 0.3860885489 0.3193093268 0.06677922213) 448 877 1
(0.1490962957 0.09919216432 0.4254518522 0.3262596878) 443 864 1
(0.5823743975 0.0940536777 0.2088128013 0.1147591236) 469 916 2
(0.3694980692 0.2328246124 0.3152509654 0.08242635303) 533 1035 1
(0.1904796719 0.403554815 0.001205349084 0.404760164) 485 928 2
(0.1066063261 0.05976364631 0.3869331906 0.446696837) 448 876 1
(0.1131383188 0.4434308406 0.2463446069 0.1970862337) 454 888 1
(0.03149659249 0.4097297678 0.4842517038 0.07452193594) 509 992 2
(0.8026319592 0.005220333946 0.09346368645 0.0986840204) 446 1304 1
(0.1167628252 0.4416185874 0.1923986137 0.2492199737) 452 883 2
(0.803385992 0.098307004 0.01581907923 0.08248792477) 444 1302 2
(0.01341230102 0.4932938495 0.3042119998 0.1890818497) 455 889 2
(0.1792599603 0.4103700198 0.1894845716 0.2208854482) 477 932 1
(0.6781882663 0.04540383785 0.115502029 0.1609058669) 467 894 2
(0.2073958091 0.1260168123 0.3963020955 0.2702852832) 508 991 2
(0.09846307521 0.2926910871 0.4507684624 0.1580773753) 506 984 1
(0.4095670288 0.2952164856 0.1231023244 0.1721141612) 477 913 1
(0.48810082 0.25594959 0.08827123124 0.1676783588) 468 896 1
(0.05679719719 0.03153179549 0.4400696059 0.4716014014) 459 2617 1
(0.3514829598 0.3242585201 0.1992615913 0.1249969288) 446 870 2
(0.6757859005 0.1621070497 0.1532548641 0.00885218566) 556 1081 2
(0.1696927679 0.1665370325 0.2486165835 0.415153616) 467 894 2
(0.4074720324 0.2222420147 0.2962639838 0.07402196908) 558 1083 1
(0.6510657202 0.04512775877 0.1293393812 0.1744671399) 589 1125 2
(0.1759171174 0.2325816081 0.4120414413 0.1794598332) 495 963 1
(0.1068371909 0.4465814045 0.1439317578 0.3026496467) 454 869 1
(0.04824880227 0.2733969747 0.2024786242 0.4758755989) 508 972 2
(0.4961786413 0.2519106794 0.002702314057 0.2492083653) 458 877 1
(0.1777056783 0.4111471608 0.1506652682 0.2604818927) 448 876 2
(0.6385318216 0.1239414786 0.1807340892 0.0567926106) 487 951 2
(0.6782249342 0.02431307594 0.136574457 0.1608875329) 457 875 2
(0.298683803 0.3506580985 0.1678164056 0.182841693) 451 882 1
(0.498606274 0.05557779034 0.250696863 0.1951190726) 467 913 2
(0.7210407099 0.005890769274 0.139479645 0.1335888758) 442 865 2
(0.5362015229 0.2318992386 0.1124113075 0.1194879311) 447 875 1
(0.1661245992 0.1117743464 0.305163354 0.4169377004) 514 983 2
(0.01316227673 0.2700626068 0.2233562548 0.4934188616) 453 867 2
(0.02106930693 0.4894653465 0.2916944438 0.1977709027) 468 914 2
(0.5004698359 0.2497650821 0.1513683785 0.09839670362) 469 2618 2
(0.8308268241 0.05534892643 0.08458658794 0.02923766151) 477 929 1
(0.213566234 0.393216883 0.2853495139 0.1078673691) 444 868 2
(0.01752404759 0.03339084014 0.4912379762 0.4578471361) 478 934 2
(0.2772971073 0.1934133523 0.167938094 0.3613514464) 487 932 2
(0.05108618346 0.1329585763 0.341498332 0.4744569083) 518 991 2
(0.3260410936 0.3369794532 0.2714454919 0.06553396127) 499 954 1
(0.6251538434 0.1874230783 0.07514884199 0.1122742363) 509 990 2
(0.4708984529 0.07137732266 0.1931734509 0.2645507736) 459 2617 1
(0.3516403053 0.3241798473 0.148513021 0.1756668263) 593 1149 2
(0.2503364164 0.2063456548 0.3748317918 0.168486137) 618 1197 1
(0.105905813 0.1040593514 0.3429877422 0.4470470935) 476 929 1
(0.5177606548 0.1323981825 0.2411196726 0.1087214901) 447 875 2
(0.5823074223 0.2088462888 0.1855051769 0.02334111195) 529 1028 2
(0.00406324465 0.4979683777 0.297860746 0.2001076317) 454 887 2
(0.4402474311 0.1466585404 0.133217744 0.2798762844) 472 903 2
(0.08689987799 0.1472424335 0.3093076276 0.456550061) 479 916 2
(0.2030711194 0.3946311895 0.3984644403 0.003833250839) 459 897 2
(0.4444716337 0.2777641832 0.1346938938 0.1430702893) 446 873 1
(0.6256840024 0.04910008955 0.1380579093 0.1871579988) 507 988 1
(0.359093691 0.3204531545 0.2092230755 0.111230079) 478 933 2
(0.2530145622 0.01075782792 0.3734927189 0.362734891) 486 946 1
(0.2311562665 0.03088670996 0.3844218668 0.3535351568) 466 911 2
(0.3220317198 0.1500791493 0.1889049908 0.3389841401) 517 989 2
(0.1077747314 0.4461126343 0.4028709345 0.04324169975) 466 908 2
(0.06347756552 0.120220727 0.3480404903 0.4682612172) 482 940 1
(0.1077096699 0.1663934213 0.2797517438 0.446145165) 498 971 1
(0.05940493276 0.360070565 0.1102269686 0.4702975336) 549 2626 1
(0.1232981455 0.4049923275 0.03335859976 0.4383509273) 465 890 2
(0.2289862469 0.2015206188 0.3855068765 0.1839862577) 565 1099 2
(0.2402758048 0.3641135755 0.01574852205 0.3798620976) 449 2616 1
(0.06504422357 0.4674778882 0.3134525897 0.1540252985) 619 1199 2
(0.0723680006 0.4638159997 0.0001323593565 0.4636836403) 459 2617 2
(0.1691635853 0.107612207 0.3078060004 0.4154182074) 468 896 2
(0.3855711297 0.3072144352 0.09152820076 0.2156862344) 59 119 2
(0.5204070573 0.1115719121 0.1282245593 0.2397964713) 456 873 2
(0.1901095614 0.2962873857 0.4049452193 0.1086578336) 448 877 2
(0.2289659992 0.3855170004 0.0117097989 0.3738072015) 449 878 1
(0.04108923658 0.4794553817 0.1571276119 0.3223277698) 442 1300 2
(0.9003941035 0.04143418416 0.008368764118 0.04980294827) 444 868 1
(0.4488945361 0.2385497385 0.2755527319 0.03700299347) 526 1022 1
(0.5336184591 0.1288745056 0.1043162649 0.2331907704) 459 878 2
(0.02882095622 0.4503795431 0.4855895219 0.03520997877) 445 868 1
(0.003309461338 0.4983452693 0.4178193955 0.08052587378) 509 2622 2
(0.3189850085 0.1297492323 0.2107582635 0.3405074958) 488 934 2
(0.2931845243 0.04460890259 0.3087988352 0.3534077378) 449 2616 1
(0.002710574168 0.2351033752 0.2635413377 0.4986447129) 563 1094 1
(0.007962743779 0.2027048479 0.2933137802 0.4960186281) 445 1303 1
(0.4903360279 0.01761635718 0.2372156289 0.2548319861) 499 954 2
(0.001137840824 0.4568462463 0.4994310796 0.0425848333) 508 991 2
(0.4895815606 0.1910189609 0.0641902588 0.2552092197) 539 1030 2
(0.5925788704 0.2037105648 0.1099115661 0.09379899865) 459 895 2
(0.09429631528 0.4528518424 0.08119605695 0.3716557854) 441 1299 2
(0.05153700424 0.4742314979 0.1724685737 0.3017629241) 447 872 2
(0.6557696968 0.02329969495 0.1488154566 0.1721151516) 577 1103 2
(0.08980661127 0.4550966944 0.05530999938 0.399786695) 470 918 1
(0.2371524191 0.09373284665 0.3814237905 0.2876909438) 478 934 2
(0.3507196273 0.3246401863 0.04199209319 0.2826480931) 443 866 2
(0.004210713461 0.4978946433 0.3197208044 0.1781738389) 479 2619 2
(0.08064053981 0.4596797301 0.3099462274 0.1497335027) 509 2622 2
(0.1919947504 0.4040026248 0.2528072332 0.1511953916) 483 924 1
(0.2786575767 0.3606712116 0.1513450327 0.209326179) 449 2616 2
(0.02941822066 0.4852908897 0.09916745597 0.3861234337) 549 2626 2
(0.7382634527 0.1308682736 0.1302210502 0.0006472234723) 558 1085 2
(0.4658255864 0.2670872068 0.2248119481 0.04227525869) 579 1106 1
(0.03111639104 0.1109863183 0.3734554862 0.4844418045) 609 2632 1
(0.7516960234 0.118621748 0.1241519883 0.005530240271) 477 929 1
(0.02531740275 0.05627880506 0.4873412986 0.4310624936) 448 874 1
(0.1113798013 0.06903165494 0.4443100994 0.3752784444) 485 947 2
(0.7759803978 0.1120098011 0.03427420045 0.07773560067) 509 2622 2
(0.07441175304 0.4627941235 0.3334851597 0.1293089638) 478 933 2
(0.1170827932 0.4414586034 0.2504988951 0.1909597083) 473 905 1
(0.8921607498 0.04569078165 0.00822884345 0.0539196251) 488 934 2
(0.3252956166 0.3373521917 0.04842176472 0.288930427) 498 972 1
(0.6625426672 0.1317739078 0.1687286664 0.03695475857) 486 946 1
(0.2857890125 0.3571054938 0.2309194817 0.1261860121) 579 1106 1
(0.06375438546 0.4681228073 0.09652108742 0.3716017199) 559 1087 1
(0.1804722757 0.4097638622 0.2517955414 0.1579683208) 628 1218 2
(0.1242139176 0.4378930412 0.2970279145 0.1408651267) 461 900 2
(0.2309180799 0.38454096 0.04912056219 0.3354203979) 487 932 1
(0.6870202459 0.1564898771 0.1200021398 0.03648773727) 449 876 2
(0.1614777337 0.4192611331 0.3144782064 0.1047829268) 469 2618 2
(0.2769221685 0.3615389157 0.350964718 0.01057419771) 456 892 1
(0.201495218 0.3176295415 0.399252391 0.08162284947) 498 969 1
(0.2447921438 0.1948465411 0.182757387 0.3776039281) 464 906 1
(0.5652829401 0.07399971553 0.2173585299 0.1433588144) 518 1007 1
(0.4303598276 0.01618952223 0.2848200862 0.268630564) 479 935 2
(0.173760551 0.3764138203 0.4131197245 0.03670590416) 549 1066 1
(0.3985820034 0.2875813129 0.3007089983 0.01312768542) 628 1216 1
(0.1322338894 0.4338830553 0.2993107207 0.1345723346) 482 940 2
(0.4499132472 0.2750433764 0.06891500154 0.2061283749) 444 868 2
(0.4021537183 0.02500173382 0.2989231408 0.273921407) 456 889 1
(0.6534275028 0.1732862486 0.115662117 0.05762413163) 446 872 2
(0.3106597678 0.3446701161 0.005162978275 0.3395071378) 464 888 1
(0.8379526566 0.0810236717 0.06256616408 0.01845750762) 479 2619 2
(0.4501886384 0.2636076785 0.01129800225 0.2749056808) 487 932 2
(0.07211546445 0.2853031182 0.4639422678 0.1786391495) 559 1087 2
(0.2963574405 0.1224941488 0.2293271309 0.3518212797) 467 912 1
(0.6569129279 0.1715435361 0.1135073174 0.05803621869) 459 2617 2
(0.5885435169 0.07941976728 0.2057282416 0.1263084743) 453 883 1
(0.6255120569 0.1872439715 0.0005637209622 0.1866802506) 454 888 1
(0.5417166964 0.008582324793 0.220559327 0.2291416518) 454 887 1
(0.2393368624 0.3382482271 0.04208334171 0.3803315688) 474 925 1
(0.4650992223 0.005225501434 0.2674503888 0.2622248874) 489 954 2
(0.01841847608 0.490790762 0.2823774995 0.2084132625) 489 2620 2
(0.3711413683 0.3144293158 0.2823392762 0.03209003967) 446 1304 2
(0.05595503348 0.4720224833 0.04872794518 0.4232945381) 468 896 1
(0.9181229154 0.007408407344 0.03353013494 0.04093854229) 444 868 1
(0.2190847823 0.3904576089 0.01692927919 0.3735283297) 456 873 1
(0.05745114099 0.4712744295 0.3452196198 0.1260548097) 498 953 1
(0.08372082434 0.4581395878 0.2301218234 0.2280177644) 466 911 1
(0.7684178746 0.1023372408 0.01345382187 0.1157910627) 519 2623 1
(0.6661899821 0.166905009 0.01135561555 0.1555493934) 508 972 1
(0.307705762 0.136837005 0.346147119 0.209310114) 498 969 1
(0.08487896476 0.4575605176 0.06640760254 0.3911529151) 547 1065 1
(0.3395710517 0.1709548478 0.1592596263 0.3302144742) 468 914 1
(0.1160329626 0.3102544724 0.4419835187 0.1317290463) 599 1161 1
(0.1248963068 0.4294796275 0.008072219101 0.4375518466) 479 916 2
(0.2559168519 0.3720415741 0.1152533378 0.2567882363) 445 870 2
(0.6283149824 0.1858425088 0.08183119352 0.1040113153) 506 986 2
(0.3245899711 0.1875442092 0.1501608052 0.3377050144) 445 870 1
(0.8395088954 0.01795494217 0.08024555228 0.06229061011) 449 876 1
(0.7145236744 0.1427381628 0.0495364468 0.09320171598) 568 1102 2
(0.453109871 0.09219514418 0.2734450645 0.1812499203) 457 894 2
(0.377274879 0.282097244 0.02926531656 0.3113625605) 453 867 2
(0.4732700385 0.2633649807 0.1286563009 0.1347086798) 539 1049 1
(0.08696945871 0.4420283731 0.4565152706 0.01448689755) 599 1163 2
(0.134796397 0.3444306426 0.0881711589 0.4326018015) 588 1124 2
(0.01584388956 0.4920780552 0.1884239442 0.303654111) 495 966 1
(0.04896042615 0.4755197869 0.34472769 0.1307920969) 446 872 2
(0.6029028303 0.163495894 0.1985485848 0.03505269087) 443 864 1
(0.1524382119 0.4237808941 0.3141440681 0.109636826) 508 991 1
(0.4561707389 0.02392594024 0.2719146306 0.2479886903) 468 912 1
(0.1784506471 0.4107746765 0.2132501435 0.197524533) 449 878 1
(0.02464963851 0.4876751807 0.4049495865 0.08272559424) 456 873 1
(0.08781746998 0.456091265 0.06034285176 0.3957484133) 458 896 1
(0.7185191081 0.02453137531 0.1407404459 0.1162090706) 495 966 2
(0.07024697888 0.4648765106 0.1369287877 0.3279477229) 444 866 2
(0.1128450929 0.1824370391 0.2611404144 0.4435774535) 478 915 2
(0.1862343591 0.4068828205 0.3455265593 0.06135626117) 138 276 2
(0.04055574581 0.4797221271 0.1787817247 0.3009404024) 458 895 2
(0.1870016262 0.4064991869 0.05896293417 0.3475362527) 446 872 2
(0.833686501 0.069136926 0.01401982349 0.08315674948) 447 874 1
(0.05826606652 0.4708669667 0.002239761373 0.4686272054) 517 1007 2
(0.1727537258 0.4136231371 0.05800227246 0.3556208646) 478 934 1
(0.471004671 0.2644976645 0.0953424108 0.1691552537) 449 878 1
(0.7179961711 0.1410019144 0.03372851474 0.1072733997) 507 970 1
(0.1756659072 0.3002501765 0.1119168699 0.4121670464) 598 1161 1
(0.3810590268 0.2749167099 0.3094704866 0.03455377671) 636 1234 2
(0.4187082633 0.1304624625 0.2906458684 0.1601834058) 451 879 1
(0.3771655243 0.1840524765 0.1273647613 0.3114172378) 445 1303 1
(0.3834565071 0.3082717465 0.3038777526 0.004393993885) 443 864 2
(0.1454012593 0.4272993703 0.252849734 0.1744496363) 452 884 1
(0.0896275358 0.4551862321 0.2923738168 0.1628124153) 477 913 1
(0.07852880636 0.3329144705 0.4607355968 0.1278211263) 497 967 1
(0.7039602821 0.1480198589 0.06902663483 0.07899322412) 448 877 1
(0.2638896133 0.3680551934 0.1660674916 0.2019877018) 459 895 2
(0.2008180069 0.3995909966 0.1426546074 0.2569363892) 478 931 2
(0.2408236418 0.1923611782 0.1872270009 0.3795881791) 447 1305 1
(0.1188731167 0.4405634417 0.04141492715 0.3991485145) 467 913 1
(0.06659716131 0.4667014193 0.1418953647 0.3248060546) 467 910 2
(0.408568877 0.2957155615 0.1702943701 0.1254211914) 478 934 1
(0.3283355209 0.04959392419 0.3358322395 0.2862383154) 582 1131 2
(0.3348020486 0.3325989757 0.2716453686 0.06095360715) 469 2618 2
(0.7000508685 0.02303340266 0.1499745657 0.1269411631) 588 1140 1
(0.1557659646 0.2453435355 0.4221170177 0.1767734822) 457 891 1
(0.05884826774 0.06071159843 0.4098642677 0.4705758661) 473 905 2
(0.4621679844 0.2689160078 0.005470844029 0.2634451638) 509 973 1
(0.05958880502 0.4702055975 0.1691870376 0.3010185599) 554 1077 2
(0.3553376722 0.2853887426 0.03694242131 0.3223311639) 566 1082 2
(0.6230411079 0.09289473003 0.09558471604 0.1884794461) 634 1229 1
(0.09707677939 0.4514616103 0.3013305659 0.1501310444) 607 1178 2
(0.1616675354 0.4191662323 0.07505595739 0.3441102749) 477 931 2
(0.2229940041 0.2261218783 0.1623811196 0.3885029979) 447 874 1
(0.1369764695 0.4315117653 0.224821924 0.2066898413) 465 890 1
(0.2201422335 0.2546450684 0.1352838148 0.3899288832) 468 914 1
(0.2669484403 0.3665257799 0.1607432725 0.2057825073) 445 870 2
(0.1121348095 0.4439325952 0.2723894513 0.1715431439) 476 927 2
(0.08437334722 0.3351985061 0.4578133264 0.1226148203) 447 875 2
(0.1116009453 0.3917161225 0.05248340483 0.4441995274) 509 973 2
(0.1340694572 0.1106042232 0.4329652714 0.3223610482) 628 1219 2
(0.2685052087 0.3657473957 0.05432104108 0.3114263546) 451 879 2
(0.6791976997 0.1604011501 0.1088914629 0.05150968722) 469 914 2
(0.6180519524 0.1620047757 0.02896924815 0.1909740238) 469 897 2
(0.1390780614 0.4304609693 0.235201591 0.1952593783) 479 933 2
(0.02559638739 0.05491699272 0.4872018063 0.4322848136) 481 939 2
(0.243385696 0.2505572397 0.378307152 0.1277499123) 469 916 2
(0.22845635 0.3007836836 0.08498814137 0.385771825) 499 2621 1
(0.2034337977 0.06573976381 0.3982831011 0.3325433373) 497 970 2
(0.699416225 0.1502918875 0.05719996168 0.09309192584) 504 964 1
(0.02950799743 0.4852460013 0.2745209378 0.2107250635) 546 1060 2
(0.02826908693 0.1778325199 0.3080329366 0.4858654565) 488 952 1
(0.3136561006 0.3431719497 0.2142042357 0.128967714) 479 2619 2
(0.457076095 0.2714619525 0.254727818 0.0167341345) 537 1043 2
(0.3409758188 0.1468809959 0.3295120906 0.1826310947) 597 1160 2
(0.672992249 0.1006669899 0.06283688554 0.1635038755) 638 1219 2
(0.5993626953 0.2003186524 0.1122005116 0.08811814072) 588 1124 1
(0.2100222312 0.3949888844 0.04271525854 0.3522736258) 569 2628 2
(0.1668932923 0.2359817914 0.4165533538 0.1805715625) 629 1218 1
(0.3644064598 0.3177967701 0.1176459333 0.2001508368) 628 1200 1
(0.118178315 0.4409108425 0.3015662968 0.1393445457) 463 886 1
(0.02991222792 0.1034175201 0.3816263659 0.485043886) 467 912 1
(0.1317662068 0.2810040984 0.4341168966 0.1531127982) 454 888 2
(0.7848312479 0.02114492866 0.08643944739 0.107584376) 445 1303 1
(0.5021609985 0.1552468407 0.2489195008 0.09367266011) 478 934 2
(0.4798128202 0.04551507643 0.2600935899 0.2145785135) 474 926 2
(0.02195591182 0.4890220441 0.2379602285 0.2510618156) 446 870 2
(0.2173778284 0.3913110858 0.2465093864 0.1448016993) 444 866 2
(0.2331954838 0.303571727 0.3834022581 0.07983053114) 469 914 1
(0.3337234286 0.1046608617 0.3331382857 0.228477424) 448 874 1
(0.6088355133 0.1688678676 0.02671437576 0.1955822434) 467 894 2
(0.05599110661 0.4720044467 0.3512314272 0.1207730195) 444 1302 2
(0.2322000566 0.2354426916 0.3838999717 0.1484572801) 468 912 1
(0.004918363023 0.1482668157 0.4975408185 0.3492740028) 442 865 2
(0.3703297965 0.2208272381 0.09400786367 0.3148351018) 497 951 2
(0.5338693965 0.05843780874 0.174627493 0.2330653017) 473 905 2
(0.4755910754 0.02889550828 0.2622044623 0.233308954) 456 892 2
(0.598107919 0.2009460405 0.1972538486 0.003692191956) 556 1063 1
(0.7884156339 0.105792183 0.01538636208 0.09040582096) 447 875 1
(0.4154130706 0.09612034177 0.2922934647 0.1961731229) 456 889 1
(0.2290366546 0.3244181037 0.3854816727 0.06106356902) 465 909 2
(0.05357558808 0.2087052846 0.2645069213 0.473212206) 548 1066 1
(0.530411673 0.204587273 0.2347941635 0.03020689047) 518 1010 2
(0.53874492 0.23062754 0.08144913968 0.1491784003) 538 1047 2
(0.1014570286 0.4492714857 0.4120753843 0.03719610141) 579 1106 1
(0.5709218474 0.2145390763 0.08022076614 0.1343183102) 638 1237 2
(0.09226772691 0.3036686537 0.4538661365 0.1501974828) 608 1178 1
(0.2295396437 0.3852301782 0.3850157048 0.0002144734093) 597 1159 2
(0.3239692388 0.05193204568 0.2860833349 0.3380153806) 624 1192 2
(0.8866452169 0.05516368285 0.05667739157 0.00151370872) 449 878 2
(0.2247464214 0.1626355408 0.3876267893 0.2249912484) 487 948 1
(0.6946717747 0.1526641126 0.03501737268 0.11764674) 465 890 1
(0.03729811938 0.4813509403 0.3236228754 0.157728065) 483 940 2
(0.1605321239 0.02052166312 0.3992122749 0.419733938) 468 896 2
(0.3430816327 0.08706426351 0.2413949202 0.3284591837) 446 872 1
(0.1168413428 0.4415793286 0.1964728668 0.2451064618) 462 902 2
(0.2167553633 0.1725793834 0.219042935 0.3916223183) 515 1003 1
(0.2030919622 0.3984540189 0.3088139826 0.08964003626) 442 864 2
(0.3343596243 0.2721276169 0.3328201878 0.06069257094) 527 1024 1
(0.2620663487 0.2584581836 0.110508642 0.3689668256) 489 2620 1
(0.218560811 0.3907195945 0.2653493328 0.1253702617) 456 891 2
(0.5733450092 0.2133274954 0.1311388829 0.08218861252) 545 1058 2
(0.2737343228 0.3631328386 0.3478042929 0.0153285457) 484 926 1
(0.6239469612 0.03029747192 0.1577290475 0.1880265194) 456 873 2
(0.4366033199 0.28169834 0.2736010455 0.008097294571) 479 2619 2
(0.3134554303 0.3432722849 0.06763837093 0.2756339139) 468 896 1
(0.4117834542 0.2941082729 0.06308734433 0.2310209286) 477 929 2
(0.323928444 0.2990456991 0.338035778 0.03899007891) 468 915 2
(0.05828963545 0.4352086791 0.4708551823 0.0356465032) 468 915 2
(0.2345593892 0.3827203054 0.203364268 0.1793560374) 564 1096 2
(0.4769584396 0.172126127 0.08939465315 0.2615207802) 605 1174 1
(0.3372109851 0.1231301484 0.208264359 0.3313945075) 559 2627 1
(0.4753270239 0.2623364881 0.2168475467 0.04548894133) 638 1219 1
(0.350670108 0.324664946 0.06858553316 0.2560794129) 565 1099 1
(0.01243926092 0.4420830161 0.05169735348 0.4937803695) 558 1085 1
(0.3076391378 0.3461804311 0.03793787409 0.308242557) 559 2627 2
(0.507990158 0.2195529431 0.246004921 0.02645197788) 597 1157 1
(0.3496263677 0.1385266453 0.1866601708 0.3251868161) 609 1163 2
(0.6717735317 0.1641132341 0.01755355194 0.1465596822) 578 1121 2
(0.3345182867 0.206494127 0.3327408566 0.1262467296) 649 2662 2
(0.2715288168 0.003603382203 0.3606322094 0.3642355916) 483 942 1
(0.335487196 0.2291048914 0.1031515106 0.332256402) 445 1303 1
(0.1854773836 0.05946096196 0.4072613082 0.3478003462) 448 874 1
(0.3851419089 0.3074290455 0.2001051795 0.107323866) 478 933 2
(0.1991932535 0.4004033733 0.3938670908 0.006536282496) 446 873 1
(0.8046296224 0.08421685996 0.09768518878 0.01346832882) 473 924 2
(0.3181606362 0.3409196819 0.03249270482 0.3084269771) 472 921 2
(0.5644873158 0.1022205717 0.2177563421 0.1155357704) 455 887 1
(0.3280042587 0.3359978706 0.0637968974 0.2722009732) 466 892 1
(0.4232065587 0.2883967206 0.2688891784 0.01950754218) 455 887 2
(0.6794007155 0.1602996423 0.03055207232 0.1297475699) 468 914 2
(0.1979276509 0.08016683455 0.32086934 0.4010361746) 459 878 2
(0.3129932977 0.3435033512 0.1775321574 0.1659711938) 445 1303 2
(0.01857935457 0.3421474768 0.1485628459 0.4907103227) 468 896 2
(0.488751409 0.03921007393 0.2556242955 0.2164142215) 557 1081 1
(0.04109383127 0.4794530844 0.1183307473 0.361122337) 37 74 2
(0.3962576548 0.3018711726 0.2587660335 0.04310513913) 478 933 2
(0.1111445131 0.06680449442 0.4444277434 0.377623249) 498 972 2
(0.6393831731 0.1803084135 0.0005953120726 0.1797131014) 518 1007 2
(0.2424899418 0.3787550291 0.3517678372 0.02698719194) 578 1105 1
(0.02310181754 0.4884490912 0.4354204757 0.05302861552) 558 1083 2
(0.2338562105 0.3830718947 0.2419450209 0.1411268738) 537 1045 2