/*--------------------------------*- C++ -*----------------------------------*\
| =========                 |                                                 |
| \\      /  F ield         | OpenFOAM: The Open Source CFD Toolbox           |
|  \\    /   O peration     | Version:  2406                                  |
|   \\  /    A nd           | Website:  www.openfoam.com                      |
|    \\/     M anipulation  |                                                 |
\*---------------------------------------------------------------------------*/
FoamFile
{
    version     2.0;
    format      ascii;
    arch        "LSB;label=32;scalar=64";
    class       scalarField;
    location    "0.011/lagrangian/dsmc";
    object      Ei;
}
// * * * * * * * * * * * * * * * * * * * * * * * * * * * * * * * * * * * * * //


6862
(
6.870786722e-21
1.249948824e-20
2.909433158e-20
9.954780852e-21
2.666765131e-20
6.390865802e-20
1.881738163e-20
9.732785893e-21
4.662601518e-20
8.538322085e-21
2.501743618e-21
1.414572751e-20
5.026576416e-21
1.355384272e-20
2.015920044e-20
5.787187262e-21
1.69078548e-20
1.445410797e-20
1.772949429e-20
9.548797232e-21
6.417416499e-21
1.400549714e-20
6.134663829e-21
2.100986443e-20
8.054638318e-23
2.29806173e-20
1.612511397e-20
4.040009804e-22
2.460083639e-21
9.166563834e-21
9.604158623e-21
1.828321186e-20
2.142421497e-22
3.647020023e-21
3.02444321e-21
7.516106103e-21
4.109531907e-21
1.372391032e-21
1.384980463e-20
2.005210673e-20
1.739236591e-20
1.034553816e-20
2.577695027e-22
3.117803117e-21
1.551540026e-21
2.696291654e-20
7.220529796e-21
1.877350609e-20
5.6494578e-21
2.379607757e-20
6.611726342e-21
8.727444129e-22
8.945132665e-21
2.851783946e-20
2.246041305e-21
4.39765812e-21
7.980849397e-21
3.171202512e-20
5.61763701e-21
2.834286293e-20
4.619295993e-21
1.589618833e-20
3.867686583e-21
4.576749642e-21
1.231580841e-20
3.48195193e-22
2.087187563e-21
2.329635425e-21
2.820048645e-20
8.217191056e-21
6.130108733e-21
4.244864506e-21
2.847483556e-21
2.476600993e-20
5.170941075e-21
1.035674595e-21
2.331733547e-20
3.71737583e-20
1.156062255e-20
5.532287354e-21
6.389301202e-21
1.731810441e-20
2.579776159e-21
3.507931289e-20
1.592856023e-21
1.789162491e-20
3.153023496e-21
2.308520169e-22
1.236521886e-21
4.654727433e-21
3.698705216e-21
4.924087979e-22
8.707396589e-24
6.470970007e-21
2.795293942e-20
1.309441569e-20
1.18429865e-20
1.526069016e-20
4.13903492e-20
1.134921956e-20
6.338945202e-21
6.701800009e-21
8.786694097e-22
7.394386792e-22
2.006195092e-20
9.4010933e-21
7.585678107e-21
7.629214352e-22
7.397267656e-21
2.378997442e-22
1.244057812e-20
2.948266044e-20
4.385293583e-21
3.998616618e-20
1.219980708e-20
1.229860563e-21
5.253896359e-20
4.890055319e-22
3.135642546e-20
3.547867408e-21
7.919875754e-21
3.995899094e-21
1.257754936e-20
5.898728736e-21
3.659832326e-21
2.640684091e-20
3.855857385e-21
7.313616603e-21
1.258381936e-20
9.186316394e-21
3.830281259e-21
9.711723139e-21
6.826070979e-20
1.9551206e-20
2.702675598e-20
1.626264155e-20
1.11318064e-21
1.081702288e-20
4.008339467e-20
2.299444521e-20
3.268241242e-20
2.218024086e-20
3.688177918e-20
1.796748662e-20
2.099008775e-21
9.446521492e-21
3.220308352e-20
1.32511881e-20
1.076536473e-21
1.006165642e-20
1.831914057e-21
6.513198021e-21
2.229144702e-21
4.882962904e-20
1.964643705e-21
2.517534939e-20
9.492084373e-22
2.544008859e-20
1.305536125e-20
1.925459546e-20
1.054793259e-21
1.312261878e-21
5.236015357e-21
7.213775562e-21
2.97926713e-20
2.647129337e-21
3.029197145e-20
3.207610439e-20
2.605362566e-20
9.251236208e-22
1.537318738e-21
2.172737972e-21
5.577408163e-21
1.308378258e-21
1.631482698e-20
1.683616896e-20
2.593103548e-21
3.744170847e-21
1.198503482e-20
8.143491971e-21
1.076235139e-20
4.057388929e-20
4.100398585e-21
7.08551336e-21
3.779337472e-21
3.833894955e-21
1.316492789e-20
1.585187504e-21
1.055995338e-20
1.671883596e-21
8.390491529e-21
1.40618994e-20
9.531611157e-21
3.415048595e-20
6.071463462e-21
7.840166861e-21
1.65455242e-20
1.490526529e-21
8.185175623e-22
3.565714117e-21
7.873897482e-22
1.000158552e-20
2.790368339e-21
7.473651184e-21
1.974151699e-21
1.508132857e-20
1.272019858e-20
8.228816531e-21
2.21808257e-20
8.187821475e-21
1.947430532e-20
4.301637096e-21
2.140450405e-20
2.754416651e-21
3.153848432e-22
2.28157955e-20
1.77299117e-20
2.318950062e-22
4.888999083e-21
2.502480438e-20
1.579354433e-21
4.509306483e-21
7.276846528e-21
1.131454326e-20
1.73461263e-21
3.538310905e-21
2.203236014e-20
1.56491064e-20
1.079638244e-21
8.574434788e-21
1.010442601e-21
1.548836244e-22
8.176350879e-22
5.005358561e-21
3.64425149e-21
2.167926269e-21
2.528508106e-21
6.183984789e-21
3.11087089e-20
8.019253632e-21
4.223963217e-22
3.216473448e-20
4.958604518e-21
5.827555377e-21
1.068528303e-20
9.134896599e-21
1.56972835e-20
4.601441391e-21
6.600619793e-21
7.935816775e-21
3.317256369e-21
5.226026918e-21
1.779472776e-21
2.158735209e-20
2.999423072e-21
1.019912906e-21
6.877141547e-21
9.187717932e-21
4.221892129e-21
6.563832954e-21
2.686720341e-20
9.82248731e-21
1.333476052e-21
1.986758447e-21
2.33011603e-23
7.740300238e-21
3.709584975e-20
9.870809339e-21
1.84123065e-21
1.217659397e-20
3.459325414e-21
8.654442739e-21
6.748728343e-21
9.02160999e-21
5.534805314e-21
2.636103111e-21
5.334943124e-21
1.827290414e-21
2.46269948e-22
1.926831766e-21
7.377747448e-22
5.23456829e-21
4.273096535e-21
7.231630475e-22
5.912467241e-22
2.539498708e-21
3.09841715e-20
7.54080982e-20
7.709361962e-21
1.611443231e-21
3.71973565e-21
1.720861442e-21
2.443677283e-22
7.805375288e-21
6.33813296e-22
1.887570723e-21
3.80521273e-20
3.350203222e-21
2.190223364e-20
8.648409852e-21
1.18766222e-20
7.298783239e-21
1.126112552e-20
6.606517338e-21
2.766445117e-21
4.00297575e-21
4.443175315e-21
2.740376232e-21
3.737904074e-21
2.762243624e-21
1.276646904e-21
1.433762484e-20
6.719193523e-21
1.336303606e-20
5.009984688e-21
3.707086523e-21
2.934994229e-21
8.692674195e-21
1.507954243e-21
2.537935065e-21
5.70657463e-21
6.371030922e-21
3.80063859e-21
1.121859825e-20
1.584455141e-20
1.486487781e-21
4.356700496e-21
6.865182197e-21
2.629820533e-21
3.109295789e-20
7.132427012e-21
1.966814456e-21
1.103675194e-20
5.322774221e-21
1.002956784e-21
6.55821867e-21
1.436666224e-21
3.190025112e-22
1.904068983e-21
2.773039581e-21
2.464335927e-21
2.649738673e-21
1.868367907e-22
1.452414154e-21
4.376687098e-21
1.8902379e-21
1.281636137e-21
5.027948103e-21
9.285029019e-21
1.139360017e-21
5.074248357e-20
3.434861947e-21
2.619117909e-20
1.790621259e-21
1.852590821e-20
9.244293228e-22
3.61828289e-22
1.823497693e-20
1.669822697e-20
2.763363416e-21
1.597933428e-21
2.146256421e-21
3.972052832e-21
1.696683238e-20
1.234014504e-21
2.833036536e-20
1.876613415e-20
3.479724685e-21
2.06529109e-20
1.142695495e-20
1.580500217e-21
9.127898806e-21
1.312177058e-21
9.966496314e-21
1.915495863e-20
5.37309292e-21
5.22433632e-21
1.677141295e-20
2.939694902e-23
2.780992813e-21
3.204721567e-21
2.910999327e-21
1.474385704e-21
1.118039826e-20
7.615100603e-22
1.463717169e-20
4.701352733e-21
2.930149923e-21
1.269463912e-21
3.936363128e-21
1.42738822e-21
7.226172815e-22
1.231884333e-21
9.976940133e-21
5.233072318e-21
7.737710827e-21
1.827215824e-21
5.800697745e-20
4.82669197e-21
2.271788856e-20
5.931153406e-21
1.168395776e-20
6.462972876e-21
3.53688271e-21
2.759510916e-20
2.352716397e-21
5.481899305e-21
1.58079636e-20
4.730699992e-21
1.400322174e-20
2.654429404e-21
1.83643947e-21
1.647094909e-20
8.686846846e-21
1.457363752e-21
8.788989174e-21
1.43426598e-20
2.468856922e-22
2.034269984e-21
5.393657888e-21
1.62346717e-21
3.887819085e-22
2.370021404e-21
1.839812805e-21
1.347673584e-21
4.595783489e-21
1.883617833e-23
2.601570682e-20
3.112409499e-21
4.125598071e-22
7.38177412e-22
4.754288496e-21
1.29288507e-20
8.884482628e-22
3.282586505e-21
2.583262942e-21
1.915384711e-20
2.199837977e-20
8.801917274e-20
3.386808355e-21
2.128620459e-22
4.519213189e-21
1.326209049e-20
3.933282042e-21
1.340289865e-21
1.335975579e-20
8.840197897e-23
1.747405787e-20
6.699214874e-21
2.593480772e-21
5.494214287e-21
6.940885766e-21
5.600433485e-21
6.157548564e-21
1.653146859e-21
1.272044651e-20
3.653161353e-21
1.029021069e-21
1.140665999e-20
1.112481901e-20
3.9149858e-21
3.1389761e-20
6.436203945e-21
7.19173742e-22
8.911223213e-21
1.005259837e-20
1.899447317e-21
7.957375654e-21
2.400996449e-20
4.370954079e-21
6.058347652e-21
1.381012173e-20
6.922195507e-21
3.960098072e-21
8.805160184e-21
3.268388596e-20
1.217307934e-21
1.071339234e-20
6.802901412e-21
3.463905735e-20
1.978820102e-20
3.812404029e-21
2.450599061e-21
3.645305672e-21
2.284090219e-21
1.791141453e-21
3.202039539e-21
3.962890146e-21
6.913768464e-22
1.069463756e-21
1.858460277e-21
3.02852804e-21
7.09831008e-21
2.861813915e-20
3.620746169e-21
5.195452884e-21
4.122614689e-21
1.817300159e-20
1.000285498e-20
1.894328002e-20
5.29209752e-22
8.511828978e-21
6.426390273e-21
8.918770411e-21
8.391112961e-21
1.205935211e-20
4.154514596e-21
1.349566704e-21
6.292108637e-21
4.393267162e-21
6.852281511e-21
3.774295397e-22
7.235336736e-22
5.88581311e-21
7.154891081e-22
2.413042217e-21
3.419135146e-21
1.958350987e-21
9.252601668e-21
6.671258371e-21
1.364113266e-20
1.006287664e-20
7.565133275e-22
6.72587621e-21
1.037093178e-21
2.629162668e-21
3.648396797e-21
4.833449097e-21
1.274167327e-20
2.876867635e-21
3.489574175e-21
9.770047414e-24
2.281108153e-21
4.883162935e-20
2.679745378e-21
2.824531989e-22
1.427477952e-20
4.45236147e-21
4.996001779e-21
1.247349969e-20
1.716996566e-21
2.684323682e-21
3.731111002e-21
3.045261771e-21
4.164759212e-21
1.010807782e-21
1.008823497e-21
9.182501351e-21
3.31123716e-20
3.340573307e-21
2.545449665e-21
3.981757316e-22
1.107368194e-21
2.207987016e-21
3.577422006e-21
4.036111512e-21
5.542321357e-21
2.613089166e-21
8.920996742e-22
1.804608255e-21
9.898126527e-22
3.182152724e-21
1.74527563e-21
1.874943638e-21
4.983688182e-22
6.645018465e-22
5.468069749e-21
8.80476557e-21
1.81600474e-21
3.977843008e-21
1.103350322e-21
7.903443065e-21
2.0054674e-20
1.997854632e-20
2.782086036e-21
1.227567025e-21
3.425827607e-21
8.917586098e-22
3.848171314e-21
2.628440383e-20
2.020541815e-20
1.068331756e-20
4.281482081e-21
1.681080858e-20
3.186066164e-20
2.64625299e-20
3.423663842e-21
1.624377127e-21
4.995949585e-20
1.300808448e-21
5.057998944e-21
1.570683065e-22
2.402326292e-21
4.307442919e-21
1.917008114e-20
1.369602336e-21
8.058666648e-21
1.269414341e-21
4.479135349e-21
2.095714616e-21
2.482398029e-21
1.148362378e-20
3.002984697e-22
4.065622915e-21
1.089974449e-20
4.397271054e-21
1.840676391e-20
5.326622846e-21
1.060072039e-21
3.058504313e-21
7.219513661e-22
1.922079514e-21
1.057037983e-20
2.954581569e-21
1.763594955e-21
9.976619212e-22
3.632933488e-21
1.632587734e-20
1.296422837e-24
2.310329781e-20
7.353728302e-21
1.060557042e-20
3.408806224e-21
1.390750513e-21
2.162402477e-20
1.684604259e-21
6.379445191e-21
1.05502812e-21
5.817095803e-21
1.67910704e-21
2.44384958e-21
5.414345012e-21
3.607652739e-21
6.705829039e-21
2.601699974e-20
1.772781063e-21
1.392615666e-21
4.814835222e-21
4.152566667e-23
1.789425555e-21
8.978737262e-22
4.698714141e-21
3.911457448e-21
1.031774464e-20
5.357295249e-21
4.791718887e-21
1.182554519e-20
4.351455966e-21
6.84384806e-22
8.425331553e-21
3.276929728e-21
1.803495369e-21
9.432660506e-22
3.755920554e-21
2.396841208e-21
5.843185351e-21
2.912724689e-21
1.189742061e-20
9.276901876e-22
2.685242649e-22
2.932271423e-20
6.533054959e-21
9.781140473e-21
2.905891717e-21
3.407634293e-20
9.174980979e-23
9.498555709e-21
8.019717336e-21
1.052163186e-21
1.329931779e-21
8.203640613e-21
6.75781714e-21
1.841457432e-20
4.333702718e-21
7.033422605e-22
8.935481433e-21
1.103199717e-21
1.721484288e-20
3.156488599e-24
1.072419515e-20
6.236240854e-21
6.016150107e-21
2.796549533e-21
3.291394035e-21
4.353619099e-21
3.193149001e-21
6.463078854e-21
7.170791685e-22
5.504672898e-21
1.912669268e-21
7.049703799e-21
1.285086755e-22
9.545966632e-22
5.244391618e-22
1.819561829e-21
8.55281208e-21
5.422413883e-22
9.557066189e-21
1.458715916e-21
1.459619776e-20
3.076984723e-21
1.575332265e-21
2.869161729e-22
3.060141522e-21
2.965931006e-20
1.460564542e-20
1.262253628e-21
3.433195109e-21
2.061763961e-21
2.013054731e-21
2.745425974e-22
1.651505606e-21
2.919619386e-21
1.587407579e-20
1.644966358e-21
1.683256443e-20
3.394864999e-21
5.320926855e-21
9.786249022e-21
4.397036302e-22
2.89361468e-21
1.874791736e-22
5.181509188e-22
9.416177994e-22
4.714726626e-21
8.969204369e-22
4.528397073e-21
8.490359046e-23
4.24055111e-21
9.692707577e-21
3.06979881e-21
1.391249428e-20
1.040801284e-21
1.065492606e-20
4.801895759e-21
1.486691117e-21
8.750043287e-21
9.747716886e-22
4.621540811e-21
9.370117736e-22
3.53728065e-22
2.351177582e-21
2.82402676e-21
2.282234291e-21
2.199952258e-22
2.156434769e-21
1.251129974e-20
1.484823412e-21
1.473522803e-21
8.894239097e-21
6.117414478e-21
8.634327046e-21
4.276410174e-21
1.792794091e-20
1.292246615e-21
7.974469896e-22
5.093581903e-21
3.160314921e-21
1.747173856e-21
3.828967761e-21
3.278678792e-22
1.684082023e-23
1.052050252e-22
1.802756542e-21
1.125024538e-20
3.994676105e-21
5.638733893e-21
3.074094968e-20
2.870504996e-21
4.376389408e-21
2.740042587e-21
1.051114582e-20
3.084368096e-20
4.434274375e-21
3.049350673e-21
1.905206048e-21
4.597807235e-21
2.827927465e-21
8.033591792e-22
1.88439125e-21
2.612315156e-21
2.876325864e-20
3.97278058e-21
1.643253287e-20
1.851887575e-20
2.339297949e-21
2.819709919e-21
1.167636762e-20
8.170474671e-21
2.245171133e-21
2.88685118e-21
2.275698506e-20
4.141854983e-21
9.75250164e-21
3.369878737e-21
1.157205436e-21
4.511586293e-22
1.077004349e-20
7.173288297e-23
5.050711541e-22
2.905851928e-21
2.624668529e-21
6.868035176e-21
1.158665158e-21
3.036907582e-21
1.563167464e-21
1.171994038e-20
1.57517983e-21
1.071105835e-21
1.313464434e-21
2.732490703e-21
4.454369479e-21
2.402004074e-21
1.683920877e-21
5.469788371e-21
2.219753041e-21
1.127943904e-20
2.719870684e-22
7.860646795e-22
9.671824164e-21
2.445977592e-21
4.473845628e-21
1.891712034e-21
3.080448034e-21
7.111500562e-21
5.73646249e-21
7.638142325e-22
7.379281159e-21
1.205830902e-21
3.486871811e-22
1.213394176e-20
4.965305454e-21
1.170076829e-20
1.608588709e-20
7.333244151e-20
1.819182709e-21
2.082965446e-22
5.441990215e-20
1.498938073e-21
8.548841329e-21
1.06037989e-20
2.442344962e-20
4.340578444e-21
3.843094083e-21
2.770048266e-22
1.223872234e-21
6.380028644e-23
1.574677712e-21
4.699105379e-21
2.395371772e-20
1.101305561e-20
8.596706151e-21
9.153846753e-22
1.140469683e-21
2.820432189e-22
2.765881094e-21
7.69781529e-21
2.095081936e-21
7.039924847e-21
1.943536492e-21
9.27314877e-21
1.054920152e-20
6.808628062e-22
2.927948196e-21
3.317730443e-21
3.000034687e-21
5.606691573e-21
4.964167567e-21
2.935575401e-21
9.040727364e-22
2.669177001e-21
2.241278568e-21
5.742886259e-22
4.183780579e-21
1.984214829e-21
4.740221088e-21
5.096080294e-21
6.919186214e-23
1.310675337e-22
1.605838704e-21
3.448724747e-21
2.977653139e-22
2.443868025e-21
1.698872886e-23
7.176729638e-21
1.530687861e-20
2.800289875e-21
3.86823325e-21
7.40823234e-21
1.103180922e-20
9.01654848e-21
4.132859855e-23
1.117048112e-20
7.084600456e-22
6.775400159e-22
1.683259259e-20
1.071290802e-21
1.8097392e-21
2.012561647e-20
8.043370139e-22
9.310870546e-21
1.462227338e-21
1.68043653e-21
9.377528657e-22
2.604345987e-21
5.168704782e-21
3.380391306e-21
1.561267861e-21
3.490826449e-21
6.881303011e-21
1.045809808e-21
1.116442924e-21
2.556355512e-21
5.1957942e-20
2.999699166e-21
6.658334606e-21
5.328423669e-20
1.410303199e-20
2.785896345e-21
8.813750949e-22
1.866564383e-21
3.819370537e-21
1.636402598e-21
2.463675447e-22
2.189698252e-21
8.322118205e-21
1.696512277e-21
3.61619232e-21
1.772987458e-20
3.057142956e-21
2.825469622e-21
1.606597867e-21
1.005869065e-20
5.668237899e-21
7.978910374e-21
1.359135165e-21
7.461671944e-21
1.838592114e-21
2.440981854e-21
8.027401827e-21
1.231025501e-21
4.639510996e-21
3.550736971e-21
1.543116834e-22
3.913543125e-22
7.817446563e-21
6.502893805e-21
7.470032358e-21
5.872661153e-22
7.09818422e-21
3.499269963e-20
1.972047396e-20
3.498773539e-22
7.862576338e-23
4.570027221e-21
1.75277273e-21
3.237105658e-21
2.260487844e-21
8.275044588e-21
3.271382833e-21
2.889065955e-22
1.254138726e-21
5.631394909e-22
2.076642541e-20
2.577171928e-22
9.442865557e-21
5.770875991e-20
1.444977399e-20
1.52551935e-21
4.521989758e-21
6.060065428e-22
3.987294598e-23
8.042892452e-22
8.969534731e-21
1.45748906e-20
6.209485659e-22
2.789996262e-21
4.007210221e-21
5.802922101e-22
3.575350407e-22
3.460604719e-21
1.030492029e-21
3.213478095e-21
6.296457268e-21
1.73036572e-21
7.103518826e-21
8.738867269e-21
2.351635348e-21
1.980293058e-21
4.793665157e-22
9.940984124e-22
2.92342478e-21
1.066187197e-21
4.595497289e-21
4.322727464e-21
2.075288765e-21
6.66646705e-21
4.140489304e-20
1.097769312e-20
2.702308063e-22
1.051244215e-20
4.01271399e-21
5.469267108e-21
5.919774693e-21
6.238567701e-21
1.064213052e-20
1.462410881e-22
8.502351647e-21
1.623941612e-20
1.469192792e-21
1.902961411e-21
1.946202124e-21
4.085296749e-21
5.646277609e-21
2.660509017e-21
2.656083151e-21
1.976476373e-20
2.128175222e-21
2.153811736e-20
2.463783334e-21
9.511159348e-22
2.867299188e-20
5.980681546e-20
1.391806042e-21
1.202877692e-20
1.24884149e-20
5.97646094e-22
4.633843839e-21
4.072424576e-21
1.299741292e-20
4.171343273e-20
3.019254635e-21
7.591398254e-21
2.934290389e-21
2.070585866e-21
1.968990221e-21
1.026098584e-20
6.3648563e-22
9.61247866e-22
9.355299181e-22
1.300791446e-20
7.045782871e-21
8.35746437e-21
2.279088623e-20
1.605080007e-22
8.661718909e-21
2.238755914e-21
1.120267394e-21
2.980695943e-21
5.835375356e-21
5.16111592e-22
1.392159141e-20
1.494298534e-23
2.252774548e-21
2.685440043e-21
7.81688793e-22
6.652615565e-21
1.573300816e-21
2.522892836e-21
2.585527308e-22
2.92266215e-21
2.440468274e-21
1.262614649e-20
4.937489425e-21
5.368654983e-21
5.539312625e-21
5.029567693e-22
3.805120173e-21
9.673198405e-22
3.093449022e-22
4.663800521e-21
1.953599307e-21
1.802142194e-21
6.021928651e-23
1.320356336e-21
4.589920595e-21
1.940590617e-21
1.108729509e-20
2.263421547e-21
5.590098918e-21
1.292761872e-21
1.366220748e-21
2.523034937e-21
3.243178447e-21
2.638968227e-20
1.032876793e-22
1.289216803e-20
5.568366505e-21
8.108677472e-24
5.463963653e-20
5.721978432e-21
5.424627411e-21
2.867098388e-20
3.858675133e-21
5.381021238e-21
4.987133497e-20
6.70814608e-21
3.095415547e-21
6.627425451e-22
1.569048816e-21
5.824451144e-21
6.38027544e-21
3.664729799e-21
1.126750413e-20
1.48807046e-21
2.51070636e-21
2.028683972e-22
7.337297832e-22
4.079857654e-21
1.259709102e-22
1.286467831e-21
8.698822175e-21
4.246068869e-21
2.740857015e-21
5.118205122e-22
7.056398043e-22
4.657214626e-21
8.608155278e-22
3.234688327e-21
1.204175796e-23
4.221002106e-21
2.242366377e-22
7.071906528e-21
2.213917858e-21
1.692733255e-21
5.768342561e-21
2.903151873e-21
1.38403635e-21
7.060689695e-21
6.045037809e-21
1.276098417e-20
2.043097692e-21
1.185185403e-20
1.691590995e-21
9.853986679e-21
3.796430741e-21
3.423902667e-21
4.451950723e-21
7.16763228e-21
2.87232076e-21
4.340606903e-21
1.183139253e-20
1.202892301e-20
5.657386756e-21
3.344090404e-21
1.26554318e-21
6.446809467e-22
3.543635678e-23
9.531509435e-21
3.627381215e-21
4.136632445e-21
2.339953014e-21
5.25564814e-21
3.597395938e-21
1.551680464e-20
2.999041658e-21
1.617426719e-20
5.512632197e-22
1.54585311e-23
1.944766237e-21
2.131807158e-21
6.815623405e-22
8.199915656e-21
1.068797553e-20
1.440472539e-20
9.701592879e-22
1.238136338e-20
8.05192979e-22
2.057889743e-21
1.736812223e-21
2.812976413e-21
7.123632291e-23
5.591091363e-22
1.040699661e-20
3.30105401e-20
8.199832132e-22
4.167736374e-21
1.859188773e-20
4.622779747e-22
3.380944052e-21
2.065731083e-21
3.29428222e-21
3.904680398e-22
2.52105417e-21
9.717265378e-21
6.005823533e-21
7.940039576e-21
2.68782151e-21
2.309876221e-20
1.634525641e-20
2.815206902e-22
1.733409929e-20
2.112649845e-21
4.645727364e-21
6.367235134e-21
1.120072103e-21
5.229720989e-21
6.39598844e-22
8.22222422e-23
7.486989306e-21
1.764364961e-21
1.433753014e-21
4.94614888e-22
4.86820056e-21
2.135465818e-21
1.208377429e-20
8.759635413e-21
1.105534855e-20
4.324942121e-21
1.231648029e-22
9.104798393e-22
2.897782964e-21
1.24570185e-20
6.844235455e-21
2.051428541e-21
3.232183093e-21
3.364114964e-21
1.458840489e-21
1.131944352e-21
2.22256507e-21
4.394000871e-22
4.203789374e-22
1.716426902e-20
2.676078405e-20
4.019728103e-21
3.712351652e-22
2.217329944e-21
1.969573231e-20
1.83177371e-21
2.348143774e-21
4.156783389e-21
3.168245937e-21
1.188817685e-21
9.698825461e-21
1.79275348e-21
1.41717199e-21
6.967675985e-22
6.140322944e-22
1.597448616e-21
2.892712812e-21
1.076900555e-20
4.435033293e-22
2.435254299e-20
3.945902368e-21
5.462931874e-21
8.250093047e-22
1.015255647e-20
1.268902759e-20
8.541173699e-21
1.970924471e-21
7.448656057e-21
1.647185296e-20
5.827365999e-21
4.484474052e-22
7.543061664e-21
2.914750918e-21
1.017570618e-20
1.245652306e-21
2.760791882e-21
5.644262061e-21
5.492147833e-21
3.278017424e-21
3.372084064e-20
2.893393281e-21
5.370394543e-21
2.675563131e-21
2.100904719e-21
1.440791445e-20
7.922430233e-21
8.642261659e-21
8.820629725e-22
9.11003214e-22
1.824215385e-20
2.062292888e-21
5.028565454e-21
2.95662865e-22
8.080087809e-22
8.885589891e-21
2.12096088e-21
6.92817255e-21
1.968500687e-21
9.181501185e-21
4.493399186e-23
5.295045177e-22
8.667196985e-21
2.099399066e-21
3.099405776e-21
4.266017887e-24
9.320376446e-21
1.900897642e-21
1.076379068e-22
2.449833233e-21
6.957638321e-22
1.568328871e-21
8.473046956e-21
2.963277788e-21
2.229403998e-21
1.683011469e-22
3.777267149e-21
4.513236587e-22
1.082061219e-20
8.011749214e-21
5.309658024e-22
6.311075893e-22
2.76385524e-21
5.221551559e-22
6.033451245e-21
2.984047312e-21
6.904251467e-22
1.535945638e-21
1.919213997e-21
2.546622631e-22
4.737026248e-21
4.254842805e-22
3.833048253e-20
1.192921708e-23
1.122034299e-20
1.866401939e-21
7.949812644e-22
1.857893123e-23
2.565744766e-21
1.163018825e-20
4.669278827e-21
1.683336356e-21
6.978934052e-21
7.09405779e-20
5.510695644e-21
1.451868589e-20
4.296450007e-20
1.831408345e-20
5.423700256e-21
5.733616885e-20
4.816019908e-21
1.082726447e-20
2.816192266e-22
1.089516029e-20
3.17815545e-20
2.747853495e-21
8.207324053e-21
4.696286243e-22
2.496430327e-21
7.976055342e-22
9.890420979e-22
6.770269365e-21
4.66682804e-21
1.396677337e-20
3.82452962e-21
3.104923209e-21
5.439337055e-21
2.354154678e-21
8.79664402e-22
4.50066583e-21
4.688259608e-22
5.816972654e-22
4.984776651e-21
4.067313783e-20
2.025783151e-21
1.221958136e-20
1.439061938e-21
3.495191904e-21
1.495534768e-21
2.973837624e-21
6.523429951e-22
1.221186987e-23
1.84730039e-20
9.034513671e-21
2.579887801e-21
2.885109028e-22
7.311551116e-22
2.147957722e-21
2.592042109e-21
8.807188514e-21
2.91251835e-21
5.455146204e-22
2.788204476e-22
6.662114617e-21
1.821401434e-21
6.349136518e-22
5.042843548e-21
7.555510131e-22
5.249941195e-21
1.560280069e-20
1.953290071e-21
2.140455426e-21
1.129344548e-22
1.682617509e-21
6.106627782e-21
3.28696357e-21
8.002359472e-22
5.352843339e-21
6.767068426e-21
2.014693139e-21
8.598157687e-22
1.513176715e-21
8.728930998e-22
1.29897434e-20
1.033891921e-21
5.061436782e-21
7.348528427e-21
1.472191097e-21
3.967074427e-20
3.886628698e-23
2.893856766e-21
7.364529335e-21
1.783284483e-22
1.466202222e-21
1.369296603e-20
9.647902076e-22
3.737481046e-21
5.349857784e-22
4.758346875e-21
9.643298777e-22
1.244340927e-20
5.59166356e-21
4.279767923e-22
2.597861623e-21
1.070466203e-20
4.424908065e-20
2.980778772e-21
4.770200756e-21
9.867277423e-21
7.916131588e-21
1.060559933e-21
1.299352491e-21
7.948420693e-22
2.497665272e-21
9.668508603e-21
4.395251451e-22
2.887711004e-21
6.231656864e-21
4.213501597e-21
1.495811221e-20
2.149224422e-20
1.746948135e-20
4.006093946e-20
1.445523373e-22
2.872708446e-21
5.995044587e-21
9.076428591e-21
1.27076419e-20
2.27331252e-21
8.944342889e-22
4.146291082e-21
1.923982967e-21
1.258834238e-20
7.751360253e-21
1.008573342e-21
2.889567397e-22
5.830686461e-22
2.90243126e-21
7.03342048e-22
1.431804531e-20
4.214527019e-21
5.938920873e-21
4.280426077e-21
1.028364793e-21
9.044463777e-23
8.297067422e-22
6.738402439e-21
2.212064843e-21
3.082004711e-21
3.242084754e-21
2.478801522e-21
2.632423317e-21
6.227140656e-21
6.909648317e-21
1.063604578e-20
3.229498878e-21
3.776196088e-21
2.363507006e-23
6.415218515e-22
1.077724987e-20
8.28215512e-22
6.624515191e-23
1.087913294e-21
5.537194458e-21
3.429311776e-21
7.714209014e-21
7.532003445e-21
2.939987212e-20
1.111975792e-21
1.789969808e-21
8.185281578e-21
9.634971128e-22
5.58781566e-22
1.53788789e-21
6.966473042e-21
2.61244982e-21
9.310862928e-21
1.985171782e-22
8.838000147e-22
5.624556611e-21
3.500463152e-21
2.739851145e-20
5.246979366e-22
4.465095303e-21
6.383281382e-22
4.064200292e-21
4.997646401e-21
3.542223547e-21
2.678981663e-21
4.566258415e-21
4.031603689e-21
5.152241369e-21
8.267022872e-21
7.044108441e-21
2.09752225e-21
3.372620949e-22
3.847264075e-21
1.130939493e-21
1.518932832e-21
9.850876369e-21
8.3425046e-22
5.507960457e-21
7.926243684e-21
1.890953434e-21
1.028727074e-21
2.691941162e-21
5.268429874e-23
3.777186806e-21
3.208365615e-21
3.211217892e-21
2.370363009e-21
4.954208e-22
2.007756653e-21
3.673021666e-21
1.073646654e-21
1.139747418e-21
8.186073096e-23
2.688994115e-22
8.347814957e-21
3.374302514e-21
9.943835614e-22
6.121672531e-21
3.434570341e-21
5.242257447e-21
3.819950814e-21
1.92965053e-21
4.384423962e-21
9.101013091e-21
8.801158708e-21
2.575063932e-21
6.488459115e-21
3.2070912e-21
4.210195727e-21
2.35557814e-21
4.002190338e-21
1.944925203e-21
1.949535347e-21
1.770079197e-21
5.362154902e-21
2.096645054e-21
2.545774603e-21
4.089812114e-21
4.504525295e-23
7.907482227e-21
3.702618536e-21
7.343969137e-21
1.167113484e-20
2.776485145e-21
2.778991122e-21
6.66145352e-21
2.036239214e-21
4.795573104e-22
2.005495979e-21
1.084407104e-21
1.189513327e-20
2.342773259e-21
1.222333636e-20
1.351920069e-21
1.056380342e-21
1.167330797e-21
4.6500207e-21
5.283448722e-21
1.629763411e-20
1.969716709e-20
9.20990828e-21
1.356462128e-20
2.639133223e-21
3.271541147e-21
1.907217242e-21
3.058629178e-21
9.072843411e-21
1.258378515e-20
1.874274584e-20
1.527567331e-21
3.012250468e-21
2.722634854e-21
7.437666664e-22
5.13527857e-21
5.896989929e-21
7.170725292e-22
8.380312144e-22
3.009173515e-21
9.211692791e-21
6.135586055e-21
2.915991277e-22
1.12491171e-20
7.978661667e-21
1.036488011e-20
1.024951127e-21
1.565997457e-20
7.787305104e-22
1.061723899e-21
1.559582696e-21
5.103089049e-20
8.677121468e-21
2.711283986e-21
4.479345345e-21
1.582622593e-20
9.789960443e-22
4.372566675e-21
2.503739862e-21
3.153724087e-22
6.688493741e-21
9.216679285e-22
7.937492412e-21
1.985482089e-22
1.014263703e-20
7.603645427e-21
6.752145137e-21
4.291043251e-21
8.737520566e-21
2.394022313e-21
7.902463231e-21
4.1839731e-21
5.733041706e-21
7.146937271e-21
1.480790448e-21
3.076142987e-21
3.759031201e-21
7.866068158e-21
1.448721565e-20
1.119297169e-20
1.532081091e-20
9.446209646e-21
7.336477887e-21
3.424918934e-21
4.331299778e-21
1.193111747e-21
7.468462492e-23
3.844641255e-21
3.703693076e-21
1.643110791e-21
7.346956512e-22
7.41360099e-21
2.838096902e-21
7.300584018e-22
6.701169369e-22
2.536228306e-21
8.10162965e-22
4.869665387e-22
5.870549018e-22
1.326366374e-21
6.509201565e-21
1.704272975e-21
1.105889601e-21
2.412971066e-21
1.557688246e-20
9.828394683e-21
7.089852416e-21
1.237471064e-22
4.678288139e-21
2.637975006e-21
4.568568254e-21
3.88299471e-22
1.384386864e-20
1.961118152e-21
4.442603191e-21
1.636359679e-20
2.944089973e-21
2.848173012e-21
7.470445467e-21
2.294334627e-21
6.290808046e-21
8.443231111e-21
1.79974449e-20
4.148706815e-21
6.257403751e-23
6.134926677e-21
2.479404126e-21
5.542210426e-21
6.540101552e-23
2.157996676e-23
3.651644572e-21
5.528701338e-21
7.460302747e-21
6.788864759e-22
6.181721732e-22
1.032702872e-20
2.194068519e-21
4.429844664e-21
4.905412559e-21
8.178940962e-22
9.548281935e-22
1.843023281e-21
1.197895497e-20
1.405879867e-20
4.805626139e-21
1.343486784e-20
1.812177057e-22
6.835094406e-21
7.999071299e-22
1.654254588e-21
1.813153389e-20
2.673110704e-21
2.314911425e-21
9.176980106e-22
1.388527011e-21
6.078151652e-21
3.72814816e-21
1.03135995e-20
6.601182356e-21
3.906754256e-21
8.894331111e-22
5.206284412e-21
1.441305318e-20
4.776699668e-21
3.850887528e-21
2.252331944e-21
4.541614288e-21
5.350184922e-21
5.959888634e-21
9.425226268e-21
7.178655547e-22
9.368172693e-22
1.517650713e-20
1.076365861e-21
5.933709657e-22
3.094700487e-21
3.943301009e-21
1.317377092e-20
6.616825569e-22
2.137622993e-21
1.559801627e-21
2.37462589e-21
3.625895356e-21
9.966201191e-21
1.120704244e-21
9.865926146e-22
8.489124448e-21
2.614785483e-21
1.838070751e-21
9.77745854e-21
4.839905298e-22
8.638503442e-23
1.605146161e-21
1.958413634e-20
6.806662972e-22
5.128868854e-22
1.901422443e-21
2.317521073e-21
1.60265326e-22
2.114355584e-20
6.181487751e-21
5.754265955e-21
3.462061807e-21
6.874749033e-22
5.005244064e-21
5.478743898e-21
2.114010222e-21
4.316859702e-21
8.995943435e-22
1.754892195e-20
1.741230723e-21
5.45228182e-22
5.462908558e-21
2.635176131e-21
2.153169782e-20
3.363712396e-21
1.50368544e-20
7.754882235e-21
1.468696128e-21
7.830078346e-21
6.225286446e-21
5.442024518e-21
2.087692191e-20
3.074599079e-21
9.667522195e-21
7.208997788e-21
3.575142459e-21
1.43253125e-20
2.996603901e-21
1.806641653e-21
4.202019895e-21
5.045152426e-22
2.19852082e-21
2.483671537e-20
1.684333111e-21
2.083459384e-21
1.435947465e-20
7.037566005e-22
2.825604149e-21
1.824832793e-21
1.181653939e-20
6.231158192e-21
1.081051758e-21
1.395503249e-22
1.122444931e-20
1.758092356e-21
5.765689504e-21
3.472286639e-21
1.802507804e-21
6.277605633e-22
2.625987357e-21
5.143977862e-20
9.649701987e-22
1.245973083e-21
1.284491474e-21
4.975919335e-21
8.101281663e-21
5.012317101e-21
2.378407447e-21
4.49472112e-21
8.221530326e-22
1.711724285e-20
3.42059511e-22
2.240111998e-21
2.041122339e-21
3.751903689e-22
2.956321141e-22
3.08637764e-21
3.688188195e-21
5.864554026e-22
9.023263865e-22
1.411781267e-21
1.86142856e-22
4.425655778e-21
1.087020892e-20
2.724305412e-21
2.249652217e-21
4.009266223e-21
4.299281418e-22
6.156251679e-22
1.550730543e-21