/*--------------------------------*- C++ -*----------------------------------*\
| =========                 |                                                 |
| \\      /  F ield         | OpenFOAM: The Open Source CFD Toolbox           |
|  \\    /   O peration     | Version:  2406                                  |
|   \\  /    A nd           | Website:  www.openfoam.com                      |
|    \\/     M anipulation  |                                                 |
\*---------------------------------------------------------------------------*/
FoamFile
{
    version     2.0;
    format      ascii;
    arch        "LSB;label=32;scalar=64";
    class       labelField;
    location    "0.011/lagrangian/dsmc";
    object      origId;
}
// * * * * * * * * * * * * * * * * * * * * * * * * * * * * * * * * * * * * * //


6862
(
549884
551708
551908
552341
552943
553370
554168
554198
554482
554583
554703
554882
554974
554992
555078
555303
555600
555609
555712
555802
555892
555907
556000
556001
556002
556005
556009
556010
556011
556205
556216
556320
556350
556428
556434
556439
556629
556640
556651
556722
556828
556845
556849
556850
556958
557032
557036
557039
557123
557125
557132
557230
557250
557267
557342
557343
557362
557444
557447
557450
557451
557461
557472
557531
557537
557538
557636
557637
557650
557679
557735
557741
557745
557746
557749
557766
557775
557838
557845
557854
557930
557944
557953
558044
558056
558060
558063
558161
558164
558176
558262
558264
558269
558273
558365
558375
558381
558395
558417
558459
558467
558470
558478
558480
558488
558505
558581
558598
558602
558669
558670
558680
558682
558689
558690
558704
558732
558776
558781
558783
558785
558787
558788
558864
558874
558885
558889
558901
558913
558973
558981
558982
558987
559069
559085
559088
559092
559098
559099
559169
559171
559174
559175
559178
559179
559183
559184
559185
559186
559192
559199
559216
559229
559273
559277
559281
559285
559288
559292
559296
559299
559305
559383
559387
559388
559393
559395
559396
559398
559403
559409
559420
559427
559489
559491
559493
559500
559567
559582
559595
559599
559600
559693
559706
559731
559781
559783
559784
559793
559796
559797
559798
559804
559805
559806
559811
559814
559815
559865
559887
559898
559903
559909
559914
560003
560008
560009
560014
560018
560021
560029
560030
560051
560063
560098
560101
560103
560107
560110
560122
560125
560167
560195
560200
560205
560211
560212
560219
560244
560251
560254
560262
560263
560312
560317
560318
560319
560321
560329
560331
560349
560353
560367
560368
560391
560405
560406
560409
560420
560425
560428
560432
560437
560445
560447
560493
560507
560508
560513
560517
560520
560526
560548
560566
560600
560606
560609
560612
560614
560615
560616
560619
560622
560625
560628
560631
560633
560644
560649
560651
560673
560701
560703
480688
560709
560715
560716
560717
560726
560733
560736
560737
560752
560780
560786
560798
560799
560800
560806
560810
560811
560818
560819
560825
560826
560827
560828
560830
560837
560838
560840
560841
560845
560853
560883
560884
560915
560916
560919
560921
560924
560925
560926
560927
560928
560931
560932
560934
560935
560940
560941
560942
560944
560949
560950
560954
560969
560994
560995
561005
561014
561015
561016
561021
561025
561026
561028
561030
561031
561032
561035
561037
561038
561039
561041
561045
561053
561055
561056
561060
561064
561077
561080
561081
561086
561087
561109
561112
561114
561115
561123
561124
561125
561127
561129
561130
561132
561133
561134
561136
561138
561141
561146
561148
561150
561154
561155
561159
561163
561172
561178
561181
561192
561193
561201
561214
561215
561216
561220
561225
561227
561228
561229
561233
561237
561239
561240
561241
561244
561245
561246
561247
561251
561253
561257
561258
561276
561278
561279
561287
561288
561290
561291
561306
561307
561318
561321
561333
561334
561336
561337
561338
561340
561344
561345
561346
561350
561352
561355
561356
561358
561360
561361
561362
561363
561370
561375
561378
561380
561381
561383
561384
561390
561391
561398
561400
561406
561415
561421
561426
561427
561428
561429
561434
561436
561438
561439
561441
561442
561443
561444
561445
561446
561449
561450
561455
561460
561464
561468
561475
561477
561481
561484
561489
561496
561501
561502
561514
561522
561523
561525
561529
561533
561534
561536
561537
561540
561541
561542
561543
561544
561545
561546
561547
561548
561552
561553
561554
561556
561557
561559
561560
561561
561562
561568
561572
561574
561579
561580
561584
561586
561589
561594
561600
561604
561605
561606
561609
561613
561616
561620
561627
561628
561632
561642
561643
561644
561645
561647
561648
561649
561650
561651
561653
561656
561657
561658
561662
561666
561670
561674
561676
561677
561679
561685
561688
561691
561693
561696
561699
561700
561704
561707
561709
561711
561713
561714
561716
561717
561718
561726
561729
561732
561733
561735
480772
481751
561736
561737
561738
561740
561742
561745
561746
561749
561752
561753
561754
561755
561756
561757
561758
561759
561760
561761
561762
561768
561769
561771
561772
561778
561782
561783
561790
561791
561792
561798
561801
561806
561811
561812
561814
561815
561823
561829
561831
561834
561835
561837
561838
561839
561842
561843
561845
561846
561847
561848
561851
561852
561855
561856
561857
561858
561863
561864
561865
561866
561868
561872
561874
561876
561877
561880
561882
561883
561888
561889
561890
561892
561895
561898
561899
561901
561904
561908
561910
561911
561918
561921
561937
561941
561948
561949
561951
561953
561954
561957
561958
561959
561962
561963
561964
561965
561970
561971
561973
561974
561978
561979
561980
561982
561985
561987
561988
561991
561993
561994
561995
561996
561999
562002
562003
562004
562006
562009
562010
562011
562015
562016
562019
562021
562022
562026
562031
562036
562037
562038
562045
562050
562051
562052
562053
562054
562055
562056
562059
562061
562062
562064
562065
562066
562067
562068
562070
562071
562072
562073
562075
562076
562078
562080
562081
562082
562083
562084
562085
562086
562087
562088
562089
562091
562095
562096
562097
562098
562100
562104
562105
562107
562110
562111
562112
562115
562117
562118
562119
562120
562122
562123
562126
562131
562133
562135
562137
562139
481476
481563
562145
562147
562150
562151
562152
562153
562155
562156
562158
562159
562160
562161
562162
562163
562164
562165
562167
562168
562169
562170
562171
562172
562175
562176
562177
562178
562179
562182
562183
562184
562185
562187
562189
562191
562192
562194
562195
562196
562197
562198
562199
562200
562203
562204
562205
562206
562207
562210
562211
562212
562214
562215
562216
562218
562219
562222
562226
562229
562232
562234
562236
562237
562240
562244
562246
562247
562248
562250
562252
562254
562255
562256
562257
562259
562260
562261
562263
562265
562266
562267
562268
562270
562271
562272
562274
562275
562276
562277
562278
562279
562280
562282
562284
562285
562287
562289
562291
562292
562293
562294
562295
562296
562299
562300
562303
562305
562306
562307
562308
562309
562313
562314
562316
562317
562318
562321
562322
562325
562329
562330
562331
562339
482004
562346
562348
562351
562353
562354
562357
562359
562360
562361
562362
562363
562364
562365
562366
562368
562370
562371
562373
562374
562375
562377
562378
562379
562381
562382
562385
562387
562388
562390
562391
562394
562395
562396
562399
562400
562401
562404
562405
562406
562407
562408
562409
562410
562412
562414
562415
562416
562417
562418
562419
562423
562424
562428
562430
562433
562434
562439
562440
562441
562442
562443
562445
562446
562447
562448
562449
562452
562454
562455
562457
562459
562460
562461
562462
562463
562464
562465
562466
562467
562468
562473
562474
562475
562476
562477
562478
562480
562483
562484
562486
562487
562488
562489
562490
562491
562492
562494
562495
562496
562497
562498
562499
562500
562501
562502
562503
562504
562505
562506
562507
562508
562509
562510
562511
562512
562517
562518
562520
562523
562525
562527
562528
562530
562532
562534
562535
562540
562541
562543
481913
482258
482429
562544
562546
562547
562549
562551
562554
562558
562559
562560
562561
562562
562563
562564
562565
562566
562567
562569
562571
562572
562573
562574
562575
562577
562578
562579
562582
562583
562584
562585
562586
562587
562588
562589
562590
562591
562592
562593
562595
562596
562597
562598
562600
562601
562602
562606
562607
562609
562611
562612
562613
562614
562615
562616
562620
562621
562622
562624
562625
562626
562629
562630
562634
562635
562636
562637
482520
562646
562648
562649
562652
562653
562654
562655
562656
562658
562659
562660
562662
562663
562664
562665
562666
562668
562669
562670
562672
562673
562674
562675
562676
562678
562679
562681
562682
562683
562684
562685
562686
562687
562688
562689
562690
562691
562692
562693
562694
562695
562698
562699
562700
562701
562702
562703
562705
562706
562707
562708
562709
562710
562711
562713
562714
562715
562716
562717
562718
562719
562720
562721
562722
562723
562724
562726
562727
562729
562730
562731
562733
562736
562737
562740
562741
562742
562743
562745
482086
482521
562746
562748
562749
562751
562752
562753
562755
562756
562757
562758
562759
562760
562762
562764
562765
562766
562768
562769
562770
562771
562772
562773
562774
562775
562776
562777
562778
562779
562780
562781
562782
562783
562784
562785
562786
562787
562788
562789
562791
562792
562793
562795
562796
562797
562798
562799
562801
562802
562804
562806
562807
562809
562810
562812
562813
562816
562817
562819
562820
562821
562822
562823
562824
562825
562826
562828
562829
562830
562831
562832
562834
562838
562841
562842
562846
562847
562848
562849
562850
562851
562855
562858
562860
562863
562864
562865
562866
562867
562868
562869
562870
562871
562873
562875
562876
562877
562878
562880
562882
562883
562884
562885
562886
562887
562888
562889
562890
562891
562892
562893
562894
562895
562896
562897
562898
562899
562900
562901
562903
562904
562905
562906
562907
562908
562909
562911
562913
562914
562915
562916
562918
562919
562920
562921
562922
562923
562925
562926
562927
562928
562929
562930
562931
562932
562933
562935
562936
562938
562939
562940
562942
562943
562944
562946
562948
562951
562952
562953
562954
562955
562956
562958
562959
562962
562966
562967
562968
562971
562972
562974
562975
562978
562979
562980
562981
562982
562983
562984
562985
562987
562988
562989
562990
562991
562992
562993
562994
562996
562997
562998
562999
563000
563002
563004
563005
563006
563007
563008
563009
563010
563011
563012
563013
563014
563016
563017
563018
563019
563020
563021
563022
563023
563024
563025
563026
563027
563028
563029
563030
563031
563032
563033
563035
563036
563037
563038
563039
563041
563044
563045
563047
563052
563053
563055
563058
563063
563064
563067
563068
563069
563070
563071
563073
563074
563075
563076
563077
563078
563080
563081
563082
563084
563085
563086
563087
563088
563089
563090
563091
563093
563094
563095
563096
563097
563098
563099
563100
563101
563102
563103
563104
563105
563106
563107
563108
563109
563110
563111
563112
563113
563114
563115
563117
563118
563119
563120
563121
563122
563123
563124
563125
563127
563128
563129
563130
563131
563132
563133
563134
563135
563136
563137
563138
563139
563140
563141
563142
563146
563147
563149
563150
563151
563152
563153
563154
563156
563157
563158
563160
563165
482006
482788
563167
563169
563170
563172
563173
563175
563176
563178
563179
563181
563182
563183
563184
563185
563186
563187
563188
563189
563190
563191
563192
563193
563194
563195
563196
563197
563198
563199
563200
563201
563202
563203
563204
563205
563206
563207
563209
563210
563211
563212
563213
563214
563215
563216
563217
563218
563219
563220
563221
563222
563223
563224
563225
563226
563228
563229
563230
563231
563232
563233
563234
563235
563236
563237
563238
563239
563240
563241
563242
563243
563244
563245
563246
563247
563248
563249
563251
563253
563254
563256
563258
563260
563262
563263
563264
563267
563268
482087
563270
563272
563274
563276
563277
563279
563280
563281
563282
563283
563284
563286
563287
563288
563289
563290
563291
563292
563293
563294
563295
563296
563298
563299
563300
563301
563302
563303
563304
563305
563306
563307
563308
563309
563310
563311
563312
563313
563314
563315
563316
563317
563318
563319
563320
563321
563322
563323
563324
563325
563326
563327
563328
563329
563330
563331
563332
563333
563334
563335
563336
563337
563338
563339
563342
563343
563344
563345
563346
563347
563350
563351
563353
563354
563355
563356
563357
563358
563362
563363
563364
563365
563366
563368
563371
563372
563374
563375
563376
563377
563379
563380
563381
563382
563383
563384
563385
563386
563387
563388
563389
563390
563391
563392
563393
563394
563395
563396
563397
563398
563399
563400
563401
563402
563403
563404
563405
563406
563407
563408
563409
563411
563412
563413
563414
563415
563416
563417
563418
563419
563420
563421
563422
563423
563424
563425
563426
563427
563428
563429
563430
563431
563432
563433
563434
563435
563436
563437
563438
563439
563440
563441
563442
563443
563444
563445
563447
563448
563449
563450
563451
563453
563454
563456
563457
563459
563461
563467
563469
563470
563471
482341
563472
563474
563475
563478
563482
563483
563484
563485
563486
563488
563489
563490
563491
563492
563493
563494
563495
563496
563497
563498
563499
563500
563501
563502
563503
563504
563505
563506
563507
563508
563509
563510
563511
563512
563513
563514
563515
563516
563517
563518
563519
563520
563521
563522
563523
563524
563525
563526
563527
563528
563529
563530
563531
563532
563533
563534
563535
563536
563537
563538
563539
563540
563541
563542
563543
563544
563545
563546
563547
563548
563549
563550
563551
563552
563553
563554
563555
563556
563557
563558
563559
563560
563561
563562
563566
563567
563568
563569
563572
563573
563574
563575
563577
563578
563579
563580
563581
563582
563583
563584
563585
563586
563587
563588
563589
563590
563592
563593
563594
563595
563596
563597
563598
563599
563600
563601
563602
563603
563604
563605
563606
563607
563608
563609
563610
563611
563612
563613
563614
563615
563616
563617
563618
563619
563620
563621
563622
563623
563624
563625
563626
563627
563628
563629
563630
563631
563632
563633
563634
563635
563636
563637
563638
563639
563640
563641
563642
563643
563645
563646
563648
563650
563651
563652
563653
563654
563655
563657
563658
563660
563661
563662
563664
563665
563667
563668
563669
563670
563673
563674
482345
483235
563677
563679
563681
563683
563684
563685
563686
563687
563688
563689
563691
563692
563693
563695
563696
563697
563698
563699
563700
563701
563702
563703
563704
563705
563706
563707
563708
563709
563710
563711
563712
563713
563714
563715
563716
563717
563718
563719
563720
563721
563722
563723
563724
563725
563726
563727
563728
563729
563730
563731
563732
563733
563734
563735
563736
563737
563738
563739
563740
563741
563742
563743
563744
563745
563746
563747
563748
563749
563750
563751
563752
563753
563754
563755
563756
563757
563758
563759
563761
563762
563764
563765
563766
563768
563769
563771
563772
563773
563776
480955
483320
563778
563780
563782
563783
563784
563786
563787
563788
563789
563790
563791
563792
563793
563794
563795
563796
563797
563798
563799
563800
563801
563802
563803
563804
563805
563806
563807
563808
563809
563810
563811
563812
563813
563814
563815
563816
563817
563818
563819
563820
563821
563822
563823
563824
563825
563826
563827
563828
563829
563830
563831
563832
563833
563834
563835
563836
563837
563838
563839
563840
563841
563842
563843
563844
563845
563846
563847
563848
563849
563850
563851
563852
563853
563855
563856
563857
563858
563859
563860
563861
563863
563864
563866
563874
563875
563876
482690
563877
563879
563880
563881
563882
563883
563885
563886
563888
563890
563891
563892
563893
563894
563895
563896
563897
563898
563899
563900
563901
563902
563903
563904
563905
563906
563907
563908
563909
563910
563911
563912
563913
563914
563915
563916
563917
563918
563919
563920
563921
563922
563923
563924
563925
563926
563927
563928
563929
563930
563931
563932
563933
563934
563935
563936
563937
563938
563939
563940
563941
563942
563943
563944
563945
563946
563947
563948
563949
563950
563951
563952
563953
563954
563955
563956
563957
563958
563959
563960
563961
563962
563963
563964
563965
563966
563969
563970
563972
563973
563974
563978
562134
561414
562335
563982
563983
563985
563986
563987
563988
563989
563990
563991
563992
563993
563994
563995
563996
563997
563998
563999
564000
564001
564002
564003
564004
564005
564006
564007
564008
564009
564010
564011
564012
564013
564014
564015
564016
564017
564018
564019
564020
564021
564022
564023
564024
564025
564026
564027
564028
564029
564030
564031
564032
564033
564034
564035
564036
564037
564038
564040
564041
564042
564043
564044
564045
564047
564048
564049
564050
564052
564053
564054
564055
564056
564057
564058
564060
564061
564062
564068
564069
564070
564072
564073
564074
564075
482691
482971
562332
483053
483057
483494
564078
564079
564081
564083
564084
564087
564088
564090
564091
564092
564093
564094
564095
564096
564097
564098
564099
564100
564101
564102
564103
564104
564105
564106
564107
564108
564109
564110
564111
564112
564113
564114
564115
564116
564117
564118
564119
564120
564121
564122
564123
564124
564125
564126
564127
564128
564129
564130
564131
564132
564133
564134
564135
564136
564137
564138
564139
564140
564141
564142
564143
564144
564145
564146
564147
564148
564149
564150
564151
564152
564153
564154
564155
564156
564157
564158
564159
564160
564161
564162
564163
564169
564170
564172
564174
564175
564176
564178
564179
564181
556622
482611
483149
483493
564183
564185
564188
564189
564191
564193
564194
564195
564197
564198
564200
564201
564202
564203
564204
564205
564206
564207
564208
564209
564210
564211
564212
564213
564214
564215
564216
564217
564218
564219
564220
564221
564222
564223
564224
564225
564226
564227
564228
564229
564230
564231
564232
564233
564234
564235
564236
564237
564238
564239
564240
564241
564242
564243
564244
564245
564246
564248
564249
564250
564251
564252
564253
564254
564255
564256
564257
564258
564259
564261
564262
564263
564264
564265
564266
564267
564268
564269
564270
564271
564272
564275
564276
564278
564279
564281
482967
482968
564284
564290
564292
564295
564296
564297
564300
564301
564302
564303
564304
564305
564306
564307
564308
564309
564310
564311
564312
564313
564314
564315
564316
564317
564318
564319
564320
564321
564322
564323
564324
564325
564326
564327
564328
564329
564330
564331
564332
564333
564334
564335
564336
564337
564338
564339
564340
564341
564342
564343
564344
564345
564346
564347
564348
564349
564350
564351
564352
564353
564354
564355
564356
564358
564359
564360
564361
564362
564363
564364
564365
564366
564367
564368
564369
564372
564373
564374
564375
564379
564380
564382
564383
564384
564385
564386
564387
482088
483318
564391
564393
564394
564395
564396
564397
564398
564399
564401
564402
564403
564404
564406
564407
564408
564409
564410
564411
564412
564413
564414
564415
564416
564417
564418
564419
564420
564421
564422
564423
564424
564425
564426
564427
564428
564429
564430
564431
564432
564433
564434
564435
564436
564437
564438
564439
564440
564441
564442
564443
564444
564445
564446
564447
564448
564449
564450
564451
564452
564453
564454
564455
564456
564457
564458
564459
564460
564461
564462
564463
564464
564465
564466
564467
564468
564469
564470
564471
564472
564473
564475
564478
564479
564482
564484
564485
564486
564488
564489
564490
564491
482342
482605
483748
483913
564495
564499
564500
564501
564502
564503
564505
564507
564508
564509
564510
564511
564512
564513
564514
564515
564516
564517
564518
564519
564520
564521
564522
564523
564524
564525
564526
564527
564528
564529
564530
564531
564532
564533
564534
564535
564536
564537
564538
564539
564540
564541
564542
564543
564544
564545
564546
564547
564548
564549
564550
564551
564552
564553
564554
564555
564556
564557
564558
564559
564560
564561
564562
564563
564564
564565
564566
564567
564568
564570
564571
564572
564573
564574
564575
564576
564577
564578
564579
564581
564582
564583
564586
564588
564589
564590
564591
564593
564594
564595
564597
564598
482181
564603
564605
564606
564607
564608
564610
564611
564613
564614
564615
564616
564617
564618
564619
564620
564621
564622
564623
564624
564625
564626
564627
564628
564629
564630
564631
564632
564633
564634
564635
564636
564637
564638
564639
564640
564641
564642
564643
564644
564645
564646
564647
564648
564649
564650
564651
564652
564653
564654
564655
564656
564657
564658
564659
564660
564661
564662
564663
564664
564665
564666
564667
564668
564669
564670
564671
564672
564673
564674
564675
564676
564677
564678
564681
564682
564686
564687
564688
564689
564690
564692
564693
564694
564696
564697
564698
564699
564701
564702
564703
564705
564706
564707
564709
564710
564711
564712
564713
564714
564715
564716
564717
564718
564719
564720
564721
564722
564723
564724
564725
564726
564727
564728
564729
564730
564731
564732
564733
564734
564735
564736
564737
564738
564739
564740
564741
564742
564743
564744
564745
564746
564747
564748
564749
564750
564751
564752
564753
564754
564755
564756
564757
564758
564759
564760
564761
564762
564763
564764
564765
564766
564767
564768
564769
564770
564771
564772
564773
564774
564775
564776
564777
564778
564779
564780
564781
564782
564783
564784
564785
564786
564787
564788
564789
564790
564791
564792
564793
564794
564795
564796
564797
564798
564799
564800
564801
564802
564803
564804
481401
483496
563977
484283
564805
564806
564807
564808
564811
564813
564814
564815
564816
564817
564818
564819
564820
564821
564822
564823
564824
564825
564826
564827
564828
564829
564830
564831
564832
564833
564834
564835
564836
564837
564838
564839
564840
564841
564842
564843
564844
564845
564846
564847
564848
564849
564850
564851
564852
564853
564854
564855
564856
564857
564858
564859
564860
564861
564862
564863
564864
564865
564866
564867
564868
564869
564870
564871
564872
564873
564874
564875
564876
564877
564878
564879
564880
564881
564882
564883
564884
564885
564886
564887
564889
564890
564892
564893
564894
564895
564897
564899
564900
564901
564902
564903
564904
483831
564906
564907
564908
564909
564910
564911
564913
564914
564915
564917
564919
564921
564922
564924
564925
564926
564927
564928
564929
564930
564931
564932
564933
564934
564935
564936
564937
564938
564939
564940
564941
564942
564943
564944
564945
564946
564947
564948
564949
564950
564951
564952
564953
564954
564955
564956
564957
564958
564959
564960
564961
564962
564963
564964
564965
564966
564967
564968
564969
564970
564971
564972
564973
564974
564975
564976
564977
564978
564979
564980
564981
564982
564983
564984
564985
564987
564988
564989
564990
564991
564992
564993
564994
564995
564996
564998
564999
565000
482266
483061
483405
483664
483830
565002
565003
565009
565011
565012
565013
565014
565015
565016
565017
565018
565019
565020
565021
565022
565023
565024
565025
565026
565027
565028
565029
565030
565031
565032
565033
565034
565035
565036
565037
565038
565039
565040
565041
565042
565043
565044
565045
565046
565047
565048
565049
565050
565051
565052
565053
565054
565055
565056
565057
565058
565059
565060
565061
565062
565063
565064
565065
565066
565067
565068
565069
565070
565071
565072
565073
565074
565075
565076
565077
565078
565079
565080
565081
565082
565083
565084
565085
565086
565087
565088
565089
565090
565091
565092
565093
565095
565096
565098
565099
565100
565101
565102
565103
565104
565105
565106
481120
482525
562638
563359
483920
565107
565109
565110
565111
565112
565113
565114
565115
565116
565118
565119
565120
565121
565122
565123
565124
565125
565126
565127
565128
565129
565130
565131
565132
565133
565134
565135
565136
565137
565138
565139
565140
565141
565142
565143
565144
565145
565146
565147
565148
565149
565150
565151
565152
565153
565154
565155
565156
565157
565158
565159
565160
565161
565162
565163
565164
565165
565166
565167
565168
565169
565170
565171
565172
565173
565174
565175
565176
565177
565178
565179
565180
565181
565182
565184
565185
565186
565187
565188
565189
565190
565191
565193
565194
565195
565196
565197
565199
565200
565202
565203
565204
565205
483401
563867
484099
562945
565210
565211
565213
565214
565216
565217
565218
565219
565220
565221
565222
565223
565226
565227
565228
565229
565230
565231
565232
565233
565234
565235
565236
565237
565238
565239
565240
565241
565242
565243
565244
565245
565246
565247
565248
565249
565250
565251
565252
565253
565254
565255
565256
565257
565258
565259
565260
565261
565262
565263
565264
565265
565266
565267
565268
565269
565270
565271
565272
565273
565274
565275
565276
565277
565278
565279
565280
565281
565282
565283
565284
565285
565286
565287
565288
565289
565290
565291
565295
565296
565298
565301
565302
565303
565304
565305
565306
481208
482604
482607
484542
565308
565309
565311
565314
565315
565316
565317
565318
565319
565320
565322
565323
565324
565325
565326
565327
565328
565329
565330
565331
565332
565333
565334
565335
565336
565337
565338
565339
565340
565341
565342
565343
565344
565345
565346
565347
565348
565349
565350
565351
565352
565353
565354
565355
565356
565357
565358
565359
565360
565361
565362
565363
565364
565365
565366
565367
565368
565369
565370
565371
565372
565373
565374
565375
565376
565377
565378
565379
565380
565381
565382
565383
565384
565385
565386
565387
565388
565389
565390
565391
565392
565393
565394
565395
565396
565398
565399
565400
565401
565403
565404
565405
565406
565408
565409
565410
565412
482185
483406
484726
565415
565416
565417
565420
565421
565422
565423
565424
565425
565426
565427
565428
565429
565430
565431
565432
565433
565434
565435
565436
565437
565438
565439
565440
565441
565442
565443
565444
565445
565446
565447
565448
565449
565450
565451
565452
565453
565454
565455
565456
565457
565458
565459
565460
565461
565462
565463
565464
565465
565466
565467
565468
565469
565470
565471
565472
565473
565474
565475
565476
565477
565478
565479
565480
565481
565482
565483
565484
565485
565486
565487
565488
565489
565490
565491
565492
565493
565494
565495
565496
565497
565498
565499
565500
565502
565503
565504
565505
565506
565510
565511
482445
483059
483334
483586
482887
565512
565513
565514
565515
565516
565517
565518
565519
565521
565522
565523
565524
565525
565526
565527
565528
565529
565530
565531
565532
565533
565534
565535
565536
565537
565538
565539
565540
565541
565542
565543
565544
565545
565546
565547
565548
565549
565550
565551
565552
565553
565554
565555
565556
565557
565558
565559
565560
565561
565562
565563
565564
565565
565566
565567
565568
565569
565570
565571
565572
565573
565574
565575
565576
565577
565578
565579
565580
565581
565582
565583
565584
565585
565586
565587
565588
565589
565590
565591
565592
565593
565594
565595
565596
565597
565598
565599
565600
565601
565603
565605
565606
565608
565609
565610
565611
565612
565613
481923
483504
483506
563464
483666
484100
484549
562633
565614
565617
565618
565619
565620
565621
565622
565623
565625
565626
565627
565628
565629
565630
565631
565632
565633
565634
565635
565636
565637
565638
565639
565640
565641
565642
565643
565644
565645
565646
565647
565648
565649
565650
565651
565652
565653
565654
565655
565656
565657
565658
565659
565660
565661
565662
565663
565664
565665
565666
565667
565668
565669
565670
565671
565672
565673
565674
565675
565676
565677
565678
565679
565680
565681
565682
565683
565684
565685
565686
565688
565689
565690
565691
565692
565693
565694
565695
565697
565699
565702
565703
565705
565706
565708
565709
482714
484725
565710
565711
565712
565714
565715
565716
565717
565719
565720
565721
565722
565723
565724
565725
565726
565727
565728
565729
565730
565731
565732
565733
565734
565735
565736
565737
565738
565739
565740
565741
565742
565743
565744
565745
565746
565747
565748
565749
565750
565751
565752
565753
565754
565755
565756
565757
565758
565759
565760
565761
565762
565763
565764
565765
565766
565767
565768
565769
565770
565771
565772
565773
565774
565775
565776
565777
565778
565779
565780
565781
565782
565783
565784
565785
565786
565787
565788
565789
565790
565791
565792
565793
565794
565795
565796
565797
565798
565799
565800
565801
565802
565803
565804
565805
565806
565807
565808
565809
565810
565811
565812
565813
565816
565817
565818
565819
565821
565822
565825
565826
482359
483050
483916
563046
484809
565830
565832
565833
565834
565835
565836
565837
565838
565839
565840
565841
565842
565843
565844
565845
565846
565847
565848
565849
565850
565851
565852
565853
565854
565855
565856
565857
565858
565859
565860
565861
565862
565863
565864
565865
565866
565867
565868
565869
565870
565871
565872
565873
565874
565875
565876
565877
565878
565879
565880
565881
565882
565883
565884
565885
565886
565887
565888
565889
565890
565891
565892
565893
565894
565895
565896
565897
565898
565899
565900
565901
565902
565903
565904
565905
565906
565909
565913
565914
565915
565916
565917
565918
565920
565921
565922
557834
482789
484544
565924
565926
565927
565928
565930
565931
565932
565934
565935
565936
565937
565938
565939
565940
565941
565942
565943
565944
565945
565946
565947
565948
565949
565950
565951
565952
565953
565954
565955
565956
565957
565958
565959
565960
565961
565962
565963
565964
565965
565966
565967
565968
565969
565970
565971
565972
565973
565974
565975
565976
565977
565978
565979
565980
565981
565982
565983
565984
565985
565986
565987
565988
565989
565990
565991
565992
565993
565994
565995
565996
565997
565998
565999
566000
566001
566002
566003
566004
566005
566006
566007
566008
566009
566010
566011
566012
566014
566015
566017
566018
566020
566021
566022
566023
566024
482891
483049
564277
484280
484543
561410
484890
566026
566027
566028
566029
566030
566031
566034
566035
566036
566037
566038
566039
566040
566041
566042
566043
566044
566045
566046
566047
566048
566049
566050
566051
566052
566053
566054
566055
566056
566057
566058
566059
566060
566061
566062
566063
566064
566065
566066
566067
566068
566069
566070
566071
566072