/*--------------------------------*- C++ -*----------------------------------*\
| =========                 |                                                 |
| \\      /  F ield         | OpenFOAM: The Open Source CFD Toolbox           |
|  \\    /   O peration     | Version:  2406                                  |
|   \\  /    A nd           | Website:  www.openfoam.com                      |
|    \\/     M anipulation  |                                                 |
\*---------------------------------------------------------------------------*/
FoamFile
{
    version     2.0;
    format      ascii;
    arch        "LSB;label=32;scalar=64";
    class       Cloud<dsmcParcel>;
    location    "0.011/lagrangian/dsmc";
    object      positions;
}
// * * * * * * * * * * * * * * * * * * * * * * * * * * * * * * * * * * * * * //

6862
(
(0.06321328307 0.02659557832 0) 458
(0.06051219348 0.07274061084 2.168404345e-19) 517
(0.06011655503 0.03864007388 2.168404345e-19) 477
(0.06943868779 0.08082827485 0) 529
(0.02657496644 0.07355156375 9.486769009e-20) 533
(0.06381635192 0.08139692749 -1.084202172e-19) 538
(0.06443126245 0.03744486093 0) 468
(-0.02480612673 0.02698405473 2.168404345e-19) 76
(0.06386769279 0.03843558604 0) 478
(0.05664776933 0.01929234621 -1.151964808e-19) 447
(0.0623960613 0.01828020218 1.626303259e-19) 448
(0.06119480062 0.01894160271 0) 448
(0.05809035904 0.02035175994 1.084202172e-19) 447
(0.07149209209 0.03793881759 -2.710505431e-20) 469
(0.07406776002 0.1053179578 0) 569
(0.03227765499 0.01310950252 5.421010862e-20) 444
(0.0645312705 0.03613343521 1.084202172e-19) 468
(0.06717288633 0.09484950835 4.33680869e-19) 548
(0.07600292799 0.0370134379 0) 469
(0.05824916515 0.02591260699 -1.084202172e-19) 457
(0.05104301672 0.0254567084 0) 456
(0.06105808266 0.04970655 -1.084202172e-19) 488
(0.06119343891 0.04957004337 -1.084202172e-19) 488
(0.05496998649 0.03687720537 0) 477
(0.07171686547 0.02317115426 5.421010862e-20) 449
(0.06898177817 0.03841261712 2.168404345e-19) 469
(0.0744776791 0.03285603138 0) 459
(0.07424891592 0.02825875206 0) 459
(0.01486158205 0.08335748414 -2.168404345e-19) 541
(0.05939866805 0.03601089575 2.168404345e-19) 467
(0.05529580893 0.04166590965 1.355252716e-20) 477
(0.06648494188 0.05812902919 2.168404345e-19) 498
(0.06162640526 0.05948988812 -2.168404345e-19) 508
(0.07157628299 0.04803722312 3.252606517e-19) 489
(0.07589004605 0.02041861127 4.33680869e-19) 449
(0.0213156132 0.01001799333 2.168404345e-19) 442
(0.05426470412 0.02387025402 1.084202172e-19) 457
(0.06337563101 0.02342036496 -1.084202172e-19) 448
(0.04635503405 0.01390989873 -2.168404345e-19) 446
(0.07151438234 0.07059110309 5.421010862e-20) 519
(0.04549629639 0.0787387871 4.33680869e-19) 535
(0.06695765299 0.01930342323 2.168404345e-19) 448
(0.0634173032 0.03095626038 0) 458
(0.06068779684 0.0251122922 0) 457
(0.04614294941 0.1079493 0) 576
(0.05752786418 0.03763960806 2.168404345e-19) 477
(0.004652180181 0.04545272866 0) 490
(0.07579715392 0.06247201865 0) 509
(0.06186558158 0.01689136181 -4.33680869e-19) 448
(0.05415279979 0.03164194816 -2.168404345e-19) 467
(0.07594628006 0.02158751022 4.33680869e-19) 449
(0.05555472479 0.02340622551 -3.252606517e-19) 457
(0.03229603472 0.01530194495 1.084202172e-19) 444
(0.05380638165 0.01865675831 4.33680869e-19) 447
(0.06845011112 0.02464438759 4.33680869e-19) 448
(0.06620731289 0.04423482575 0) 478
(0.07613952557 0.0440368852 0) 479
(0.07255224067 0.04368489805 -1.355252716e-19) 479
(0.025557869 0.009950603376 0) 443
(0.02568987667 0.05111222731 -2.168404345e-19) 503
(0.0662721074 0.03991466115 0) 478
(0.07227663963 0.02345437092 -3.794707604e-19) 449
(0.06918193506 0.07253831976 3.252606517e-19) 519
(0.07547367221 0.02641521736 2.168404345e-19) 449
(0.05091032704 0.03821519208 5.421010862e-20) 476
(0.05723674183 0.02763800201 -1.084202172e-19) 457
(0.01774519269 0.01948533962 -2.168404345e-19) 452
(0.05731875064 0.02370014367 -2.168404345e-19) 457
(0.06181335644 0.01704286261 -2.168404345e-19) 448
(0.04623445062 0.01569814404 2.168404345e-19) 446
(0.01846986172 0.01682336136 -5.421010862e-20) 452
(0.06403466416 0.05404384985 1.084202172e-19) 498
(0.02864919089 0.014521439 -2.168404345e-19) 443
(0.04621890707 0.03993158924 2.168404345e-19) 476
(0.06578826072 0.02794634261 -1.626303259e-19) 458
(0.06641857251 0.05983884776 0) 498
(0.06230589508 0.0550656894 0) 498
(0.06190665276 0.08208478431 0) 538
(0.06762322556 0.06461510655 2.168404345e-19) 508
(0.06353666652 0.02065397955 1.423015351e-19) 448
(0.07459381812 0.02871415844 4.33680869e-19) 459
(0.04855845678 0.1013251428 1.084202172e-19) 566
(0.03685646135 0.0356866661 2.168404345e-19) 474
(0.0747897395 0.06509020958 0) 509
(0.04817314852 0.04392632101 -1.084202172e-19) 486
(0.06653771427 0.0395723908 4.33680869e-19) 478
(0.07453491742 0.06983409889 -2.168404345e-19) 519
(0.06142474869 0.03915574769 3.252606517e-19) 478
(0.05509334462 0.01620436743 -2.168404345e-19) 447
(0.06588571201 0.0321998073 0) 468
(0.05925334783 0.02487587292 2.168404345e-19) 457
(0.0652539095 0.0575815273 0) 498
(0.05296769869 0.01775967064 8.470329473e-21) 446
(0.07428518573 0.06910444256 0) 519
(-0.04749054172 0.02761956637 0) 73
(0.04299747359 0.03958346648 -1.084202172e-19) 475
(0.04061033366 0.07231700712 -2.168404345e-19) 525
(0.05405410811 0.05049044372 0) 497
(0.05425787252 0.1008204548 0) 567
(0.03212662769 0.06674094631 1.084202172e-19) 514
(0.06691105987 0.05338988484 0) 498
(0.04361873238 0.05087456651 5.421010862e-20) 495
(0.05624339095 0.01997050565 2.168404345e-19) 447
(0.02574380571 0.0548942679 0) 503
(0.0433062743 0.01934919176 0) 455
(0.05474665238 0.04091731468 -1.084202172e-19) 477
(0.06461885518 0.03150996855 2.710505431e-19) 468
(0.04817010337 0.02760195935 0) 466
(0.03415221787 0.0202058497 -1.694065895e-20) 454
(0.06435606461 0.01781329227 -5.421010862e-20) 448
(0.03408407372 0.02291700544 -4.33680869e-19) 454
(0.0697932014 0.05616908961 1.084202172e-19) 499
(0.06173708278 0.03984163996 0) 478
(0.06943244902 0.02259209702 -5.421010862e-20) 449
(0.03073748155 0.01132910239 4.33680869e-19) 444
(0.06041386928 0.02791430461 2.168404345e-19) 457
(0.07392610195 0.09869762668 -2.168404345e-19) 559
(0.01638963803 0.02088737767 1.084202172e-19) 462
(0.06859444853 0.02487526713 0) 449
(0.05042362451 0.05090317654 2.168404345e-19) 496
(0.03758043723 0.05188931421 -2.168404345e-19) 494
(0.01704645056 0.03461337683 -2.168404345e-19) 482
(0.07554338848 0.03670411449 2.168404345e-19) 469
(0.07003270538 0.03672946176 -1.355252716e-19) 469
(0.05501524185 0.02009540545 -2.168404345e-19) 447
(0.02301595533 0.01290304024 -2.168404345e-19) 443
(0.07423879139 0.06228402539 2.168404345e-19) 509
(0.06238216618 0.05967013999 -2.168404345e-19) 508
(0.07435663635 0.04123454181 -4.33680869e-19) 479
(0.06233581788 0.0229803454 2.710505431e-19) 448
(0.02342739681 0.0123458717 0) 443
(0.07326177366 0.03861544041 1.084202172e-19) 469
(0.0242661518 0.07681342348 0) 533
(0.04191832954 0.04079634794 0) 485
(0.06817334088 0.02451289649 2.168404345e-19) 448
(0.03241234969 0.0228393433 0) 454
(0.07295771162 0.06851741589 1.626303259e-19) 509
(0.05023856396 0.01633811278 -2.168404345e-19) 446
(0.02241462028 0.01519976917 0) 452
(0.03365786028 0.01193903729 5.421010862e-20) 444
(0.04566883891 0.02166783914 0) 455
(0.05570531117 0.0427956595 0) 477
(0.05802703684 0.0321842829 0) 467
(0.06682862251 0.06654026187 -2.168404345e-19) 508
(0.04609469909 0.06023116042 -1.084202172e-19) 506
(0.05583662483 0.03779675998 -1.084202172e-19) 477
(0.06349005193 0.03288600052 -3.252606517e-19) 468
(0.07598334025 0.03392207836 0) 459
(0.04705756075 0.01476798756 -2.168404345e-19) 446
(0.05076219995 0.09587797604 4.743384505e-20) 556
(0.05904368555 0.03063354099 0) 467
(0.06251059932 0.09870907357 1.084202172e-19) 558
(0.07337255784 0.1200627253 -3.252606517e-19) 589
(0.03876945438 0.05151000717 0) 495
(0.03198333338 0.01624403148 -2.168404345e-19) 454
(0.06631266579 0.06027362819 0) 508
(0.06286875623 0.02567752899 0) 458
(0.06790212621 0.01988294178 2.168404345e-19) 448
(0.05757985168 0.04872763668 -4.878909776e-19) 487
(0.05818760858 0.02511507027 -1.084202172e-19) 457
(0.01014993484 0.01647504945 3.252606517e-19) 451
(0.05863453657 0.03525840615 2.168404345e-19) 467
(0.02006477714 0.01008402532 -1.084202172e-19) 442
(0.05629098386 0.02029791935 0) 447
(0.03661460413 0.06119784459 0) 514
(0.02837191639 0.01496035926 0) 453
(0.06849962929 0.03456484305 -2.168404345e-19) 468
(0.07429089751 0.03672430002 -5.421010862e-20) 469
(0.05650166643 0.04027369854 2.710505431e-20) 477
(0.03728536051 0.01283422477 0) 444
(0.06825871479 0.04639896695 -4.33680869e-19) 478
(0.0584284254 0.04507705368 -2.168404345e-19) 487
(0.06737198295 0.06757361287 0) 518
(0.07188912474 0.05549841086 1.626303259e-19) 499
(0.07095894762 0.06414462337 2.168404345e-19) 509
(0.07440370111 0.031788993 -2.168404345e-19) 459
(0.02419819278 0.1191302749 -1.084202172e-19) 593
(0.06191263342 0.141776404 1.084202172e-19) 618
(0.05293601997 0.0416429045 0) 476
(0.05797609976 0.02080378031 0) 447
(0.07079590073 0.07738257428 -2.710505431e-20) 529
(0.03808450092 0.01962229915 -1.084202172e-19) 454
(0.02006318364 0.0290955645 2.168404345e-19) 472
(0.0747465226 0.04133095619 2.168404345e-19) 479
(0.07241827108 0.03272191328 -7.792703115e-20) 459
(0.04850162272 0.01857803121 3.252606517e-19) 446
(0.05857329445 0.06287334131 0) 507
(0.06721020583 0.04190001323 1.084202172e-19) 478
(0.0466828414 0.04746082716 2.168404345e-19) 486
(0.05222289265 0.03461510872 6.505213035e-19) 466
(0.05858798943 0.06659733045 0) 517
(0.04613013439 0.02743985262 2.168404345e-19) 466
(0.02261787139 0.04168564804 0) 482
(0.06816913208 0.05897392804 0) 498
(0.07597339273 0.09453373197 0) 549
(0.04216363894 0.02617788966 0) 465
(0.04331094718 0.1045069063 1.084202172e-19) 565
(0.07528343899 0.02378006016 2.168404345e-19) 449
(0.06882751796 0.1394168867 3.252606517e-19) 619
(0.07592394354 0.02758992524 0) 459
(0.06711470575 0.03268183262 0) 468
(-0.00146921879 0.01713235324 -3.252606517e-19) 59
(0.05050471797 0.02255958285 2.168404345e-19) 456
(0.06559710064 0.02396560117 -2.168404345e-19) 448
(0.0722997134 0.02558522275 0) 449
(0.01659368174 0.00459772715 2.168404345e-19) 442
(0.03466548424 0.01298311099 0) 444
(0.04742825838 0.07402402598 -3.794707604e-19) 526
(0.07318242436 0.02849063829 2.168404345e-19) 459
(0.03820967844 0.01411536282 -1.897353802e-19) 445
(0.07618737566 0.06528417442 -1.626303259e-19) 509
(0.06637451475 0.04713349646 0) 488
(0.0750816123 0.02577494866 -2.168404345e-19) 449
(0.03046966071 0.1012857216 -4.33680869e-19) 563
(0.04414501525 0.01185736385 0) 445
(0.0741953175 0.05661538404 0) 499
(0.06509449121 0.06688564341 2.168404345e-19) 508
(0.07287686766 0.08435089005 0) 539
(0.07083498749 0.02874457754 1.626303259e-19) 459
(0.008597571186 0.002653714849 0) 441
(0.05353612128 0.01668375894 -2.168404345e-19) 447
(0.05828098726 0.1103746533 -1.084202172e-19) 577
(0.003388148358 0.03048143639 0) 470
(0.06696111715 0.04531008178 2.168404345e-19) 478
(0.02914220551 0.009398872173 2.168404345e-19) 443
(0.07618393773 0.04363189378 3.252606517e-19) 479
(0.07589238694 0.0647342461 -5.421010862e-19) 509
(0.02551704111 0.03685637625 -1.084202172e-19) 483
(0.0751370271 0.02216814719 0) 449
(0.07608778065 0.09108706713 -4.33680869e-19) 549
(0.06576382974 0.09880066575 -9.402065715e-20) 558
(0.07206571018 0.1121681243 3.252606517e-19) 579
(0.07608130278 0.1383370185 0) 609
(0.05620053846 0.04003073691 -3.04931861e-20) 477
(0.06105634317 0.02296244023 0) 448
(0.04476912167 0.04759432741 -4.33680869e-19) 485
(0.07323992927 0.06464224827 5.421010862e-20) 509
(0.06829614989 0.04203824429 3.252606517e-19) 478
(0.02521436867 0.02917806049 -3.252606517e-19) 473
(0.06482861134 0.04878576927 -2.710505431e-20) 488
(0.06439953398 0.05851813819 0) 498
(0.04824129168 0.04548785865 -2.168404345e-19) 486
(0.0714271421 0.111421141 -1.084202172e-19) 579
(0.07165421474 0.1032161602 0) 559
(0.06789157278 0.1474157351 -1.084202172e-19) 628
(0.01476620262 0.02141719734 -2.168404345e-19) 461
(0.05459304492 0.04398709093 0) 487
(0.07119437276 0.02174313156 5.421010862e-20) 449
(0.07558402373 0.03700449952 -5.421010862e-20) 469
(0.04685439667 0.02593434527 7.453889936e-20) 456
(0.0617267725 0.05609427881 -5.421010862e-20) 498
(0.03716625058 0.02941028692 0) 464
(0.06311113498 0.07100649422 2.168404345e-19) 518
(0.07443497642 0.0464408019 2.168404345e-19) 479
(0.06924122484 0.09269136521 -2.168404345e-19) 549
(0.06247676909 0.1478411693 -2.710505431e-20) 628
(0.02235560751 0.03807758815 1.084202172e-19) 482
(0.03638382468 0.01188379934 -2.168404345e-19) 444
(0.04725038721 0.02540644449 2.168404345e-19) 456
(0.05084748655 0.01679264488 -2.710505431e-20) 446
(0.0317015706 0.02419898931 0) 464
(0.07300352862 0.04397061855 -1.490777987e-19) 479
(0.05723404052 0.0454042743 0) 487
(0.07375089711 0.1035800963 1.084202172e-19) 559
(0.05982952847 0.03540562592 2.168404345e-19) 467
(0.07369412648 0.02985014867 -2.710505431e-20) 459
(0.02509974519 0.0186512234 2.168404345e-19) 453
(0.03428291573 0.02145293594 3.252606517e-19) 454
(0.03603364425 0.02214101986 0) 454
(0.03718705952 0.03564725583 -2.168404345e-19) 474
(0.07438600465 0.05330885006 -2.168404345e-19) 489
(0.0761297405 0.05039730963 2.168404345e-19) 489
(0.04928379568 0.01453576886 1.897353802e-19) 446
(0.06154423895 0.03086388611 -2.168404345e-19) 468
(0.03459785843 0.01314750577 -2.710505431e-20) 444
(0.04668272347 0.02048110949 0) 456
(0.06380919881 0.05266339968 1.084202172e-19) 498
(0.04777609314 0.03404138258 0) 466
(0.07326877743 0.07229528791 -1.626303259e-19) 519
(0.06358165773 0.06183485627 1.084202172e-19) 508
(0.06213094747 0.05709319895 2.168404345e-19) 498
(0.05664358751 0.09320171236 -2.168404345e-19) 547
(0.06728467664 0.0367733536 0) 468
(0.06902154946 0.1285051911 2.168404345e-19) 599
(0.07245093323 0.04089526203 -2.168404345e-19) 479
(0.04474380777 0.01374193754 0) 445
(0.05094327881 0.05943913067 5.421010862e-20) 506
(0.04448185486 0.01660010803 2.168404345e-19) 445
(0.07177464994 0.02318012334 5.421010862e-20) 449
(0.06367905759 0.1051293471 0) 568
(0.05852906083 0.0282862375 1.084202172e-19) 457
(0.02689133144 0.01590645813 0) 453
(0.07140745224 0.0876901562 2.168404345e-19) 539
(0.07249998832 0.1313507379 -1.355252716e-20) 599
(0.0654412459 0.1168739499 0) 588
(0.04047413841 0.05416107001 4.33680869e-19) 495
(0.05315323939 0.0168801306 0) 446
(0.0251543906 0.01066337488 1.897353802e-19) 443
(0.06237552295 0.06575003764 2.710505431e-19) 508
(0.06269591801 0.03625801092 -2.168404345e-19) 468
(0.07076420938 0.02536125699 0) 449
(0.04889951951 0.02036336938 1.626303259e-19) 456
(0.06430978464 0.03105990123 0) 458
(0.0427922871 0.05215263738 -2.168404345e-19) 495
(0.03074732781 0.01088672947 0) 444
(0.06675937232 0.03944520131 -2.168404345e-19) 478
(-0.008330646025 0.04828982804 0) 138
(0.06842529657 0.02677815777 0) 458
(0.05262667822 0.01519266635 2.168404345e-19) 446
(0.05777985764 0.01913796398 -3.794707604e-19) 447
(0.06073774093 0.06614979779 0) 517
(0.06432723024 0.04490243424 -4.33680869e-19) 478
(0.07166131455 0.02456947682 0) 449
(0.05632930678 0.06038444392 0) 507
(0.06790990709 0.12818326 0) 598
(0.04979157671 0.1553050447 8.131516294e-20) 636
(0.009213450266 0.01481935803 -1.084202172e-19) 451
(0.04287882608 0.01285077977 0) 445
(0.02431927165 0.007952325641 2.913793339e-19) 443
(0.01712264576 0.01882261967 -3.252606517e-19) 452
(0.05590896121 0.03667615239 -2.168404345e-19) 477
(0.05363883711 0.05455925331 0) 497
(0.06424078789 0.02179578968 1.084202172e-19) 448
(0.06958420013 0.02802662663 -1.084202172e-19) 459
(0.06172419543 0.04033013444 0) 478
(0.05857557298 0.01655227226 2.168404345e-19) 447
(0.05683387688 0.0361634253 0) 467
(0.05359343189 0.03119928243 2.168404345e-19) 467
(0.06347048275 0.04386267283 1.084202172e-19) 478
(0.02122969241 0.1148449859 0) 582
(0.07492285724 0.03714476045 -5.421010862e-20) 469
(0.06362398259 0.1205183184 -1.084202172e-19) 588
(0.05393275893 0.02642195587 2.168404345e-19) 457
(0.02979290519 0.03009968612 0) 473
(0.07038041241 0.06265069806 -2.168404345e-19) 509
(0.03787270099 0.09129960849 -2.168404345e-19) 554
(0.04980989449 0.1006161379 -2.168404345e-19) 566
(0.03572343568 0.1518481738 0) 634
(0.06058969536 0.1322233629 -1.084202172e-19) 607
(0.06034331042 0.03856385087 2.168404345e-19) 477
(0.06010937728 0.02080648019 0) 447
(0.04033440841 0.02576162973 0) 465
(0.06774024827 0.03671899015 2.168404345e-19) 468
(0.04470172789 0.01409772486 1.084202172e-19) 445
(0.04614672657 0.03557354526 -1.084202172e-19) 476
(0.05808394068 0.02237420546 -3.252606517e-19) 447
(0.07278940789 0.06196973005 -2.168404345e-19) 509
(0.06722577619 0.1514831958 0) 628
(0.008641832463 0.01307410305 4.33680869e-19) 451
(0.07116460501 0.03586005594 1.355252716e-19) 469
(0.07260788996 0.03565031539 0) 469
(0.0691092448 0.0414915012 -1.084202172e-19) 479
(0.01472389852 0.04085709271 4.33680869e-19) 481
(0.07336232977 0.03982938504 2.168404345e-19) 469
(0.07532852572 0.05925291715 -2.168404345e-19) 499
(0.05968305375 0.05786928283 2.168404345e-19) 497
(0.03357752132 0.05519000279 -4.33680869e-19) 504
(0.04583229204 0.08583220454 0) 546
(0.06847216511 0.05220175398 0) 488
(0.07500352101 0.0436872066 0) 479
(0.0550793783 0.08068389536 1.355252716e-19) 537
(0.05854009606 0.1281980667 -2.168404345e-19) 597
(0.06524572997 0.1540560673 1.084202172e-19) 638
(0.06409579042 0.1182809645 3.252606517e-19) 588
(0.07539884489 0.1051773669 -4.33680869e-19) 569
(0.06921509231 0.1499898762 2.168404345e-19) 629
(0.06324317905 0.1456077534 1.084202172e-19) 628
(0.02560767136 0.02195109097 -1.084202172e-19) 463
(0.06084589818 0.03674099257 0) 467
(0.03545613207 0.02354642793 3.252606517e-19) 454
(0.04256514484 0.01423825693 -5.421010862e-20) 445
(0.0654814822 0.04401696577 -5.421010862e-20) 478
(0.03592294913 0.03691877382 1.084202172e-19) 474
(0.04580355274 0.01415778955 -2.168404345e-19) 446
(0.03130724039 0.01023540163 -1.084202172e-19) 444
(0.06946739731 0.03676242963 1.084202172e-19) 469
(0.06222995543 0.02183631635 -2.168404345e-19) 448
(0.05735079077 0.03176534465 -3.252606517e-19) 467
(0.03336945997 0.009144856772 -1.084202172e-19) 444
(0.06184361709 0.03533806944 4.33680869e-19) 468
(0.02171144628 0.01315399527 2.168404345e-19) 442
(0.05786465336 0.052384544 0) 497
(0.02799829794 0.03139379113 -2.168404345e-19) 473
(0.05130566371 0.02635536959 0) 456
(0.04949916098 0.09425955486 -2.744386749e-19) 556
(0.0570291653 0.01959324069 0) 447
(0.04730084539 0.02486015723 -4.33680869e-19) 456
(0.04237427606 0.03217585098 5.421010862e-20) 465
(0.06837563125 0.09412416916 4.33680869e-19) 548
(0.06499774344 0.07205888901 -2.710505431e-20) 518
(0.06652491057 0.08379148264 0) 538
(0.07210609692 0.1108973861 0) 579
(0.06640216888 0.1544229272 1.084202172e-19) 638
(0.0613111168 0.1344667525 1.084202172e-19) 608
(0.06008440858 0.1261094649 -1.503483481e-20) 597
(0.03646851066 0.1415521211 -2.168404345e-19) 624
(0.07239743772 0.02330390728 -2.981555974e-19) 449
(0.05419526032 0.04824494159 -2.168404345e-19) 487
(0.04101041289 0.02794678888 0) 465
(0.02300194071 0.03684236017 0) 483
(0.06781126116 0.03282864639 0) 468
(0.05203130764 0.01924168405 -4.33680869e-19) 446
(0.02241432078 0.02257976587 -2.168404345e-19) 462
(0.04489318887 0.06759937526 -6.505213035e-19) 515
(0.02208532672 0.008935200215 2.168404345e-19) 442
(0.05461238742 0.07570726748 -1.626303259e-19) 527
(0.07520031634 0.05240541076 0) 489
(0.05250629502 0.02389595024 3.252606517e-19) 456
(0.04028187027 0.08576013013 -1.626303259e-19) 545
(0.03417197609 0.03923578755 4.607859233e-19) 484
(0.05072907399 0.02298929552 2.168404345e-19) 456
(0.07453452403 0.04441736579 -1.626303259e-19) 479
(0.06266823172 0.03205976915 0) 468
(0.05490701961 0.03922435272 1.084202172e-19) 477
(0.0650656185 0.0374822448 -1.897353802e-19) 468
(0.06504135897 0.03841475437 2.710505431e-20) 468
(0.03720528299 0.09930437907 2.168404345e-19) 564
(0.04390064689 0.1313039278 0) 605
(0.07491366806 0.1020077286 2.168404345e-19) 559
(0.06442119389 0.1532417106 -4.065758147e-19) 638
(0.04138580379 0.1037194786 -2.168404345e-19) 565
(0.06853254936 0.09969778982 0) 558
(0.07502647344 0.09841911026 -2.168404345e-19) 559
(0.055273129 0.1255103023 -2.439454888e-19) 597
(0.07381073506 0.1330928498 0) 609
(0.06351637566 0.112400711 -3.252606517e-19) 578
(0.07335045444 0.1656624013 -1.084202172e-19) 649
(0.02944427309 0.04338310133 -2.168404345e-19) 483
(0.04269450823 0.01265094806 2.168404345e-19) 445
(0.06166581802 0.02253324155 0) 448
(0.06711084264 0.04190322065 1.626303259e-19) 478
(0.04652783206 0.01894148491 -3.388131789e-21) 446
(0.0267690664 0.03350997734 1.355252716e-20) 473
(0.02164640916 0.0292766538 4.33680869e-19) 472
(0.04024816223 0.02246707627 -1.084202172e-19) 455
(0.04745434542 0.02825519284 -2.168404345e-19) 466
(0.03971051687 0.01954334338 -4.472333962e-19) 455
(0.06598836678 0.03441293311 0) 468
(0.07483410985 0.02774468793 -2.168404345e-19) 459
(0.04064389422 0.01202029275 1.084202172e-19) 445
(0.06590196366 0.03184110134 0) 468
(0.05519991699 0.0983342055 6.505213035e-19) 557
(-0.01539858804 0.008541582472 0) 37
(0.06706844065 0.04234499165 -8.131516294e-20) 478
(0.06764697932 0.06001437833 2.168404345e-19) 498
(0.06339311696 0.07004701254 0) 518
(0.06456324527 0.1100340125 0) 578
(0.06104791195 0.0948170412 -2.710505431e-20) 558
(0.06006794281 0.08252173529 -1.084202172e-19) 537
(0.07363411161 0.05244319415 0) 489
(0.0534562631 0.1020516183 2.168404345e-19) 567
(0.06833726225 0.07389971817 0) 518
(0.05782568088 0.12079804 0) 587
(0.07445531936 0.1100824322 0) 569
(0.07171953663 0.09538838445 0) 549
(0.07411034657 0.09273532448 -5.421010862e-20) 549
(0.07187182744 0.07706973143 -5.421010862e-20) 529
(0.07344334732 0.09342522421 1.084202172e-19) 549
(0.06706703593 0.1355354786 -4.33680869e-19) 608
(0.06959461522 0.03588674432 0) 469
(0.03009258319 0.0152699734 0) 443
(0.07549190286 0.0593028288 2.168404345e-19) 499
(0.05664747093 0.03416172233 -2.168404345e-19) 467
(0.06408061299 0.03946481897 -1.084202172e-19) 478
(0.05276974806 0.03197526263 3.625301014e-19) 466
(0.06651585763 0.04322990359 -2.168404345e-19) 478
(0.05964551268 0.0238880343 0) 457
(0.06110722952 0.03185780753 1.084202172e-19) 468
(0.04964393297 0.01941781788 -1.355252716e-19) 446
(0.06133993517 0.03245272068 -3.252606517e-19) 468
(0.04768167886 0.04018911384 1.626303259e-19) 476
(0.02295653612 0.02714347577 -2.168404345e-19) 463
(0.01496279848 0.02143262238 3.252606517e-19) 461
(0.07193066116 0.03977655281 0) 469
(0.057345108 0.02817526056 -2.981555974e-19) 457
(0.06284531092 0.07857016448 -2.168404345e-19) 528
(0.05204414418 0.03546182175 0) 476
(0.07515486049 0.07706769394 0) 529
(0.03627543524 0.05840848944 -2.168404345e-19) 504
(0.07246856364 0.02250988045 1.084202172e-19) 449
(0.07000450635 0.101835309 2.710505431e-20) 559
(0.06739437072 0.1062453844 0) 568
(0.07239256432 0.09079738175 -6.505213035e-19) 549
(0.06349594458 0.08476463391 -5.421010862e-20) 538
(0.07494435629 0.1352146468 2.710505431e-20) 609
(0.05506595715 0.09356183 2.168404345e-19) 557
(0.0670904362 0.1201946769 4.912791094e-20) 588
(0.0713148481 0.162648182 0) 649
(0.04326022706 0.01867848043 0) 445
(0.07201237336 0.03251802905 -4.33680869e-19) 459
(0.06645360363 0.05193318356 -1.084202172e-19) 488
(0.03890179041 0.02566150888 2.168404345e-19) 465
(0.04600900532 0.01398613359 1.084202172e-19) 446
(0.05701924681 0.04173482993 1.084202172e-19) 477
(0.06397763286 0.01757817999 3.794707604e-19) 448
(0.03152811256 0.01137595555 0) 444
(0.04833677468 0.04898944687 5.421010862e-19) 496
(0.06174746479 0.1121166609 2.168404345e-19) 578
(0.0693861419 0.04136578197 0) 479
(0.07344627548 0.05452009761 2.168404345e-19) 489
(0.03662110965 0.02278716964 -2.168404345e-19) 454
(0.0497067607 0.02035857796 -4.065758147e-20) 446
(0.05766151605 0.03163702164 -1.084202172e-19) 467
(0.06043615765 0.02514767878 0) 457
(0.04893839917 0.04072591995 -2.168404345e-19) 476
(0.06661026132 0.04164210529 1.084202172e-19) 478
(0.07421512391 0.05480965668 2.168404345e-19) 489
(0.03433417082 0.02816039313 -3.388131789e-21) 464
(0.06771913766 0.04139931691 1.084202172e-19) 478
(0.06686257886 0.0511889569 -2.168404345e-19) 488
(0.05124015502 0.05976985784 -1.084202172e-19) 506
(0.06185825899 0.07263941525 -1.084202172e-19) 518
(0.0621931138 0.07252050176 2.439454888e-19) 518
(0.06603719514 0.02150692913 0) 448
(0.07583499827 0.08381670776 2.168404345e-19) 539
(0.07318345251 0.08061796648 0) 529
(0.05159431615 0.07334492058 -2.168404345e-19) 526
(0.06853536002 0.09738474931 2.168404345e-19) 558
(0.07575557347 0.07467703953 0) 519
(0.06692665329 0.1314116288 -4.33680869e-19) 608
(0.06882571086 0.1041091125 -1.084202172e-19) 569
(0.0372917993 0.08927344277 0) 544
(0.06928990352 0.1453360666 2.168404345e-19) 629
(0.06175644848 0.1430108523 -4.33680869e-19) 618
(0.05580021488 0.07921853862 -5.421010862e-19) 537
(0.07166065875 0.1252763544 -1.084202172e-19) 599
(0.03641999344 0.1381301568 2.168404345e-19) 614
(0.06636523658 0.1324575566 0) 608
(0.05931463837 0.1415168412 -2.168404345e-19) 617
(0.05848036741 0.1429642638 0) 617
(0.07451629893 0.1241128037 0) 589
(0.05656266835 0.0411535017 1.084202172e-19) 477
(0.01402161388 0.0164196123 -2.168404345e-19) 451
(0.06679801671 0.0287539678 2.168404345e-19) 458
(0.05837773492 0.03726744399 -2.168404345e-19) 477
(0.06609738048 0.02975352474 2.168404345e-19) 458
(0.03852012846 0.02228225801 0) 455
(0.05377636471 0.06024297147 0) 507
(0.03779023492 0.02096916779 -3.625301014e-19) 454
(0.07030847707 0.03958335217 2.168404345e-19) 469
(0.06931677753 0.08524065284 4.33680869e-19) 539
(0.07289935805 0.04669839968 1.084202172e-19) 479
(0.05126090469 0.03256161081 5.421010862e-19) 466
(0.06962500829 0.06233274045 0) 509
(0.03441075198 0.06296314758 -2.710505431e-19) 514
(0.04296839394 0.0164473914 0) 445
(0.04889389357 0.01504127487 0) 446
(0.0600521816 0.08290599858 0) 537
(0.06317849325 0.02766085446 -2.710505431e-20) 458
(0.06535134533 0.06292955893 1.626303259e-19) 508
(0.05920846841 0.1165763555 0) 587
(0.05705805198 0.0747006077 -1.490777987e-19) 527
(0.06560245526 0.1170185753 0) 588
(0.05172796392 0.08719497527 0) 546
(0.06392142608 0.07599004747 -5.421010862e-20) 528
(0.07443267717 0.1064485991 0) 569
(0.07020690428 0.08114661664 0) 529
(0.06131844507 0.1191810441 0) 588
(0.07415758688 0.107087902 1.897353802e-19) 569
(0.07467136906 0.0827319785 0) 529
(0.06211970227 0.1168599217 -4.33680869e-19) 588
(0.06782616994 0.102109515 4.33680869e-19) 558
(0.06183585285 0.1327685226 2.168404345e-19) 608
(0.01884285635 0.1454458769 1.490777987e-19) 632
(0.07278778985 0.1109734017 0) 579
(0.06730214285 0.1196777466 2.710505431e-19) 588
(0.06095600026 0.1296315355 -4.33680869e-19) 597
(0.03042720764 0.1507453999 -4.33680869e-19) 633
(0.07515955723 0.1528644299 0) 629
(0.06280459561 0.1385957875 0) 618
(0.07098094188 0.1519311261 4.33680869e-19) 629
(0.01302524628 0.01796919813 2.168404345e-19) 451
(0.0637883443 0.02857105581 0) 458
(0.03118147671 0.05864640653 2.168404345e-19) 504
(0.07389403299 0.02969346375 5.421010862e-20) 459
(0.05324572407 0.1523988091 0) 636
(0.0500560738 0.1143785876 6.505213035e-19) 586
(0.06043882386 0.02562792612 -2.168404345e-19) 457
(0.05688283117 0.01920404526 -3.659182332e-19) 447
(0.04831354504 0.05263547422 5.421010862e-20) 496
(0.03751832575 0.05500391287 -2.168404345e-19) 504
(0.04650006222 0.0243789921 1.084202172e-19) 456
(0.06629263659 0.06880093723 0) 518
(0.04111581358 0.01938342288 -1.626303259e-19) 455
(0.02400044664 0.009033491783 -1.084202172e-19) 443
(0.01554485763 0.01360462471 0) 452
(0.04602558169 0.04894468428 2.710505431e-19) 496
(0.06998950005 0.02398176023 2.168404345e-19) 449
(0.0413322504 0.01903401274 -1.084202172e-19) 455
(0.07522961767 0.04485696579 0) 479
(0.07057868091 0.09966763136 -1.084202172e-19) 559
(0.0676388757 0.02861376272 1.28749008e-19) 458
(0.05084430929 0.05185728642 1.084202172e-19) 496
(0.07295776525 0.0920284502 6.505213035e-19) 549
(0.05072909873 0.02747333063 1.084202172e-19) 456
(0.07445754446 0.08872992725 -6.505213035e-19) 539
(0.05188694892 0.04399476041 2.168404345e-19) 486
(0.0394641477 0.07945045433 2.981555974e-19) 535
(0.03182645694 0.05060337228 2.168404345e-19) 494
(0.06418529061 0.02608545903 -1.626303259e-19) 458
(0.07102814513 0.02781468925 1.084202172e-19) 459
(0.07000672765 0.07456366533 0) 519
(0.03685364201 0.08533901183 3.252606517e-19) 544
(0.07416063892 0.07620183952 4.33680869e-19) 529
(0.05781626301 0.03659045203 -5.421010862e-20) 467
(0.04343236815 0.1291903673 4.33680869e-19) 605
(0.06853518235 0.1349755399 -4.33680869e-19) 608
(0.04153648961 0.1419688223 5.421010862e-20) 625
(0.04353503862 0.1093139999 -2.168404345e-19) 575
(0.05375779765 0.1067526734 0) 567
(0.05887466113 0.1206465226 4.33680869e-19) 587
(0.05142615175 0.150866849 4.33680869e-19) 636
(0.05062247105 0.1087266561 0) 576
(0.06833063349 0.1564599962 4.33680869e-19) 638
(0.07304964466 0.1453130454 1.626303259e-19) 619
(0.05230670264 0.1409878151 -2.168404345e-19) 616
(0.06618756752 0.0469964774 2.168404345e-19) 488
(0.07405041464 0.06709901399 0) 509
(0.01629534045 0.02349675955 1.626303259e-19) 462
(0.05535749554 0.02232346003 -2.168404345e-19) 457
(0.02581137828 0.02557458458 2.439454888e-19) 463
(0.05617490659 0.03174541841 0) 467
(0.04047812101 0.01896190255 0) 455
(0.0709614868 0.05137919022 1.084202172e-19) 489
(0.0634686104 0.02815200791 -2.168404345e-19) 458
(0.0725626075 0.07083225856 1.084202172e-19) 519
(0.0521046918 0.01515694384 0) 446
(0.0405539127 0.02352009268 -2.168404345e-19) 455
(0.04228366701 0.02183534645 -5.421010862e-20) 455
(0.05615162966 0.03766217503 4.33680869e-19) 477
(0.02336540685 0.02080735861 -2.710505431e-20) 453
(0.06073107269 0.0280140578 0) 457
(0.05249493601 0.03973174033 2.168404345e-19) 476
(0.0726410596 0.04278078661 0) 479
(0.07268908883 0.05220883197 5.421010862e-20) 489
(0.07524170642 0.03063492344 6.437450399e-20) 459