/*--------------------------------*- C++ -*----------------------------------*\
| =========                 |                                                 |
| \\      /  F ield         | OpenFOAM: The Open Source CFD Toolbox           |
|  \\    /   O peration     | Version:  2406                                  |
|   \\  /    A nd           | Website:  www.openfoam.com                      |
|    \\/     M anipulation  |                                                 |
\*---------------------------------------------------------------------------*/
FoamFile
{
    version     2.0;
    format      ascii;
    arch        "LSB;label=32;scalar=64";
    class       vectorField;
    location    "0.011/lagrangian/dsmc";
    object      U;
}
// * * * * * * * * * * * * * * * * * * * * * * * * * * * * * * * * * * * * * //


6862
(
(1182.066427 641.8737565 -955.8847515)
(592.4770878 460.5819164 -192.5356778)
(357.0995899 1054.658374 185.4526058)
(-161.7290705 837.2435706 -351.5389853)
(-485.5111755 531.2147595 -1015.860004)
(441.8597791 1132.826588 -586.4108665)
(1003.132971 628.5694135 -775.0020555)
(1536.931641 1271.777449 -65.46482044)
(219.538083 643.9282966 -1408.417795)
(130.426197 -262.2301079 450.0054278)
(-234.5034033 245.0288956 15.3696083)
(-319.8066941 62.77720281 -108.5734847)
(252.7120556 135.0045365 532.012659)
(378.462401 955.9645361 -722.8194477)
(857.7503549 1458.133632 939.3967904)
(-378.6353526 -50.88252458 239.2835478)
(384.8755375 44.94370924 826.678826)
(-107.1243309 739.3897385 1284.724369)
(831.9729572 304.5404807 -119.0083068)
(-510.8674916 -38.63858788 -195.157181)
(392.0494944 453.6221375 373.393724)
(90.31987431 735.3328454 -426.9210048)
(1555.874134 215.7563393 -361.7867611)
(404.7912307 519.1186129 -73.39640753)
(996.8581995 449.8854945 -65.95078183)
(1036.27523 524.5476109 -160.0843154)
(1120.671954 706.2714413 -329.5328122)
(-343.6333726 46.31932538 -1020.785892)
(-472.5375868 -186.549488 -285.1497027)
(309.9084935 1226.750091 -402.0988396)
(1198.242602 459.1468163 -602.7902752)
(-105.3112327 488.8341019 335.9603327)
(565.249664 309.5581738 -610.8270566)
(710.7972868 18.53933129 40.59507003)
(-174.1913141 434.4238371 -674.785841)
(360.9220342 -20.91030277 -320.807012)
(187.3162444 443.2945581 -213.4116273)
(330.8244867 -178.1589759 -408.57088)
(1492.150117 -481.0749931 -1055.127591)
(1036.870592 2024.247069 -49.33167414)
(1092.939692 502.7282867 560.4827688)
(-376.5477068 307.8759453 -57.95556318)
(514.0109972 896.1862577 -384.8905908)
(-51.34828766 485.2564861 101.3037115)
(1991.869794 1073.48303 -907.6639471)
(-877.4421388 172.0000015 -482.8974229)
(234.8803318 824.5772233 -900.4230904)
(1205.406818 132.6897348 371.5720278)
(-80.97543369 -75.63418292 490.5355072)
(-984.0185404 856.7312098 207.5967483)
(498.2517464 -474.4627684 1191.000271)
(1281.199787 266.4605452 972.5916169)
(-165.2966884 283.0795142 479.7950998)
(1146.963217 670.5223677 -275.4368018)
(616.8734101 984.6606567 -907.4893812)
(652.8064802 449.4750287 -511.0104736)
(2072.072415 -8.481315285 571.6098436)
(1560.494303 373.4580466 -2.235888986)
(-220.7598225 308.9836186 436.999177)
(569.8510079 941.3116967 -757.4967757)
(422.8204578 509.9837478 117.7671452)
(1673.495619 763.2058838 554.2616925)
(573.3400527 1126.00679 114.2632583)
(582.817352 761.2276022 -8.353894825)
(1341.994465 763.0648585 -262.3990402)
(-65.35521631 74.84125242 -496.3692298)
(-285.676044 312.6398352 -238.1180744)
(1541.755637 -746.4093398 425.0528308)
(474.0918537 -302.0038898 429.8893796)
(49.64740399 470.4377052 124.9284986)
(863.3557515 -84.42254815 -1478.302613)
(163.8667501 581.9036451 640.1123265)
(-741.6675179 214.0588667 -397.9000001)
(-287.9444218 392.9199262 108.9725544)
(1379.420078 -750.2643987 -235.9934889)
(229.0201282 -158.130711 154.637151)
(1731.786939 21.29394847 184.808791)
(479.5762615 834.6188065 -123.5925261)
(639.6485506 155.1767528 413.5756104)
(-131.052621 48.95181641 -656.6697912)
(1217.359196 424.3904023 246.9052931)
(1191.248569 -21.8929119 -273.5894102)
(-740.3701036 369.4314452 736.8783909)
(194.7582845 242.1730976 -1188.175259)
(339.5816447 786.5848974 -629.3893654)
(568.1892335 478.9588496 206.7691435)
(752.4939814 691.9019513 -1222.464212)
(-185.1474401 391.2088439 -828.2182599)
(666.9768526 -441.2752321 -5.677074147)
(2201.30932 544.0508237 -480.2120738)
(-415.1693811 -599.5493609 -659.0209685)
(181.5370222 875.3969094 -620.2034977)
(22.60131615 33.89601957 -784.0137386)
(2282.700196 709.7629397 626.167571)
(173.4155384 880.8292473 549.8835255)
(222.7125286 651.1790339 -807.2890105)
(1540.172034 318.2540186 -321.6350586)
(1593.90301 -231.636487 42.96296752)
(989.8600687 -513.6067139 -60.28003406)
(204.8222841 473.7353636 126.4874478)
(839.3829613 -384.2090653 383.2774409)
(956.8707724 927.3322824 -479.440119)
(-123.2164932 -1008.448176 1213.703068)
(359.95728 425.9628487 855.8223465)
(-242.6911424 77.78133435 -357.1118156)
(1994.978222 106.5706942 94.00633781)
(339.6965855 444.3565039 -223.8635622)
(-142.1324685 884.1999654 -617.7389697)
(391.7390638 146.4314381 -780.0827673)
(775.5549535 -138.3876639 -375.7925253)
(939.3751471 -175.0925609 444.2240392)
(-160.6097907 688.8395572 528.7985873)
(532.6876561 206.7920801 447.2693966)
(1501.967599 -46.16854189 156.821987)
(-181.4219094 392.5888735 4.10356091)
(530.9563157 -28.79845121 233.0297312)
(1080.782551 -194.0735721 -253.8172755)
(-274.0983586 647.3594197 194.3920073)
(152.4680631 54.20197877 541.0650375)
(1127.567914 904.0804166 -67.78981638)
(734.3013898 311.4398902 -12.97336247)
(570.3704104 958.1529717 -88.60379499)
(1708.632722 276.5418195 -287.7151684)
(-68.54915984 370.5585215 467.86273)
(207.3391801 684.0581703 -753.9281689)
(734.1518154 -888.3318779 -33.75947183)
(895.9931642 1256.501746 -503.1950017)
(2223.253231 -103.085513 63.43074317)
(1146.402658 -486.8097085 433.4991828)
(85.03055528 517.6477961 1258.963335)
(47.07147006 131.9359332 -80.5735104)
(896.3310821 -625.7365708 80.82045321)
(1094.959079 1476.235475 -356.049396)
(-143.5893679 50.92572443 -585.6082833)
(-31.1705936 623.2556585 -520.1461471)
(750.4236674 996.5857363 65.93017888)
(1582.545991 -186.2099393 -209.0558027)
(-687.6058319 545.8681763 523.2262387)
(818.1591672 605.3964699 -527.4992392)
(13.13993565 378.6331719 -408.9472697)
(173.6021058 790.71144 -728.4067416)
(735.3995762 598.1937439 607.1016291)
(1468.661382 279.7172448 -543.4413029)
(789.289654 609.1933278 -110.8309471)
(1786.129308 264.6354275 -249.9350786)
(185.918204 419.2999384 479.7694511)
(459.4576489 142.4166553 312.9414767)
(1006.062124 770.0799101 709.2545947)
(440.5703872 -206.0190417 -164.4313095)
(1512.910842 704.5806163 -791.1577652)
(90.35063091 1184.379291 -123.9151219)
(1495.48964 646.4100996 1173.744856)
(1019.0704 66.51646321 -842.9647781)
(821.2473287 235.2669533 -830.2236495)
(481.3569268 457.6191386 51.05233234)
(380.980756 1052.12744 159.6548759)
(-131.7365419 779.1462296 378.090687)
(1293.056239 -607.1311689 220.0154721)
(1911.136808 272.9515606 231.1881591)
(766.1962071 315.2805645 -54.8468241)
(1857.235622 -199.3307794 44.80973625)
(521.0083673 -240.4702538 394.3429511)
(827.6089999 582.1716651 61.95626751)
(-250.2546768 352.3904127 94.93724224)
(778.7533869 165.992912 585.5582711)
(-202.9565537 555.3011619 -155.658961)
(1189.311557 390.9088337 1321.601637)
(1231.185583 -467.3068364 -154.7109154)
(1387.302114 -150.8311753 449.498515)
(26.32900166 263.0630198 -169.1837259)
(-52.392153 -27.79860032 882.8406935)
(557.7249133 310.6202811 -801.9141811)
(-418.8302447 865.89004 1044.539184)
(504.4368051 545.3908137 -206.8133177)
(559.6487407 981.8551068 -520.8982951)
(403.0108599 164.521016 430.4285538)
(237.1893939 816.9167308 -244.9766414)
(1370.383704 29.4074956 -101.7903379)
(-323.8288759 338.2818889 113.5996195)
(217.6081096 1040.306046 934.2079745)
(887.7250088 885.0381623 -153.2835208)
(413.9056244 -150.7063194 83.05313454)
(247.7641427 1365.318316 558.7097356)
(457.4157786 363.3566721 1.788039767)
(362.4981819 196.5623288 -1016.639834)
(692.0791678 -233.0502955 -106.3917848)
(449.5720905 1059.609524 625.2579204)
(758.4205837 139.0882622 -162.7268903)
(870.9438316 469.7647979 -445.1531341)
(170.6228569 950.8596359 716.5995568)
(1403.364605 1053.625839 -960.113383)
(-1110.679065 97.10931563 879.7791723)
(935.9960616 -437.2935018 -612.9258373)
(93.28938687 538.0562933 -559.2762907)
(1006.707988 746.8771097 -12.78545688)
(-421.720212 84.86814448 -148.5686104)
(2032.810998 -331.1875385 49.82428336)
(1590.325605 699.6074871 -234.9256068)
(2090.620582 -232.1241226 594.2813025)
(498.6362897 585.9145358 -287.6375392)
(1388.239849 -635.5206752 -339.2867961)
(-862.0512149 129.2160094 211.3512557)
(1005.21626 97.83648206 -970.5061994)
(569.9294712 244.2609038 114.9384548)
(-206.3970561 174.063937 403.3261291)
(204.4268165 726.6196737 -464.3218155)
(80.20667036 -336.2498439 -710.9523056)
(1252.946125 1579.747163 11.48605685)
(185.7670058 924.9335673 -141.2814594)
(198.4052194 96.31014072 -893.0540316)
(1216.707928 644.5065189 -116.4999132)
(1028.505092 455.0922395 355.1031359)
(-214.254205 -564.6660159 -196.448122)
(1696.493914 -237.9388757 -61.81946573)
(-481.3144248 297.8598776 332.5415496)
(2019.688 48.76856841 -584.0037453)
(1313.582361 472.6193602 -200.2906687)
(1784.623781 540.3377681 93.53869562)
(877.5455326 238.7479621 621.2443728)
(561.7015587 9.064569831 -170.3136442)
(-13.78924566 -251.9773831 117.9732622)
(144.4033848 -547.4553392 237.9527949)
(-151.3883228 932.7637562 -552.3920965)
(556.7646216 703.2192619 170.1424031)
(538.3552247 157.5425151 1302.009824)
(1443.111078 700.0855277 430.1918835)
(1723.271235 1233.14007 -547.3539268)
(2005.681862 1268.218527 292.6529552)
(573.6229146 -68.92577752 97.00519713)
(70.06974331 1140.445092 -540.5866961)
(1435.964324 -170.2770856 -89.72318441)
(1394.791028 109.0920452 217.7484347)
(1316.621178 295.8322222 103.6465543)
(241.6147086 301.4508574 323.1930451)
(526.9042626 177.166954 -903.4096342)
(1173.208409 142.6421673 5.523676417)
(503.8302981 574.1796527 -378.7554955)
(42.13858508 1434.087842 308.5788576)
(1540.592532 -210.3967531 -488.4991302)
(1130.216622 -68.10306676 -69.00296762)
(1598.580847 -73.5054333 102.3093498)
(1193.838006 -143.7625529 -480.9028123)
(1699.36224 -64.83774011 197.8726636)
(1603.625972 183.8518612 -478.0148467)
(1385.383828 1198.693657 763.4810638)
(-116.5186134 141.290685 891.9241745)
(1363.541053 946.5253815 -221.8750594)
(131.9047204 -80.93628024 -382.3772532)
(87.40262049 -500.7973064 -594.7301567)
(215.3606701 -2.953202886 1.277509471)
(64.85425354 743.6031815 253.6598628)
(676.9638623 1175.13502 -389.3198678)
(1649.956732 -236.9266833 65.82604803)
(1171.301767 145.7904942 227.8017238)
(1368.279166 81.26001976 -345.8091747)
(1451.052509 136.9066022 244.8089724)
(430.1739052 827.1376094 -1691.354868)
(908.727369 180.7856331 -544.4299022)
(-641.0626679 554.3934727 482.7535703)
(-431.375005 233.169629 207.2857397)
(857.3677505 548.0389577 251.5203543)
(741.0502234 1103.008472 -923.4888864)
(790.9605242 -222.6998997 -598.5447919)
(1391.636609 -276.8350662 739.6096179)
(96.95530511 98.09989202 593.0716086)
(1588.68442 -605.085128 -358.2354665)
(1843.952724 -469.1771438 134.6283971)
(119.9225335 918.9458084 129.3518443)
(416.595688 683.6669311 517.7294961)
(1031.931109 505.479111 835.4179505)
(991.5050874 597.8415719 -337.4167861)
(1638.24699 672.4725184 -15.89213053)
(684.1343498 102.6670246 665.6782354)
(1155.267767 -110.1103513 -5.474718498)
(1446.446906 -3.651591078 -590.7850648)
(635.4068869 425.8251097 -28.93800855)
(1028.083019 207.8922708 -767.0687485)
(178.3362184 -199.430946 567.7539233)
(780.7501297 1236.935387 428.2068772)
(1136.875573 165.764337 -233.11256)
(1167.908569 -211.0398167 -373.7074538)
(1276.15879 -510.6747196 -516.1918296)
(841.0544258 982.2102881 57.30417735)
(1286.744402 -79.09030776 -275.219321)
(1121.853082 1046.041978 801.0005078)
(889.5569685 1311.341401 -298.4498698)
(1319.671757 647.8440893 -94.85192146)
(1095.58517 -322.783805 -304.1160349)
(186.2377377 263.3204007 726.5175255)
(1191.987222 762.1870714 -231.422853)
(1259.37714 576.6846942 364.776892)
(1411.756966 327.5215511 365.3978831)
(1361.873588 282.1209716 33.11800537)
(1497.567571 14.26900097 -321.2375195)
(1235.94239 -484.660046 554.5225724)
(584.3854505 1066.505603 -471.39278)
(256.2175923 -151.2537733 35.67588801)
(762.0302621 502.3779934 -14.22386606)
(628.0441274 1499.718207 -53.6684011)
(997.158181 617.6856653 -214.483743)
(593.9844928 -345.2163177 298.9767819)
(1056.290888 235.4332413 380.224166)
(30.90496234 912.3274939 -718.1071197)
(421.76065 1720.268494 227.3427045)
(982.0684445 -303.3854607 -971.763933)
(569.5119866 -390.6518838 -501.809046)
(-228.5229259 28.67069737 -975.652972)
(900.4293989 1247.398092 -587.7554444)
(26.63885256 18.14057531 28.30593699)
(707.8104118 -620.9543031 108.9655793)
(1494.622602 -153.0905471 -250.9246655)
(872.937133 443.3237586 391.5760727)
(-49.40970083 288.8094839 193.8775737)
(1198.109395 763.9677671 21.478755)
(1238.237676 267.8073063 109.4492361)
(2067.036774 40.06826862 -105.8716308)
(-343.1370844 708.5563576 -61.39060907)
(1260.567804 590.810406 -426.1809816)
(415.568738 530.5794755 373.3979701)
(763.6286964 1214.220304 -354.1697094)
(1272.349321 849.0959468 101.6023259)
(1275.719985 268.8105474 -145.4840235)
(598.7820773 -50.63822468 -259.6839615)
(1178.477357 424.4538604 -507.4198108)
(1692.31227 422.2765563 275.8680451)
(125.0801928 1154.4359 -565.1751645)
(204.4923014 369.4646412 -357.2996589)
(324.3959804 324.5251644 -278.1552939)
(164.4390186 516.3984928 -928.0641819)
(1355.468163 -294.1654383 -435.489205)
(894.295134 624.7937622 -545.5494489)
(1259.98285 35.01215103 -1.563360823)
(1653.643127 230.6819771 -201.7974221)
(-43.88419005 896.6483417 -819.6474186)
(1762.89207 -500.7882524 235.9334756)
(1460.883833 -41.62476004 -599.0567229)
(1222.523895 337.0846016 -784.4842873)
(1218.045916 317.9138872 430.5774359)
(1391.767349 -161.5799554 -334.0712482)
(516.3872259 826.4003642 -219.1034247)
(166.7266207 712.8577811 -183.5655522)
(1372.06243 328.2445545 502.0941104)
(1587.293496 445.9516176 -253.0598162)
(-330.2565983 -113.0378623 483.252074)
(912.7965444 375.5301101 -564.9247285)
(468.041356 15.79031207 825.8131866)
(1200.800809 998.794102 -799.7458954)
(1674.876408 316.290905 398.6120565)
(766.4856862 846.5987977 -823.6991887)
(631.0813193 202.8717523 1029.419407)
(925.1817058 1018.923891 -456.2412594)
(1980.280645 159.6579118 394.7199653)
(121.7476206 737.6610688 -59.02301262)
(908.9061994 -563.0040695 310.512579)
(766.3854534 -121.6817217 -346.71555)
(1462.308847 828.1324991 405.8945361)
(1242.86522 -99.94712453 905.7101388)
(900.6673598 558.0945276 322.1122596)
(534.6837753 450.7036924 -362.0176427)
(1264.785878 214.437041 -556.223653)
(1857.056139 -295.6652676 -19.63703457)
(1773.19425 127.1773828 44.33516146)
(1644.32334 -47.5954415 -78.65079108)
(1278.214678 -243.5354704 -75.76555594)
(1884.286889 -123.2343795 283.127162)
(920.3671183 36.65792757 1039.942739)
(2029.715053 -33.46085025 -112.8425987)
(57.93442695 384.1348057 -41.07832603)
(13.55543773 30.69170335 -681.6117898)
(1480.935448 977.560961 591.951285)
(-356.8721662 362.3046421 85.13754583)
(191.3451013 -362.9360412 -218.7395674)
(818.3517456 1013.27349 191.5168677)
(396.9779152 213.7892976 645.6464432)
(-2.55806737 -388.9737711 464.6723683)
(1128.215431 303.9561361 -530.4085398)
(269.2796094 281.4506625 53.44901566)
(1633.727503 539.2495688 771.5578078)
(743.3006262 85.76835517 407.4657562)
(787.300788 368.4260744 113.4780095)
(-215.4468311 -155.7640658 -504.3937432)
(2192.508409 63.45210958 -69.3868951)
(1325.419826 -1130.878158 -412.234535)
(1506.382559 638.4885107 -763.2124232)
(1585.464985 552.4690485 263.4095779)
(-297.6886044 -30.62102818 381.8734291)
(-100.7747533 -587.5248911 -1299.221653)
(930.5430063 -377.6505539 434.5312401)
(1874.474624 33.47454237 -356.8347218)
(1135.676212 -209.9471972 87.33281955)
(779.8754908 533.5303101 -55.10496732)
(1483.451618 -187.8262044 83.02312405)
(1531.718349 557.5313133 51.52383112)
(1489.795334 193.9458416 -11.96628685)
(1396.117794 49.13803686 -471.7333682)
(1299.078527 328.9687112 41.95023648)
(971.3354733 -527.3835791 122.8787512)
(1267.036477 1005.748633 -906.2687209)
(546.3771387 996.5219108 -303.2565743)
(1271.673534 861.4493002 424.9124911)
(356.5090408 159.5544224 884.9211368)
(181.2348516 1119.531046 -578.0225526)
(218.1442505 714.6509573 -473.236042)
(1046.272509 291.5531531 -49.04454749)
(1019.561954 -212.5511522 -245.0823004)
(1227.587646 931.2265873 -602.0768866)
(912.8989068 -160.2573626 -316.9805546)
(1295.48318 511.2520298 550.9769589)
(285.0402151 1239.288285 -686.1094227)
(1167.702334 -108.6132486 391.3790353)
(146.5485447 933.982665 -945.9154506)
(1076.135782 885.8732216 461.7100207)
(1572.927815 480.4859769 535.3397911)
(1156.678062 29.23995352 -185.9277111)
(279.9796944 981.3049891 -353.8082909)
(886.8929896 955.4330698 -1151.043183)
(1436.056517 62.31754606 -33.96497467)
(1623.897576 96.57504117 -217.3752878)
(1922.528904 24.74294221 -138.6392763)
(1477.401693 455.7750102 283.4563139)
(1222.613894 304.7643749 365.3240588)
(1513.373626 -57.74600273 -259.3785403)
(2180.913529 -388.3603068 -57.45808081)
(1325.498856 184.1037678 122.8673621)
(1872.060949 -114.6157076 -359.9296624)
(1488.303135 -16.30955799 -119.0828317)
(1626.506153 533.198666 216.8651181)
(410.8964351 749.4405766 -89.52764748)
(351.7692832 -476.2288695 -427.383797)
(-279.8914994 627.4360452 -308.5323965)
(407.6529496 1016.856974 -997.3324326)
(1444.690058 124.9966753 -47.22190167)
(1393.157145 793.787663 -85.2312225)
(641.6420602 1111.885972 1187.637933)
(1471.000751 198.4950428 212.1479664)
(873.6963222 540.9959264 1117.331536)
(833.057632 815.0621066 616.4292209)
(1118.240225 -248.1991859 599.2928183)
(1385.781501 -35.1416048 -731.1004317)
(-128.5946276 -68.50756904 89.70133003)
(703.5731622 26.716026 998.9580117)
(740.7342389 1029.839815 350.3824909)
(-415.5594561 -139.6665503 -339.2368298)
(1011.953942 1002.467254 -684.6362702)
(221.5071587 346.0280581 -114.7488268)
(1773.627983 380.7421689 -374.9101053)
(1973.627676 129.01927 68.10854179)
(238.4465972 218.3815059 886.5266003)
(1074.953536 414.4015136 287.834293)
(1012.350444 1368.577671 -515.9061906)
(1562.818968 557.297742 83.46645914)
(1866.180535 -267.8182868 340.8137356)
(1695.818565 352.8010058 419.2555295)
(1818.863074 48.03971038 -162.5577604)
(1634.672491 216.4790937 190.6857749)
(1471.278582 -297.9459952 -96.16433581)
(1924.228524 -143.9686295 -131.2179281)
(895.8331015 1343.59785 -13.66096068)
(1633.372915 67.18488297 180.0059633)
(1635.105317 -779.1746676 2.425620408)
(155.2334116 -84.31438783 -12.75981592)
(1914.106808 1299.040924 -88.64059789)
(1385.610551 -766.9302571 -149.7224954)
(1027.324515 229.3434794 -809.3387606)
(814.7534502 -328.226182 -130.6508568)
(1471.359205 -676.1154886 637.8254089)
(1573.722959 -4.564851422 569.7306801)
(409.0794988 -712.1434751 -340.572648)
(948.3968234 -377.6148557 -667.9563333)
(1515.487673 -528.625441 -186.3070305)
(807.9496055 242.0837655 615.9559681)
(-103.3891022 106.0366215 -573.8680907)
(229.0121422 274.141793 1027.251735)
(556.676714 -587.0315274 373.9379252)
(134.0981752 -53.70521077 -1550.655564)
(778.0140247 -327.3231466 4.642150573)
(1622.843649 -183.8034225 -205.1079172)
(1462.57751 -21.11375467 211.2204222)
(1495.798728 -488.918566 140.9757853)
(37.69609023 -504.6841524 752.5712855)
(1387.716252 715.1202807 -237.6834916)
(1404.400718 88.3276921 -538.1356556)
(1868.25685 -16.98591422 -194.4491426)
(1003.282278 505.2505642 305.8380573)
(1337.033362 -167.6437043 46.95270365)
(1635.473072 -462.1345904 -7.291324666)
(1186.254457 -1.657587276 359.3500908)
(1621.587471 -100.8458998 -32.07877808)
(706.2038007 -838.9158202 -818.4943755)
(1513.995991 228.7011539 149.9921757)
(841.1801504 -70.56978347 1304.540685)
(870.4801549 250.1915938 -1021.793236)
(253.7502757 -41.99564654 494.2409391)
(1442.280007 1058.473085 404.3678446)
(466.931478 506.7219116 -119.9988213)
(648.8215881 -960.9878707 694.7107933)
(914.098775 376.4442219 -750.7279023)
(1475.863783 1404.531416 368.629058)
(269.8236456 580.392935 359.8960017)
(-235.5338329 291.0597501 43.0333524)
(1265.632261 457.9140185 537.4562818)
(532.4217349 562.7163472 141.5826426)
(2105.280125 -78.00976732 -28.87939875)
(644.0204796 235.4676657 -490.9414626)
(512.9502772 1113.354347 998.3565825)
(852.4694761 554.91506 -177.3453486)
(1411.785018 1050.013851 277.032759)
(-393.3090032 582.659411 -249.3996014)
(880.6374571 76.24688317 -376.9851927)
(100.1585443 1191.672005 25.10170622)
(1652.787244 -101.1600718 111.903995)
(1204.566226 682.9277292 130.7657037)
(2221.697796 -283.5487442 55.79518467)
(1571.260741 243.083059 284.4521484)
(1899.983333 58.25513102 596.8637643)
(1732.502175 -18.09251119 -266.9079322)
(748.3706842 194.0308345 -5.974848764)
(1120.411838 75.55173306 -44.2216037)
(854.7012665 -95.64368821 68.84987772)
(1322.102178 404.5096794 620.5209102)
(1354.790717 160.2621131 180.3290876)
(1725.395557 -390.8104093 56.61422804)
(1560.687777 802.5855216 -483.2264151)
(550.4971423 384.5528471 -84.09828139)
(1441.792113 -177.6155498 558.0336245)
(2158.676258 -209.5276819 -99.83477185)
(1862.606262 366.1773786 758.5112464)
(1402.425095 638.7857671 -354.2995051)
(1501.475581 -4.441775681 -184.0893203)
(974.5081514 179.7684171 -191.0750451)
(1413.043041 -284.4768455 160.0234953)
(1033.22292 -212.2454939 335.4239407)
(616.8027294 179.1901126 -478.2864464)
(1769.200054 463.2465363 -225.8976451)
(614.6644165 243.0707036 995.8661939)
(1145.837572 409.7790636 -702.457186)
(661.4808779 -443.0076019 -452.3425065)
(1355.207284 213.8002998 199.8642388)
(-130.9624053 25.54174365 -270.4063635)
(1046.823271 -43.69913333 -760.5419618)
(2057.802821 102.9801021 108.562258)
(1620.785603 266.840397 155.9589351)
(1719.6086 -100.5700591 81.83093382)
(1052.968769 376.4710949 107.6450488)
(1050.453676 863.2315705 252.1206221)
(1947.707554 249.3265877 -436.0305732)
(573.5965797 0.1095288077 -68.98015959)
(1750.802748 10.88344715 -224.167553)
(1362.912787 -657.5313423 892.1106902)
(1483.25046 280.8515558 83.30709967)
(1658.930026 -7.299861167 -465.4091051)
(1418.539133 -49.83897559 -357.4022155)
(2181.147244 -371.4757639 65.82738674)
(670.1855798 49.08653364 -505.4415946)
(2043.35336 -193.7849406 -28.16462452)
(1558.208206 -262.573361 -35.19286609)
(1948.438175 -47.3959025 -239.4116461)
(1940.607505 -344.7049691 -133.5914237)
(1706.502361 135.436212 652.8734557)
(1763.256719 -97.29179915 249.5256033)
(2190.202174 420.3258106 118.9240987)
(1769.591455 144.4615791 -214.500518)
(1858.474998 121.7820055 221.9406527)
(947.9998165 56.00359365 154.6292145)
(2433.19254 -368.9801492 263.9726039)
(1521.486828 -198.7266498 -65.26426764)
(1613.874712 286.5353246 427.8718746)
(1555.932852 13.02188842 109.0180214)
(1670.473774 138.0407914 -414.5252176)
(1750.654625 -9.358977116 206.7201451)
(1355.934568 209.8064014 -173.5524306)
(855.6373993 213.55872 -934.3299519)
(207.4771931 706.5258217 374.6993754)
(590.661757 459.171284 737.6760869)
(1258.972635 373.508868 -674.8424938)
(1370.204503 51.37852549 676.4632161)
(1213.487903 -538.2617955 -120.9730889)
(1011.550394 122.6664626 -994.5506902)
(914.11554 -134.2980181 85.32367139)
(823.6692089 154.4532814 1253.778212)
(976.4327011 210.2006272 -376.9380382)
(1114.09277 -358.4425603 -510.4307038)
(715.5046148 737.9731454 -372.9635679)
(725.430692 -248.0159283 -20.81926266)
(419.9253876 -1.77657756 -149.1993021)
(423.9769291 415.6400613 1051.579117)
(1437.907103 448.0831659 -281.0482703)
(440.3484913 424.2406069 -375.9156505)
(135.3869875 686.6879745 -394.5802045)
(872.6321788 678.1085025 -311.7077591)
(1413.687509 136.8405725 201.9643943)
(950.8858325 169.6370108 1255.651687)
(1604.719343 166.7789976 -354.1410823)
(2077.583546 24.34638579 -450.7110585)
(-338.5862181 763.2649668 -636.8922991)
(1944.436909 -81.94183442 -42.72749098)
(517.3615612 1080.839218 110.2195928)
(1157.82103 502.466768 73.00977366)
(1119.876922 -212.3002587 -306.817275)
(1842.38919 18.50619173 -83.90106318)
(1640.499511 -659.0262062 -286.8314956)
(1085.437629 -441.4376549 428.1978202)
(1490.436435 264.6894144 -33.92166944)
(730.4970741 111.2245908 -322.5772746)
(1414.060678 -115.4852913 -713.08976)
(1230.435085 226.5400115 -211.3606543)
(1404.460087 -377.6177636 434.6896644)
(1527.553264 -57.39511949 -223.4301504)
(1245.05648 98.79899808 -126.7306941)
(1448.48333 -280.8604582 -7.053894821)
(1372.602315 -70.04308038 155.0398401)
(1500.629162 115.2657954 32.828184)
(1530.467266 -40.09648606 -254.5561181)
(1441.858443 549.9284824 63.09497855)
(1462.754762 -209.8920443 -82.28305855)
(1700.761268 46.870564 -61.79605928)
(-485.4010041 462.4622868 -383.9465153)
(1001.557369 969.6898389 -662.5470832)
(-15.05627267 69.19336885 11.76494629)
(368.8036877 428.7610546 -478.3542939)
(1386.667464 137.0338215 511.756538)
(423.1474772 974.3310478 -275.2300296)
(364.4937289 480.0350298 348.6335542)
(1061.213275 950.5368886 -349.9076675)
(447.7858274 780.0113416 87.70810701)
(1959.06611 848.435642 -540.6694515)
(1680.317048 388.0194144 -663.0775862)
(-313.636019 231.075086 454.7475339)
(133.6406648 374.7376946 -645.9005233)
(781.4227247 703.9146842 -192.2285319)
(29.19196089 -414.6833708 423.7448488)
(1135.863295 -507.9349163 719.1516861)
(809.4091534 118.7788229 454.6014616)
(806.5748374 605.6478626 512.4729003)
(1038.918491 -320.5190549 519.4516573)
(376.6970391 245.4039858 -286.7734378)
(1663.285509 -727.0160936 170.1682581)
(1835.685444 907.6286076 709.8498706)
(1623.126485 363.449833 -22.18371459)
(1177.660482 11.29700512 -501.8827544)
(1932.053345 -225.9312861 -201.7773537)
(961.5492695 -8.749346434 174.6171499)
(1359.607682 -373.9566145 -396.805814)
(1568.097468 -45.30915019 -418.2566579)
(1746.012246 185.2270899 -448.8196152)
(1622.04039 -243.7837473 167.790525)
(1247.910575 -496.5164823 99.08940017)
(1618.590173 -210.2459419 343.7421607)
(1429.527909 -34.20114701 -219.983568)
(1830.568238 377.7944548 -107.0572192)
(1625.780503 -71.60809642 295.448966)
(1250.728189 46.85155746 1212.017403)
(1753.218906 -313.6026227 3.426356761)
(1766.209966 342.347344 181.6791684)
(2593.051668 698.8257848 -408.296232)
(1729.027899 -153.2627943 -287.0178548)
(1941.379463 -464.1411395 279.4441335)
(1290.106922 41.85878752 133.013646)
(1679.545243 -307.9091313 -107.2146233)
(78.84892803 -119.45673 588.8853167)
(430.03471 -244.4244822 -588.4247529)
(578.8365519 494.9619248 840.4059699)
(1531.451363 568.2006908 337.3301011)
(298.5163248 547.8503303 -695.8433975)
(747.8140382 536.8465605 643.2532296)
(1006.504465 158.2217248 -1072.385884)
(-186.3530296 577.7700999 47.38137224)
(2064.948444 1302.563786 -900.4664936)
(1555.725012 250.9496173 71.64771282)
(1574.348583 288.6374189 6.053070356)
(1670.360862 255.5212737 111.678978)
(-469.184794 768.3516609 -753.6725086)
(486.3559951 155.691372 -34.90875734)
(1075.422391 -5.140991307 417.6589447)
(1430.473573 -263.2069989 61.06855768)
(2194.38569 275.19402 539.611036)
(1650.230169 222.0170569 -393.1884244)
(860.8773442 -124.3538085 531.3794211)
(1687.995136 473.1207086 347.6770893)
(83.40550385 745.353223 380.3161137)
(1642.248831 -225.4222248 167.6593083)
(535.5072476 1644.26969 235.2079874)
(1548.286686 341.3701403 -47.89764391)
(1525.003763 265.1046714 204.4642945)
(1683.079553 173.955869 648.5948127)
(1146.089423 257.2132448 541.4543767)
(1178.976103 182.9942046 1048.593432)
(1495.515747 -60.09767107 -170.364981)
(1978.962675 -610.2577138 79.52302182)
(1744.409207 -546.469865 11.36322125)
(1642.890001 -72.65860266 -134.3587394)
(1656.547345 -699.8907443 29.24553135)
(1852.933858 62.47376396 -25.23609175)
(1490.542793 -330.536114 -267.014427)
(1590.009534 320.1748642 -79.52457366)
(1483.779879 224.9347111 100.9389242)
(2124.038657 -425.7527577 -278.2317074)
(1545.554215 240.12274 -378.9980109)
(1918.605446 -313.6854697 -189.5059949)
(1940.875022 -216.5036053 -519.151609)
(1870.472325 101.6360159 -308.8009796)
(1755.9994 198.6384138 509.9100437)
(1469.038628 -40.6897056 -234.6422267)
(1263.47388 60.67540113 -462.2127252)
(-309.5241409 310.9461052 -146.0527117)
(-31.98490457 250.9107196 179.0518795)
(742.1464156 -198.4320401 149.7126961)
(1554.941084 221.52486 -99.96694202)
(1329.365317 -118.6652722 395.8329247)
(-87.77886691 -78.35306268 220.4595149)
(1595.002117 241.865162 -371.2304883)
(544.9853366 1154.575325 -490.715082)
(1128.97948 715.1250813 -523.1301463)
(304.4772427 -5.197743141 957.7774902)
(1421.883983 -418.3295579 -539.9702506)
(-728.6437505 494.0231514 521.0861698)
(737.6505879 1167.94056 716.6807263)
(952.1431387 -25.14122224 -258.3266267)
(1681.177416 430.9274389 57.2945887)
(1039.004523 -117.5089849 -322.4463079)
(2025.34346 327.935741 -787.8263364)
(1804.551206 293.1969006 315.198871)
(2208.959497 -35.14476006 15.62798254)
(1888.732192 279.8152574 242.5629736)
(1296.989449 937.2252693 134.1275204)
(2075.819258 266.6756233 -253.4449485)
(1066.54113 191.2585774 759.6788513)
(961.7725156 856.3499917 -171.4730832)
(1571.762897 168.2999543 -157.1019485)
(1407.686761 -358.6865592 657.6663597)
(1572.638254 -78.93604002 140.4627265)
(1518.100352 -138.7625921 135.8868887)
(165.1037498 651.5296628 -141.8163963)
(1499.341849 401.6870818 432.8161507)
(1920.182894 -137.1027284 195.977389)
(1790.457321 -441.2228139 -824.3400704)
(1572.128466 -346.2540451 -99.79433358)
(547.2964451 206.8812272 -128.0658108)
(1512.794577 285.8946889 -1498.230447)
(2034.777664 -145.2538186 -247.6106659)
(1788.398109 303.4826142 726.2508605)
(1354.995733 24.75835131 242.0955422)
(522.5778094 400.4209938 386.0172954)
(2132.203056 315.7227481 -46.90056439)
(2058.997801 -375.673206 97.67786257)
(1523.483794 -115.0573544 68.12149397)
(1313.096534 463.9273498 -87.71470172)
(1875.369421 -57.59130781 439.7175251)
(1820.302683 141.4360796 492.696304)
(1848.890121 262.6428637 -258.3028261)
(1593.932518 173.7690632 -499.9175995)
(1551.652873 -69.08970019 -260.1517391)
(1428.245858 41.11119366 63.59864663)
(1413.089665 -275.3835133 509.9992505)
(1577.208455 -100.8226801 733.1827599)