/*--------------------------------*- C++ -*----------------------------------*\
| =========                 |                                                 |
| \\      /  F ield         | OpenFOAM: The Open Source CFD Toolbox           |
|  \\    /   O peration     | Version:  2406                                  |
|   \\  /    A nd           | Website:  www.openfoam.com                      |
|    \\/     M anipulation  |                                                 |
\*---------------------------------------------------------------------------*/
FoamFile
{
    version     2.0;
    format      ascii;
    arch        "LSB;label=32;scalar=64";
    class       Cloud<dsmcParcel>;
    location    "0.004/lagrangian/dsmc";
    object      coordinates;
}
// * * * * * * * * * * * * * * * * * * * * * * * * * * * * * * * * * * * * * //

6926
(
(0.5105867594 0.2447066203 0.01438392822 0.2303226921) 466 892 1
(0.2627142296 0.07416364146 0.2944792438 0.3686428852) 458 895 1
(0.0671919231 0.2156684825 0.250735556 0.4664040385) 488 952 1
(0.1808493706 0.4095753147 0.2033498237 0.206225491) 458 896 1
(0.2895569591 0.3552215204 0.299395158 0.05582636242) 468 914 2
(0.2962795113 0.0004276208996 0.3518602443 0.3514326234) 447 872 1
(0.3252902206 0.1639169623 0.1734379274 0.3373548897) 518 991 2
(0.1551498725 0.4224250638 0.2268965409 0.1955285228) 485 946 2
(0.5782377241 0.1554273075 0.2108811379 0.05545383045) 478 931 1
(0.1498014926 0.142645739 0.2824535147 0.4250992537) 481 920 2
(0.2575398739 0.371230063 0.1552420366 0.2159880265) 485 928 1
(0.7311029904 0.03079379707 0.1036547077 0.1344485048) 445 870 1
(0.01169906758 0.461129268 0.03302119821 0.4941504662) 446 872 1
(0.5115646166 0.07330104725 0.2442176917 0.1709166444) 519 1009 1
(0.4246730263 0.2876634869 0.2425034851 0.04516000176) 458 893 2
(0.2496113675 0.06596110886 0.3751943163 0.3092332074) 458 893 1
(0.382912226 0.2881561599 0.02038772711 0.308543887) 447 1305 1
(0.3876205392 0.1718966423 0.1342930881 0.3061897304) 457 875 2
(0.09126272221 0.3113680962 0.4543686389 0.1430005427) 445 868 1
(0.3644255489 0.1509376309 0.1668495946 0.3177872255) 562 1092 1
(0.02597030839 0.4870148458 0.4593584432 0.02765640265) 458 893 2
(0.4867432017 0.06998933505 0.2566283992 0.1866390641) 560 519 1
(0.2751024488 0.09727794664 0.3624487756 0.2651708289) 478 931 1
(0.7627964073 0.04668002203 0.1186017964 0.07192177432) 479 935 2
(0.2765296829 0.005723831834 0.3560113267 0.3617351585) 486 930 2
(0.7232378121 0.05303995267 0.08534114127 0.1383810939) 499 954 2
(0.3317810068 0.1758372388 0.3341094966 0.1582722578) 447 872 1
(0.5054396691 0.2472801654 0.08017360057 0.1671065649) 463 886 1
(0.2892141111 0.03385647883 0.3553929444 0.3215364656) 449 878 2
(0.8484932355 0.07575338226 0.01259730042 0.06315608184) 445 870 2
(0.01951688129 0.2826515897 0.2075899696 0.4902415594) 478 933 1
(0.1109646236 0.4445176882 0.02368694792 0.4208307403) 456 892 1
(0.4616485487 0.2691757257 0.03285434744 0.2363213782) 487 932 1
(0.581831138 0.07806150893 0.209084431 0.1310229221) 449 876 1
(0.6255614255 0.1872192873 0.000715914943 0.1865033723) 509 992 1
(0.3552034885 0.01531898903 0.3223982558 0.3070792667) 476 930 2
(0.08309293699 0.4584535315 0.4223358331 0.0361176984) 446 873 1
(0.4110391401 0.29448043 0.1648760477 0.1296043822) 649 2662 1
(0.5876132724 0.2030813385 0.2061933638 0.003112025289) 534 1037 1
(0.07640308996 0.2426280979 0.461798455 0.2191703571) 467 913 2
(0.0102879353 0.07643411118 0.4184219212 0.4948560323) 477 913 2
(0.7057520093 0.1471239954 0.01925186709 0.1278721283) 481 938 2
(0.1490592786 0.4254703607 0.2756152433 0.1498551173) 498 953 1
(0.1235573737 0.06916855384 0.4382213132 0.3690527593) 459 895 1
(0.6416331698 0.0702919415 0.1791834151 0.1088914736) 445 871 2
(0.3426401057 0.08101760812 0.247662339 0.3286799471) 447 1305 1
(0.328437715 0.3357811425 0.1139134456 0.2218676969) 459 878 1
(0.1579144146 0.4210427927 0.1589398963 0.2621028964) 449 2616 2
(0.3594585792 0.3202707104 0.01680107954 0.3034696309) 475 927 2
(0.2667717156 0.2950071535 0.07160698868 0.3666141422) 444 868 1
(0.03294971877 0.4835251406 0.006486247401 0.4770388932) 486 948 2
(0.04215772365 0.4789211382 0.4303838572 0.04853728099) 517 1007 2
(0.1306609505 0.09882486089 0.4346695247 0.3358446638) 484 945 2
(0.08349721192 0.458251394 0.1139320812 0.3443193128) 477 931 2
(0.2146352129 0.3926823936 0.2322554159 0.1604269777) 469 914 2
(0.3485406282 0.3257296859 0.08236955755 0.2433601284) 479 935 1
(0.1960782218 0.4019608891 0.103333515 0.2986273741) 449 878 1
(0.3876009204 0.1585828079 0.3061995398 0.1476167319) 466 908 1
(0.8999943198 0.05000284008 0.02947879279 0.02052404729) 463 904 2
(0.07707530138 0.4614623493 0.08548016144 0.3759821879) 447 874 2
(0.9596093886 0.0133234402 0.0201953057 0.006871865502) 464 907 2
(0.05639538035 0.4718023098 0.2003354458 0.2714668641) 446 873 1
(0.614008013 0.1929959935 0.07370175344 0.1192942401) 518 1007 2
(0.6768633095 0.09511731533 0.1615683452 0.06645102991) 454 888 2
(0.3014637844 0.3492681078 0.2334663736 0.1158017342) 528 1029 1
(0.04449179679 0.4777541016 0.1420928693 0.3356612323) 449 1307 2
(0.2146069935 0.3926965032 0.01086381148 0.3818326918) 518 1007 2
(0.08053765384 0.4395858375 0.0201453356 0.4597311731) 459 2617 1
(0.345234523 0.07752853599 0.2498542025 0.3273827385) 456 891 1
(0.08514380679 0.2104133551 0.2470147415 0.4574280966) 447 1305 1
(0.2121810506 0.3939094747 0.2181416279 0.1757678468) 519 1011 1
(0.3614138862 0.3192930569 0.2411613549 0.07813170196) 447 874 2
(0.1978915466 0.2737422153 0.4010542267 0.1273120114) 487 948 1
(0.3686255922 0.3156872039 0.01194422881 0.3037429751) 477 913 1
(0.1545349289 0.4227325356 0.4217751706 0.0009573649907) 466 911 1
(0.1932570225 0.4033714887 0.3247504135 0.07862107527) 447 874 2
(0.7246379272 0.1376810364 0.07240609934 0.06527493708) 484 942 2
(0.4631701505 0.1226247531 0.2684149248 0.1457901716) 536 1044 2
(0.1444793283 0.1552897166 0.2724706193 0.4277603359) 478 915 2
(0.2844560591 0.2047840859 0.1529878846 0.3577719705) 529 1011 2
(0.8204752681 0.08976236597 0.0510552631 0.03870710287) 458 896 1
(0.521765679 0.2391171605 0.1043738832 0.1347432773) 538 1047 2
(0.08997210592 0.455013947 0.06833625722 0.3866776898) 447 874 2
(0.7340669537 0.1329665232 0.129594364 0.00337215915) 338 676 2
(0.6363079652 0.0711853856 0.1106606318 0.1818460174) 535 1023 2
(0.3276065525 0.1767934581 0.1594032656 0.3361967238) 486 948 1
(0.09080754753 0.4545962262 0.06794929237 0.3866469339) 457 893 2
(0.3825191808 0.3056426938 0.003097715834 0.3087404096) 455 889 1
(0.1217701366 0.1652209514 0.4391149317 0.2738939803) 468 912 1
(0.2480157991 0.1692908849 0.2067012155 0.3759921004) 498 953 2
(0.3641724136 0.3179137932 0.08942497673 0.2284888165) 506 986 2
(0.08188295454 0.4590585227 0.4176748125 0.04138371023) 478 931 2
(0.01942052701 0.112545878 0.4902897365 0.3777438585) 458 893 1
(0.01099261965 0.4945036902 0.3867477642 0.107755926) 489 935 1
(0.233363254 0.383318373 0.3575307744 0.02578759864) 446 1304 2
(0.01758791591 0.491206042 0.1921891661 0.299016876) 446 1304 2
(0.03207507149 0.4839624643 0.2989091199 0.1850533443) 469 897 1
(0.04822364143 0.4758881793 0.03939278914 0.4364953901) 442 862 2
(0.347761892 0.2703084163 0.326119054 0.05581063765) 448 877 2
(0.4004630966 0.2097327164 0.2997684517 0.09003573528) 467 910 1
(0.6008197388 0.1995901306 0.01328306403 0.1863070665) 465 908 2
(0.1975150256 0.4012424872 0.1642295574 0.2370129298) 487 948 2
(0.6057719145 0.1971140428 0.05368277119 0.1434312716) 445 870 2
(0.09569989459 0.4521500527 0.2150418764 0.2371081763) 471 920 1
(0.2847860529 0.3576069736 0.2215218438 0.1360851298) 478 915 1
(0.2616120404 0.3691939798 0.2876758307 0.08151814912) 487 932 1
(0.3681825886 0.3159087057 0.108791776 0.2071169297) 469 897 1
(0.1692558636 0.2639492598 0.4153720682 0.1514228084) 449 876 1
(0.3159739561 0.342013022 0.2794519039 0.0625611181) 456 873 1
(0.1345649634 0.4170009619 0.4327175183 0.01571655637) 448 874 1
(0.4104655079 0.294767246 1.936784194e-05 0.2947478782) 468 914 2
(0.3743660248 0.3128169876 0.2662883695 0.04652861809) 464 888 1
(0.1755113798 0.4122443101 0.3345520813 0.07769222885) 477 931 2
(0.2238274047 0.3880862976 0.05448467711 0.3336016205) 459 2617 2
(0.5788450773 0.2105774613 0.0531877933 0.157389668) 445 871 1
(0.5361536772 0.02586543731 0.2060577241 0.2319231614) 447 1305 1
(0.3454178846 0.3272910577 0.2167134954 0.1105775623) 454 885 2
(0.3442212514 0.3278893743 0.0879320792 0.2399572951) 558 1085 2
(0.4750780249 0.08725454677 0.2624609875 0.1752064408) 472 922 2
(0.4509386865 0.2043550545 0.2745306568 0.07017560229) 496 968 2
(0.2851121279 0.2821408669 0.07530306919 0.357443936) 502 978 1
(0.3403580639 0.3298209681 0.2554582905 0.07436267762) 498 953 1
(0.09606210517 0.4519689474 0.09212140554 0.3598475419) 508 988 2
(0.376595848 0.1163706764 0.1953313996 0.311702076) 499 2621 1
(0.4848419052 0.2575790474 0.100145404 0.1574336434) 485 928 1
(0.1077375183 0.4461312408 0.4175500463 0.02858119456) 486 946 2
(0.1595081617 0.3512773306 0.06896858848 0.4202459191) 572 1111 1
(0.6125752848 0.1263397774 0.1937123576 0.06737258024) 458 896 2
(0.1475889181 0.4262055409 0.1976078885 0.2285976524) 449 1307 2
(0.1970676969 0.4014661515 0.07212162728 0.3293445243) 464 907 1
(0.3231748339 0.01338809513 0.338412583 0.3250244879) 448 877 2
(0.00950399266 0.4952480037 0.2489579062 0.2462900975) 457 875 1
(0.7616651579 0.119167421 0.1029259727 0.01624144834) 517 1005 2
(0.2234428623 0.2599216914 0.1283568775 0.3882785688) 489 2620 1
(0.1397605692 0.1109234644 0.319196251 0.4301197154) 453 885 1
(0.3650721442 0.06853874253 0.3174639279 0.2489251854) 517 1005 1
(0.1101290738 0.4449354631 0.3525819366 0.09235352652) 465 890 1
(0.5052866665 0.2473566667 0.219451275 0.02790539169) 469 916 1
(0.6738311959 0.1630844021 0.05319142842 0.1098929736) 459 895 2
(0.228765592 0.0195248181 0.3660923859 0.385617204) 446 1304 1
(0.5634759196 0.1347904888 0.0834715514 0.2182620402) 459 2617 1
(0.2305125016 0.3847437492 0.2825976169 0.1021461323) 565 1099 1
(0.04527519654 0.4773624017 0.2192835909 0.2580788108) 487 948 2
(0.510924085 0.2237639351 0.2445379575 0.02077402239) 468 912 1
(0.09394199651 0.4530290017 0.384687276 0.06834172574) 457 891 2
(0.3284322988 0.1357521823 0.2000316683 0.3357838506) 468 896 2
(0.02814858851 0.4859257057 0.007307314629 0.4786183911) 483 943 1
(0.1288173539 0.4355913231 0.2643846465 0.1712066766) 449 1307 2
(0.02980787322 0.04137561616 0.4850960634 0.4437204472) 468 912 1
(0.2356413355 0.3821793322 0.2060982634 0.1760810689) 459 897 1
(0.4881838328 0.2559080836 0.09705395735 0.1588541263) 478 934 1
(0.2185169075 0.1624032499 0.3907415463 0.2283382964) 496 968 2
(0.00516757886 0.4974162106 0.062709601 0.4347066096) 502 976 2
(0.5250085559 0.1011239622 0.237495722 0.1363717599) 484 945 2
(0.1684196118 0.3878264707 0.4157901941 0.02796372338) 507 989 2
(0.1353484824 0.4323257588 0.1564481304 0.2758776284) 539 1030 1
(0.0672441087 0.2640421373 0.4663779456 0.2023358084) 458 896 2
(0.3280733599 0.2472655232 0.0886977969 0.3359633201) 467 894 2
(0.4680076002 0.07644520073 0.1895509991 0.2659961999) 539 1030 2
(0.00199687916 0.4684607402 0.0305408202 0.4990015604) 559 1068 2
(0.5430445157 0.05640955784 0.2284777421 0.1720681843) 475 925 1
(0.3068872532 0.2398172618 0.1067391116 0.3465563734) 470 899 2
(0.272722828 0.363638586 0.2436506776 0.1199879084) 464 907 1
(0.06336186119 0.4683190694 0.3800643215 0.08825474793) 477 932 1
(0.7338737446 0.1330631277 0.03670224007 0.09636088764) 446 873 1
(0.3243802049 0.3184202614 0.3378098975 0.01938963616) 449 878 2
(0.03864399558 0.04423964477 0.4364383574 0.4806780022) 452 883 1
(0.3659782537 0.3170108731 0.04900381992 0.2680070532) 503 981 1
(0.8195126082 0.0902436959 0.05159811001 0.0386455859) 495 966 1
(0.3600217246 0.3199891377 0.15511718 0.1648719577) 456 892 1
(0.2536151628 0.3731924186 0.1755407867 0.197651632) 478 931 2
(0.2247005034 0.1494177084 0.3876497483 0.2382320399) 456 889 1
(0.2004265226 0.3997867387 0.09827624785 0.3015104908) 468 912 2
(0.1014659187 0.1737889273 0.2754781134 0.4492670406) 447 1305 1
(0.2277991499 0.3861004251 0.02687441385 0.3592260112) 458 895 2
(0.04513974334 0.4774301283 0.2463481114 0.2310820169) 526 1024 2
(0.3025996419 0.08782442387 0.2608757552 0.3487001791) 506 986 1
(0.01682467151 0.4915876642 0.4460840832 0.04550358108) 39 38 1
(0.2274006188 0.3862996906 0.2534005067 0.1328991839) 499 2621 2
(0.277527394 0.361236303 0.2436108593 0.1176254437) 479 933 2
(0.1873106978 0.02990202309 0.4063446511 0.376442628) 467 913 2
(0.5418008646 0.09088237141 0.1382171963 0.2290995677) 488 934 2
(0.1425361758 0.4287319121 0.0005116273211 0.4282202848) 440 860 2
(0.2335282305 0.3832358848 0.06290585324 0.3203300315) 569 1106 1
(0.3164764452 0.3417617774 0.1524380809 0.1893236965) 461 898 2
(0.5594164047 0.003310741651 0.216981056 0.2202917976) 471 901 2
(0.3372230889 0.3313884556 0.135979078 0.1954093775) 458 896 1
(0.06040923473 0.2594538491 0.4697953826 0.2103415335) 552 1071 1
(0.07309432453 0.3765384093 0.08691442842 0.4634528377) 474 925 1
(0.3290037064 0.125741485 0.3354981468 0.2097566618) 459 897 2
(0.1908077652 0.4045961174 0.1681229014 0.236473216) 448 877 1
(0.116602983 0.3425869693 0.4416985085 0.09911153919) 485 944 1
(0.6080599261 0.1959700369 0.03230115254 0.1636688844) 508 988 2
(0.6649283028 0.1675358486 0.04916967969 0.1183661689) 488 934 1
(0.5311686382 0.2344156809 0.07760135621 0.1568143247) 498 953 1
(0.08005675102 0.1618905143 0.4599716245 0.2980811102) 539 1049 2
(0.465464746 0.03867583239 0.2285917946 0.267267627) 559 1068 2
(0.5808154982 0.2095922509 0.1237578115 0.08583443939) 442 862 2
(0.5769941347 0.2115029326 0.00362554476 0.2078773879) 498 953 1
(0.01653024499 0.3584672712 0.1332676063 0.4917348775) 618 1199 1
(0.2407067466 0.2891780772 0.3796466267 0.09046854951) 517 1008 2
(0.3000312757 0.2579950163 0.09198934581 0.3499843621) 448 1306 1
(0.1475173085 0.4262413457 0.2552652745 0.1709760712) 555 1077 2
(0.1816287962 0.2449611736 0.1642244283 0.4091856019) 458 877 2
(0.04787237819 0.4760638109 0.35800502 0.1180587909) 464 888 1
(0.3352534009 0.2102357119 0.1221375876 0.3323732996) 510 975 2
(0.5106594012 0.2446702994 0.01345933384 0.2312109656) 494 963 2
(0.7102758042 0.05615906346 0.1448620979 0.08870303442) 562 1090 1
(0.4611551085 0.2694224457 0.173022388 0.09640005773) 457 893 2
(0.4599676853 0.2700161573 0.0728545598 0.1971615975) 539 1030 1
(0.05507679928 0.08963397036 0.38282763 0.4724616004) 464 888 2
(0.9202385487 0.02216502309 0.01771570256 0.03988072564) 457 893 1
(0.2087357573 0.1570685343 0.238563587 0.3956321214) 458 877 2
(0.8288003107 0.06459867148 0.02100117315 0.08559984463) 467 894 2
(0.4194481491 0.2902759255 0.01123331219 0.2790426133) 446 872 2
(0.3553880986 0.06078924831 0.2615167024 0.3223059507) 468 914 1
(0.4758825518 0.005216575783 0.2568421483 0.2620587241) 456 891 1
(0.3795261459 0.2628870468 0.310236927 0.04734988026) 496 968 2
(0.2522309654 0.3349441428 0.03894037455 0.3738845173) 493 961 1
(0.2654767506 0.3672616247 0.1624492961 0.2048123286) 447 1305 2
(0.4373522221 0.1071903846 0.1741335044 0.281323889) 458 895 1
(0.5696774198 0.1371334046 0.2151612901 0.07802788549) 509 992 2
(0.4297172627 0.1590692246 0.2851413687 0.126072144) 608 1181 2
(0.3010613577 0.02160154134 0.3278677798 0.3494693212) 482 922 2
(0.5878651755 0.2060674123 0.1931980212 0.01286939106) 491 958 1
(0.3769193117 0.3115403441 0.09595491986 0.2155854243) 474 926 1
(0.392873268 0.1953465524 0.303563366 0.1082168136) 452 884 2
(0.237512512 0.175096936 0.206146808 0.381243744) 479 2619 1
(0.385150893 0.003392123496 0.3074245535 0.30403243) 475 928 2
(0.1776114963 0.4111942518 0.2263151619 0.18487909) 440 860 2
(0.05973699633 0.4701315018 0.2919224969 0.1782090049) 466 911 1
(0.1939366287 0.4030316857 0.00117091404 0.4018607716) 508 988 2
(0.2767210308 0.3231945321 0.0384449525 0.3616394846) 488 952 1
(0.7473750841 0.126312458 0.03410604444 0.09220641352) 481 939 1
(0.232380741 0.3838096295 0.08249558463 0.3013140449) 499 973 1
(0.3184212373 0.3407893814 0.1641804786 0.1766089027) 596 1139 1
(0.03685238862 0.1993860393 0.2821877664 0.4815738057) 456 891 1
(0.06612603352 0.4669369832 0.3185468269 0.1483901564) 449 2616 2
(0.2058763892 0.3866079458 0.01045385964 0.3970618054) 488 952 1
(0.07752936083 0.4612353196 0.1112624727 0.3499728469) 508 990 2
(0.04902115156 0.4308409636 0.04464846058 0.4754894242) 559 2627 1
(0.1855555653 0.3610269044 0.04619531292 0.4072222173) 478 915 2
(0.2348897549 0.3825551226 0.05269539206 0.3298597305) 478 933 2
(0.3745213486 0.3036721925 0.009067133173 0.3127393257) 497 969 1
(0.2641073842 0.3131829993 0.05476330859 0.3679463079) 447 1305 1
(0.2877154933 0.3561422534 0.2586829635 0.09745928983) 529 2624 2
(0.1734425341 0.1585831432 0.4132787329 0.2546955898) 449 876 1
(0.2741513442 0.3629243279 0.2065340471 0.1563902808) 609 1182 1
(0.2718004074 0.222895202 0.1412045943 0.3640997963) 478 915 2
(0.240933324 0.3147507604 0.06478257758 0.379533338) 516 987 2
(0.1327416499 0.4336291751 0.1221636964 0.3114654786) 478 915 1
(0.1704145097 0.1871172018 0.2276755433 0.4147927451) 456 891 1
(0.4175635854 0.2912182073 0.2423936781 0.04882452914) 524 1021 1
(0.09597075182 0.4520146241 0.1168898005 0.3351248236) 445 868 2
(0.09501223787 0.4524938811 0.4482283657 0.004265515382) 519 992 1
(0.5317626539 0.234118673 0.2068719287 0.02724674437) 499 954 1
(0.5363819565 0.2318090218 0.1948238797 0.03698514204) 548 1067 1
(0.2311123288 0.321657383 0.3844438356 0.06278645259) 499 973 2
(0.2826036817 0.1399230749 0.2187750843 0.3586981592) 498 971 1
(0.7013877078 0.1233555353 0.0259506108 0.1493061461) 497 951 2
(0.08156442342 0.3367460257 0.4592177883 0.1224717626) 568 1102 1
(0.21305396 0.2987415501 0.39347302 0.09473146985) 569 1104 1
(0.2647355707 0.3676322147 0.3506868648 0.01694534982) 639 1220 1
(0.08310164541 0.3076424362 0.4584491773 0.1508067411) 453 886 2
(0.2328417341 0.383579133 0.2715567323 0.1120224007) 449 1307 2
(0.09723708855 0.04935636441 0.4513814557 0.4020250913) 446 870 1
(0.6461325609 0.1769337195 0.1741481725 0.002785547027) 457 891 2
(0.5627081975 0.06664813536 0.2186459013 0.1519977659) 503 981 2
(0.7679191585 0.1160404207 0.0489819143 0.06705850644) 465 890 1
(0.02071100468 0.04347508043 0.4896444977 0.4461694172) 487 948 1
(0.9896041121 0.005197943956 0.001046558212 0.004151385744) 443 864 2
(0.80554976 0.09722512 0.01659148099 0.08063363901) 475 909 1
(0.2798050657 0.07958068671 0.2805167805 0.3600974672) 447 1305 1
(0.589946857 0.2050265715 0.1152447177 0.08978185382) 495 965 2
(0.5615936814 0.2192031593 0.02921029937 0.1899928599) 478 934 1
(0.7036743366 0.1481628317 0.005354047442 0.1428087843) 599 2631 2
(0.04163487069 0.3648873795 0.4791825647 0.1142951851) 515 1001 1
(0.3945261644 0.1678111008 0.3027369178 0.134925817) 463 905 2
(0.3742128273 0.09337457557 0.3128935864 0.2195190108) 457 891 1
(0.8112348113 0.004462171502 0.08992042287 0.09438259437) 507 970 2
(0.4446507103 0.1993156719 0.2776746449 0.07835897296) 488 953 2
(0.4506856435 0.2746571783 0.162331503 0.1123256753) 473 905 1
(0.3789530653 0.167651591 0.1428718763 0.3105234673) 453 867 2
(0.4359882655 0.2820058673 0.1402580045 0.1417478628) 445 871 1
(0.4098049383 0.2950975309 0.1019450967 0.1931524341) 447 1305 2
(0.6622925681 0.168853716 0.1403549926 0.0284987234) 465 908 2
(0.02489269575 0.3791236733 0.1084299788 0.4875536521) 449 2616 1
(0.9088391543 0.04558042284 0.0359242149 0.009656207946) 518 1010 1
(0.3471721382 0.3264139309 0.05499525254 0.2714186784) 518 1007 2
(0.8360968158 0.006891991579 0.07505960054 0.08195159212) 488 934 2
(0.04524417074 0.4773779146 0.05822064479 0.4191572698) 479 916 1
(0.5422722874 0.05431258135 0.2288638563 0.1745512749) 539 1049 2
(0.3271803314 0.3364098343 0.3317780517 0.004631782544) 465 908 2
(0.02488612723 0.4875569364 0.4733015149 0.01425542146) 466 908 2
(0.5924718743 0.2037640628 0.1218243426 0.08193972026) 454 887 2
(0.6293929105 0.1853035448 0.03787974686 0.1474237979) 549 1049 1
(0.01596372687 0.1383779808 0.3536401558 0.4920181366) 477 913 2
(0.6353689378 0.1823155311 0.05032253909 0.131992992) 445 868 2
(0.5416275953 0.2291862024 0.1658981037 0.06328809862) 441 1299 2
(0.1079536627 0.2858594154 0.1601637532 0.4460231687) 494 963 1
(0.01039652636 0.127993961 0.4948017368 0.3668077759) 478 931 1
(0.1294678749 0.01243823606 0.4352660626 0.4228278265) 538 1045 1
(0.07039969382 0.4372260712 0.0275740819 0.4648001531) 469 2618 1
(0.6010173328 0.1994913336 0.03352551081 0.1659658228) 458 895 2
(0.25787403 0.2449401398 0.371062985 0.1261228452) 505 982 1
(0.3849817502 0.3075091249 0.08138677508 0.2261223498) 529 2624 2
(0.2552609735 0.0557752354 0.3723695133 0.3165942779) 606 1177 2
(0.2242147118 0.192201928 0.1956907162 0.3878926441) 617 1197 1
(0.0853603761 0.457319812 0.1418805556 0.3154392563) 515 1001 2
(0.5808684816 0.1396565284 0.06990923075 0.2095657592) 615 1175 2
(0.5803021011 0.004875620567 0.2049733289 0.2098489495) 455 871 2
(0.7305779825 0.1347110087 0.1293017143 0.005409294497) 455 889 2
(0.732443454 0.1284809006 0.133778273 0.005297372394) 98 194 1
(0.0597157258 0.4701421371 0.118314101 0.3518280361) 485 946 2
(0.9343799694 0.03281001532 0.02746716366 0.005342851657) 478 915 1
(0.01152566447 0.2534373925 0.2407997753 0.4942371678) 444 1302 1
(0.09486737348 0.4525663133 0.236327387 0.2162389262) 456 892 1
(0.02044440759 0.4897777962 0.09178587587 0.3979919203) 444 869 1
(0.07918829458 0.08785644324 0.3725494095 0.4604058527) 502 978 1
(0.6508615655 0.1745692172 0.155994051 0.01857516625) 479 935 1
(0.3309091275 0.1495582641 0.3345454362 0.1849871721) 568 1102 1
(0.08322175684 0.1419180833 0.3164710383 0.4583891216) 493 943 2
(0.07435616967 0.4628219152 0.1339946011 0.328827314) 479 933 2
(0.08547889337 0.1776615373 0.4572605533 0.279599016) 475 925 1
(0.222591471 0.3887042645 0.1086145988 0.2800896657) 508 972 1
(0.2536902889 0.164818959 0.2083358966 0.3731548556) 477 931 1
(0.1039206227 0.4480396887 0.1810012598 0.2670384288) 549 1068 1
(0.1964894052 0.3018605664 0.09989473102 0.4017552974) 469 897 2
(0.41451686 0.1328215825 0.1599199875 0.29274157) 619 1182 2
(0.4129372766 0.1866415122 0.1068898495 0.2935313617) 576 1119 1
(0.02997913593 0.485010432 0.1915622732 0.2934481588) 448 876 2
(0.3377109542 0.2290957954 0.1020487276 0.3311445229) 454 887 1
(0.4716631565 0.2641684217 0.1112227027 0.152945719) 485 946 2
(0.5737590716 0.0790661556 0.1340543086 0.2131204642) 453 867 2
(0.7444232753 0.07813880873 0.04964955361 0.1277883623) 466 892 2
(0.03489054354 0.2709504265 0.2116043017 0.4825547282) 447 874 1
(0.294537765 0.3527311175 0.2860647158 0.06666640172) 463 904 2
(0.09497032381 0.007172846396 0.4453419917 0.4525148381) 443 866 1
(0.4998254809 0.03436748175 0.2157197778 0.2500872596) 518 1009 1
(0.1163654435 0.1798648175 0.2619524607 0.4418172783) 558 1085 1
(0.3577901816 0.3211049092 0.2160775835 0.1050273257) 452 884 1
(0.2821126957 0.3589436521 0.2327304477 0.1262132044) 479 935 1
(0.1180290365 0.2966186522 0.4409854817 0.1443668296) 488 953 2
(0.4136544158 0.2931727921 0.01177811635 0.2813946757) 536 1041 2
(0.2864523269 0.07955499063 0.3567738365 0.2772188459) 503 981 2
(0.179142329 0.4104288355 0.1746836426 0.2357451929) 629 2634 2
(0.3182351235 0.3408824383 0.1373944454 0.2034879928) 547 1065 1
(0.01286112445 0.4935694378 0.01505057826 0.4785188595) 608 1178 2
(0.592217769 0.007152983806 0.1967381317 0.2038911155) 497 951 2
(0.1649668507 0.05185634501 0.4175165747 0.3656602297) 477 929 1
(0.3609952306 0.3061028893 0.3195023847 0.01339949535) 507 986 1
(0.2551402466 0.3120383061 0.06039157061 0.3724298767) 446 872 1
(0.02981742067 0.4850912897 0.3830267785 0.1020645112) 519 1011 1
(0.06869580024 0.1460731845 0.3195789154 0.4656520999) 539 2625 1
(0.1309988865 0.4345005568 0.3166805666 0.1178199901) 466 911 1
(0.06138997553 0.3060476039 0.1632574083 0.4693050122) 497 951 2
(0.1720499986 0.4139750007 0.1727398316 0.2412351691) 456 889 2
(0.0412033247 0.2793019234 0.2000964143 0.4793983377) 449 1307 1
(0.0006009415303 0.3696129775 0.4996995292 0.1300865518) 447 872 1
(0.2236081902 0.07512294804 0.3130729569 0.3881959049) 489 2620 1
(0.8416421541 0.03464933281 0.07917892297 0.04452959017) 528 1026 1
(0.6814351146 0.1592824427 0.1056236316 0.05365881108) 508 990 2
(0.6698852798 0.0666291371 0.1650573601 0.09842822302) 488 953 2
(0.6618483799 0.1077739657 0.1690758101 0.06130184433) 467 910 1
(0.5479225665 0.2260387167 0.2218104242 0.004228292541) 486 948 2
(0.1213397685 0.3917159655 0.4393301157 0.04761415027) 464 907 2
(0.7644825793 0.1177587103 0.08318655217 0.03457215817) 599 1163 1
(0.1342541203 0.4328729398 0.4272488672 0.005624072645) 578 1105 1
(0.2114071413 0.1772063479 0.2170900815 0.3942964293) 637 1235 1
(0.2027789484 0.3986105258 0.1663288364 0.2322816894) 447 875 1
(0.8326086785 0.08369566077 0.04399160822 0.03970405255) 446 870 2
(0.631167256 0.184416372 0.1168103258 0.06760604621) 475 928 1
(0.1183932213 0.4408033894 0.1007260574 0.340077332) 535 1041 2
(0.1785219607 0.4107390197 0.2801765902 0.1305624295) 463 886 1
(0.1993224949 0.3630719321 0.4003387525 0.03726682044) 456 892 2
(0.4269416779 0.2865291611 0.03777234201 0.2487568191) 444 868 2
(0.0609204272 0.4695397864 0.3137192811 0.1558205053) 499 954 1
(0.6622298717 0.1653776983 0.003507365847 0.1688850641) 447 874 1
(0.2321893419 0.02685631597 0.3570490131 0.3839053291) 487 950 1
(0.108926893 0.34255155 0.1029850035 0.4455365535) 443 866 1
(0.6863543392 0.1223339197 0.03448891072 0.1568228304) 476 911 2
(0.1799940691 0.4100029654 0.2308603611 0.1791426044) 452 881 2
(0.09434485252 0.1175443238 0.4528275737 0.33528325) 548 1067 2
(0.5562794254 0.05682764392 0.2218602873 0.1650326434) 444 869 2
(0.0591182014 0.4704408993 0.419749234 0.05069166535) 519 1009 2
(0.5513145135 0.2243427432 0.1684517648 0.0558909784) 598 1143 1
(0.4265288693 0.04191993582 0.2448156295 0.2867355653) 606 1176 1
(0.1844247138 0.04147942969 0.4077876431 0.3663082134) 556 1079 1
(0.09915090455 0.3663780856 0.4504245477 0.08404646214) 589 1144 2
(0.3255350514 0.3372324743 0.2342747697 0.1029577046) 574 1113 2
(0.4114664525 0.1736733775 0.1205933963 0.2942667737) 629 1201 2
(0.5600873472 0.06219721043 0.157759116 0.2199563264) 629 2634 1
(0.06830613433 0.4658469328 0.3536865904 0.1121603424) 639 2635 2
(0.1883801701 0.4058099149 0.2617523321 0.1440575828) 614 1191 2
(0.07934493945 0.4208821047 0.03944542562 0.4603275303) 449 1307 1
(0.2800959121 0.2610080193 0.3599520439 0.0989440246) 451 879 1
(0.9815019482 0.003430557927 0.005818467988 0.009249025915) 455 871 2
(0.5624206622 0.01620657587 0.202583093 0.2187896689) 445 870 1
(0.6797208948 0.1601395526 0.06794949434 0.09219005827) 447 1305 2
(0.5031614831 0.2444955438 0.00392371467 0.2484192584) 461 882 2
(0.5081209181 0.00144652644 0.2444930145 0.245939541) 447 874 1
(0.7915162956 0.01367432616 0.09056752603 0.1042418522) 478 915 2
(0.3915265763 0.1509005298 0.3042367119 0.1533361821) 516 1003 1
(0.01819148224 0.09924494074 0.4909042589 0.3916593181) 467 913 2
(0.8821441089 0.04524568163 0.05892794555 0.01368226392) 477 932 2
(0.2924206296 0.2721594722 0.08163021302 0.3537896852) 565 1080 2
(0.3627194546 0.01645291604 0.3186402727 0.3021873567) 457 891 1
(0.9143911046 0.04280444771 0.02570422096 0.01710022675) 510 993 2
(0.02393957373 0.224153758 0.4880302131 0.2638764551) 456 889 1
(0.7069804572 0.1465097714 0.117585638 0.02892413341) 526 1022 2
(0.3443618701 0.1161155195 0.2117035455 0.327819065) 529 1011 2
(0.1189180993 0.4405409503 0.3620973633 0.07844358702) 529 1028 2
(0.406431999 0.1955013624 0.1012826382 0.2967840005) 527 1008 2
(0.1601969488 0.3302804795 0.08962104609 0.4199015256) 559 2627 1
(0.9336989578 0.0331505211 0.01016079823 0.02298972287) 545 1060 2
(0.5276217401 0.1455424036 0.2361891299 0.09064672636) 518 1010 2
(0.07374220023 0.4631288999 0.2845532424 0.1785756575) 566 1101 1
(0.2254748205 0.2270137031 0.1602488866 0.3872625897) 539 1030 2
(0.559436676 0.220281662 0.2038744557 0.01640720629) 449 2616 2
(0.1027788849 0.4486105575 0.2716703656 0.176940192) 608 1162 1
(0.08594237077 0.4216043154 0.4570288146 0.03542449924) 607 1179 2
(0.1326330885 0.4336834558 0.1207719525 0.3129115033) 446 872 2
(0.5996762992 0.2001618504 0.1895859574 0.01057589296) 488 953 1
(0.9669137435 0.01654312824 0.00263630591 0.01390682233) 449 2616 2
(0.07530701459 0.05256564934 0.4097808434 0.4623464927) 446 872 1
(0.920842591 0.03170743229 0.00787127222 0.03957870451) 442 864 1
(0.766454345 0.1167728275 0.04430037917 0.07247244835) 485 946 2
(0.3666220831 0.1477504113 0.1689385472 0.3166889585) 478 933 1
(0.6515501009 0.1742249495 0.1044534196 0.06977152995) 441 862 2
(0.07010992848 0.1622415206 0.4649450358 0.3027035152) 489 952 1
(0.480981503 0.1744615025 0.2595092485 0.08504774605) 475 928 2
(0.1843980473 0.4078009763 0.2352690577 0.1725319186) 538 1045 2
(0.5514782308 0.1520990081 0.07216187652 0.2242608846) 456 873 2
(0.4357481076 0.2821259462 0.0657185221 0.2164074241) 488 952 2
(0.5012482308 0.04001703762 0.2493758846 0.209358847) 459 897 2
(0.2101385043 0.3949307478 0.3724270428 0.022503705) 519 992 1
(0.04905836647 0.01843159286 0.4754708168 0.4570392239) 458 896 2
(0.09327179355 0.2100331976 0.2433309056 0.4533641032) 509 2622 1
(0.8399104257 0.08004478713 0.006685832781 0.07335895435) 479 935 1
(0.2256934905 0.3871532547 0.002342928694 0.384810326) 476 927 2
(0.2379795144 0.08486599123 0.2961442516 0.3810102428) 545 1060 1
(0.1006460359 0.449676982 0.3222718941 0.1274050879) 548 1067 1
(0.2668510633 0.270017978 0.3665744684 0.09655649036) 529 1028 1
(0.2773008594 0.3613495703 0.2634431824 0.09790638794) 556 1081 2
(0.3142202575 0.2369158923 0.3428898712 0.1059739789) 508 988 1
(0.6501140499 0.174942975 0.03073517098 0.144207804) 526 1006 1
(0.2201002697 0.3899498652 0.1368685137 0.2530813515) 596 1157 2
(0.6726315338 0.1636842331 0.08296676463 0.08071746849) 559 1085 2