/*--------------------------------*- C++ -*----------------------------------*\
| =========                 |                                                 |
| \\      /  F ield         | OpenFOAM: The Open Source CFD Toolbox           |
|  \\    /   O peration     | Version:  2406                                  |
|   \\  /    A nd           | Website:  www.openfoam.com                      |
|    \\/     M anipulation  |                                                 |
\*---------------------------------------------------------------------------*/
FoamFile
{
    version     2.0;
    format      ascii;
    arch        "LSB;label=32;scalar=64";
    class       scalarField;
    location    "0.004/lagrangian/dsmc";
    object      Ei;
}
// * * * * * * * * * * * * * * * * * * * * * * * * * * * * * * * * * * * * * //


6926
(
3.229083156e-21
1.771546352e-21
2.169942731e-21
2.583645152e-21
2.100854083e-21
5.371065356e-22
1.076399224e-20
5.740175362e-21
1.417688328e-20
1.031113445e-20
6.497845202e-22
2.319033588e-21
1.695718233e-20
2.188226601e-20
1.247948765e-20
1.238591961e-20
1.026547084e-20
2.897288625e-21
1.265893866e-20
1.463457922e-20
3.241978119e-21
3.167950665e-21
4.106239368e-21
6.207530844e-21
1.247704402e-21
7.678119252e-22
3.147819442e-21
2.441986003e-22
2.87964073e-21
1.315355736e-22
9.329314758e-21
6.591343612e-21
1.688712236e-20
1.098404124e-20
2.060087944e-20
3.026078223e-20
7.943781407e-21
1.396279453e-20
1.351029731e-20
1.297245653e-21
8.341501839e-22
5.639545279e-20
8.597841662e-21
5.429128025e-22
3.12282368e-22
4.847349096e-20
9.954471896e-21
5.94556362e-20
3.546469396e-20
2.504227402e-21
1.173240312e-21
4.958386268e-20
2.13983948e-21
7.575207632e-21
7.118245756e-22
1.349106201e-20
2.575926272e-20
1.480112308e-20
1.626222796e-20
4.873352153e-20
1.393918235e-20
2.640536885e-21
7.370256686e-21
1.393059724e-21
8.073076911e-21
8.583005346e-21
1.60853115e-20
1.868750478e-20
9.595968344e-23
2.666613611e-20
1.045015778e-20
6.326979056e-21
3.002069339e-21
1.356921106e-21
1.24536299e-20
3.850463617e-22
4.219127716e-21
2.359635186e-21
1.225710819e-20
6.036516455e-21
4.479706592e-21
3.878183787e-21
1.451306838e-20
7.744270001e-21
3.018022317e-22
7.744745872e-21
4.251664999e-21
8.069566038e-21
3.536421819e-21
4.38902309e-21
1.183285129e-20
1.755548178e-20
1.814811598e-20
5.475709492e-22
3.323790855e-21
9.246489755e-21
7.383884861e-21
9.389391745e-21
1.165303473e-20
1.598247142e-20
3.90917937e-21
6.974834296e-21
2.232876596e-20
2.581906029e-21
1.254782666e-21
2.885733374e-20
1.523133887e-20
8.855922471e-21
1.934098428e-21
2.617402612e-21
2.409818829e-22
1.310069505e-21
3.330745985e-21
8.734096728e-21
7.815197404e-21
2.051147062e-21
5.020995975e-21
1.591466646e-20
2.466676032e-21
4.076171279e-21
2.391721649e-20
1.048544524e-21
2.789505599e-20
1.867224063e-21
1.581171263e-21
3.136000875e-20
2.138866998e-20
2.760288815e-20
4.925584007e-21
4.315554418e-21
2.743018868e-20
6.894358141e-21
2.721768419e-20
1.061582627e-20
1.793021355e-20
3.230124817e-21
3.026770535e-21
8.092018806e-21
6.444273096e-22
1.946905042e-20
1.817158951e-20
1.076322688e-20
3.252596986e-20
3.79789989e-20
3.616748754e-20
2.548469532e-21
1.283900826e-21
4.586220648e-22
2.11435218e-20
7.680203519e-21
9.546223741e-22
3.395460577e-20
1.454206819e-20
4.438705593e-21
1.100297484e-20
1.248728107e-20
1.714560625e-20
2.506286069e-20
6.744979089e-20
4.842126609e-22
1.38036438e-20
6.882375064e-21
1.316311045e-20
3.202220796e-21
1.791509495e-20
2.297126429e-20
1.235989417e-21
2.563022642e-21
2.683373428e-22
5.484881237e-22
4.086042755e-21
3.053321373e-20
2.972235879e-20
7.569098625e-21
2.697013659e-21
1.752793511e-20
5.201606694e-21
2.128977641e-20
1.382477166e-21
6.239324481e-21
3.93877275e-20
7.993440487e-21
9.933758484e-21
6.367780702e-22
6.907999882e-21
3.133581155e-21
1.468707151e-20
5.534667578e-21
5.17060897e-21
1.151846237e-20
8.520493054e-21
1.910257152e-20
4.939281526e-21
7.408949149e-21
1.558441321e-20
8.870492539e-21
4.41329725e-22
5.764004173e-21
3.639111893e-21
1.180567384e-21
1.359875598e-20
5.48770289e-21
2.584270527e-21
1.023883393e-20
1.784602098e-20
5.548495883e-20
1.031747709e-20
2.962110746e-20
1.395071366e-20
1.284459035e-22
5.40335754e-21
2.28957738e-21
3.039101577e-21
2.172850728e-21
1.50452339e-20
4.623471312e-21
3.250877239e-21
1.778662627e-20
1.497583417e-21
1.230637776e-21
3.112547493e-21
1.388688015e-20
4.28521747e-21
2.678678269e-21
2.085324188e-22
3.186548406e-20
2.344009328e-20
3.484655028e-20
1.747876859e-21
4.934862636e-21
6.985093186e-21
8.187796761e-21
2.887371847e-20
2.466711825e-20
5.009177532e-21
3.364221387e-21
2.357435106e-20
5.094557436e-21
1.304468636e-20
2.407798438e-20
7.374204191e-22
8.925186568e-21
1.292597239e-21
4.65195063e-20
2.129374173e-21
3.356383619e-20
9.538491621e-21
6.631440677e-21
6.623618394e-21
6.862125728e-21
1.23166752e-21
7.825274206e-22
2.217525004e-21
5.922790581e-21
1.47968076e-20
1.042526786e-20
1.334525723e-21
2.413176406e-21
2.419213107e-21
7.853948407e-21
7.675873129e-22
1.260449957e-21
7.121996361e-21
5.488267589e-21
4.721639882e-21
2.892740862e-21
3.950257379e-21
5.943315154e-21
4.854629491e-21
1.799388912e-21
2.679861288e-20
1.127164701e-21
2.08061382e-20
1.708105809e-21
2.670359037e-21
1.238582914e-20
5.582858763e-21
1.634234605e-20
3.731562335e-21
2.36353037e-20
5.000156721e-21
9.77976018e-22
2.754037814e-20
2.817767466e-20
2.069569734e-20
7.618910825e-21
1.282372045e-20
4.321474278e-21
1.391895723e-21
5.734264128e-21
1.144423718e-22
3.528253104e-21
1.054802772e-20
1.201751559e-20
2.214441504e-21
3.620658844e-21
3.967076912e-21
2.451954733e-20
3.992136634e-21
4.633482593e-20
1.551530469e-20
2.148749783e-21
3.762332428e-21
1.096396831e-20
4.791155487e-21
1.604084143e-20
4.758560746e-21
7.010448749e-21
2.39212949e-21
2.487889648e-22
1.419969269e-20
5.947527368e-22
6.634052042e-21
3.737268285e-20
4.883084684e-21
2.567194427e-20
2.183722524e-20
1.033791737e-20
1.295502338e-21
1.46027251e-20
1.703835795e-21
3.416118878e-20
2.082464697e-20
1.640540827e-21
5.120649515e-22
1.132369337e-21
2.80496754e-21
2.116190465e-21
3.150197872e-21
4.331082238e-20
7.754844669e-21
2.919741369e-20
1.948356906e-20
9.838247818e-21
1.166822161e-20
1.593726482e-20
1.302469073e-20
1.989065526e-21
3.460691732e-20
1.537259182e-20
1.347832473e-20
1.744304159e-21
8.097467442e-21
3.247372381e-21
9.914598093e-21
8.357498947e-21
1.853484739e-21
5.687802743e-22
5.073832898e-22
3.87073416e-23
4.899220378e-20
1.753902647e-20
1.802373839e-21
1.50602211e-22
1.077236402e-21
1.011114432e-20
1.702434979e-20
7.24162832e-21
2.206663379e-21
4.058194721e-21
7.035269585e-21
5.320658078e-21
3.730477443e-21
2.095697841e-21
1.983726461e-20
7.121527652e-22
2.061977307e-22
1.621513674e-21
9.45414899e-22
1.604702369e-20
1.84299997e-21
1.502527507e-21
1.034561905e-20
2.807836042e-21
7.739659522e-21
1.292505619e-20
5.417733952e-21
1.470037918e-20
9.407901262e-21
2.038204393e-20
3.746436634e-20
1.052191793e-20
1.780799683e-21
4.017381761e-21
2.668693256e-22
7.419696374e-21
1.000502064e-20
2.552118494e-22
1.538796278e-21
4.461550617e-22
4.974674754e-22
1.542680132e-21
2.642457058e-21
1.7659754e-21
6.720887839e-22
2.317303852e-20
8.572435227e-22
7.48049729e-22
3.088854573e-21
1.57474843e-20
6.28760855e-21
4.51285982e-22
3.193777784e-22
2.668968283e-20
3.453769761e-21
1.705034056e-21
2.612373039e-20
1.086584597e-21
1.539855525e-20
3.437401285e-21
1.545186316e-20
3.525483481e-21
5.138820627e-21
1.281526498e-21
1.668047563e-22
6.234664706e-21
1.528511871e-21
6.692167334e-21
1.733065626e-21
1.871276207e-21
4.023281051e-21
1.826494994e-21
5.809239702e-21
4.997984166e-21
2.045920698e-21
2.720840781e-20
5.997731058e-21
4.894412867e-21
3.20761118e-21
2.091646131e-20
1.170658542e-20
8.754375923e-21
2.000011733e-21
9.227538924e-21
7.89036917e-20
6.050678119e-21
3.180780022e-22
1.530170387e-21
1.251698182e-20
2.630940972e-21
2.723290423e-21
2.935944452e-20
2.838449688e-22
8.777978966e-22
1.627108215e-21
3.837714456e-21
2.411457026e-21
4.212083009e-21
1.744404365e-21
5.190242971e-23
1.541642996e-20
2.424153504e-20
1.832733671e-20
1.295755523e-21
1.569439994e-20
2.314411506e-20
2.747554981e-21
1.117844594e-20
1.118253466e-20
9.62761424e-21
2.080446394e-20
2.379430157e-20
1.01135368e-20
2.770965462e-21
7.949633701e-21
1.890203164e-20
1.300103431e-20
6.378158863e-21
3.165913467e-21
2.844425245e-21
2.489120878e-21
1.470283017e-20
1.521928468e-23
1.681751518e-22
3.014425665e-21
8.667737845e-22
7.622694991e-21
1.86034199e-20
1.239644768e-20
4.419012317e-21
3.349490198e-21
4.287788325e-21
1.555024672e-21
8.703433321e-22
1.07511044e-20
8.926032015e-21
6.005120814e-21
1.352941236e-20
2.252347889e-20
1.066352761e-20
1.094880651e-20
1.01674817e-20
5.177584348e-21
6.43873656e-21
3.16752835e-20
1.932765214e-21
3.451359928e-21
5.852832852e-21
1.275303325e-21
2.658409058e-21
1.406761022e-21
2.658203601e-21
1.992180135e-21
1.142749838e-20
3.142375198e-21
1.891301672e-20
1.295292297e-20
1.144156325e-21
9.888595235e-21
8.425911322e-21
2.673888145e-21
5.412684713e-21
1.602852164e-20
3.903718e-21
6.044343093e-21
3.274127017e-21
3.71707061e-21
6.881459438e-21
3.636306249e-22
1.274478225e-20
5.63016102e-20
2.791253723e-20
1.433770044e-20
3.923151595e-21
1.362166629e-22
2.978638131e-20
3.290878716e-20
4.237565701e-21
3.332113655e-21
6.774822456e-21
8.213490665e-23
6.371133262e-21
8.18055019e-21
1.694156291e-21
1.235271088e-21
4.490779399e-21
1.060312332e-21
3.16708334e-21
9.962621521e-21
5.924056269e-21
1.596332179e-20
6.493760137e-22
3.584876064e-20
5.817182671e-21
2.899763448e-21
2.837207748e-21
8.478837661e-22
4.460209533e-21
7.494817971e-21
3.245701509e-22
5.991468061e-21
1.275248384e-21
6.782921859e-21
1.989505661e-21
1.568532654e-21
5.786217527e-22
8.626174611e-21
5.320221482e-21
3.350944631e-21
1.80527353e-21
1.961053947e-20
2.365506337e-20
1.165207651e-20
1.537094219e-21
3.141869734e-21
6.216969072e-22
7.038161845e-21
5.923619579e-21
2.034071745e-21
1.093035354e-21
3.743554758e-21
5.281460203e-21
1.672647145e-20
3.091395136e-20
6.460695877e-21
5.169188767e-21
1.990849204e-21
1.382603819e-20
2.172877929e-21
2.646666696e-20
3.973528768e-21
4.268213298e-21
6.772562415e-21
1.470522974e-21
1.464256914e-21
3.266096506e-21
7.185518526e-23
8.214164707e-23
2.738887568e-21
1.156240439e-20
3.04655027e-21
1.220935072e-22
2.416159829e-21
2.174586605e-20
1.838231943e-21
1.68570704e-21
8.247279856e-22
6.263283884e-21
1.222511958e-20
2.147726044e-22
6.458087165e-21
1.790887953e-21
1.886093804e-21
3.014203132e-20
1.874947532e-20
9.087764866e-21
4.144049498e-20
1.699505561e-20
1.809190123e-20
3.26637002e-21
7.270043936e-22
7.905418086e-22
2.884591473e-21
2.570353625e-21
1.875883247e-21
1.347091228e-21
7.431911309e-22
5.762660647e-22
2.108476445e-20
7.50273396e-21
8.148293684e-21
2.992147115e-20
1.715741603e-21
2.573701551e-21
9.939755981e-21
6.078136328e-22
1.20215851e-21
4.701220659e-20
1.792068953e-20
1.099131886e-20
1.00077886e-20
7.460275024e-21
1.108672757e-20
9.255958626e-21
3.682748746e-21
2.673848811e-21
1.712487008e-20
1.517919519e-21
3.2441683e-21
2.28855985e-21
6.567969038e-21
1.957168052e-21
8.098714052e-24
4.511777289e-21
5.006743937e-21
2.03278573e-21
1.284023927e-20
6.044387222e-21
2.065888109e-21
1.997762809e-21
3.17220142e-21
3.75458691e-21
1.234749368e-21
3.024960986e-21
3.958558021e-21
2.756773011e-21
2.722094566e-20
1.361100087e-20
8.665099673e-22
1.144531132e-20
3.766505744e-21
1.326555456e-20
2.780345424e-21
7.169695071e-21
1.356428658e-20
1.171738314e-21
2.00027563e-22
1.146153599e-20
2.94624509e-21
2.603932027e-21
3.673239243e-21
1.394216119e-20
2.658737786e-21
2.278519004e-21
9.284547881e-21
4.324289585e-22
4.578667555e-22
7.462796412e-22
4.368339672e-22
1.804679892e-20
5.915151867e-21
6.532809961e-22
3.227396958e-22
1.252381547e-21
4.791699716e-22
1.578726019e-20
2.927674788e-21
1.283660108e-21
5.148997259e-21
2.090436567e-21
4.804576985e-21
3.477189707e-21
6.042769749e-21
7.584962464e-22
3.31091396e-21
1.265449717e-20
2.612652096e-20
9.730449917e-21
8.568523576e-23
9.80150456e-23
4.832538912e-21
1.393775955e-20
4.090268776e-21
1.65287255e-21
5.643806549e-21
1.919005718e-20
2.633565537e-21
2.374450773e-21
1.022327321e-21
1.482191488e-20
4.921785995e-20
9.84829212e-21
2.067782952e-20
4.960492803e-20
6.22743485e-21
2.973315233e-21
1.624660053e-20
9.726424951e-21
6.442277895e-21
4.617987069e-21
4.831366501e-21
8.910114475e-21
7.468364623e-21
1.126469647e-21
6.371234826e-21
5.332339414e-21
1.818037694e-20
1.815818347e-20
1.32013353e-21
4.38806733e-21
9.847778402e-21
4.374235907e-22
1.959739272e-21
4.09965069e-21
3.178392203e-22
3.254474921e-22
1.991208332e-21
1.787865938e-21
9.022796472e-21
3.833127887e-21
1.217048018e-20
1.336085643e-21
3.093591616e-21
7.837505257e-22
1.647523503e-21
1.107336478e-20
2.728237159e-21
1.641634748e-21
1.070252806e-21
4.111917452e-21
1.004340818e-20
3.001960251e-21
2.856361501e-20
1.102108307e-20
3.775660634e-21
4.434572302e-22
4.652519401e-21
1.886547312e-21
1.000227154e-20
1.277173548e-21
4.565754186e-20
3.147687631e-21
1.836259083e-20
9.429313673e-22
2.95880636e-21
1.735478036e-21
2.563621758e-21
4.632430175e-21
1.087589322e-21
9.713563267e-21
8.655857287e-22
1.125998123e-20
2.84197035e-22
5.761384291e-21
2.112288902e-21
1.368111929e-21
1.175415411e-20
2.90586805e-23
3.877308223e-21
1.964914822e-21
2.749263702e-21
4.536928943e-21
1.711693711e-21
1.567852808e-21
4.756721905e-21
7.606515145e-22
1.614859279e-21
1.583654713e-22
7.284109169e-21
1.422050096e-21
2.545820071e-22
2.34259313e-21
2.392607954e-21
4.20607082e-21
1.382651646e-21
8.125500638e-21
3.474245421e-21
1.155332128e-21
8.938617712e-22
3.919919104e-22
1.13604397e-20
9.479059228e-22
1.41712418e-21
1.270466344e-22
1.34861853e-21
2.608459675e-21
9.389368996e-22
1.938898437e-21
1.650015882e-21
7.245894512e-21
5.94589747e-21
5.210574206e-21
4.8441583e-21
1.917280759e-20
2.171220565e-21
1.223341103e-21
4.81160598e-21
4.94451455e-21
2.645852277e-20
6.821694997e-21
2.396891458e-21
1.829404997e-20
3.205478586e-21
1.05951985e-20
4.397436064e-20
5.647349459e-20
5.331622972e-21
1.071383026e-21
9.452328339e-21
3.509392745e-21
1.047716661e-23
3.74340252e-21
1.649492556e-21
5.105883193e-21
2.200456619e-20
1.833130971e-20
1.603775698e-22
5.68957577e-21
1.258824001e-20
1.466592466e-21
3.029311489e-21
1.085814644e-21
3.528960129e-21
1.506665777e-21
1.025754677e-21
2.597571522e-21
4.09733142e-21
2.79201788e-21
8.389422116e-21
4.081244536e-22
5.780414098e-21
7.28585723e-22
4.077917958e-21
9.728440364e-21
7.243584166e-21
5.388094545e-21
2.104908436e-20
7.004807972e-21
3.70590929e-21
1.697519595e-21
3.130692043e-21
1.43482927e-21
3.012361493e-22
9.001582181e-22
1.79555551e-20
1.663045522e-21
9.385076787e-21
2.008328102e-22
1.809001322e-20
9.545739204e-21
4.094204807e-20
2.199061431e-21
2.715780638e-20
1.926102227e-22
3.232906164e-20
1.295289938e-21
9.947634123e-21
9.67951161e-21
1.170094038e-21
2.783971205e-21
1.736645643e-21
9.019511747e-21
7.437462561e-21
1.59986193e-20
2.924102243e-21
1.14008345e-23
9.394289031e-22
3.983428987e-21
2.451193553e-21
3.818873464e-20
8.672894395e-23
9.396325414e-22
1.434036773e-20
1.469409738e-21
8.678080547e-22
2.100887807e-21
1.183876259e-20
9.043453347e-22
3.592886805e-21
5.38545323e-21
4.779819265e-21
1.942856299e-20
7.08315259e-21
4.297475659e-21
7.257442159e-21
4.070775253e-21
4.026903135e-21
3.643387995e-21
3.574218981e-20
8.301344064e-21
1.703193016e-21
6.524352995e-21
1.361949854e-21
2.550004324e-21
2.228454226e-21
7.799876471e-21
4.256591942e-21
7.835795808e-21
2.091525814e-21
2.263853743e-21
5.12198682e-21
6.406740751e-23
8.046789317e-22
3.68316102e-21
6.176294979e-21
4.189712299e-21
4.31243806e-21
1.467964631e-21
7.92092754e-22
2.47330866e-21
1.670154576e-20
7.556128967e-23
1.614448656e-21
3.227563441e-20
2.877452002e-20
6.841287752e-21
2.582195514e-20
1.435017825e-20
9.303375649e-21
6.586183986e-21
3.239540772e-21
1.148075199e-20
1.192615153e-21
7.845116656e-22
3.214907918e-21
1.526887509e-20
1.203427935e-21
2.241852686e-21
2.631718195e-21
5.226388215e-21
3.276764959e-20
5.42479176e-21
7.882015019e-22
6.229469915e-22
1.130747448e-20
8.814608014e-21
3.305826032e-21
2.179233895e-21
6.470438671e-21
3.874821875e-22
8.585394933e-22
5.2706634e-21
5.150471933e-21
8.833607847e-22
3.066151518e-22
1.191717405e-21
2.643061246e-20
2.957899722e-22
3.297753599e-21
8.74681867e-21
4.942697095e-21
9.706943259e-21
4.436578825e-21
1.414092362e-21
1.36188851e-21
9.181894896e-21
9.37863594e-22
8.796333001e-22
6.550274768e-22
3.848966675e-21
2.666315879e-21
2.639495291e-22
2.754330979e-21
2.189572869e-21
1.769483727e-21
3.11776269e-21
5.462665024e-21
2.066326135e-21
9.794019965e-22
1.322687185e-22
5.469924794e-21
3.47856817e-21
6.802246033e-21
3.507473556e-21
3.980569389e-21
1.164167959e-20
1.341018351e-20
1.203974526e-21
2.701418106e-21
9.973694184e-21
1.573629735e-20
3.017340529e-21
2.97395791e-21
1.32765649e-20
6.252560731e-21
1.285070147e-20
3.297696798e-21
4.534075138e-21
1.7223694e-21
1.860971405e-22
2.419548391e-21
8.987966263e-22
6.244349549e-21
6.782940912e-21
5.356600404e-21
3.2977411e-21
1.525323706e-21
3.606438611e-21
7.721391326e-20
4.686352524e-21
3.032610355e-22
4.788732011e-23
3.086967907e-20
1.437047237e-21
3.784423897e-21
6.000939348e-21
4.068371637e-21
4.665082197e-21
7.921911607e-21
5.159858434e-22
4.100115953e-21
1.733532021e-21
3.488661325e-21
1.230527731e-21
1.663967651e-21
2.99826544e-21
3.63451753e-22
5.181785365e-21
1.228018217e-21
7.752732042e-21
1.942865612e-21
1.251522916e-20
3.506683718e-21
5.733027376e-22
9.384244066e-22
8.154674848e-22
4.902431995e-21
3.963699932e-21
2.8718778e-21
7.117626608e-21
8.038249691e-21
3.205711414e-21
2.802129982e-21
2.064591588e-21
2.360303366e-20
3.129353838e-21
4.116823444e-21
1.846575677e-21
8.678448822e-21
1.123847576e-20
1.049534739e-21
2.154398449e-21
6.151240531e-21
2.594094678e-21
1.721375668e-20
1.191456325e-21
9.925785733e-20
3.799452527e-22
3.645215361e-21
5.133046689e-22
6.133495401e-20
3.911222925e-22
1.194577448e-21
4.774382997e-21
4.395097988e-21
5.183847257e-21
7.231056911e-21
3.348058901e-22
3.64349117e-21
4.063729011e-21
4.693458225e-21
2.739089466e-21
1.58343857e-20
1.779884854e-20
1.423792877e-20
2.10105493e-21
5.092014332e-21
3.946457166e-21
3.515350276e-21
6.247920153e-22
1.888391335e-21
2.038096284e-20
8.990910723e-21
7.871134309e-21
8.606345289e-21
8.414316536e-21
1.114334032e-20
5.435134221e-21
1.288517805e-21
1.776630294e-21
5.00123449e-21
1.421693038e-21
1.577265762e-21
4.510941201e-23
2.137963636e-22
5.733683593e-21
3.070992147e-21
7.669787228e-21
5.676583533e-22
2.672702748e-21
2.251264062e-21
1.833019246e-21
2.895788367e-20
3.981760542e-21
1.396289796e-20
3.601788614e-21
2.957192377e-21
1.142906254e-20
1.574238285e-22
9.264328176e-22
3.396296456e-21
4.074834726e-22
1.345220533e-20
1.407913665e-21
5.789417994e-21
9.132801614e-21
5.73142382e-23
2.191433486e-21
6.898841797e-21
1.051934373e-20
1.417727139e-21
2.149565273e-21
4.090311728e-21
4.089348799e-21
3.043942433e-21
3.92397392e-21
1.460450829e-21
4.73647795e-23
1.314511878e-21
3.452778099e-21
1.455030665e-21
8.328035854e-21
7.760413158e-21
3.349450146e-21
8.937309479e-21
1.41159525e-21
2.042025065e-21
6.162872174e-21
3.359794197e-21
5.479231683e-21
1.092670288e-20
8.329924332e-21
4.233862202e-21
3.296236029e-21
5.429013539e-21
6.821494064e-21
5.2953488e-22
1.909381142e-21
1.494547547e-21
2.036983709e-21
2.505499554e-21
7.361486215e-21
1.064313108e-20
9.837358536e-21
1.134745322e-21
2.672469387e-21
2.824227011e-21
1.814353213e-21
8.20879302e-22
7.845325001e-22
1.306607187e-21
2.424465215e-21
1.878102584e-21
3.691265451e-22
8.749503979e-24
1.526775927e-21
1.415427214e-21
9.58023462e-21
8.911554975e-22
1.510063686e-21
7.343003191e-22
4.155606469e-21
5.286364402e-21
5.922866077e-22
3.555321133e-21
1.272335801e-21
5.550674434e-21
1.520418717e-21
7.942008741e-22
3.979476744e-21
4.811703343e-21
1.191209526e-20
3.843474675e-21
2.87009811e-21
4.877913333e-21
1.075626655e-20
4.313131253e-23
2.734458978e-21
2.408139995e-21
2.651080559e-21
1.007818906e-20
6.98831962e-21
1.077743171e-22
4.941559956e-21
8.46708977e-21
3.692678232e-21
5.487557914e-22
1.792907548e-21
4.04826815e-21
1.370570188e-21
3.248413048e-22
3.6159552e-21
1.111720886e-20
3.801168287e-22
2.600330632e-21
4.639226762e-22
1.040261222e-21
8.955267539e-22
1.063702897e-21
1.923863656e-20
4.1597705e-21
2.561833349e-20
2.586356908e-21
7.851580258e-22
2.576707546e-21
6.117653057e-20
3.756846458e-20
3.669388807e-20
6.187144794e-22
6.765575025e-21
2.17271761e-21
9.844549148e-21
1.102759206e-21
1.225062429e-20
6.639941419e-21
3.549219867e-21
1.983074578e-21
2.164435945e-20
1.499766691e-20
3.954352873e-20
6.872520597e-21
6.061125e-21
4.299708288e-23
6.39650087e-22
1.750917218e-21
7.475796559e-21
4.219710913e-21
1.167289496e-20
6.390187904e-21
2.18421965e-20
1.893068598e-22
6.661903012e-21
1.040647574e-20
2.91317335e-22
4.113458184e-22
7.270445433e-22
3.138713563e-21
3.351639697e-22
4.001944279e-21
8.526916736e-22
8.685303334e-22
1.358450624e-20
2.994251756e-21
3.066228206e-21
9.730516232e-21
1.915732684e-21
9.620383972e-21
8.183390358e-21
1.161512399e-21
4.275638766e-21
7.381391588e-22
1.109787306e-20
9.303496942e-21
3.17315252e-21
3.202665097e-21
6.935674239e-21
4.327562473e-23
9.484227773e-22
9.866400333e-21
3.355976725e-22
8.96843521e-21
9.434080401e-23
1.33420598e-21
9.228301106e-22
3.480855756e-23
2.540982422e-21
7.387099719e-21
2.886057512e-21
2.991473659e-21
9.364498832e-21
2.599855458e-22
3.009188276e-21
1.085294383e-21
1.271278767e-21
1.210858326e-20
1.931907601e-20
1.804798724e-21
6.638599942e-22
4.978504869e-23
4.78011277e-20
1.997814563e-20
5.908373016e-22
1.96476487e-22
1.6713665e-21
3.736996627e-21
2.522298143e-23
4.300538647e-21
6.800635412e-23
5.391013239e-22
2.308863946e-21
3.368993703e-21
3.161482471e-21
5.325623585e-21
6.63794839e-22
5.632004013e-22
5.733555793e-21
2.188241493e-21
2.175964499e-21
4.52003866e-21
2.185092627e-21
1.675827477e-22
3.752481463e-22
1.868686184e-21
3.744430753e-21
4.454286785e-21
9.00431742e-21
8.513085753e-21
6.912574696e-21
8.602326374e-21
5.473339018e-21
4.337067225e-21
7.335888221e-21
9.974003208e-21
3.093874345e-21
4.680476918e-21
1.321857242e-22
3.030581407e-21
3.716539917e-21
1.01733962e-21
7.903572993e-21
7.926238942e-21
3.292415714e-21
5.432541056e-21
2.314157257e-21
2.634244356e-21
7.07957408e-21
7.393846176e-21
2.692406284e-21
4.050328555e-20
7.090429217e-21
1.620905676e-21
4.376771248e-21
1.811169869e-20
2.586769062e-21
2.829347251e-21
5.458760633e-21
1.400326762e-21
3.041187815e-21
1.445857158e-20
2.626615818e-21
3.530797469e-21
1.185028276e-21
1.490634471e-21
1.230480775e-21
2.767936077e-21
7.868768696e-21
2.109099289e-21
1.968129079e-21
5.296592856e-22
8.353179667e-21
2.295033445e-21
1.481270322e-21
1.45210285e-21
1.010806697e-21
2.784241255e-22
1.832241251e-21
4.166563026e-22
1.59771901e-20
3.435976762e-23
3.949320772e-21
8.176237957e-21
2.342421096e-21
5.402260227e-21
1.049771667e-20
2.215630448e-21
5.369508898e-21
4.612690916e-21
3.743803277e-22
7.272239269e-22
4.687490628e-21
9.112612536e-22
8.767582684e-21
1.731675523e-22
6.881673766e-22
1.740535416e-21
9.093411514e-22
1.124073043e-21
3.618921225e-22
1.10349943e-20
9.952721814e-21
6.687291075e-21
3.672726881e-21
3.323717862e-21
6.792477318e-21
1.717377958e-21
1.251864253e-20
1.52689114e-21
3.147267478e-21
2.465095898e-21
5.019291236e-21
6.010762103e-22
1.518081746e-21
8.489453295e-21
4.618437961e-22
3.717899266e-21
7.064451423e-22
1.184217423e-21
9.389424134e-21
8.841385112e-21
1.466876375e-21
1.528468087e-20
1.031584405e-20
3.579004265e-21
4.892832151e-21
3.438346072e-21
9.601206162e-22
3.169361226e-21
4.654240169e-21
5.018608113e-22
1.796690687e-21
4.691671253e-22
4.204528997e-23
4.607638345e-21
1.230674394e-20
1.05862535e-21
1.081809754e-20
8.110852171e-21
3.018915228e-21
1.100881721e-21
2.297591975e-21
1.369359845e-20
2.055405994e-21
2.211360907e-21
1.325961537e-21
1.36648759e-21
1.093155585e-21
2.073952513e-22
7.220665036e-21
3.934062883e-21
3.332650981e-22
6.48416062e-21
5.491412402e-21
1.26448186e-21
1.691656919e-22
1.660484548e-21
7.004159915e-21
3.400944836e-24
1.16936769e-20
3.404845635e-21
1.130817134e-20
1.671923531e-21
2.211319764e-22
1.689447705e-20
5.443350461e-21
1.503126556e-21
2.426767766e-21
1.707600038e-22
4.373731088e-21
2.773447542e-21
3.102719465e-21
1.603442996e-23
1.509470131e-20
8.983513432e-21
8.332360181e-20
1.528057294e-20
7.951440874e-21
4.270163992e-21
6.070863198e-21
1.806036494e-21
5.758153046e-21
5.954241733e-22
1.894285891e-21
7.322939975e-21
5.313936775e-21
6.273729084e-22
6.182982002e-22
8.21389933e-21
3.55429365e-21
3.118522995e-21
1.125890172e-21
1.881740676e-21
1.120758699e-21
1.155158441e-20
7.856252212e-21
3.76786796e-21
5.537122533e-21
7.528816323e-22
5.921322398e-21
1.565608299e-21
3.686123799e-21
2.455898988e-21
2.311427612e-22
7.295845334e-22
8.712261307e-22
3.120073578e-21
2.819310037e-22
1.607539556e-21
8.533466076e-21
1.219959013e-21
7.128202694e-22
1.285375878e-21
5.740538923e-22
6.306750362e-21
8.356261279e-21
1.934105096e-22
1.306902448e-20
1.022726737e-20
2.287034922e-22
1.886260038e-21
1.123600173e-21
8.252143221e-21
7.357798716e-22
5.174981946e-21
1.362175458e-21
4.061796756e-21
2.43536467e-21
7.562244926e-22
7.756244637e-21
1.109097653e-21
5.277605473e-21
7.437621195e-21
1.773833811e-21
6.917508899e-21
2.240493685e-21
5.220324762e-21
8.206657965e-21
5.974597414e-21
4.057277107e-21
1.278658761e-20
1.729124719e-20
2.079716496e-21
1.748488787e-21
2.187986644e-20
2.597685643e-20
4.635055836e-22
5.95812096e-21
2.35539571e-21
4.089897553e-20
6.10330894e-22
5.137771244e-21
3.59677909e-20
4.249038915e-21
2.754495491e-21
1.313546621e-20
7.760199444e-20
5.29926861e-23
1.330053923e-20
1.062740023e-20
1.316845126e-20
1.442797654e-21
1.104197556e-21
1.693511217e-21
4.237066809e-23
7.022676685e-21
1.167454611e-21
3.992378598e-21
4.078465038e-21
4.994438638e-21
4.173373974e-21
1.922395811e-21
2.453330111e-21
5.125387722e-22
1.20975167e-21
4.330511627e-21
7.564314209e-21
5.829166691e-21
1.344199213e-22
1.516560554e-21
6.605205866e-22
3.082591832e-21
6.166528188e-21
1.054374544e-22
2.749754163e-21
4.389501189e-21
2.159310149e-21
2.921426704e-21
1.864952222e-20
1.738830698e-21
6.794412763e-21
2.617711772e-21
1.685830734e-21
1.083888031e-21
4.62207625e-21
4.266017245e-21
6.492689749e-21
2.98535405e-21
3.553967234e-21
2.861396638e-21
4.216390279e-21
7.14093977e-21
2.183623109e-21
4.050971541e-22
1.362997625e-20
8.797430798e-21
7.140263645e-23
8.955450762e-21
1.424327049e-20
5.773678682e-21
2.629578935e-21
6.861928366e-21
5.793062977e-21
2.557655026e-21
3.797296595e-21
2.790185527e-21
1.986277256e-21
2.779218621e-21
4.680638827e-22
5.17288857e-21
9.668004848e-22
4.307387942e-21
5.237240542e-21
6.92564625e-21
5.690023587e-22
4.722294159e-21
1.611373211e-21
8.466850709e-22
9.621929791e-21
4.141711562e-21
3.493418076e-21
1.455018867e-20
1.125161359e-20
9.384034606e-22
3.07180065e-21
1.332068625e-20
1.281220078e-20
5.017705409e-21
4.211188557e-21
1.690401051e-21
4.897647941e-21
1.079243423e-21
9.479852214e-23
7.222291165e-21
8.041103557e-22
1.085626071e-20
7.323077162e-21
3.075000393e-21
2.123329585e-20
1.21841805e-22
4.440643636e-21
1.671412354e-21
3.745977579e-21
9.616172203e-21
1.101134359e-20
5.214251969e-21
5.709717723e-21
2.372502358e-21
2.901348856e-21
3.246503408e-21
7.142351547e-22
1.611013982e-21
1.657449938e-20
3.765421304e-21
2.979853118e-20
4.420477596e-22
7.003690366e-21
1.193048138e-20
2.910770467e-21
8.838761039e-21
6.307457011e-23
5.87361667e-21
2.555889617e-22
9.115367184e-22
6.667253565e-21
1.728582355e-21
4.330517378e-21
5.467331722e-21
8.820908979e-21
3.14156832e-20
4.17044966e-22
8.104991292e-21
1.584266031e-22
7.857820656e-21
1.949635598e-21
3.271303347e-21
1.565262071e-21
9.067821621e-22
3.963550849e-21
3.251219019e-21
3.57962549e-22
2.250023322e-21
1.857138572e-21
9.13917202e-22
5.262717079e-21
1.223161069e-20
1.593457944e-21
1.290520454e-21
3.324070384e-22
2.971874208e-21
6.527008127e-21
1.222720886e-21
3.477271344e-21
4.799385589e-21
2.93424812e-21
3.32811907e-21
1.458812154e-21
1.915698507e-21
6.536338384e-22
3.05452668e-21
3.295293872e-21
4.168665425e-21
1.193528992e-20
1.284129884e-21
1.32969659e-22
3.464061543e-21
3.475864106e-21
7.128590596e-21
3.346455797e-21
1.218743661e-21
2.540959966e-20
2.275566744e-20
9.625079727e-22
1.329694201e-21
6.312209435e-22
7.412343683e-21
1.502233016e-21
3.22405908e-20
2.012475149e-21
2.450802175e-21
3.225342104e-21
7.936508892e-23
5.371635354e-21
3.526719873e-21
1.154652357e-20
7.821334007e-22
7.116497023e-21
1.554446459e-21
5.150719162e-21
3.559838242e-22
5.279892498e-21
8.675202595e-21
6.322658713e-22
2.193157748e-21
4.59516507e-21
5.363529765e-21
9.241802483e-22
2.873797815e-21
1.187083704e-20
1.226092526e-22
6.032357458e-21
6.977000847e-21
8.05962614e-23
1.180254247e-20
1.877361382e-21
8.804413477e-22
5.049430193e-21
6.764791444e-21
1.338741584e-20
3.224499623e-21
4.157607518e-21
2.238174451e-21
6.112911304e-21
5.830696115e-21
3.931312658e-22
7.879167607e-21
1.436583962e-21
4.680879254e-21
1.472107104e-21
9.7940367e-22
1.621450475e-20
7.127048433e-22
6.607464372e-22
6.314836839e-23
8.906560944e-22
2.651637871e-21
7.293078952e-22
1.135414647e-21
3.213420311e-21
3.203687781e-21
8.134224521e-21
1.810249895e-22
1.603287939e-21
9.070784966e-22
2.903260581e-22
1.501130342e-20
2.650140134e-21
2.41460982e-20
1.674199794e-21
1.626415434e-21
1.059259683e-21
4.197673599e-21
4.068466823e-22
7.194572281e-22
1.019171575e-20
1.918679659e-21
6.856410584e-22
2.166529741e-20
4.940216368e-21
1.018594443e-21
1.000280568e-20
1.102936869e-20
5.438546718e-22
2.486605647e-21
4.837371601e-21
2.641052255e-20
2.809051897e-20
5.769499675e-22
2.551144422e-21
1.039021598e-20
3.725430538e-21
4.905514975e-21
1.46885783e-21
3.522595409e-21
1.051568355e-21
2.729758738e-23
1.506535441e-21
1.094664391e-20
1.688262173e-21
5.422485719e-22
9.530905942e-22
2.748559509e-22
1.03338424e-21
3.54001326e-21
1.567596797e-21
1.015197573e-20
1.473092444e-21
8.591453902e-21
2.488617117e-21
3.193165318e-21
6.518688841e-21
1.53390416e-21
1.794275675e-21
8.801109347e-21
1.794905516e-21
1.65936205e-21
1.933097495e-20