/*--------------------------------*- C++ -*----------------------------------*\
| =========                 |                                                 |
| \\      /  F ield         | OpenFOAM: The Open Source CFD Toolbox           |
|  \\    /   O peration     | Version:  2406                                  |
|   \\  /    A nd           | Website:  www.openfoam.com                      |
|    \\/     M anipulation  |                                                 |
\*---------------------------------------------------------------------------*/
FoamFile
{
    version     2.0;
    format      ascii;
    arch        "LSB;label=32;scalar=64";
    class       Cloud<dsmcParcel>;
    location    "0.004/lagrangian/dsmc";
    object      positions;
}
// * * * * * * * * * * * * * * * * * * * * * * * * * * * * * * * * * * * * * //

6926
(
(0.04777263232 0.02899061111 1.084202172e-19) 466
(0.06757785368 0.03075171354 0) 458
(0.06832369056 0.051763038 0) 488
(0.06321964477 0.03045371537 1.084202172e-19) 458
(0.06747545975 0.03530694412 -2.710505431e-19) 468
(0.05446747562 0.02067225885 2.168404345e-19) 447
(0.06609010486 0.06825902733 2.168404345e-19) 518
(0.04512818239 0.04307512308 1.084202172e-19) 485
(0.06316043328 0.04208621462 1.084202172e-19) 478
(0.0135816417 0.03383129383 -4.33680869e-19) 481
(0.04026301493 0.04063922515 1.084202172e-19) 485
(0.04293121509 0.01585525651 1.084202172e-19) 445
(0.05329537365 0.01808780685 -4.33680869e-19) 446
(0.07052669751 0.07280763287 -2.168404345e-19) 519
(0.0625760562 0.02566868485 -8.131516294e-20) 458
(0.06190987431 0.02940959681 -2.168404345e-19) 458
(0.05730361061 0.01671708727 0) 447
(0.05817154802 0.02407672991 0) 457
(0.03844730122 0.01495915652 1.084202172e-19) 445
(0.02146993644 0.09893090762 0) 562
(0.06105882775 0.0237395315 5.421010862e-19) 458
(0.001852380832 0.09549102944 1.084202172e-19) 560
(0.0620068784 0.04329140485 2.168404345e-19) 478
(0.07293451942 0.04491292071 -1.084202172e-19) 479
(0.0522415559 0.04358939031 0) 486
(0.07303695778 0.05716071599 0) 499
(0.05460257463 0.01932832146 -2.168404345e-19) 447
(0.02539441029 0.0233144477 -2.168404345e-19) 463
(0.07483877156 0.0260372293 0) 449
(0.04248343119 0.01453678051 2.168404345e-19) 445
(0.06850555116 0.04446141466 0) 478
(0.0493490037 0.02716416375 -2.168404345e-19) 456
(0.05534712865 0.04499001867 -4.33680869e-19) 487
(0.07079408829 0.02340458368 0) 449
(0.07238165432 0.06630635873 1.084202172e-19) 509
(0.05186833786 0.041235179 2.168404345e-19) 476
(0.04631142522 0.01930106611 5.421010862e-20) 446
(0.07113174531 0.1651116121 0) 649
(0.03271618681 0.07795699011 1.185846126e-20) 534
(0.05881973016 0.03680675879 0) 467
(0.06033832819 0.03749164647 0) 477
(0.0125480033 0.0357879901 1.084202172e-19) 481
(0.06362742025 0.05294443929 -2.168404345e-19) 498
(0.0690501827 0.03165647119 -4.33680869e-19) 459
(0.04273687221 0.01634896086 -2.168404345e-19) 445
(0.05903562656 0.01703786722 0) 447
(0.0706978506 0.02712185951 0) 459
(0.07559761644 0.02192113319 2.168404345e-19) 449
(0.04434884891 0.03491037508 -2.168404345e-19) 475
(0.03708241042 0.01408077617 0) 444
(0.05321431258 0.04299728391 4.33680869e-19) 486
(0.06079918708 0.06914230394 -5.421010862e-20) 517
(0.03684855381 0.04566437356 -2.168404345e-19) 484
(0.06064149536 0.03863527575 2.168404345e-19) 477
(0.06939676844 0.03454741482 -3.252606517e-19) 469
(0.07176073354 0.04608288214 2.168404345e-19) 479
(0.07160169264 0.02551822019 2.168404345e-19) 449
(0.04719500686 0.03166741299 -2.168404345e-19) 466
(0.02704703718 0.02539453997 -2.710505431e-20) 463
(0.06066599208 0.01713587868 0) 447
(0.03433808539 0.02752245892 3.388131789e-21) 464
(0.0480031889 0.01983872743 0) 446
(0.063296554 0.06950754498 -1.084202172e-19) 518
(0.03479333919 0.02139619483 0) 454
(0.06298960338 0.07951536559 -1.084202172e-19) 528
(0.06983205584 0.01886750039 0) 449
(0.06177666822 0.069622277 -4.33680869e-19) 518
(0.07589277941 0.03096363809 2.168404345e-19) 459
(0.05202309539 0.02645144446 -2.168404345e-19) 456
(0.05903186457 0.01612053311 2.168404345e-19) 447
(0.07072678041 0.07441671026 1.084202172e-19) 519
(0.05958136713 0.01896113714 5.421010862e-20) 447
(0.05409306555 0.04752294669 0) 487
(0.05483379973 0.03740251261 2.168404345e-19) 477
(0.04631537443 0.03342553274 2.990026304e-19) 466
(0.06022281061 0.01912739251 -1.626303259e-19) 447
(0.03323763985 0.04112581183 -1.084202172e-19) 484
(0.05063882675 0.08351641664 0) 536
(0.06684556338 0.03957833021 0) 478
(0.07355445335 0.07676483036 2.168404345e-19) 529
(0.06437719528 0.02848852431 8.131516294e-20) 458
(0.06658967936 0.08390634757 1.084202172e-19) 538
(0.06061679652 0.01704701283 6.505213035e-19) 447
(-0.01041816213 0.1237247088 1.694065895e-19) 338
(0.04275037711 0.07867441469 1.084202172e-19) 535
(0.05209033767 0.04727590604 -6.505213035e-19) 486
(0.06061360969 0.02414035351 0) 457
(0.04426088448 0.02268721484 0) 455
(0.06142338565 0.03612205891 0) 468
(0.06634392558 0.05393096003 2.168404345e-19) 498
(0.05195085639 0.05877613441 0) 506
(0.06127159845 0.03826912705 -2.439454888e-19) 478
(0.06103390312 0.02966953612 0) 458
(0.07156884905 0.047297691 5.421010862e-20) 489
(0.04933244328 0.0140549905 1.219727444e-19) 446
(0.04725141188 0.01272401487 0) 446
(0.07097974531 0.03318052224 3.252606517e-19) 469
(0.01542352006 0.007539636385 0) 442
(0.06519368183 0.02330321 2.168404345e-19) 448
(0.0548639406 0.03317504912 5.421010862e-20) 467
(0.04342817922 0.02831901796 0) 465
(0.05409163272 0.04544021498 0) 487
(0.0434092892 0.01420428401 -2.168404345e-19) 445
(0.009790963045 0.03200592027 0) 471
(0.06373172496 0.03930227047 3.252606517e-19) 478
(0.05652764027 0.04456285436 3.252606517e-19) 487
(0.07081006781 0.03431624613 -3.252606517e-19) 469
(0.06922408279 0.02313278796 -2.168404345e-19) 449
(0.04905185551 0.02144730887 2.710505431e-19) 456
(0.06147207525 0.02012695675 1.084202172e-19) 448
(0.06701424356 0.03350893443 4.33680869e-19) 468
(0.0339337829 0.02499878559 -1.626303259e-19) 464
(0.06029050233 0.04044028142 -5.421010862e-20) 477
(0.07534618339 0.02835013593 2.168404345e-19) 459
(0.04150211011 0.0162530213 1.084202172e-19) 445
(0.0587177181 0.01764132111 -2.168404345e-19) 447
(0.03179450217 0.01786873377 0) 454
(0.06726693805 0.09740274312 2.168404345e-19) 558
(0.02038298437 0.03316420674 -3.252606517e-19) 472
(0.05006269904 0.05478590195 1.626303259e-19) 496
(0.02177246928 0.05418914592 4.33680869e-19) 502
(0.06420179513 0.05375497801 0) 498
(0.06132555597 0.06185861921 -2.168404345e-19) 508
(0.07476342976 0.05989357045 -2.168404345e-19) 499
(0.04070817879 0.04156705753 -1.084202172e-19) 485
(0.04612999278 0.04171619471 -1.084202172e-19) 486
(0.02225157262 0.1057067208 2.168404345e-19) 572
(0.06528056911 0.02945300634 1.084202172e-19) 458
(0.07064740395 0.01944759108 -1.084202172e-19) 449
(0.03373955461 0.03014607629 0) 464
(0.06724520416 0.02392603913 0) 448
(0.05527322617 0.02197397681 0) 457
(0.05623847546 0.06775843816 1.355252716e-20) 517
(0.07534765028 0.05256519875 2.168404345e-19) 489
(0.02994689348 0.02130213596 -2.168404345e-19) 453
(0.05472926225 0.06994303294 2.168404345e-19) 517
(0.04120577167 0.02588652724 -3.794707604e-19) 465
(0.07071544661 0.03825471506 -1.355252716e-19) 469
(0.07114418342 0.02922366337 -1.626303259e-19) 459
(0.05231858955 0.0148386474 -2.168404345e-19) 446
(0.07405055321 0.03093114811 1.084202172e-19) 459
(0.0397555712 0.1038583516 -1.084202172e-19) 565
(0.05351229231 0.0449092111 0) 487
(0.06290427709 0.03469902536 -2.710505431e-20) 468
(0.05369749117 0.02235094006 -3.794707604e-19) 457
(0.06629273475 0.03303530711 0) 468
(0.02661419364 0.04363680205 -8.67361738e-19) 483
(0.07108480992 0.01949895136 1.084202172e-19) 449
(0.06107343126 0.03723849863 0) 468
(0.07081844245 0.03220043231 0) 459
(0.06402820949 0.04371588525 -2.168404345e-19) 478
(0.05126894973 0.05589366157 -1.084202172e-19) 496
(0.01525966576 0.05171046259 0) 502
(0.03532681217 0.0438740741 2.168404345e-19) 484
(0.05736231655 0.06458106591 6.776263578e-20) 507
(0.07028718709 0.08257062338 0) 539
(0.0663114904 0.03164212618 -1.084202172e-19) 458
(0.05782438309 0.03088677846 0) 467
(0.07383221619 0.08447360647 -2.168404345e-19) 539
(0.07262271182 0.09661492198 0) 559
(0.04016656143 0.03731746626 -1.084202172e-19) 475
(0.004622021211 0.02479249728 0) 470
(0.03243216596 0.02954701719 -6.505213035e-19) 464
(0.05425362131 0.04285801315 1.084202172e-19) 477
(0.04924701051 0.0177355119 1.084202172e-19) 446
(0.07253625023 0.02531234754 2.710505431e-20) 449
(0.02271259648 0.02031405814 -4.33680869e-19) 452
(0.02629497063 0.05697298388 -2.168404345e-19) 503
(0.04151314294 0.05149675308 -1.084202172e-19) 495
(0.04834637915 0.02601629312 -2.168404345e-19) 456
(0.06192511041 0.04014604176 1.084202172e-19) 478
(0.04657509287 0.02497554552 0) 456
(0.06172270567 0.03355794951 2.168404345e-19) 468
(0.05924868113 0.01623671278 0) 447
(0.0677110403 0.02618358457 -4.33680869e-19) 458
(0.05316781347 0.07331839258 3.252606517e-19) 526
(0.05218572707 0.06232422045 0) 506
(-0.004157282791 0.007563092518 -1.355252716e-19) 39
(0.07533255294 0.05773091203 -7.589415207e-19) 499
(0.06963609706 0.04156111219 -1.084202172e-19) 479
(0.06001763977 0.03670898858 -4.33680869e-19) 467
(0.06582072973 0.04778717441 0) 488
(0.007076319061 0.002432598881 0) 440
(0.07190957838 0.1096868635 2.168404345e-19) 569
(0.008824393416 0.01983120401 -1.084202172e-19) 461
(0.01308095305 0.02781855692 2.168404345e-19) 471
(0.06373229254 0.03003173036 -3.252606517e-19) 458
(0.01546989359 0.09075950418 0) 552
(0.03782118475 0.03612709304 -4.33680869e-19) 474
(0.0739868256 0.03267947608 1.084202172e-19) 459
(0.06348802823 0.02341213822 0) 448
(0.03854373384 0.04363393023 5.421010862e-20) 485
(0.06327391908 0.06272007043 0) 508
(0.06386499969 0.04775056047 0) 488
(0.06357263831 0.05428161715 -2.168404345e-19) 498
(0.07466100816 0.08972321418 4.33680869e-19) 539
(0.0741297188 0.09853331693 0) 559
(0.01745035346 0.007451811197 0) 442
(0.06318332756 0.0543522461 2.168404345e-19) 498
(0.06851694394 0.1425152552 -4.33680869e-19) 618
(0.05783827412 0.07154159628 3.794707604e-19) 517
(0.06546958254 0.01860255537 0) 448
(0.03866137862 0.09178165035 -1.084202172e-19) 555
(0.06602055699 0.02538960958 2.168404345e-19) 458
(0.03339017858 0.02367355182 -1.084202172e-19) 464
(0.004739234588 0.05480057304 0) 510
(0.03615211101 0.04792990401 2.168404345e-19) 494
(0.01794302805 0.09771159333 -5.421010862e-20) 562
(0.05920089883 0.02583434177 5.421010862e-20) 457
(0.07088550335 0.0838334898 0) 539
(0.03720690099 0.02467129438 4.33680869e-19) 464
(0.05744970016 0.02619197422 0) 457
(0.06658689704 0.02563333716 0) 458
(0.0573062544 0.03253677436 0) 467
(0.0517400059 0.01544728182 -2.168404345e-19) 446
(0.06722434114 0.03747814846 0) 468
(0.05152473564 0.02637282966 0) 456
(0.04988908995 0.05500231249 -8.131516294e-20) 496
(0.02951788334 0.04835586729 0) 493
(0.05558812102 0.01583951744 -3.252606517e-19) 447
(0.06691168185 0.02973260074 -2.168404345e-19) 458
(0.0729819403 0.06663507301 2.168404345e-19) 509
(0.06572869857 0.1361086481 0) 608
(0.02154702885 0.03630593327 0) 482
(0.009955264266 0.04508538165 1.829591166e-19) 491
(0.03355714309 0.03672228449 1.084202172e-19) 474
(0.01987288483 0.01861046417 -2.168404345e-19) 452
(0.0752939799 0.04610052684 0) 479
(0.04422499786 0.03927478993 0) 475
(0.006942529985 0.004209836089 1.084202172e-19) 440
(0.04730528046 0.03401065119 2.168404345e-19) 466
(0.06169800895 0.06258718907 0) 508
(0.06752442352 0.05007831492 0) 488
(0.01116684866 0.03734407401 0) 481
(0.07176030993 0.06052881131 2.168404345e-19) 499
(0.04818280033 0.1217103493 -5.421010862e-19) 596
(0.05319942576 0.02698576997 0) 456
(0.07594775428 0.02280858126 1.084202172e-19) 449
(0.06779466658 0.04994550592 2.168404345e-19) 488
(0.0682842575 0.06160947679 -4.33680869e-19) 508
(0.07601300291 0.1010740041 -4.33680869e-19) 559
(0.06512115712 0.03929605645 -2.168404345e-19) 478
(0.06768399257 0.04047657164 -2.168404345e-19) 478
(0.05953136801 0.05507236785 2.168404345e-19) 497
(0.05756609361 0.01636464058 2.168404345e-19) 447
(0.07510247458 0.0789161751 2.168404345e-19) 529
(0.06924001466 0.02386410599 -4.33680869e-19) 449
(0.07081494385 0.1374489132 1.084202172e-19) 609
(0.06584473223 0.03978010638 -2.168404345e-19) 478
(0.05002255379 0.0644214241 0) 516
(0.06239602415 0.03843402843 -2.168404345e-19) 478
(0.05268995014 0.02646501175 0) 456
(0.03244109855 0.07271882615 1.897353802e-19) 524
(0.03846521767 0.01308104926 0) 445
(0.07235705777 0.06882837318 -2.303929617e-19) 519
(0.0721799228 0.05628816975 1.897353802e-19) 499
(0.06328298159 0.09289847351 1.355252716e-19) 548
(0.07286736491 0.06078539965 1.084202172e-19) 499
(0.06750198364 0.05839043357 0) 498
(0.05734454938 0.05344070511 -1.084202172e-19) 497
(0.06127038631 0.1059054548 -1.084202172e-19) 568
(0.06939075117 0.1071997885 -3.252606517e-19) 569
(0.07225965323 0.1535935803 4.065758147e-20) 639
(0.02781877946 0.02177710938 -1.084202172e-19) 453
(0.07153531346 0.01998453465 2.168404345e-19) 449
(0.04609003362 0.01883747654 2.168404345e-19) 446
(0.05579882243 0.02439669119 -2.100641709e-19) 457
(0.02782573175 0.0565912042 2.168404345e-19) 503
(0.04139556636 0.02830922728 -3.794707604e-19) 465
(0.05341881461 0.04964010603 2.168404345e-19) 487
(0.02662601048 0.01078754886 3.388131789e-21) 443
(0.0412919549 0.0356420822 1.084202172e-19) 475
(0.05928626357 0.01688142049 0) 447
(0.04346965372 0.05065023877 0) 495
(0.06454484142 0.0435811106 2.168404345e-19) 478
(0.07351574945 0.1273171524 0) 599
(0.03825844192 0.06540723967 -4.33680869e-19) 515
(0.02769638807 0.02792039605 3.252606517e-19) 463
(0.05476404662 0.02694166393 2.168404345e-19) 457
(0.05783149908 0.06105837739 0) 507
(0.06536505571 0.05125421445 5.421010862e-20) 488
(0.02581208307 0.0305474215 -1.084202172e-19) 473
(0.02775700599 0.01613875932 -2.168404345e-19) 453
(0.0408392765 0.01659551782 -1.084202172e-19) 445
(0.05567631211 0.01637675433 -2.168404345e-19) 447
(0.04319369174 0.02939534541 0) 465
(0.07610504381 0.02464525896 0) 449
(0.06449208853 0.07061348372 -6.09863722e-20) 518
(0.06228113333 0.06941913892 -2.168404345e-19) 518
(0.06533811888 0.048710561 1.084202172e-19) 488
(0.06919581255 0.03980908636 -2.168404345e-19) 479
(0.07371757515 0.0879123737 -1.084202172e-19) 539
(0.04447197396 0.02988814535 -4.065758147e-20) 465
(0.04581470361 0.02685395679 -1.28749008e-19) 466
(0.03584004074 0.01989955074 -1.626303259e-19) 454
(0.07126372255 0.0915289229 -1.084202172e-19) 549
(0.05984466528 0.03738948851 0) 477
(0.04051790296 0.01410645449 1.084202172e-19) 445
(0.01094537976 0.004943181812 -5.421010862e-20) 441
(0.03768821526 0.0511203303 0) 494
(0.06099956308 0.04376588578 -2.168404345e-19) 478
(0.06145267872 0.0868040192 2.168404345e-19) 538
(0.07593145189 0.03801689112 2.168404345e-19) 469
(0.06628736702 0.02717708557 1.084202172e-19) 458
(0.03908134225 0.05843387637 2.168404345e-19) 505
(0.07473144072 0.07793858548 -1.084202172e-19) 529
(0.05194129416 0.1345877497 2.168404345e-19) 606
(0.06010472082 0.1416968381 -4.33680869e-19) 617
(0.03842483978 0.06358752946 2.168404345e-19) 515
(0.04244010035 0.1361355075 0) 615
(0.04346929132 0.02095105597 -1.084202172e-19) 455
(0.04293321772 0.02228361095 -3.04931861e-20) 455
(-0.01245102422 0.03378973029 2.032879073e-20) 98
(0.04549221497 0.04203731468 0) 485
(0.06472500136 0.04184352233 6.776263578e-21) 478
(0.0361248429 0.009721520176 -4.33680869e-19) 444
(0.04772875634 0.02680942147 2.168404345e-19) 456
(0.03359050048 0.01620121499 8.67361738e-19) 444
(0.02255794444 0.05654924173 2.168404345e-19) 502
(0.07119831803 0.04488684593 -2.032879073e-19) 479
(0.06221924585 0.1065235862 0) 568
(0.02908114087 0.04462288351 2.168404345e-19) 493
(0.06886295344 0.04214384011 0) 479
(0.0384252908 0.03767075631 2.168404345e-19) 475
(0.06263469569 0.06005191152 -6.505213035e-19) 508
(0.05999228464 0.04239577616 2.168404345e-19) 477
(0.07101029024 0.0959301764 2.168404345e-19) 549
(0.07315028997 0.03430973046 0) 469
(0.07360667503 0.1402945789 6.505213035e-19) 619
(0.05176484176 0.1112025863 0) 576
(0.06846564197 0.01979994563 -2.168404345e-19) 448
(0.03681181565 0.02148312808 2.168404345e-19) 454
(0.04392084569 0.04309434185 1.084202172e-19) 485
(0.02768895368 0.01683410449 -1.084202172e-19) 453
(0.04990496347 0.0303714981 0) 466
(0.06082690813 0.02134541208 0) 447
(0.02935650713 0.02563803786 0) 463
(0.03011774261 0.01496828572 0) 443
(0.06667337216 0.07228417134 0) 518
(0.06813611388 0.1011024272 0) 558
(0.01740191577 0.01811079831 -2.168404345e-19) 452
(0.07061529049 0.04603965328 3.252606517e-19) 479
(0.06586953383 0.05252647167 -2.168404345e-19) 488
(0.04729415287 0.08082799929 2.168404345e-19) 536
(0.02878113942 0.05781369114 -4.33680869e-19) 503
(0.07551664 0.1479783553 -2.168404345e-19) 629
(0.05610160501 0.09226600412 1.084202172e-19) 547
(0.06100894189 0.1332473035 -4.33680869e-19) 608
(0.05864644747 0.0533574503 2.168404345e-19) 497
(0.05396777241 0.04205711427 -2.168404345e-19) 477
(0.05471374778 0.06112388099 2.913793339e-19) 507
(0.05236676197 0.01803759444 0) 446
(0.06947119818 0.07478721491 -5.421010862e-20) 519
(0.07593795159 0.08899869349 4.33680869e-19) 539
(0.04711630173 0.033708401 -1.084202172e-19) 466
(0.05839374187 0.05140919878 4.33680869e-19) 497
(0.04637473252 0.02196745001 0) 456
(0.0739145443 0.01994986538 -4.33680869e-19) 449
(0.05334228685 0.01879352778 1.084202172e-19) 447
(0.07534701961 0.0538561323 2.168404345e-19) 489
(0.06416279589 0.07760477892 1.355252716e-19) 528
(0.06598060639 0.06317874926 -5.421010862e-20) 508
(0.06551695022 0.05049405589 -5.421010862e-20) 488
(0.05585862812 0.03321967971 5.421010862e-20) 467
(0.05124993743 0.04590728529 1.151964808e-19) 486
(0.03465227886 0.03064758127 5.421010862e-20) 464
(0.07175258619 0.1288541639 1.626303259e-19) 599
(0.06472652873 0.1096811394 3.388131789e-21) 578
(0.060153576 0.1560500532 0) 637
(0.05588165077 0.02137749814 1.084202172e-19) 447
(0.04888847418 0.01636941791 8.131516294e-20) 446
(0.04101707149 0.0376131535 -1.084202172e-19) 475
(0.04526839026 0.07805241593 2.168404345e-19) 535
(0.02567432393 0.02218895671 0) 463
(0.04981307188 0.0269656078 -1.084202172e-19) 456
(0.03647144878 0.01159815103 0) 444
(0.07120236627 0.05440747122 -4.33680869e-19) 499
(0.05843388825 0.01923646975 1.084202172e-19) 447
(0.06007430117 0.05056802868 0) 487
(0.0300645063 0.01245642351 -2.168404345e-19) 443
(0.04978970195 0.03730050422 0) 476
(0.01592498605 0.0136491869 3.252606517e-19) 452
(0.06732442559 0.09524532833 0) 548
(0.03554506869 0.01476399803 1.084202172e-19) 444
(0.06880496719 0.06827415433 -2.439454888e-19) 519
(0.0643415818 0.1252230084 -5.149960319e-19) 598
(0.05171299633 0.1336393098 -2.168404345e-19) 606
(0.04642182423 0.09774769072 -2.168404345e-19) 556
(0.07302997592 0.1243824247 -1.626303259e-19) 589
(0.03171883722 0.1051713847 -1.084202172e-19) 574
(0.0733070205 0.1472466475 0) 629
(0.07406347932 0.1505194879 0) 629
(0.07593943802 0.1558943533 -1.626303259e-19) 639
(0.0373814317 0.1358405172 4.33680869e-19) 614
(0.07269020753 0.01975558914 -2.168404345e-19) 449
(0.008685942435 0.01422714374 0) 451
(0.04194992996 0.0220023104 -3.388131789e-20) 455
(0.04357465211 0.01673717433 1.084202172e-19) 445
(0.05644441616 0.01754308986 0) 447
(0.01145770174 0.0197841781 0) 461
(0.05902174521 0.02110100137 0) 447
(0.06545649377 0.04152007657 -5.421010862e-20) 478
(0.04720994585 0.06763107655 -1.084202172e-19) 516
(0.06013436116 0.0373397458 -4.33680869e-19) 467
(0.05725024137 0.04066694316 -1.151964808e-19) 477
(0.04253070931 0.09903278257 -4.33680869e-19) 565
(0.05472030922 0.02752085835 0) 457
(0.004132204626 0.05702223815 -2.710505431e-20) 510
(0.04581110153 0.02496299041 -2.168404345e-19) 456
(0.04841039872 0.07311919789 4.065758147e-20) 526
(0.07400158989 0.07707080118 0) 529
(0.0690325285 0.07576716998 5.421010862e-20) 529
(0.05791992272 0.07386200574 0) 527
(0.07558890944 0.1013073773 -2.168404345e-19) 559
(0.04215841483 0.08691564904 2.032879073e-19) 545
(0.06545830779 0.07216747233 0) 518
(0.04736137085 0.1058017467 2.168404345e-19) 566
(0.07361005471 0.08357677523 0) 539
(0.07406596139 0.02323316151 2.710505431e-20) 449
(0.06342124428 0.1305593285 1.084202172e-19) 608
(0.05741954328 0.1360408397 -2.710505431e-19) 607
(0.05283406819 0.01549485554 -2.168404345e-19) 446
(0.06332260422 0.05022763304 5.014435048e-19) 488
(0.07251159102 0.02283935195 1.151964808e-19) 449
(0.05305273975 0.02071468322 2.168404345e-19) 446
(0.01934754119 0.008927185254 1.084202172e-19) 442
(0.04279636771 0.04340583877 -2.168404345e-19) 485
(0.06718148812 0.04386554718 0) 478
(0.01275474923 0.006608740854 5.421010862e-20) 441
(0.06884679488 0.05225332045 -4.33680869e-19) 489
(0.04255590431 0.03852636658 -3.252606517e-19) 475
(0.0616617107 0.08217973702 -3.252606517e-19) 538
(0.05007737983 0.02255930341 -3.252606517e-19) 456
(0.06691780088 0.04813974315 2.168404345e-19) 488
(0.0739829984 0.03207434473 -1.084202172e-19) 459
(0.07221755082 0.06920134575 6.776263578e-20) 519
(0.06825241385 0.03220044323 2.168404345e-19) 458
(0.0758442035 0.06747077938 -2.168404345e-19) 509
(0.07233517315 0.04449790414 0) 479
(0.04657887166 0.03762184917 0) 476
(0.04481222957 0.08973584103 0) 545
(0.06231382649 0.09424969093 3.252606517e-19) 548
(0.06959546957 0.079115155 0) 529
(0.05228222983 0.09553208418 -1.084202172e-19) 556
(0.06215573782 0.06344974043 -3.252606517e-19) 508
(0.04842819685 0.07271112447 0) 526
(0.05250042273 0.123058629 -2.168404345e-19) 596
(0.07113961825 0.09924739892 -1.626303259e-19) 559
(0.06520398371 0.09132647089 -1.084202172e-19) 548
(0.05228042002 0.1265739718 2.168404345e-19) 596
(0.04037646232 0.06264499082 0) 515
(0.05713020041 0.01678110575 -3.37119113e-19) 447
(0.06299188303 0.05255319448 0) 498
(0.0504741517 0.07649323246 1.084202172e-19) 526
(0.07084758371 0.02791366336 2.168404345e-19) 459
(0.02755919181 0.01592302994 2.168404345e-19) 453
(0.05130759398 0.02816687021 -4.33680869e-19) 466
(0.04628911912 0.0298956191 -2.168404345e-19) 466
(0.00733022272 0.01654370101 2.168404345e-19) 450
(0.04109373852 0.02562200735 -4.33680869e-19) 465
(0.0645722672 0.06963729406 -1.490777987e-19) 518
(0.07444608365 0.04525367626 0) 479
(0.06437898413 0.08493328189 1.76182853e-19) 538
(0.06158319736 0.03641172474 -4.33680869e-19) 468
(0.06531630113 0.05789665478 5.421010862e-20) 498
(0.03776577816 0.02053995604 0) 454
(0.07270529668 0.05203802535 2.710505431e-20) 489
(0.02391616144 0.01603812655 -2.168404345e-19) 453
(0.03522846976 0.03930712184 0) 484
(0.05164808232 0.06079387387 2.168404345e-19) 506
(0.06261019926 0.08050636086 -4.33680869e-19) 538
(0.07257207854 0.04083013904 0) 479
(0.07349186736 0.05119284171 1.355252716e-20) 489
(0.0709720425 0.07683296472 -2.168404345e-19) 529
(0.06435396904 0.07898108322 -2.168404345e-19) 528
(0.06838569667 0.0323749339 0) 458
(0.06726585995 0.06787234146 2.168404345e-19) 518
(0.06048969388 0.08617594209 -2.168404345e-19) 537
(0.06901134427 0.1017390069 0) 559
(0.0659090379 0.1595484398 2.168404345e-19) 648
(0.07129711467 0.1296473304 -3.794707604e-19) 599
(0.05720282393 0.1300833517 4.33680869e-19) 607
(0.07325440495 0.1319683121 0) 609
(0.07575857723 0.1287378556 -2.168404345e-19) 599
(0.06274161792 0.1385403559 0) 618
(0.0405375146 0.01199400803 0) 445
(0.06881144369 0.04782433123 2.168404345e-19) 489
(0.05930231016 0.04894752036 2.168404345e-19) 487
(0.06123973852 0.01981079965 0) 448
(0.04863163689 0.05781822069 2.168404345e-19) 506
(0.03528314584 0.0185312609 0) 454
(0.07239708482 0.02545419987 -2.202285663e-20) 449
(0.06664668395 0.05735292109 2.168404345e-19) 498
(0.02406661543 0.01112009393 -3.252606517e-19) 443
(0.06988010116 0.02583893226 2.168404345e-19) 459
(0.05315032656 0.04447522839 -4.33680869e-19) 486
(0.028902917 0.04483762884 0) 493
(0.05119272188 0.02133639613 2.168404345e-19) 456
(0.07315477592 0.064778509 5.421010862e-20) 509
(0.03586957715 0.01177955634 -1.084202172e-19) 444
(0.04469212253 0.01492264969 -1.626303259e-19) 445
(0.06585819854 0.03915813328 -4.33680869e-19) 478
(0.025563529 0.01247833879 2.168404345e-19) 443
(0.07057323519 0.05279948264 -3.252606517e-19) 489
(0.008478514901 0.004369605015 1.084202172e-19) 441
(0.06059047185 0.02986948484 -4.33680869e-19) 457
(0.03630496599 0.01154440707 0) 444
(0.07207844773 0.02144573489 -4.607859233e-19) 449
(0.06764876486 0.07155688193 0) 518
(0.03370666732 0.08139277672 6.505213035e-19) 534
(0.03278285607 0.1097928373 2.168404345e-19) 574
(0.07272375205 0.09866834897 1.084202172e-19) 559
(0.07413495835 0.07989227575 3.252606517e-19) 529
(0.06756050039 0.06384742221 1.626303259e-19) 508
(0.0605010781 0.1067350503 0) 567
(0.04612792756 0.09648133882 1.084202172e-19) 556
(0.0284784354 0.1271574448 1.084202172e-19) 603
(0.03782828374 0.1304475554 2.168404345e-19) 604
(0.07086510209 0.09460390786 -1.626303259e-19) 549
(0.03975308807 0.139861111 -1.626303259e-19) 615
(0.05386920927 0.04227866644 0) 477
(0.05965089994 0.02774489427 6.505213035e-19) 457
(0.05903232203 0.03039118515 -2.168404345e-19) 467
(0.0182844734 0.01684889381 1.355252716e-20) 452
(0.02637986635 0.02524827519 8.131516294e-20) 463
(0.04122320258 0.01239855917 -5.421010862e-20) 445
(0.056440355 0.05427654277 5.421010862e-20) 497
(0.05681226504 0.03291721127 1.897353802e-19) 467
(0.06842937329 0.06465299292 0) 508
(0.05464604454 0.02809269972 2.168404345e-19) 457
(0.07172993616 0.08007021381 2.168404345e-19) 529
(0.01824513864 0.04899745757 0) 492
(0.05508569627 0.05719813237 3.252606517e-19) 497
(0.06670861546 0.06706822349 4.33680869e-19) 508
(0.04589371938 0.01531979347 -2.168404345e-19) 446
(0.03399759912 0.04910509452 -2.710505431e-20) 494
(0.06525537271 0.08508107905 -5.421010862e-20) 538
(0.06376736454 0.05687813918 0) 498
(0.0760764864 0.09055329452 2.168404345e-19) 549
(0.05959261586 0.09195664211 0) 547
(0.05215775219 0.06698688097 3.252606517e-19) 516
(0.05453515094 0.09296463621 2.168404345e-19) 547
(0.05002640259 0.09688329301 -5.421010862e-20) 556
(0.05861657878 0.1127969267 0) 577
(0.05569194119 0.08252311521 0) 537
(0.06315173346 0.1191165896 0) 588
(0.05182518392 0.09826157084 0) 556
(0.04986827867 0.1030361081 -2.710505431e-20) 566
(0.06270477381 0.1084795768 -6.505213035e-19) 568
(0.05603482804 0.130821585 0) 607
(0.05540943321 0.05959078551 -9.486769009e-20) 507
(0.05822964697 0.1467738176 1.626303259e-19) 627
(0.05142108406 0.1401983781 -2.168404345e-19) 616
(0.04345917561 0.1000131201 0) 565
(0.07492434015 0.1436611592 2.168404345e-19) 619
(0.05142697821 0.1297109114 0) 606
(0.01045903756 0.1244501414 -1.084202172e-19) 601
(0.04825007009 0.1336850481 -3.252606517e-19) 606
(0.07566880885 0.1162675005 -2.168404345e-19) 579
(0.05832455144 0.1577907214 -2.168404345e-19) 637
(0.05139480834 0.04580861893 5.421010862e-20) 486
(0.07025857274 0.02168493843 0) 449
(0.02505945147 0.06100170336 -3.794707604e-19) 513
(0.03892060912 0.1414986486 0) 625
(0.07437185297 0.1566402693 4.33680869e-19) 639
(0.04478721013 0.05833513495 1.626303259e-19) 505
(0.03694609367 0.04786516803 0) 494
(0.06933656976 0.05606621037 1.084202172e-19) 499
(0.0751786745 0.02365373137 0) 449
(0.05608816154 0.05032578264 -4.33680869e-19) 487
(0.05427367795 0.02673553543 -2.168404345e-19) 457
(0.04908086771 0.08051350201 5.421010862e-20) 536
(0.06382775818 0.07485881187 2.168404345e-19) 528
(0.05910821148 0.06001649069 0) 507
(0.03773376943 0.03329956682 -2.168404345e-19) 474
(0.07476815697 0.02400262944 0) 449
(0.05647829425 0.01518706764 -1.626303259e-19) 447
(0.07591272868 0.05294768152 2.168404345e-19) 489
(0.04581409423 0.02540254923 2.168404345e-19) 456
(0.02988117726 0.02772219226 2.168404345e-19) 463
(0.01985067272 0.03006542638 -1.084202172e-19) 472
(0.04236078894 0.02816759911 0) 465
(0.05754449282 0.06504898123 -2.710505431e-20) 507
(0.03425321175 0.06033511408 -6.776263578e-20) 514
(0.07207210248 0.08244910029 -2.168404345e-19) 529
(0.03025151958 0.02225094386 -4.33680869e-19) 453
(0.0717183132 0.07319272674 -5.421010862e-19) 519
(0.06256948162 0.09456659739 1.084202172e-19) 548
(0.05659440703 0.08344596595 9.486769009e-20) 537
(0.07145534988 0.1011609528 1.626303259e-19) 559
(0.05737806999 0.06178706376 -1.084202172e-19) 507
(0.02125293559 0.1050814502 -2.168404345e-19) 572
(0.07480069977 0.1530120577 0) 629
(0.05233177876 0.05480059767 0) 496
(0.06763961112 0.109402276 2.168404345e-19) 568
(0.03986561679 0.07579986875 0) 535
(0.06599294982 0.1109358751 0) 578
(0.03615266127 0.1564494556 2.168404345e-19) 644
(0.01863529796 0.1199157787 6.776263578e-20) 592
(0.07299759682 0.1447352908 2.710505431e-19) 619
(0.06946520303 0.1384745121 4.33680869e-19) 619
(0.07391912159 0.1525883841 2.168404345e-19) 629
(0.05184555735 0.07387009648 -2.168404345e-19) 526
(0.07006822676 0.03574044773 -1.084202172e-19) 469
(0.04478610194 0.04276743375 -1.084202172e-19) 485
(0.05479840532 0.02088201899 2.168404345e-19) 447
(0.03414888906 0.02498681602 -4.065758147e-20) 464
(0.05974339219 0.02459442638 0) 457
(0.06376797836 0.02549997845 0) 458
(0.07269553336 0.02540597355 5.421010862e-20) 449
(0.0291694137 0.05739415762 0) 503
(0.06459859864 0.03887316327 -2.710505431e-19) 478
(0.02244395239 0.01607210579 0) 452
(0.06210939343 0.06159345599 -2.168404345e-19) 508
(0.04302315879 0.02435286796 0) 455
(0.05791618526 0.02215570654 -5.421010862e-20) 447
(0.01441411005 0.009240309994 -2.168404345e-19) 441
(0.0618288582 0.01861280041 3.252606517e-19) 448
(0.05252238214 0.05813689496 -2.168404345e-19) 506
(0.0457269761 0.01557600952 0) 446
(0.00486331889 0.01787655987 -4.33680869e-19) 460
(0.03559648123 0.02378089338 0) 454
(0.06570613908 0.05135416603 2.168404345e-19) 488
(0.07132532749 0.02467669113 2.168404345e-19) 449
(0.05495521608 0.06378884506 2.710505431e-19) 507
(0.06706694951 0.05637492685 -2.710505431e-20) 498
(0.05937891943 0.03727401805 -4.33680869e-19) 477
(0.05016290345 0.02272101459 2.168404345e-19) 456
(0.06941230508 0.06122358515 2.168404345e-19) 509
(-0.0008963789105 0.0397684222 -2.168404345e-19) 119
(0.05177708847 0.04645093828 0) 486