/*--------------------------------*- C++ -*----------------------------------*\
| =========                 |                                                 |
| \\      /  F ield         | OpenFOAM: The Open Source CFD Toolbox           |
|  \\    /   O peration     | Version:  2406                                  |
|   \\  /    A nd           | Website:  www.openfoam.com                      |
|    \\/     M anipulation  |                                                 |
\*---------------------------------------------------------------------------*/
FoamFile
{
    version     2.0;
    format      ascii;
    arch        "LSB;label=32;scalar=64";
    class       vectorField;
    location    "0.004/lagrangian/dsmc";
    object      U;
}
// * * * * * * * * * * * * * * * * * * * * * * * * * * * * * * * * * * * * * //


6926
(
(40.45553039 -19.14303262 96.72577572)
(-400.8494057 491.1087849 753.7750952)
(343.8951128 234.4779631 223.4812805)
(692.4243427 235.7809801 215.3120108)
(1144.85048 76.31716942 -465.2311973)
(-622.6081581 118.5772731 28.03845228)
(1126.176396 552.0528805 619.3569052)
(-130.866254 837.1414491 -185.7046116)
(479.6904137 44.6099726 1089.309383)
(-422.4748621 237.1128894 228.8826535)
(54.61222012 369.8089814 -208.8061747)
(-602.7992738 546.0775103 -59.01118076)
(-23.60363806 70.1898217 -41.35250356)
(335.2958663 421.6134073 -121.1761619)
(1152.95858 161.1296911 -938.3550801)
(-502.1474913 291.6305189 293.6708153)
(768.4242502 262.6865835 532.281371)
(-466.0671195 717.7318162 730.0841094)
(-215.5905066 49.50607934 375.8310314)
(336.6876292 390.4469177 399.7344085)
(338.4308056 611.7659479 -261.837636)
(248.2796176 369.435465 1080.292282)
(411.6735252 235.6463425 -345.1053682)
(833.2737305 138.0362968 261.8644294)
(1125.200731 80.42988747 249.0690608)
(1346.101362 1696.99772 -648.3531641)
(159.2901581 -6.023602904 494.4548732)
(1223.590349 -488.7747927 607.0398206)
(1057.543436 301.5241722 -121.0644858)
(-177.0671676 -365.046985 -143.7276599)
(1837.259517 -546.0835877 -28.54994347)
(225.7644296 452.7093419 -201.4243484)
(670.5829878 724.0967094 -740.5120546)
(931.5810869 90.78811618 79.50301237)
(-101.7189192 1237.59808 243.5150185)
(60.92607182 561.8415024 301.1353719)
(108.9080317 18.00883184 529.8476618)
(494.8845504 1103.879198 891.3949881)
(321.8176934 50.43046492 -23.36869202)
(1277.781095 701.8130662 42.86297788)
(1076.164891 645.3160631 95.35187436)
(829.332876 -278.6156311 246.3135405)
(1669.881781 1518.72263 423.7289)
(346.6134514 1052.012447 461.2225701)
(1295.14573 -471.846984 391.4661801)
(-681.2675708 28.84160454 346.329355)
(577.5687404 753.7015807 323.6749161)
(549.7313144 75.84229947 214.1215015)
(343.0608213 1020.442231 -244.0190753)
(471.280285 89.26705934 -680.3508301)
(993.5522777 743.7661536 -319.2527388)
(449.9973041 1097.074526 -570.1003444)
(1316.179374 305.767306 629.9403354)
(166.0547716 759.8721544 321.0715775)
(1499.631515 -831.6528639 -309.277508)
(-153.2301402 519.0243413 -482.4510329)
(99.91944395 52.94958211 -832.5404707)
(1438.566493 586.8237119 -922.0077092)
(1197.059514 623.1820992 577.2075966)
(296.690173 -585.8868889 -163.3443218)
(384.5922035 1298.627426 -316.5903992)
(853.6565895 334.5152159 -193.4517385)
(768.8553209 2051.522601 5.036859742)
(1312.793193 930.085337 423.4023456)
(-18.03563597 619.5301041 -149.8784478)
(1525.871178 686.0930062 753.1085103)
(304.6734365 1795.659256 -1095.056838)
(888.3742086 -78.60098032 668.2528768)
(546.5217002 276.3346917 0.9798067967)
(-709.9799498 197.436427 198.8988263)
(1408.93239 -226.5638399 -576.0812716)
(-39.39963638 641.3136869 552.6019706)
(44.03599691 63.05189617 511.0283077)
(724.0409495 -610.15755 -306.6949993)
(-94.74699539 695.3795602 63.78180269)
(-197.557627 586.1977967 238.5459383)
(518.8015142 -517.1394861 114.9411304)
(504.7582551 760.8295844 -970.9123486)
(1431.120322 327.271781 66.22607531)
(1110.80842 479.4503852 85.62271382)
(99.65824009 708.9214379 286.4230485)
(285.7850324 1040.829694 -101.0617964)
(-194.8612767 710.8370954 510.3548183)
(510.0902164 691.1446822 149.6230145)
(171.4195128 895.5511933 215.5663581)
(2073.372204 278.5190975 -357.6168406)
(-71.38406865 423.4873423 49.39168535)
(104.0408289 534.3412759 -154.768353)
(580.2884574 588.5645728 30.61570361)
(386.5118938 785.9192905 406.1484809)
(769.5689587 568.6984125 117.299699)
(155.3797837 626.8829184 334.2403731)
(461.2754478 869.9840077 136.2288009)
(764.7770067 1370.416283 -599.3507987)
(475.5597233 154.4403238 -239.3403508)
(-87.50434507 -145.9946538 -398.8977137)
(1851.29698 1380.771905 197.7086704)
(-487.4164085 -100.4560746 -466.8522004)
(-647.7121742 291.3933633 467.5410438)
(2245.850677 1071.448744 -970.6225233)
(469.2729808 663.5459585 -588.2766569)
(515.7396015 1.484901739 387.582414)
(392.263295 -1115.424989 -388.9139887)
(1255.616899 -126.9887148 -763.4329846)
(-170.3394632 214.0987038 354.1317727)
(-102.6391091 -193.0373333 -773.368829)
(1236.299217 981.1541261 584.5220069)
(264.9225951 -349.3874313 -464.1665654)
(1413.991954 40.97030954 -340.6324221)
(299.8366671 -778.7103131 93.51393852)
(713.3221218 556.1430092 258.7054475)
(-758.1787418 640.5493037 258.3514727)
(284.2688334 970.788607 -468.3985639)
(70.33189325 170.0555232 116.1878734)
(218.1354382 -657.4785199 -853.161703)
(-396.1956375 30.53077448 -73.64957777)
(1388.731679 300.5530713 -3.306957287)
(1092.8584 1768.203701 809.5379066)
(1055.910053 -429.194365 -125.6854793)
(1524.002753 514.7698038 83.67762738)
(-169.5594529 992.9313237 -231.2240345)
(1053.363025 1195.151385 813.4490578)
(-43.65572646 -1081.08127 -1047.111218)
(850.9995922 941.0155611 -129.8486207)
(516.2257558 277.8339966 389.171052)
(43.00991036 37.93384013 -617.154896)
(1103.364707 -268.6087296 -426.6437243)
(313.037426 503.8611123 102.7912682)
(1307.126376 -703.0453882 -60.11727789)
(429.9323918 -269.4760189 -422.0398338)
(1062.390542 -222.9620181 -15.86688494)
(90.40516555 -240.7846461 46.44235762)
(925.4613105 756.8639041 -923.5736863)
(406.967939 256.6209932 574.4942459)
(1318.496694 -358.5517481 -470.1228454)
(1206.730279 185.1262895 -166.5619645)
(746.452114 362.622457 -467.740345)
(411.6154764 445.0141258 -495.3878399)
(535.6047015 16.80241042 739.9939871)
(689.0643967 -714.5037034 -186.6444006)
(312.8464576 43.97664802 -214.9116657)
(892.6227182 -88.27397698 42.1659355)
(1033.736041 -557.0402367 384.259528)
(-330.9866794 607.7417922 82.62403625)
(335.1088528 587.775306 290.577308)
(867.2699661 1067.203508 -1041.526562)
(1126.470929 803.8822071 1294.949016)
(-327.119752 14.53526433 -215.0651206)
(656.9542829 942.7683832 -155.0550171)
(-32.11278131 524.3501207 171.90486)
(253.3059568 641.3950596 -1020.042345)
(1137.829243 490.0310176 -356.6197502)
(874.5310958 1072.889271 -434.0426139)
(224.3621251 54.61997669 514.4149264)
(918.3534566 -252.9659749 186.6840123)
(1407.258396 -451.0251465 -290.2554818)
(772.9931109 485.5852988 225.9165343)
(349.0981837 80.60029889 70.33253536)
(1716.811474 -175.5059739 -242.4874493)
(275.3537908 417.5837449 601.4467492)
(-368.9259872 1046.289754 154.1445218)
(1471.029475 212.9103047 -477.7533265)
(869.0802461 -546.3607264 -903.8064934)
(-97.18333008 693.0997706 -273.283973)
(-767.3941518 -415.087467 -771.3026326)
(224.1176539 -352.5599078 -133.3552145)
(1443.319229 1111.638187 -378.9708042)
(1466.299321 286.6881717 -68.28089383)
(71.53281992 19.91289795 -1024.967221)
(494.5692285 -615.6388591 536.5187198)
(1168.380086 1035.584056 -209.5760069)
(733.8103982 522.7930966 -401.0676441)
(-13.22787372 806.8352616 -222.7563593)
(-326.3215434 -101.2453744 -892.3724651)
(281.7225486 307.1986933 445.5914903)
(756.0265414 1412.42427 194.9745855)
(1302.517106 55.33520236 379.4429931)
(1400.630701 1325.635701 116.3525234)
(1314.333518 1288.66159 -188.3406764)
(623.2942834 26.57914405 -1.961960576)
(1565.137902 343.2220943 -439.5852605)
(707.2463225 1177.34132 -507.4582626)
(189.2944336 528.1520701 505.0243216)
(1422.487179 -466.8145938 -308.078649)
(1538.732483 -31.60651652 -116.7730161)
(-716.5896574 282.8877726 -754.928016)
(-278.057425 222.5787108 -86.73801871)
(937.3333951 1206.47649 -67.78920933)
(-82.69533888 561.4836272 -682.708086)
(102.8089593 -47.60236279 -55.27500503)
(729.8827111 -156.7200139 412.2850521)
(1410.832938 1160.504471 -44.38859651)
(1014.911537 466.7946823 -1273.12911)
(-234.3140289 242.079439 513.5425079)
(925.147605 -124.7394784 -1153.080799)
(1398.191756 1028.380882 517.6605766)
(1607.517327 416.0979294 93.56053343)
(-351.9809238 253.8943089 -630.6891867)
(772.0703291 782.8311246 514.8908647)
(1538.187147 386.2940275 252.0112636)
(500.7816861 829.0820996 586.610896)
(655.5256331 173.9022637 198.9439209)
(672.1504748 1539.357601 322.0543268)
(449.045119 222.5030721 191.3464905)
(1118.207274 895.8350524 -604.9486589)
(1053.785853 -449.758524 1045.540282)
(424.9534571 932.0983082 -99.71552603)
(365.7302803 1071.225553 -405.2763013)
(-458.8326789 -126.2824001 343.8104765)
(659.6785037 551.1834344 -377.33363)
(533.1220745 456.6713937 1079.978718)
(346.9708864 1155.938125 -365.4671277)
(599.2211237 36.09279161 116.7028319)
(985.8031209 56.02172244 749.7221749)
(-308.1487284 593.0394705 39.87511031)
(766.2925611 420.9161947 -61.14858578)
(231.187702 668.5888962 992.7944643)
(595.9528019 676.1379195 -712.8230437)
(25.79002938 -1017.484206 -148.1532375)
(111.3573426 146.5513691 39.27889061)
(-434.3351703 518.7763772 1006.00106)
(1445.854799 -63.85158728 357.7350843)
(1444.366013 302.524737 -71.39988611)
(179.8866959 799.6396172 -104.2998765)
(659.6283831 420.4350377 -1182.866598)
(898.2460638 812.3356572 498.233847)
(-479.607013 327.8691079 -141.597187)
(485.2338323 736.5045799 -895.2821752)
(898.5862657 -517.8477159 -1462.169958)
(1857.469818 1363.454089 212.6709121)
(344.386834 884.3247373 756.9120975)
(786.8679609 -245.0953607 194.5724775)
(511.7784493 1045.839366 -586.4261673)
(-214.6685745 -463.1561681 1040.741748)
(921.3811113 385.1118881 -233.6923301)
(1151.815926 406.8938173 -272.4664807)
(772.0931243 777.8978231 240.9075254)
(447.5828494 -325.5389494 835.152431)
(-314.8880718 1241.218183 114.4160515)
(1006.516218 338.4910706 55.88839532)
(898.1439455 988.6732094 -879.5882096)
(2007.971323 825.7042288 481.9361937)
(1688.33109 1522.942404 660.2846525)
(774.7962652 672.4022821 -1152.619679)
(1309.703637 -249.9563809 595.4633368)
(966.0462797 947.0543511 -259.5831867)
(221.6135458 -1702.422441 -624.7175835)
(1032.469295 -47.90448992 441.613236)
(-484.0877322 287.9844114 -334.4794367)
(1444.797193 980.9001671 -279.7874535)
(347.1319645 789.8925688 -125.0926994)
(292.0897433 -215.2482469 -1146.530484)
(1072.850848 356.2457372 502.8749374)
(427.9296962 -68.1889131 413.775369)
(1707.685235 710.9680846 -129.6620291)
(1221.887441 252.4289454 -558.2824505)
(1230.091902 1223.928432 528.0044521)
(920.4764392 1088.778068 54.14131559)
(631.1460566 184.4676272 426.1467658)
(864.0042776 672.6817229 -291.0570979)
(1216.916774 328.7317385 -160.8314693)
(1522.769096 50.26037456 -203.5731168)
(1979.847023 459.9550148 381.8854736)
(263.9864572 687.0221298 -675.4801366)
(211.2478884 964.2769545 128.8217342)
(709.498045 892.7581432 -442.2887653)
(1670.091505 -113.4788243 486.502538)
(1566.086944 1650.638701 -253.6613702)
(1754.695157 -411.5004952 -710.3608422)
(156.5842379 149.0759069 85.32631904)
(-37.64439365 1005.297716 129.255908)
(202.9631261 1252.222919 417.4701584)
(395.3459492 -478.1559397 -85.32853252)
(801.9831746 78.98826629 1163.421661)
(203.1742988 1264.561063 300.0906991)
(1306.726965 -22.51553693 -187.6028899)
(2214.958266 263.8338078 -364.6146119)
(-501.292989 446.1484576 -424.4905013)
(1084.338907 -189.4566085 574.2560762)
(761.5848398 60.55972163 -980.4062798)
(1166.971514 460.2899542 -104.3958372)
(966.5057504 879.0824794 -600.267946)
(592.0582162 683.3377817 -808.2713873)
(528.6270376 112.847598 -672.8795776)
(341.4504306 -94.43462374 452.7238335)
(496.9111026 -178.5818923 -107.0154707)
(1883.184385 1465.871039 -259.5468489)
(267.7666473 960.2568396 314.3144772)
(463.4623506 -65.92408177 734.3023819)
(1605.043912 277.2541197 -430.4728677)
(224.1795895 -159.6897887 449.8000826)
(1356.870613 242.1755583 -355.6154838)
(2195.096587 361.8220375 -701.9926774)
(94.41837378 -285.5858782 -1122.351513)
(242.2654672 192.0683195 168.4439834)
(1630.608288 751.0303898 483.2124491)
(859.725918 1215.056234 -1032.287526)
(239.1052574 311.8004548 11.02449224)
(347.7091182 236.2889739 370.3926635)
(822.2245567 928.6422045 -176.509326)
(385.8665208 -45.94125934 -7.834122296)
(2068.105196 506.0151026 -313.5737247)
(538.8434056 291.790808 -35.68341565)
(956.6422508 41.85031775 -592.7385573)
(206.0710103 444.5013864 -124.0998971)
(2017.674556 -95.09138771 361.1392373)
(76.1524117 895.728636 -383.5605232)
(2230.357661 65.58065886 194.0185292)
(1580.828495 -119.6169325 -251.220997)
(1200.784889 -60.57038908 -37.55975733)
(299.2711879 1034.072896 -22.15774296)
(401.482083 597.3536359 677.0083666)
(-177.2988871 14.67871985 889.3223876)
(113.2267379 516.6207131 549.6160431)
(370.7840638 -378.7413255 -362.011746)
(728.0315728 394.7499902 -559.0928778)
(300.7601379 239.5611808 -683.2814491)
(1172.059047 121.2241895 -450.1880595)
(1011.84631 810.790735 -976.6718153)
(1333.472745 621.3747529 -16.81655008)
(989.8720538 684.9799744 3.764233093)
(-43.62972845 762.6954522 592.9825147)
(836.4518764 273.455606 814.4013665)
(255.5179567 1032.943837 646.1857448)
(1480.004864 174.3091221 -590.5265346)
(337.569166 936.2675998 -350.4240526)
(1411.829332 51.0768904 -464.2157293)
(1031.67984 682.5556195 -573.0555434)
(1508.600472 91.74738312 -194.7401256)
(301.0880321 -273.3022715 -286.3567186)
(460.9385036 -606.4375357 -1410.016304)
(129.6940531 384.7025464 341.8716401)
(498.4312618 -286.9678417 889.523039)
(1237.202096 -938.4795776 -796.8718362)
(-411.3308628 521.9360602 414.3351195)
(608.8661838 157.5268198 281.5504254)
(-132.7939514 718.0600733 41.89979008)
(1112.112553 39.3412456 -881.3657256)
(1132.496821 604.3645715 312.1449175)
(507.5050761 2023.981139 -237.6148131)
(525.5471871 425.3947404 -199.010983)
(143.5680673 1.4397879 141.7112195)
(1687.83817 -38.35482455 -320.3825867)
(376.4877988 -522.2249042 -243.4754672)
(1662.75285 -108.7021272 -198.3336475)
(1649.558116 370.1391032 -60.31678442)
(1669.468061 -546.8288494 -61.46604469)
(300.0864027 82.96227687 480.9611395)
(582.9375342 380.5333033 45.10372239)
(325.8195976 536.6288709 47.01157226)
(-21.61681423 370.9909291 63.07773269)
(362.2392083 283.6425433 418.3548558)
(642.4662191 1016.832751 -104.7776756)
(937.0219364 798.022314 -581.3598638)
(284.9266113 511.3699714 444.3261388)
(374.293761 538.4389018 -1090.262026)
(660.6169411 595.0660167 644.9445635)
(1433.073009 -95.25597617 577.3616021)
(957.0953806 842.3286886 -37.69076367)
(583.8843339 1347.703954 -380.1808597)
(1445.786514 164.282498 89.22146259)
(1033.357538 1294.811475 458.947364)
(783.758106 -341.5163281 -267.6616888)
(586.3444215 693.8076534 -478.1925982)
(1205.787901 391.9229447 73.25734919)
(-342.3723943 442.8590555 387.7251821)
(1657.159684 -54.85259794 197.0531451)
(1545.970958 -320.6760159 373.1363055)
(1439.138544 163.9066706 -226.3296435)
(494.1260282 44.35628176 259.6996284)
(8.310744643 493.4006559 -194.9884385)
(121.7237054 789.2628433 -184.810255)
(1570.231852 470.8060463 -375.0633257)
(-242.0008897 417.8815149 -14.29004286)
(601.057283 710.7053073 397.9065114)
(-589.7409377 467.3598192 527.380251)
(2001.284111 644.9789085 -183.832081)
(713.0159856 -39.88831602 -323.3281572)
(776.3921291 1518.758496 740.0806252)
(-144.6583756 268.5760717 442.3512585)
(1185.299738 -530.1999801 -625.6025751)
(1047.476866 896.2920309 346.4003443)
(1529.617651 286.5073756 -457.2019344)
(796.9539477 677.9924625 -425.703135)
(1335.063482 -42.02948131 -158.8275378)
(1291.872029 60.49529246 596.0049929)
(1005.51182 709.128631 161.3293559)
(1594.942339 -135.78952 -119.6396323)
(1631.60125 -237.8615265 43.42181901)
(1415.86653 565.9985665 -738.4787466)
(1472.388537 85.8044696 250.0421269)
(1453.031747 -87.33026391 177.1524608)
(1379.053895 496.3686124 -121.9409625)
(1023.572445 396.2454329 574.8123811)
(-316.4224835 129.3112372 -362.3849021)
(-510.7198337 804.9833584 -271.2768879)
(490.4330244 265.0837333 -70.76654719)
(-389.9114413 297.2096323 -412.4959274)
(-413.2949722 -365.0998284 431.3626505)
(1470.06437 -94.66420727 425.8524794)
(871.5984767 634.2660266 457.1296788)
(450.2420722 274.6843566 428.888244)
(1033.582045 1211.313418 70.15037049)
(1156.928388 556.956767 531.7673422)
(1045.565021 348.0140936 -856.2038027)
(700.3681364 841.8238044 -336.0493442)
(781.9839102 729.4643023 -139.4205987)
(243.0043961 148.199415 -504.8675154)
(587.5191737 -114.4437229 49.24735026)
(1326.203348 263.1986018 935.7648843)
(1863.5256 298.8218916 313.8422669)
(1398.2973 240.305899 -486.1777506)
(1357.995417 69.56027193 456.8657856)
(1675.143723 124.0034371 -32.39817036)
(1886.116831 -73.31645959 418.8491063)
(1505.369815 -531.9033182 45.43137659)
(1352.121432 9.230939888 212.2480008)
(1424.892212 -238.45021 303.5479059)
(708.4124895 -247.0016987 -663.7528804)
(1430.318237 125.7542818 256.9110108)
(999.1644986 937.9977308 817.7932576)
(-128.1291286 728.1216895 57.24093148)
(825.1893614 1558.882877 166.9866274)
(-124.8446833 756.6987121 246.4235705)
(679.338081 439.6887319 -172.3488133)
(476.4062352 211.4720115 -509.9204273)
(773.2237581 -449.2534063 16.18772572)
(1233.906447 826.2019245 186.2998655)
(-208.9027992 434.5258653 673.0709059)
(1318.179035 637.5800629 317.7599887)
(1633.83895 568.0802634 139.1318626)
(1365.699323 884.1138892 -1498.9351)
(163.213014 545.7925661 -193.1606172)
(1685.23186 -106.6964337 86.67299967)
(-127.6755023 -66.346975 -67.80093463)
(1452.989071 109.0236116 -455.651952)
(-77.37039328 -15.22952658 483.5957075)
(541.5068138 1296.769716 546.7542164)
(568.7758331 98.00843359 108.3238038)
(352.6879587 -467.1874667 722.543789)
(1667.745266 309.5448612 -252.3198971)
(1133.011052 201.1429058 555.4783762)
(1466.340136 190.2414332 -68.31675523)
(1781.564001 316.6175982 201.9415231)
(1353.769961 1142.593242 129.6468626)
(1024.667786 -860.2454132 685.3669749)
(1476.321363 92.63321442 -127.0715557)
(1529.818462 295.0386883 -513.1566203)
(1411.674751 519.6117983 -408.7055009)
(1874.322875 -493.2007859 -126.2719331)
(-158.8302562 1579.295534 150.8532492)
(808.4603781 231.0149804 175.9541766)
(2006.784191 367.554277 196.2988932)
(-19.40250997 1304.126638 489.6947001)
(-260.6334854 586.338783 14.14698284)
(644.8344175 -215.2105569 1379.247256)
(974.5934334 -24.38395482 531.3357745)
(1321.053099 366.0032285 578.3650452)
(665.3901473 -661.4380985 380.8857705)
(292.2830485 790.3635571 -785.099814)
(1178.686089 858.496004 393.6170603)
(262.7468832 -374.1269445 294.1860927)
(1493.505737 913.6933934 -280.9684128)
(1508.015719 222.0241285 472.5397234)
(1444.557382 557.2924939 -87.66312771)
(357.8191089 103.4428057 -522.3233078)
(1483.805909 285.30377 -305.8538004)
(173.7166665 -377.0996865 512.5752844)
(1618.493094 -399.2613437 337.2869519)
(207.7187695 541.1724996 841.29787)
(617.0435019 599.9873531 128.3804866)
(1546.386486 550.3589067 102.3286082)
(2146.805247 727.3629616 408.8610524)
(1796.509306 253.5691297 -181.2493204)
(979.5525676 -428.9886894 -534.3780357)
(464.1052018 545.2036984 -522.6923048)
(2122.4365 974.6249905 98.30880233)
(653.6748104 -224.2530079 335.6871191)
(2272.576826 -45.00026419 -746.8695086)
(1017.911023 384.3743079 -321.4680037)
(1868.179498 -36.33862642 686.9923185)
(1236.897436 -134.1132423 -686.4022803)
(1501.10782 -161.4684019 -524.1751379)
(1694.435304 -183.6321704 -250.3683903)
(1646.182294 -435.7301862 224.5610839)
(237.8512176 302.0539861 419.2569289)
(1379.628827 726.5470804 292.8369502)
(1091.14244 340.6186672 747.1618269)
(-26.99721051 174.301414 -236.6220799)
(1455.467557 1740.361582 294.997546)
(221.8960439 203.4137193 -325.6460728)
(958.356912 -342.5240459 -720.0446447)
(1103.790484 1044.719578 -522.1924162)
(1295.107848 221.6245164 546.0273691)
(55.32771545 -280.9167256 -116.0776568)
(1553.482977 -149.6472102 396.9406179)
(1979.765177 62.78718155 339.1603557)
(834.9218507 -555.6881882 -584.1711711)
(670.1932284 288.1001388 811.9831993)
(1387.654202 -984.328139 538.4475971)
(228.6935033 237.7552109 95.7347572)
(933.9620771 -259.9029526 320.1895681)
(9.701188494 599.1691517 480.86267)
(945.7635327 -330.8211938 -428.370151)
(475.6242847 -173.3857013 124.3626031)
(1166.295701 1040.549197 370.3798199)
(-473.7815301 273.6469428 218.5499209)
(1384.365139 -360.2993761 220.811469)
(674.6314413 128.8587258 -66.91458256)
(495.9019792 615.202773 361.6366479)
(1371.262598 142.5996262 49.34536829)
(1817.147425 59.67642916 -497.9711394)
(1885.180084 -159.1299065 456.9951254)
(1784.280822 -23.97500273 132.5915514)
(1539.858493 208.6430302 404.207566)
(1454.3793 -171.1894265 -164.1253875)
(1716.970244 16.12066681 -45.67389153)
(1916.387961 -363.118192 -786.8080467)
(1683.750475 -538.5885968 -270.1145718)
(1446.197095 -162.0844898 151.1942861)
(1157.066415 563.6588596 418.9921026)
(1106.732707 -544.3346789 -268.611746)
(336.8572278 637.669518 -134.0669259)
(1314.889889 -111.965709 260.7367474)
(226.8571498 383.2159555 99.27769473)
(177.1239248 331.6991484 -677.5598045)
(547.8574072 -68.65988013 -500.3719972)
(1684.477097 545.6843427 208.9916681)
(1033.938216 286.5251719 921.0565219)
(1299.0788 833.8505651 319.5201526)
(1640.990798 -303.3211199 -345.9619014)
(1037.47035 608.1628644 -56.53643529)
(1705.537395 806.4885077 771.3353469)
(1828.302134 874.8632159 112.4854058)
(-991.1094737 113.9430248 81.92057733)
(492.9269199 201.8599832 268.624494)
(804.3439257 734.0048631 158.2316393)
(1191.883835 350.5304976 -116.1741771)
(941.1119847 259.8833023 3.811416869)
(1893.444869 -217.1887495 -124.0310733)
(1921.672772 148.6264116 -230.7853838)
(1250.911192 945.2578602 -126.6213552)
(1418.58733 257.2783592 28.20865651)
(1399.076311 -97.39677344 -280.2615633)
(1801.848908 104.8527755 -737.3080407)
(1546.571474 -35.69985503 -195.5028697)
(1246.752299 227.167075 -425.9030381)
(1758.725678 -243.0232219 114.4917655)
(1743.400322 66.83181903 -225.5118166)
(1682.252873 433.562125 -353.1484318)
(1315.943452 -472.6415283 208.3836604)
(1838.119345 -162.7994316 16.40559099)
(1412.839986 -103.4142159 409.8117617)
(761.1686459 501.0752638 763.5282412)
(1351.775012 212.7277825 -672.6456624)
(1806.778339 -172.0411513 -243.8434733)
(1015.089002 97.70797972 -98.02972553)
(1362.165373 -146.344583 133.4565636)
(1236.127427 -172.4120431 207.9152691)
(1237.272407 43.73418167 198.0419135)
(409.7969685 -15.75972547 44.53234904)
(1222.913554 -358.9707293 -156.3187837)
(-347.6909936 899.1885326 952.5438258)
(1636.57146 144.8677406 -179.7145952)
(1461.46111 341.8686917 316.5868989)
(1118.218657 1394.060106 18.40772964)
(883.4664625 -614.4483543 -162.5081452)
(1515.898731 1019.934369 318.0830159)
(2255.899386 -402.5971657 -154.7164087)
(1103.26682 1755.015475 87.85624978)
(1081.813489 113.5793718 507.1833654)
(1595.834655 108.4350398 -634.5407763)
(681.7896536 14.68943632 -323.9520565)
(576.8532203 762.0932704 -39.48964312)
(7.496062929 227.9383651 -1039.485098)
(521.6969407 -185.7577919 75.81647302)
(-343.3156894 -723.3413503 -435.486364)
(1536.910171 -148.5740289 -174.6902184)
(648.011512 758.0019916 -24.0871906)
(292.7212893 254.0160298 580.7086514)
(1178.846154 -30.15540829 377.5671164)
(153.4465565 97.62216983 198.7493578)
(1904.572969 510.6690489 243.7569161)
(1541.956899 519.3784738 -288.9043305)
(1706.35596 -50.14905952 -326.8895258)
(212.5620062 328.977329 354.9067302)
(1719.26149 366.4156196 -207.1731805)
(1559.231151 -8.806843178 -118.717635)
(1238.848534 -184.8422169 -66.75563603)
(1757.652495 -3.740682367 -692.0371603)
(1625.58898 121.0745 364.9779744)
(1736.313305 249.8759883 181.2811339)
(1344.010428 44.69142334 -80.3122307)
(1523.601849 14.48398576 31.38867273)
(1994.853122 317.4375851 518.0584663)
(1946.119198 -270.9893202 219.8395625)
(1580.369933 -128.0816481 438.0206005)
(1452.168378 -5.802615395 185.6272087)
(558.2830323 1244.638999 52.8055389)
(1512.619158 229.6931713 189.0509335)
(1273.295888 -4.402965979 -123.6830349)
(1598.272543 -120.8550655 167.6473954)
(1070.784571 180.8673839 1197.752803)
(678.127665 550.8070277 -404.7375927)
(44.30448305 423.3885835 -30.32927136)
(848.4334107 -66.52258932 -88.03531396)
(324.7787308 303.886442 92.17030022)
(-371.4485089 448.4269583 448.7361133)
(665.7416245 -460.1327147 777.0280668)
(-255.7225724 523.1697987 6.07021288)
(1039.789147 252.6940661 -535.5677461)
(1497.8241 -247.2396513 -190.1244107)
(-187.5803705 624.8473239 -109.113148)
(1774.877999 603.6739178 -498.000712)
(849.3925337 404.2636315 757.5267029)
(588.5704556 654.7793269 -948.3243528)
(425.7738893 290.3563423 362.3661114)
(-780.2362938 -71.82738943 -621.1339404)
(1625.897578 481.7264938 433.4418223)
(393.5189574 98.14927163 358.8583705)
(1734.822283 910.7119198 513.0047007)
(815.7701956 -464.6132974 824.38601)
(1019.63869 131.3992801 308.9325595)
(1316.732586 957.4052949 923.8820759)
(1082.488365 -634.1285212 242.8734091)
(367.3701553 735.0929948 180.1170008)
(468.1442636 362.8759051 915.5507766)
(788.2944669 -201.2021044 155.400158)
(1298.066038 316.4583802 -279.0932628)
(1925.343003 -763.9966958 904.8257252)
(1889.661236 -38.95931274 41.57558654)
(741.6470591 421.2751284 338.9750447)
(758.3353367 1240.866872 1243.046763)
(946.0273476 1193.776917 599.4379193)
(1141.533506 -115.5034832 -677.7517359)
(1290.593683 -355.486995 282.0015534)
(773.7736991 648.7797752 -41.78953195)
(1683.789566 259.9740577 -38.68427359)
(1958.993895 366.3263993 -533.6946566)
(1838.298979 -374.3050286 219.6122734)
(1200.14484 650.7946093 417.5232976)
(1391.695532 -428.233606 -403.6322807)
(1934.88296 -337.5662708 77.48329484)
(1519.490453 -287.1854512 93.70644471)
(1655.992936 182.0933383 -178.0176466)
(1114.452067 331.6129402 -212.387932)
(1838.827844 -304.3203922 198.1667325)
(2078.300794 108.1442381 436.2829074)
(1680.249602 366.0295857 5.347369267)
(1474.356484 327.7814854 72.12261093)
(2046.438962 -122.7311282 -134.2722154)
(1756.948971 -232.2617475 280.8210103)
(1703.144568 -296.1472891 -168.9490359)
(1484.73233 586.2653701 137.8985154)
(1446.757612 713.1892577 -141.0346645)
(1411.971579 367.8403018 -235.8043776)
(165.3343984 973.0979949 -496.2602874)
(-83.33146151 -157.2563431 134.3012833)
(1217.86506 -431.4954295 -546.154075)
(883.2724446 849.3385704 498.4094474)
(1572.935533 490.3258262 -178.9842743)
(985.761252 33.10759807 660.4932675)
(698.2006829 223.5991649 95.46055985)
(649.7993599 629.0160659 -50.02177298)
(383.2885015 57.33446845 26.58275039)
(1405.618082 821.8952968 -1.448749777)
(282.7066054 724.7855875 -219.1400604)
(1943.459625 878.0624875 4.656037683)
(584.4638687 -325.4749044 -444.2179071)
(1640.021401 470.0470559 -261.8013677)
(-383.5985517 -50.19217971 -464.7563573)
(542.951171 425.2845237 -546.2902514)
(1583.673166 111.1234473 421.9603527)
(1615.148596 687.6350803 171.9684127)
(1689.14935 219.9690342 3.191511052)
(1099.429349 -450.7115885 112.8918455)
(1942.345104 -274.67927 -164.6549748)
(1455.823833 686.8235079 791.9634692)
(2336.58413 301.5049577 -237.3669715)
(850.6407395 -4.230416769 68.09976188)
(1589.753488 -104.0469644 -754.2846139)
(1285.156056 -173.6153054 509.2157499)
(1308.177751 886.545921 -238.2114101)
(1475.556063 455.0240602 -312.2889606)
(2059.904504 -64.65580545 96.43977962)
(1714.678614 587.9227741 425.8450741)
(1343.915119 91.25498612 194.0624373)
(1656.039335 -111.1622322 206.8819866)
(1192.824645 -209.0234866 240.0731293)
(1801.044155 -267.4519116 182.4846357)
(1702.311135 -242.5968624 120.7479449)
(1241.05144 -195.8247781 -223.4949137)
(2224.198451 -103.7848402 -233.9257569)
(151.8306051 162.6990102 313.4509717)
(279.7497986 227.8376782 1382.727886)
(294.6785596 881.701556 -390.5128141)
(1621.529685 786.5488828 567.1295934)
(-406.5627699 -41.26406059 -172.2072547)
(1239.926178 66.26259417 -185.767349)
(-9.101988308 557.7564724 437.2518749)
(1585.417971 651.6104484 -6.777912514)
(203.9762485 250.6127871 -132.5576176)
(-467.3276551 515.2378607 254.1005896)
(2143.031917 20.30104016 13.39089152)
(918.2288883 1243.787338 568.7947727)
(816.2979892 427.5089574 -459.0715193)
(-141.0059049 120.4789471 1032.603333)
(-10.12037014 349.0731853 105.564689)
(1465.146369 66.8236685 -246.7970509)
(141.9742336 714.6844497 -26.06672696)
(1612.615242 809.9637253 -1021.357279)
(1458.062746 457.7884238 -514.9426613)
(550.8238953 752.1591354 -269.3346176)
(-124.9810613 414.0421445 860.1242653)
(1151.203151 211.4274708 -830.8687778)
(1225.385699 588.5423154 540.4801921)
(1272.060016 1230.223361 280.8442987)
(1588.139223 410.831122 -453.1918809)
(1385.066656 -1165.38189 -273.177529)
(1748.593544 305.3124281 333.1051595)
(1507.161518 -661.3987572 -864.4447688)
(1762.160219 1146.69142 -651.7285664)
(1508.232703 -384.8268209 180.2153429)
(1575.483768 -797.7326181 -233.3758598)
(1505.46491 263.5394824 -84.52045298)
(1586.674544 84.08586188 249.0722548)
(1313.946218 296.6852977 573.4206682)
(1926.326456 693.9179285 483.5340838)
(1401.377849 -49.60022128 -628.3182666)
(1701.015934 14.76912847 291.4541555)
(1591.12498 -76.34943757 83.40673261)
(1254.372628 152.1732574 756.9260301)
(1597.448828 62.46359948 -1.079386959)
(1793.568729 -21.239132 -126.7813309)
(1577.997162 323.221254 213.5510852)
(1414.34176 72.03986939 -46.62872759)
(1796.531079 -503.7438227 380.2312133)
(1822.257361 176.8505769 -311.8049335)
(1683.044589 -327.3553097 -106.9055226)
(1610.200109 67.42262662 -774.1686054)
(1539.534265 -89.07703766 -88.78077913)
(1356.049054 -56.65608716 60.97765306)
(1550.573001 1.594449526 311.8246822)
(1895.272643 -300.7944583 -548.3753363)
(1290.108439 -553.6555925 -111.8669271)
(1996.147675 1511.262099 119.8440583)
(1597.986063 584.9760039 -184.1963778)
(-155.3287272 74.49843686 -93.47406037)
(1217.271057 846.9889201 256.8075911)
(230.0391497 751.4061219 -90.36221195)
(1544.849003 -819.2675657 66.61696246)
(1427.982328 1513.001743 -808.683045)
(1157.065776 -628.4295339 531.2578434)
(538.3397772 169.5031066 -961.9574094)
(-327.6288155 -301.9729739 -428.249618)
(-261.6641763 548.7032924 -1189.171986)