/*--------------------------------*- C++ -*----------------------------------*\
| =========                 |                                                 |
| \\      /  F ield         | OpenFOAM: The Open Source CFD Toolbox           |
|  \\    /   O peration     | Version:  2406                                  |
|   \\  /    A nd           | Website:  www.openfoam.com                      |
|    \\/     M anipulation  |                                                 |
\*---------------------------------------------------------------------------*/
FoamFile
{
    version     2.0;
    format      ascii;
    arch        "LSB;label=32;scalar=64";
    class       volScalarField;
    location    "0.01";
    object      dsmcRhoNMean;
}
// * * * * * * * * * * * * * * * * * * * * * * * * * * * * * * * * * * * * * //

dimensions      [0 -3 0 0 0 0 0];

internalField   nonuniform List<scalar> 
654
(
7.3334
9.4284
9.4688
9.459
9.4938
9.4872
9.47
9.507
9.4754
9.4394
9.462
9.4622
9.4478
9.4806
9.5124
9.5674
9.5784
9.741
10.2728
13.0782
7.415
9.5352
9.6232
9.5754
9.5674
9.6018
9.5836
9.5828
9.5746
9.5696
9.5966
9.6136
9.6554
9.6818
9.6804
9.779
9.866
10.1562
10.789
12.5148
7.462
9.6326
9.6364
9.5958
9.5988
9.6082
9.6308
9.6024
9.626
9.6092
9.6278
9.6158
9.557
9.611
9.6394
9.6378
9.7244
9.9162
10.3778
11.4092
7.4696
9.56
9.655
9.6398
9.6054
9.594
9.6
9.6066
9.5754
9.6142
9.574
9.6146
9.6406
9.5608
9.5908
9.5814
9.6504
9.8088
10.1672
10.913
7.4574
9.5738
9.5402
9.5606
9.5774
9.576
9.559
9.5396
9.5376
9.543
9.5228
9.525
9.5622
9.5694
9.593
9.6936
9.737
9.9054
10.147
10.5074
7.4088
9.5072
9.6072
9.5322
9.5332
9.5124
9.5026
9.5576
9.5508
9.5798
9.5692
9.5486
9.4924
9.4924
9.5768
9.5814
9.634
9.7482
9.8702
10.1368
7.4604
9.5858
9.645
9.628
9.7036
9.6704
9.6702
9.6432
9.681
9.723
9.6982
9.6942
9.7518
9.69
9.7132
9.6604
9.7266
9.783
9.9288
10.108
7.429
9.5332
9.5748
9.5452
9.5488
9.5652
9.585
9.6036
9.6068
9.568
9.5666
9.5328
9.5682
9.5944
9.6136
9.6512
9.695
9.7354
9.8154
9.8882
7.4696
9.6308
9.679
9.678
9.6212
9.6008
9.6322
9.6414
9.5764
9.5732
9.6382
9.6646
9.6034
9.5946
9.564
9.6248
9.702
9.749
9.7842
9.9372
7.439
9.4846
9.5972
9.591
9.6086
9.6248
9.5944
9.6062
9.6472
9.6562
9.6138
9.627
9.6692
9.6664
9.672
9.698
9.715
9.67
9.7404
9.753
7.474
9.595
9.591
9.5762
9.527
9.4856
9.4782
9.4988
9.4892
9.537
9.6072
9.5972
9.644
9.6614
9.6366
9.5488
9.5612
9.6538
9.7328
9.7982
7.4486
9.6198
9.677
9.6596
9.7272
9.7152
9.7352
9.7436
9.7528
9.6726
9.6116
9.5484
9.4954
9.5676
9.6042
9.7088
9.7736
9.7196
9.7116
9.746
7.4548
9.5708
9.601
9.5764
9.527
9.5352
9.5768
9.5422
9.5212
9.53
9.6
9.6394
9.6744
9.6468
9.5786
9.6058
9.6272
9.6582
9.7108
9.7026
7.4872
9.6116
9.6954
9.7108
9.7382
9.7244
9.6748
9.692
9.7
9.6862
9.6594
9.6668
9.6554
9.6592
9.669
9.6152
9.5756
9.5384
9.56
9.621
7.3982
9.561
9.5884
9.5482
9.5848
9.622
9.6506
9.6386
9.669
9.689
9.6716
9.656
9.678
9.6098
9.61
9.5898
9.6042
9.6172
9.6082
9.595
7.4864
9.6166
9.6456
9.631
9.5654
9.5674
9.589
9.5608
9.571
9.547
9.5376
9.5348
9.4452
9.4902
9.5292
9.572
9.6026
9.5894
9.6124
9.562
7.4468
9.498
9.5362
9.5536
9.5618
9.5798
9.517
9.519
9.5106
9.5022
9.5174
9.5568
9.575
9.6294
9.5692
9.5648
9.5836
9.609
9.5804
9.581
7.4114
9.5566
9.6108
9.6386
9.6238
9.5712
9.6194
9.6064
9.6052
9.6022
9.6022
9.5844
9.6006
9.585
9.5994
9.5934
9.6226
9.582
9.6298
9.6264
7.4636
9.6114
9.6204
9.5526
9.5712
9.6074
9.5902
9.6078
9.5868
9.5726
9.577
9.602
9.5446
9.5702
9.5592
9.547
9.575
9.5612
9.5336
9.5264
7.4292
9.5842
9.7216
9.708
9.6872
9.6974
9.676
9.6312
9.6618
9.666
9.6658
9.6794
9.693
9.6472
9.653
9.6266
9.6338
9.6504
9.7084
9.6888
7.436
9.5258
9.5056
9.5292
9.5424
9.5754
9.5644
9.5068
9.537
9.5734
9.6026
9.6026
9.6042
9.6566
9.6954
9.724
9.7136
9.7186
9.7034
9.6754
7.4316
9.5498
9.5924
9.5296
9.5648
9.5276
9.6048
9.6414
9.712
9.6766
9.6296
9.5982
9.6184
9.6294
9.606
9.6086
9.5902
9.5754
9.6186
9.6186
23.1954
26.4758
27.5498
28.1614
28.1824
28.467
28.5384
28.6478
27.637
27.6042
15.8362
18.831
20.9356
22.3436
23.4822
24.1202
24.4194
24.7746
24.8498
24.6044
13.165
15.1938
16.807
18.4828
19.7046
20.865
21.739
22.4212
22.7364
23.019
11.8378
12.9788
14.2566
15.7132
16.8944
18.0898
19.2222
20.0554
20.703
21.3676
11.085
11.8858
12.744
13.736
14.8244
15.7624
16.7894
17.5752
18.7028
19.7192
10.5322
11.0404
11.5768
12.3482
13.1048
14.1456
15.2428
16.0752
16.9728
17.7816
10.3738
10.6778
10.9994
11.597
12.1208
12.8332
13.6062
14.403
15.3396
16.1838
10.0448
10.2758
10.5294
10.915
11.2938
11.7408
12.3854
13.0468
13.805
14.5642
9.997
10.106
10.2154
10.4292
10.7428
11.1084
11.5004
11.9596
12.573
13.2378
9.8732
9.968
10.0994
10.181
10.3464
10.5828
10.9422
11.2632
11.6022
12.0576
9.838
9.826
9.937
10.0654
10.1734
10.2848
10.4498
10.7478
10.9718
11.3558
9.7316
9.6874
9.6494
9.706
9.7144
9.8582
9.9964
10.2612
10.537
10.744
9.7024
9.7144
9.6574
9.6658
9.6812
9.7698
9.9082
9.9014
9.966
10.2624
9.6364
9.596
9.621
9.5896
9.5768
9.5316
9.5412
9.6628
9.8014
9.9046
9.5824
9.5048
9.4802
9.4632
9.392
9.4704
9.4456
9.482
9.5258
9.6002
9.6116
9.5766
9.4932
9.4496
9.491
9.4452
9.4348
9.418
9.4582
9.479
9.5334
9.5412
9.4456
9.4168
9.3174
9.312
9.316
9.3168
9.2668
9.3536
9.6168
9.4588
9.4434
9.3752
9.4074
9.3702
9.3038
9.2826
9.2536
9.2334
9.5502
9.5782
9.5284
9.5054
9.4088
9.3114
9.2538
9.188
9.1576
9.19
9.637
9.5794
9.5206
9.4104
9.3678
9.343
9.3224
9.3158
9.198
9.139
9.6272
9.5516
9.4718
9.4012
9.3212
9.2586
9.1798
9.15
9.1884
9.1408
9.5858
9.4738
9.4352
9.4208
)
;

boundaryField
{
    flow
    {
        type            calculated;
        value           nonuniform List<scalar> 
42
(
7.3334
7.415
7.462
7.4696
7.4574
7.4088
7.4604
7.429
7.4696
7.439
7.474
7.4486
7.4548
7.4872
7.3982
7.4864
7.4468
7.4114
7.4636
7.4292
7.436
7.4316
7.3334
9.4284
9.4688
9.459
9.4938
9.4872
9.47
9.507
9.4754
9.4394
9.462
9.4622
9.4478
9.4806
9.5124
9.5674
9.5784
9.741
10.2728
13.0782
)
;
    }
    obstacle
    {
        type            calculated;
        value           nonuniform List<scalar> 10(23.1954 26.4758 27.5498 28.1614 28.1824 28.467 28.5384 28.6478 27.637 27.6042);
    }
    frontAndBack
    {
        type            empty;
    }
    procBoundary0to1
    {
        type            processor;
        value           nonuniform List<scalar> 
21
(
27.2388
24.6308
23.0046
21.4934
20.2028
18.758
16.9582
15.2798
14.0222
12.6404
11.8198
11.069
10.4584
9.9762
9.7608
9.483
9.3772
9.2442
9.1914
9.1276
9.0246
)
;
    }
    procBoundary0to2
    {
        type            processor;
        value           nonuniform List<scalar> 
31
(
7.431
9.5776
9.6688
9.6202
9.6132
9.6084
9.6154
9.5862
9.5306
9.6144
9.6414
9.6812
9.6642
9.597
9.5848
9.5802
9.5962
9.5966
9.5324
9.5112
9.375
9.3138
9.265
9.175
9.129
9.1128
9.5088
9.4734
9.4276
9.375
9.3058
)
;
    }
}


// ************************************************************************* //
