/*--------------------------------*- C++ -*----------------------------------*\
| =========                 |                                                 |
| \\      /  F ield         | OpenFOAM: The Open Source CFD Toolbox           |
|  \\    /   O peration     | Version:  2406                                  |
|   \\  /    A nd           | Website:  www.openfoam.com                      |
|    \\/     M anipulation  |                                                 |
\*---------------------------------------------------------------------------*/
FoamFile
{
    version     2.0;
    format      ascii;
    arch        "LSB;label=32;scalar=64";
    class       volScalarField;
    location    "0.01";
    object      dsmcSigmaTcRMax;
}
// * * * * * * * * * * * * * * * * * * * * * * * * * * * * * * * * * * * * * //

dimensions      [0 3 -1 0 0 0 0];

internalField   nonuniform List<scalar> 
654
(
5.740538342e-16
6.583265e-16
6.108646134e-16
5.983798451e-16
6.02362675e-16
6.232870788e-16
6.332676963e-16
6.097710396e-16
6.305201985e-16
5.784469036e-16
6.130971324e-16
8.504836161e-16
7.541846476e-16
7.722631798e-16
7.729130894e-16
8.658610282e-16
8.180374855e-16
8.362921828e-16
8.800031899e-16
9.183965658e-16
6.176791253e-16
5.987660265e-16
5.97946086e-16
5.800941795e-16
6.163013095e-16
5.926194587e-16
5.961613217e-16
5.85200341e-16
8.124393629e-16
6.049582798e-16
7.86571303e-16
7.414422173e-16
7.786698403e-16
7.13349337e-16
8.325756388e-16
7.820317634e-16
8.155749339e-16
8.578308276e-16
8.688110311e-16
8.717365353e-16
6.211151892e-16
6.113459007e-16
6.18059286e-16
6.144187366e-16
6.253479865e-16
6.316341362e-16
6.33175897e-16
6.244842007e-16
7.817943987e-16
6.500408336e-16
6.096049302e-16
7.252616478e-16
7.552568559e-16
7.437998786e-16
8.671626902e-16
8.247864492e-16
8.908983551e-16
8.509918734e-16
8.972540969e-16
8.929166992e-16
5.993003569e-16
6.633259177e-16
5.973478037e-16
5.982958732e-16
6.058598508e-16
6.445887087e-16
5.818018543e-16
6.601166476e-16
6.480279118e-16
6.744553863e-16
7.520512487e-16
7.693582181e-16
7.880078461e-16
8.235960958e-16
8.464675765e-16
8.557281399e-16
8.128549506e-16
8.431710847e-16
9.214606327e-16
8.345307525e-16
6.059153748e-16
6.228310579e-16
5.991898638e-16
6.146037485e-16
6.263018777e-16
6.289510285e-16
6.307302348e-16
6.307302348e-16
7.221734047e-16
6.246595232e-16
6.382974565e-16
6.946259308e-16
6.891023179e-16
8.617735672e-16
8.316552275e-16
9.056598485e-16
8.094186486e-16
8.384846325e-16
8.669809048e-16
8.939983917e-16
6.133049863e-16
6.332568248e-16
6.896273503e-16
6.461588741e-16
5.916196735e-16
6.24110981e-16
6.150211903e-16
5.939528074e-16
6.91947189e-16
7.975917381e-16
7.715256129e-16
6.349527184e-16
7.346974302e-16
7.823407869e-16
7.850579065e-16
8.728350631e-16
8.515114975e-16
9.158130289e-16
8.31545588e-16
8.388548759e-16
5.687502043e-16
6.505796836e-16
6.527787921e-16
6.547651932e-16
6.301510577e-16
5.868204337e-16
6.159141004e-16
6.259727211e-16
6.282344941e-16
5.932625437e-16
6.37474548e-16
8.802157576e-16
7.292840607e-16
7.805048518e-16
8.753539916e-16
8.249689383e-16
8.980914723e-16
8.44557443e-16
7.786441097e-16
8.175366339e-16
6.165851427e-16
6.149952799e-16
5.989854163e-16
6.180258642e-16
6.748198365e-16
6.053139046e-16
6.051941881e-16
6.434045607e-16
6.165603742e-16
8.597165545e-16
6.299172328e-16
6.350023719e-16
6.60615436e-16
8.423611023e-16
8.098885659e-16
7.836946322e-16
8.92043415e-16
8.437937632e-16
8.796532589e-16
8.638937452e-16
5.746552968e-16
6.052533145e-16
5.859252239e-16
6.468899575e-16
5.682015633e-16
6.205324453e-16
5.943267326e-16
6.556231201e-16
6.314832218e-16
6.916364378e-16
6.078577293e-16
6.795712631e-16
5.858072393e-16
7.928370547e-16
7.898557639e-16
8.572801475e-16
8.393671385e-16
8.180915934e-16
8.577911907e-16
8.159901658e-16
5.79441637e-16
5.829227282e-16
6.38441237e-16
5.902909413e-16
6.385139445e-16
5.909419089e-16
6.103039303e-16
6.216444193e-16
6.621889837e-16
6.203844983e-16
6.298749937e-16
7.740123766e-16
7.18589553e-16
8.668127552e-16
7.11872282e-16
7.528951474e-16
8.909251683e-16
8.287930322e-16
8.052870139e-16
8.005379514e-16
6.041266832e-16
5.996621346e-16
5.985312313e-16
6.091510194e-16
6.417237336e-16
6.174885824e-16
6.359632113e-16
6.777160364e-16
6.893214864e-16
8.441850317e-16
5.944569855e-16
6.082165699e-16
6.976918099e-16
6.464151755e-16
7.036849784e-16
8.35351366e-16
7.822405269e-16
8.113089127e-16
7.900742779e-16
8.059328621e-16
6.472680409e-16
6.549088254e-16
6.189336348e-16
6.273999745e-16
5.920381107e-16
6.160447692e-16
5.775183936e-16
6.14246767e-16
7.113900327e-16
6.430199275e-16
6.16757683e-16
6.497686056e-16
5.90214465e-16
7.58471593e-16
7.863640592e-16
8.474817151e-16
8.055918193e-16
7.354553797e-16
8.010901111e-16
7.758859613e-16
6.299483224e-16
6.513315694e-16
6.403171363e-16
6.203865565e-16
5.682566624e-16
5.909013406e-16
6.47602767e-16
8.319178339e-16
6.151180078e-16
6.001147191e-16
5.986458392e-16
6.585776744e-16
6.107884106e-16
6.376322558e-16
6.371010606e-16
7.448412954e-16
7.702074577e-16
8.024217073e-16
7.836142121e-16
7.78607924e-16
6.039971852e-16
6.380037216e-16
6.61451348e-16
6.296619976e-16
6.427718955e-16
6.305688028e-16
5.748917909e-16
7.576892118e-16
6.405633968e-16
5.933771663e-16
7.582766612e-16
6.394603622e-16
6.060483402e-16
6.815329065e-16
5.92251522e-16
7.552606179e-16
7.648750597e-16
7.08049216e-16
7.065028268e-16
7.733806462e-16
5.54904601e-16
6.093529047e-16
6.029630466e-16
5.994941953e-16
6.171054393e-16
6.123068209e-16
6.214665719e-16
6.724634273e-16
6.068484291e-16
6.01301436e-16
7.667748853e-16
6.130728277e-16
6.251728847e-16
6.030616177e-16
7.89545401e-16
6.936448877e-16
7.604621101e-16
6.989527572e-16
7.49501878e-16
7.480335453e-16
6.236616333e-16
6.420358384e-16
6.120763678e-16
5.913263384e-16
6.070669346e-16
6.207581263e-16
5.953138164e-16
6.254691441e-16
6.366229624e-16
6.26186614e-16
7.005321246e-16
6.012092853e-16
6.169738658e-16
6.173844951e-16
7.487505627e-16
7.200228593e-16
8.018967827e-16
8.424162459e-16
7.607696495e-16
8.224253836e-16
5.936711272e-16
6.230476873e-16
5.926423831e-16
6.093704603e-16
5.790745038e-16
6.122966557e-16
6.08517245e-16
6.554396321e-16
6.097740769e-16
6.391931853e-16
5.727459105e-16
6.821037465e-16
6.696182004e-16
6.145295995e-16
5.944528486e-16
6.476343272e-16
6.206944562e-16
8.166121894e-16
6.829356731e-16
8.119529741e-16
5.927995992e-16
6.235127567e-16
6.248716148e-16
5.96326376e-16
6.316608034e-16
6.114306187e-16
6.348503549e-16
6.453042671e-16
5.919924204e-16
6.222724102e-16
5.717483039e-16
6.562949228e-16
7.579366195e-16
6.042107141e-16
6.160854525e-16
7.014950086e-16
6.344475359e-16
6.291017822e-16
6.107282893e-16
7.643709532e-16
6.297493559e-16
6.01375708e-16
6.205721967e-16
5.994463657e-16
6.043529991e-16
6.328353514e-16
6.578764912e-16
6.103408779e-16
5.942256514e-16
6.14748248e-16
6.060774327e-16
6.296851738e-16
6.20363094e-16
6.625565665e-16
6.833069734e-16
6.90132581e-16
6.242669577e-16
6.7955335e-16
7.440212541e-16
6.048814228e-16
6.011137662e-16
6.26743704e-16
5.878305155e-16
6.274603105e-16
5.894928908e-16
6.275383727e-16
6.143768847e-16
5.967820226e-16
6.186324105e-16
6.009906672e-16
6.003665721e-16
6.309560795e-16
6.527414703e-16
5.949261341e-16
6.338862567e-16
8.46699122e-16
6.702414272e-16
7.021913877e-16
6.918673711e-16
8.113602186e-16
6.003904368e-16
6.392545043e-16
6.410104421e-16
6.059666988e-16
6.316630898e-16
6.306604303e-16
5.959134224e-16
5.890814931e-16
6.152372542e-16
6.129971222e-16
6.241877413e-16
7.656140473e-16
7.695043446e-16
6.42664666e-16
8.054218675e-16
6.300839501e-16
6.508178876e-16
6.316292256e-16
7.116282297e-16
7.360361807e-16
5.77140436e-16
6.165626245e-16
6.89408652e-16
6.042668291e-16
5.802458115e-16
5.853279503e-16
5.98409612e-16
6.033673745e-16
6.280862708e-16
6.136283378e-16
6.163284239e-16
6.243445758e-16
7.457437284e-16
7.783538596e-16
6.87295892e-16
6.092778192e-16
6.419762031e-16
8.289662159e-16
6.107711194e-16
7.089255215e-16
8.954749153e-16
8.953532317e-16
9.077155719e-16
9.025494107e-16
9.066435632e-16
9.460405523e-16
9.386295736e-16
8.806496278e-16
9.062779385e-16
8.88300475e-16
8.992199429e-16
8.818604882e-16
9.530163432e-16
8.942930033e-16
8.759316832e-16
8.77512625e-16
8.778487616e-16
8.886404687e-16
9.20661526e-16
8.649956698e-16
8.889955195e-16
8.426264076e-16
9.042527304e-16
9.455249581e-16
8.656255956e-16
8.808355575e-16
8.775506653e-16
8.990835831e-16
8.599146194e-16
8.517140774e-16
8.707271866e-16
9.037539919e-16
8.926095904e-16
9.264186959e-16
8.494887368e-16
8.741894131e-16
9.01183733e-16
9.095017931e-16
8.746815195e-16
8.873199309e-16
8.521052208e-16
8.605294497e-16
8.624294271e-16
8.676782438e-16
8.694991528e-16
8.584868924e-16
8.402894595e-16
8.885468263e-16
8.561799656e-16
8.476834918e-16
8.637124174e-16
8.423074189e-16
8.625856768e-16
9.009756713e-16
8.448513542e-16
8.536470181e-16
8.574596577e-16
8.701186061e-16
8.634569081e-16
8.456629938e-16
8.521554625e-16
8.266205069e-16
8.448513021e-16
8.361132534e-16
8.110595525e-16
8.690610594e-16
8.062683791e-16
8.108973951e-16
8.24870305e-16
8.838940869e-16
8.361677836e-16
8.653784269e-16
8.364221097e-16
8.665843683e-16
8.574546918e-16
8.41461925e-16
8.709835321e-16
8.379366434e-16
8.376259806e-16
8.409236378e-16
7.88567511e-16
8.017740871e-16
8.012031006e-16
8.217538868e-16
8.509071817e-16
8.46492599e-16
8.375699768e-16
8.3168658e-16
8.270273055e-16
8.027269375e-16
8.717017351e-16
8.714963824e-16
8.296354359e-16
8.3409173e-16
8.121378792e-16
8.140826405e-16
8.332058398e-16
7.856635963e-16
8.744069691e-16
8.181151707e-16
7.923942113e-16
7.755130321e-16
8.593471171e-16
8.233622864e-16
8.365602285e-16
8.216201632e-16
8.913551624e-16
8.9184675e-16
8.808488768e-16
8.295579764e-16
7.722625036e-16
7.82787926e-16
7.806262794e-16
8.474835438e-16
7.794092364e-16
8.47452534e-16
7.885786916e-16
8.377120091e-16
9.095811041e-16
8.748419703e-16
7.545350911e-16
8.524546472e-16
8.687697071e-16
8.146268966e-16
8.097214478e-16
8.340129793e-16
8.554564059e-16
7.597127787e-16
7.963843482e-16
7.665814998e-16
8.004163985e-16
7.658965676e-16
8.32604481e-16
7.936199991e-16
8.386297888e-16
7.698744524e-16
8.362213781e-16
8.20990497e-16
8.467344782e-16
7.677516106e-16
7.783413786e-16
8.13925135e-16
7.955453536e-16
7.69863919e-16
7.680999644e-16
8.09522497e-16
8.072529236e-16
8.044404647e-16
8.121242127e-16
7.77492275e-16
7.12624107e-16
7.900220273e-16
7.530665751e-16
7.898211086e-16
7.930434619e-16
8.309744957e-16
7.961620318e-16
8.079871477e-16
7.751611473e-16
7.544189665e-16
7.092871629e-16
7.228061267e-16
7.576437595e-16
7.78937236e-16
7.347895871e-16
7.318217819e-16
7.85050646e-16
7.642910227e-16
8.194883681e-16
7.636429468e-16
7.132482664e-16
7.899930169e-16
7.662555853e-16
7.593987586e-16
8.54214979e-16
7.579516961e-16
7.697000947e-16
7.652472685e-16
7.822937554e-16
8.102469599e-16
6.521328793e-16
7.488498696e-16
6.899350576e-16
7.268624954e-16
7.777960661e-16
7.133077888e-16
7.188478668e-16
7.786875392e-16
7.552229209e-16
8.085872074e-16
6.082493288e-16
7.737435973e-16
7.334659213e-16
7.708109253e-16
7.101334385e-16
7.851927988e-16
7.000939339e-16
7.816744843e-16
7.990383109e-16
8.252359413e-16
6.079145017e-16
6.445124735e-16
7.079403138e-16
7.708080934e-16
7.941713625e-16
7.088169099e-16
6.423702356e-16
7.191390263e-16
7.376478844e-16
7.5292836e-16
5.932428717e-16
7.016861311e-16
6.998634201e-16
6.510235498e-16
)
;

boundaryField
{
    flow
    {
        type            zeroGradient;
    }
    obstacle
    {
        type            zeroGradient;
    }
    frontAndBack
    {
        type            empty;
    }
    procBoundary0to1
    {
        type            processor;
        value           nonuniform List<scalar> 
21
(
8.923705598e-16
8.810476263e-16
8.969227752e-16
8.657664125e-16
9.38730981e-16
8.912783478e-16
8.823362653e-16
9.174333777e-16
8.651429247e-16
8.121631546e-16
8.694473823e-16
7.701487887e-16
7.826106632e-16
7.854921666e-16
8.333555169e-16
7.627291618e-16
8.153641825e-16
8.065126568e-16
7.607753432e-16
7.82592707e-16
7.716533731e-16
)
;
    }
    procBoundary0to2
    {
        type            processor;
        value           nonuniform List<scalar> 
31
(
6.216209286e-16
5.935175517e-16
5.732062202e-16
6.059135872e-16
5.937390646e-16
6.375995745e-16
6.633434866e-16
6.277871645e-16
6.267282693e-16
6.08352801e-16
6.243320989e-16
6.117448308e-16
7.214254002e-16
6.084517887e-16
6.380959279e-16
6.191700398e-16
6.347343103e-16
8.033898866e-16
6.674069471e-16
6.121841489e-16
7.49345792e-16
6.848869175e-16
7.125836608e-16
7.362939589e-16
7.95007197e-16
7.218952126e-16
6.883096757e-16
6.64450517e-16
7.837507976e-16
7.49345792e-16
6.549076285e-16
)
;
    }
}


// ************************************************************************* //
