/*--------------------------------*- C++ -*----------------------------------*\
| =========                 |                                                 |
| \\      /  F ield         | OpenFOAM: The Open Source CFD Toolbox           |
|  \\    /   O peration     | Version:  2406                                  |
|   \\  /    A nd           | Website:  www.openfoam.com                      |
|    \\/     M anipulation  |                                                 |
\*---------------------------------------------------------------------------*/
FoamFile
{
    version     2.0;
    format      ascii;
    arch        "LSB;label=32;scalar=64";
    class       volScalarField;
    location    "0.01";
    object      iDofMean;
}
// * * * * * * * * * * * * * * * * * * * * * * * * * * * * * * * * * * * * * //

dimensions      [0 -3 0 0 0 0 0];

internalField   nonuniform List<scalar> 
654
(
1.52740027e+20
1.96374679e+20
1.9721613e+20
1.970120157e+20
1.977368299e+20
1.975993652e+20
1.972411236e+20
1.980117595e+20
1.973535948e+20
1.966037869e+20
1.970744997e+20
1.970786653e+20
1.967787421e+20
1.974619004e+20
1.981242307e+20
1.992697705e+20
1.994988784e+20
2.028855106e+20
2.139618389e+20
2.723926994e+20
1.544395915e+20
1.98599109e+20
2.004319726e+20
1.994363944e+20
1.992697705e+20
1.999862535e+20
1.99607184e+20
1.995905216e+20
1.99419732e+20
1.99315592e+20
1.998779479e+20
2.002320239e+20
2.011026341e+20
2.016524932e+20
2.01623334e+20
2.036769744e+20
2.054890101e+20
2.115332946e+20
2.247132506e+20
2.606582063e+20
1.554185073e+20
2.006277558e+20
2.007069022e+20
1.998612855e+20
1.999237695e+20
2.001195527e+20
2.005902654e+20
1.999987503e+20
2.00490291e+20
2.001403807e+20
2.005277814e+20
2.002778455e+20
1.990531593e+20
2.001778711e+20
2.007693862e+20
2.007360614e+20
2.025397659e+20
2.065345755e+20
2.161487785e+20
2.376307738e+20
1.555768001e+20
1.991156433e+20
2.010943029e+20
2.007777174e+20
2.000612343e+20
1.998237952e+20
1.999487631e+20
2.000862279e+20
1.994363944e+20
2.002445207e+20
1.994072352e+20
2.002528519e+20
2.007943798e+20
1.991323057e+20
1.997571456e+20
1.995613624e+20
2.009984941e+20
2.042976487e+20
2.117624026e+20
2.272959221e+20
1.553226986e+20
1.994030696e+20
1.98703249e+20
1.991281401e+20
1.994780504e+20
1.994488912e+20
1.990948153e+20
1.986907522e+20
1.986490962e+20
1.987615673e+20
1.983408418e+20
1.983866634e+20
1.991614649e+20
1.993114264e+20
1.998029672e+20
2.018982636e+20
2.028021986e+20
2.063096332e+20
2.11341677e+20
2.188480868e+20
1.543104579e+20
1.980159251e+20
2.000987247e+20
1.98536625e+20
1.98557453e+20
1.981242307e+20
1.979201163e+20
1.990656561e+20
1.989240257e+20
1.995280376e+20
1.993072608e+20
1.988782041e+20
1.977076707e+20
1.977076707e+20
1.994655536e+20
1.995613624e+20
2.00656915e+20
2.030354722e+20
2.055764877e+20
2.111292315e+20
1.553851825e+20
1.996530056e+20
2.00886023e+20
2.00531947e+20
2.021065435e+20
2.014150541e+20
2.014108885e+20
2.008485326e+20
2.016358308e+20
2.025106067e+20
2.019940724e+20
2.019107604e+20
2.031104529e+20
2.018232828e+20
2.023064923e+20
2.012067741e+20
2.025855874e+20
2.037602864e+20
2.067970083e+20
2.105293852e+20
1.547311835e+20
1.98557453e+20
1.994238976e+20
1.988073889e+20
1.988823697e+20
1.992239489e+20
1.996363432e+20
2.000237439e+20
2.000903935e+20
1.992822673e+20
1.992531081e+20
1.985491218e+20
1.992864329e+20
1.998321264e+20
2.002320239e+20
2.010151565e+20
2.019274228e+20
2.027688738e+20
2.044351135e+20
2.059513916e+20
1.555768001e+20
2.005902654e+20
2.015941748e+20
2.015733468e+20
2.003903166e+20
1.999654255e+20
2.006194246e+20
2.008110422e+20
1.994572224e+20
1.993905728e+20
2.007443926e+20
2.012942517e+20
2.000195783e+20
1.99836292e+20
1.991989553e+20
2.004652974e+20
2.020732187e+20
2.030521346e+20
2.0378528e+20
2.069719634e+20
1.549394634e+20
1.975452124e+20
1.998904447e+20
1.997613112e+20
2.001278839e+20
2.004652974e+20
1.998321264e+20
2.000778967e+20
2.009318445e+20
2.011192965e+20
2.002361895e+20
2.00511119e+20
2.013900605e+20
2.013317421e+20
2.014483789e+20
2.019899068e+20
2.023439827e+20
2.014067229e+20
2.028730138e+20
2.031354465e+20
1.556684433e+20
1.998446231e+20
1.997613112e+20
1.994530568e+20
1.984283194e+20
1.975660404e+20
1.974119132e+20
1.978409699e+20
1.976410212e+20
1.986365994e+20
2.000987247e+20
1.998904447e+20
2.00865195e+20
2.012276021e+20
2.007110678e+20
1.988823697e+20
1.991406369e+20
2.010693093e+20
2.02714721e+20
2.04076872e+20
1.551394122e+20
2.003611575e+20
2.015525188e+20
2.011901117e+20
2.025980842e+20
2.023481483e+20
2.027647082e+20
2.029396634e+20
2.031312809e+20
2.014608757e+20
2.001903679e+20
1.988740385e+20
1.977701547e+20
1.992739361e+20
2.000362407e+20
2.022148491e+20
2.035645033e+20
2.024397915e+20
2.022731675e+20
2.029896506e+20
1.552685458e+20
1.993405856e+20
1.999695911e+20
1.994572224e+20
1.984283194e+20
1.98599109e+20
1.994655536e+20
1.98744905e+20
1.98307517e+20
1.984908034e+20
1.999487631e+20
2.007693862e+20
2.01498366e+20
2.009235133e+20
1.99503044e+20
2.000695655e+20
2.005152846e+20
2.011609525e+20
2.022565051e+20
2.020857155e+20
1.559433728e+20
2.001903679e+20
2.01935754e+20
2.022565051e+20
2.028271922e+20
2.025397659e+20
2.015066972e+20
2.018649388e+20
2.020315627e+20
2.017441364e+20
2.011859461e+20
2.013400733e+20
2.011026341e+20
2.011817805e+20
2.013858949e+20
2.002653487e+20
1.9944056e+20
1.986657586e+20
1.991156433e+20
2.00386151e+20
1.540896812e+20
1.991364713e+20
1.997071584e+20
1.988698729e+20
1.996321776e+20
2.00406979e+20
2.010026597e+20
2.007527238e+20
2.013858949e+20
2.018024548e+20
2.014400477e+20
2.011151309e+20
2.015733468e+20
2.001528775e+20
2.001570431e+20
1.997363176e+20
2.000362407e+20
2.003070047e+20
2.001195527e+20
1.998446231e+20
1.559267104e+20
2.002945079e+20
2.008985198e+20
2.00594431e+20
1.992281145e+20
1.992697705e+20
1.997196552e+20
1.991323057e+20
1.993447512e+20
1.988448793e+20
1.986490962e+20
1.985907778e+20
1.967245893e+20
1.976618492e+20
1.98474141e+20
1.993655792e+20
2.000029159e+20
1.997279864e+20
2.002070303e+20
1.991572993e+20
1.551019218e+20
1.978243075e+20
1.98619937e+20
1.989823441e+20
1.991531337e+20
1.995280376e+20
1.982200394e+20
1.982616954e+20
1.980867403e+20
1.979117851e+20
1.982283706e+20
1.990489937e+20
1.994280632e+20
2.005611062e+20
1.993072608e+20
1.992156177e+20
1.99607184e+20
2.001362151e+20
1.995405344e+20
1.995530312e+20
1.543646107e+20
1.990448281e+20
2.001737055e+20
2.007527238e+20
2.004444694e+20
1.993489168e+20
2.003528263e+20
2.000820623e+20
2.000570687e+20
1.999945847e+20
1.999945847e+20
1.996238464e+20
1.999612599e+20
1.996363432e+20
1.999362663e+20
1.998112984e+20
2.004194758e+20
1.995738592e+20
2.005694374e+20
2.004986222e+20
1.554518321e+20
2.001862023e+20
2.003736543e+20
1.989615161e+20
1.993489168e+20
2.001028903e+20
1.997446488e+20
2.001112215e+20
1.996738336e+20
1.99378076e+20
1.994697192e+20
1.999904191e+20
1.987948921e+20
1.993280888e+20
1.990989809e+20
1.988448793e+20
1.994280632e+20
1.991406369e+20
1.985657842e+20
1.984158226e+20
1.547353491e+20
1.996196808e+20
2.024814475e+20
2.021981867e+20
2.017649644e+20
2.0197741e+20
2.015316908e+20
2.005985966e+20
2.012359333e+20
2.013234109e+20
2.013192453e+20
2.01602506e+20
2.018857668e+20
2.009318445e+20
2.010526469e+20
2.005027878e+20
2.006527494e+20
2.009984941e+20
2.022065179e+20
2.017982892e+20
1.548769794e+20
1.984033258e+20
1.979826003e+20
1.98474141e+20
1.987490706e+20
1.994363944e+20
1.992072865e+20
1.980075939e+20
1.986365994e+20
1.993947384e+20
2.000029159e+20
2.000029159e+20
2.000362407e+20
2.011276277e+20
2.01935754e+20
2.025314347e+20
2.023148235e+20
2.024189635e+20
2.021023779e+20
2.01519194e+20
1.547853363e+20
1.989031977e+20
1.997904704e+20
1.984824722e+20
1.992156177e+20
1.984408162e+20
2.000487375e+20
2.008110422e+20
2.022814987e+20
2.015441876e+20
2.005652718e+20
1.999112727e+20
2.003319983e+20
2.005611062e+20
2.000737311e+20
2.001278839e+20
1.997446488e+20
1.994363944e+20
2.003361639e+20
2.003361639e+20
4.84826947e+20
5.571985927e+20
5.838159271e+20
6.00937241e+20
6.056076494e+20
6.160486176e+20
6.219916113e+20
6.288539974e+20
6.110481472e+20
6.147638827e+20
3.310059969e+20
3.963093353e+20
4.436524668e+20
4.767909743e+20
5.046057096e+20
5.21980394e+20
5.322184132e+20
5.438325545e+20
5.494237526e+20
5.479563427e+20
2.751729549e+20
3.197623481e+20
3.561620878e+20
3.944052086e+20
4.234293921e+20
4.515352656e+20
4.737993594e+20
4.921725667e+20
5.026969315e+20
5.126484309e+20
2.474320095e+20
2.731463864e+20
3.021158103e+20
3.353046032e+20
3.630413971e+20
3.914777209e+20
4.189459521e+20
4.402403839e+20
4.577388932e+20
4.758706552e+20
2.316970911e+20
2.501435662e+20
2.700618581e+20
2.931130537e+20
3.185594572e+20
3.411109262e+20
3.659233162e+20
3.857969821e+20
4.135149002e+20
4.391596918e+20
2.201425443e+20
2.323516321e+20
2.453273789e+20
2.634987336e+20
2.816072131e+20
3.061220824e+20
3.322153213e+20
3.528701601e+20
3.752649704e+20
3.960080518e+20
2.1683169e+20
2.247205044e+20
2.330915256e+20
2.474688471e+20
2.604621751e+20
2.777206985e+20
2.965457863e+20
3.1616334e+20
3.391552686e+20
3.604239835e+20
2.099549789e+20
2.16260181e+20
2.231316172e+20
2.329156215e+20
2.426908875e+20
2.540802898e+20
2.699385708e+20
2.863931031e+20
3.052255915e+20
3.243544149e+20
2.089558701e+20
2.126866412e+20
2.164775505e+20
2.22549116e+20
2.30850526e+20
2.403946487e+20
2.506500829e+20
2.625277429e+20
2.779863355e+20
2.948146053e+20
2.063682203e+20
2.097823512e+20
2.140193605e+20
2.172527663e+20
2.223323417e+20
2.29020245e+20
2.384841692e+20
2.472409172e+20
2.565221556e+20
2.685307668e+20
2.056324747e+20
2.067938786e+20
2.105778941e+20
2.147859733e+20
2.186147689e+20
2.225712868e+20
2.277523596e+20
2.359272612e+20
2.425841467e+20
2.529012143e+20
2.034085171e+20
2.038769612e+20
2.044832779e+20
2.071167222e+20
2.087513821e+20
2.133393222e+20
2.178705523e+20
2.252458019e+20
2.32970813e+20
2.392760226e+20
2.027981828e+20
2.044451923e+20
2.04652809e+20
2.062588929e+20
2.080379511e+20
2.114262752e+20
2.159482408e+20
2.173477517e+20
2.203461233e+20
2.285504695e+20
2.014186596e+20
2.019533937e+20
2.038814436e+20
2.046328574e+20
2.057945151e+20
2.062714368e+20
2.079495113e+20
2.121101935e+20
2.167068526e+20
2.205820241e+20
2.00289961e+20
2.000340385e+20
2.008977107e+20
2.019356041e+20
2.018233752e+20
2.049470213e+20
2.058659202e+20
2.081414154e+20
2.106133972e+20
2.138028353e+20
2.009002939e+20
2.015451112e+20
2.011731989e+20
2.016453931e+20
2.039507709e+20
2.044016732e+20
2.056305352e+20
2.067365348e+20
2.091187742e+20
2.111036308e+20
1.992657687e+20
2.008000963e+20
2.001644906e+20
2.009454712e+20
2.002203048e+20
2.015191174e+20
2.030413009e+20
2.045150748e+20
2.048869627e+20
2.083108894e+20
2.010089836e+20
1.990659418e+20
2.001178725e+20
2.000577672e+20
2.021543008e+20
2.027786119e+20
2.027754017e+20
2.037643419e+20
2.045951135e+20
2.056339555e+20
1.996169212e+20
2.015787842e+20
2.019191311e+20
2.028361116e+20
2.021843866e+20
2.015061329e+20
2.016856581e+20
2.01687757e+20
2.024725726e+20
2.046674101e+20
2.014312011e+20
2.016040388e+20
2.01753839e+20
2.008089014e+20
2.013033434e+20
2.021899836e+20
2.031807883e+20
2.044931222e+20
2.033658094e+20
2.035316048e+20
2.012263629e+20
2.010189703e+20
2.007197039e+20
2.006125836e+20
2.003019625e+20
2.003634987e+20
2.000728354e+20
2.008536122e+20
2.031535555e+20
2.03571692e+20
2.00361026e+20
1.993816242e+20
1.999441025e+20
2.010308288e+20
)
;

boundaryField
{
    flow
    {
        type            calculated;
        value           nonuniform List<scalar> 
42
(
1.52740027e+20
1.544395915e+20
1.554185073e+20
1.555768001e+20
1.553226986e+20
1.543104579e+20
1.553851825e+20
1.547311835e+20
1.555768001e+20
1.549394634e+20
1.556684433e+20
1.551394122e+20
1.552685458e+20
1.559433728e+20
1.540896812e+20
1.559267104e+20
1.551019218e+20
1.543646107e+20
1.554518321e+20
1.547353491e+20
1.548769794e+20
1.547853363e+20
1.52740027e+20
1.96374679e+20
1.9721613e+20
1.970120157e+20
1.977368299e+20
1.975993652e+20
1.972411236e+20
1.980117595e+20
1.973535948e+20
1.966037869e+20
1.970744997e+20
1.970786653e+20
1.967787421e+20
1.974619004e+20
1.981242307e+20
1.992697705e+20
1.994988784e+20
2.028855106e+20
2.139618389e+20
2.723926994e+20
)
;
    }
    obstacle
    {
        type            calculated;
        value           nonuniform List<scalar> 10(279.1974126 288.5344086 295.7675294 286.5357409 298.1402552 283.9432344 287.0078243 289.6800446 278.2998042 275.3680352);
    }
    frontAndBack
    {
        type            empty;
    }
    procBoundary0to1
    {
        type            processor;
        value           nonuniform List<scalar> 
21
(
6.110725728e+20
5.525649565e+20
5.160829445e+20
4.821808316e+20
4.532276376e+20
4.208151364e+20
3.804385988e+20
3.427855375e+20
3.145726624e+20
2.835734963e+20
2.651642362e+20
2.483208634e+20
2.346227212e+20
2.238050936e+20
2.189728327e+20
2.127406931e+20
2.103671863e+20
2.073834788e+20
2.061989688e+20
2.047676843e+20
2.024569939e+20
)
;
    }
    procBoundary0to2
    {
        type            processor;
        value           nonuniform List<scalar> 
31
(
1.547728395e+20
1.99482216e+20
2.013817293e+20
2.003694887e+20
2.002236927e+20
2.001237183e+20
2.002695143e+20
1.996613368e+20
1.985033002e+20
2.002486863e+20
2.008110422e+20
2.016399964e+20
2.012859205e+20
1.998862791e+20
1.996321776e+20
1.995363688e+20
1.998696167e+20
1.998779479e+20
1.985407906e+20
1.980992371e+20
2.014580632e+20
2.015580708e+20
2.019297596e+20
2.014023912e+20
2.018402342e+20
2.029481133e+20
1.98751583e+20
1.993732073e+20
1.997830486e+20
2.014580632e+20
1.985768378e+20
)
;
    }
}


// ************************************************************************* //
