/*--------------------------------*- C++ -*----------------------------------*\
| =========                 |                                                 |
| \\      /  F ield         | OpenFOAM: The Open Source CFD Toolbox           |
|  \\    /   O peration     | Version:  2406                                  |
|   \\  /    A nd           | Website:  www.openfoam.com                      |
|    \\/     M anipulation  |                                                 |
\*---------------------------------------------------------------------------*/
FoamFile
{
    version     2.0;
    format      ascii;
    arch        "LSB;label=32;scalar=64";
    class       volScalarField;
    location    "0.01";
    object      iDof;
}
// * * * * * * * * * * * * * * * * * * * * * * * * * * * * * * * * * * * * * //

dimensions      [0 -3 0 0 0 0 0];

internalField   nonuniform List<scalar> 
654
(
2.082799616e+20
1.24967977e+20
2.499359539e+20
2.291079578e+20
2.082799616e+20
2.082799616e+20
1.666239693e+20
1.666239693e+20
1.24967977e+20
1.874519654e+20
1.041399808e+20
2.499359539e+20
2.082799616e+20
1.666239693e+20
1.666239693e+20
1.457959731e+20
2.499359539e+20
3.124199424e+20
2.082799616e+20
1.666239693e+20
1.24967977e+20
1.874519654e+20
2.082799616e+20
1.666239693e+20
1.666239693e+20
1.041399808e+20
2.082799616e+20
2.082799616e+20
2.082799616e+20
1.457959731e+20
1.041399808e+20
2.707639501e+20
2.707639501e+20
1.874519654e+20
1.457959731e+20
2.082799616e+20
2.291079578e+20
1.666239693e+20
2.707639501e+20
2.291079578e+20
1.457959731e+20
2.707639501e+20
1.666239693e+20
2.707639501e+20
3.332479385e+20
2.915919462e+20
8.331198464e+19
2.707639501e+20
1.666239693e+20
1.041399808e+20
1.874519654e+20
1.666239693e+20
1.666239693e+20
1.666239693e+20
1.24967977e+20
4.790439117e+20
1.041399808e+20
1.874519654e+20
1.457959731e+20
2.082799616e+20
1.666239693e+20
2.291079578e+20
2.707639501e+20
1.24967977e+20
1.457959731e+20
1.457959731e+20
2.291079578e+20
2.291079578e+20
1.24967977e+20
3.332479385e+20
1.666239693e+20
2.082799616e+20
1.457959731e+20
1.874519654e+20
2.291079578e+20
3.124199424e+20
3.124199424e+20
3.332479385e+20
1.24967977e+20
1.666239693e+20
1.24967977e+20
1.874519654e+20
2.291079578e+20
1.874519654e+20
1.874519654e+20
1.457959731e+20
2.082799616e+20
1.666239693e+20
2.291079578e+20
1.666239693e+20
1.874519654e+20
2.707639501e+20
2.082799616e+20
1.874519654e+20
2.082799616e+20
1.041399808e+20
2.291079578e+20
1.457959731e+20
2.707639501e+20
2.707639501e+20
1.666239693e+20
2.499359539e+20
1.24967977e+20
1.24967977e+20
2.082799616e+20
3.95731927e+20
1.874519654e+20
8.331198464e+19
2.291079578e+20
2.291079578e+20
1.457959731e+20
2.499359539e+20
1.874519654e+20
1.457959731e+20
2.499359539e+20
1.874519654e+20
2.499359539e+20
2.915919462e+20
2.707639501e+20
1.24967977e+20
1.666239693e+20
2.499359539e+20
1.24967977e+20
2.291079578e+20
3.124199424e+20
2.499359539e+20
1.457959731e+20
1.874519654e+20
1.457959731e+20
2.082799616e+20
1.874519654e+20
1.874519654e+20
1.666239693e+20
1.874519654e+20
2.291079578e+20
1.666239693e+20
2.291079578e+20
1.666239693e+20
8.331198464e+19
2.291079578e+20
1.666239693e+20
1.457959731e+20
1.874519654e+20
2.499359539e+20
2.707639501e+20
8.331198464e+19
1.041399808e+20
2.291079578e+20
1.874519654e+20
2.915919462e+20
2.082799616e+20
2.707639501e+20
1.24967977e+20
1.874519654e+20
1.874519654e+20
3.124199424e+20
1.874519654e+20
3.749039309e+20
1.457959731e+20
1.457959731e+20
1.666239693e+20
1.874519654e+20
1.666239693e+20
2.082799616e+20
1.874519654e+20
2.291079578e+20
8.331198464e+19
2.915919462e+20
1.874519654e+20
2.082799616e+20
2.707639501e+20
3.540759347e+20
1.457959731e+20
1.874519654e+20
1.24967977e+20
8.331198464e+19
1.24967977e+20
1.24967977e+20
1.457959731e+20
1.874519654e+20
1.874519654e+20
2.082799616e+20
3.124199424e+20
2.082799616e+20
2.291079578e+20
2.082799616e+20
2.499359539e+20
1.874519654e+20
1.24967977e+20
2.915919462e+20
1.24967977e+20
1.666239693e+20
1.457959731e+20
1.041399808e+20
2.291079578e+20
2.291079578e+20
2.499359539e+20
2.291079578e+20
2.291079578e+20
8.331198464e+19
1.24967977e+20
2.291079578e+20
1.457959731e+20
1.874519654e+20
2.082799616e+20
2.499359539e+20
1.24967977e+20
1.666239693e+20
1.24967977e+20
1.874519654e+20
2.082799616e+20
2.499359539e+20
2.291079578e+20
1.666239693e+20
2.499359539e+20
1.457959731e+20
1.457959731e+20
1.666239693e+20
2.915919462e+20
1.666239693e+20
1.666239693e+20
1.457959731e+20
1.457959731e+20
1.874519654e+20
2.499359539e+20
1.874519654e+20
1.24967977e+20
2.499359539e+20
2.082799616e+20
2.082799616e+20
1.457959731e+20
2.291079578e+20
1.24967977e+20
1.666239693e+20
2.707639501e+20
1.041399808e+20
8.331198464e+19
8.331198464e+19
2.707639501e+20
2.915919462e+20
2.291079578e+20
1.666239693e+20
2.082799616e+20
1.874519654e+20
1.874519654e+20
2.915919462e+20
1.874519654e+20
2.082799616e+20
1.457959731e+20
2.082799616e+20
6.248398848e+19
2.707639501e+20
3.540759347e+20
2.082799616e+20
2.291079578e+20
4.165599232e+20
2.082799616e+20
1.874519654e+20
1.874519654e+20
2.082799616e+20
1.041399808e+20
2.291079578e+20
2.082799616e+20
2.291079578e+20
1.666239693e+20
1.457959731e+20
2.707639501e+20
2.499359539e+20
6.248398848e+19
1.666239693e+20
2.499359539e+20
2.499359539e+20
2.915919462e+20
1.24967977e+20
8.331198464e+19
1.874519654e+20
2.499359539e+20
1.457959731e+20
2.082799616e+20
2.082799616e+20
1.874519654e+20
1.666239693e+20
2.499359539e+20
1.874519654e+20
2.082799616e+20
1.666239693e+20
1.874519654e+20
2.082799616e+20
2.707639501e+20
2.499359539e+20
2.082799616e+20
2.291079578e+20
2.707639501e+20
2.499359539e+20
1.24967977e+20
1.24967977e+20
2.082799616e+20
8.331198464e+19
1.457959731e+20
8.331198464e+19
2.291079578e+20
1.457959731e+20
1.874519654e+20
2.082799616e+20
1.457959731e+20
1.666239693e+20
2.291079578e+20
1.666239693e+20
2.082799616e+20
2.707639501e+20
1.457959731e+20
2.082799616e+20
4.165599232e+19
1.874519654e+20
2.082799616e+20
2.915919462e+20
2.082799616e+20
1.874519654e+20
1.874519654e+20
1.041399808e+20
1.24967977e+20
1.457959731e+20
1.874519654e+20
1.666239693e+20
2.082799616e+20
1.666239693e+20
1.24967977e+20
2.082799616e+20
2.082799616e+20
1.666239693e+20
1.666239693e+20
1.457959731e+20
3.540759347e+20
2.707639501e+20
1.041399808e+20
2.707639501e+20
2.082799616e+20
1.874519654e+20
2.291079578e+20
6.248398848e+19
1.457959731e+20
1.666239693e+20
1.666239693e+20
2.499359539e+20
2.291079578e+20
1.874519654e+20
2.707639501e+20
1.666239693e+20
1.874519654e+20
3.540759347e+20
1.457959731e+20
2.499359539e+20
1.666239693e+20
1.457959731e+20
2.291079578e+20
2.499359539e+20
2.291079578e+20
1.666239693e+20
2.915919462e+20
2.291079578e+20
1.457959731e+20
2.291079578e+20
1.874519654e+20
2.082799616e+20
1.457959731e+20
1.874519654e+20
2.499359539e+20
3.540759347e+20
1.457959731e+20
1.874519654e+20
2.291079578e+20
2.082799616e+20
2.082799616e+20
8.331198464e+19
2.082799616e+20
2.291079578e+20
3.124199424e+20
1.874519654e+20
1.457959731e+20
2.082799616e+20
1.666239693e+20
2.082799616e+20
2.499359539e+20
2.082799616e+20
1.874519654e+20
2.707639501e+20
2.291079578e+20
6.248398848e+19
8.331198464e+19
2.707639501e+20
1.457959731e+20
1.874519654e+20
1.874519654e+20
2.499359539e+20
1.24967977e+20
2.915919462e+20
2.291079578e+20
2.082799616e+20
2.915919462e+20
2.915919462e+20
1.457959731e+20
1.457959731e+20
2.082799616e+20
2.291079578e+20
1.457959731e+20
1.666239693e+20
1.24967977e+20
3.332479385e+20
1.457959731e+20
1.041399808e+20
1.666239693e+20
2.082799616e+20
2.499359539e+20
1.874519654e+20
1.457959731e+20
2.291079578e+20
2.082799616e+20
2.291079578e+20
2.499359539e+20
2.291079578e+20
1.041399808e+20
2.707639501e+20
1.24967977e+20
3.332479385e+20
1.457959731e+20
2.291079578e+20
2.291079578e+20
2.707639501e+20
1.041399808e+20
1.666239693e+20
2.082799616e+20
1.874519654e+20
1.666239693e+20
2.499359539e+20
3.124199424e+20
2.082799616e+20
2.291079578e+20
1.666239693e+20
2.082799616e+20
2.707639501e+20
3.762334362e+20
4.840483623e+20
4.450171859e+20
5.761540799e+20
6.016880814e+20
8.439911506e+20
5.230776312e+20
5.926827865e+20
7.075131422e+20
5.567666177e+20
3.553315787e+20
4.419572004e+20
4.238258916e+20
5.974931202e+20
6.016880816e+20
5.626607675e+20
3.051286184e+20
7.463412872e+20
4.421957139e+20
4.676839589e+20
2.090185757e+20
2.525469716e+20
2.542955348e+20
5.334760002e+20
5.587103618e+20
5.626607671e+20
3.923082234e+20
3.731706436e+20
6.411837851e+20
4.899546236e+20
2.717241484e+20
1.473190669e+20
4.02634597e+20
2.347294399e+20
4.512660609e+20
3.24611981e+20
3.269235197e+20
6.365852156e+20
4.864152853e+20
5.122252883e+20
2.926260059e+20
1.894102287e+20
3.390607133e+20
3.627636804e+20
3.00844041e+20
3.4625278e+20
3.487184211e+20
3.731706436e+20
4.864152856e+20
5.790372828e+20
1.881167181e+20
1.894102287e+20
3.602520076e+20
2.347294399e+20
2.793551805e+20
4.328159744e+20
3.269235193e+20
4.39024286e+20
2.210978568e+20
3.340599708e+20
3.553315786e+20
2.946381335e+20
3.178694187e+20
1.920513602e+20
2.363774608e+20
2.380487862e+20
3.051286184e+20
2.414633576e+20
4.643054996e+20
3.340599706e+20
3.135278635e+20
2.315013908e+20
2.119129458e+20
2.774075199e+20
2.793551805e+20
2.813303835e+20
2.179490132e+20
1.97560929e+20
3.095369997e+20
2.004359824e+20
1.672148605e+20
2.735925526e+20
1.48339062e+20
1.2803424e+20
2.578663208e+20
1.947671886e+20
2.833337169e+20
3.512194293e+20
2.87427214e+20
3.786013e+20
3.135278637e+20
1.052279049e+20
1.907216512e+20
1.920513601e+20
3.223329008e+20
1.7312639e+20
3.051286184e+20
2.195121433e+20
2.210978569e+20
1.336239882e+20
2.508222908e+20
2.104558097e+20
1.695303565e+20
1.920513601e+20
2.148886006e+20
1.731263899e+20
1.525643091e+20
2.414633575e+20
1.326587142e+20
2.672479765e+20
2.926260059e+20
2.315013908e+20
1.695303566e+20
2.560684799e+20
1.933997405e+20
2.59689585e+20
2.397439153e+20
1.317072868e+20
2.21097858e+20
3.34059972e+20
2.299204332e+20
2.735925533e+20
1.483390626e+20
2.133904001e+20
1.933997397e+20
1.731263896e+20
1.961541114e+20
3.07316998e+20
2.653174272e+20
1.781653177e+20
1.6721486e+20
1.894102275e+20
1.695303554e+20
1.920513594e+20
2.363774608e+20
1.731263895e+20
1.743592096e+20
3.292682145e+20
2.432076416e+20
2.227066455e+20
3.344297228e+20
2.315013913e+20
2.966781239e+20
1.920513607e+20
2.793551828e+20
1.947671896e+20
2.833337175e+20
2.853657879e+20
3.095370006e+20
1.113533235e+20
2.090185754e+20
1.052279051e+20
1.271477683e+20
2.56068481e+20
1.719108806e+20
1.514855919e+20
1.307694081e+20
3.512194263e+20
2.21097856e+20
8.908265883e+19
2.090185754e+19
1.894102279e+20
2.331042386e+20
1.493732795e+20
2.148886007e+20
1.731263895e+20
3.487184215e+20
1.756097156e+20
1.989880718e+20
1.55894653e+20
1.463130028e+20
2.104558102e+20
2.754868312e+20
4.267807987e+19
1.504220195e+20
1.298447921e+20
6.538470358e+19
2.634145716e+20
1.989880718e+20
2.449773118e+20
2.090185768e+20
1.262734861e+20
2.966781239e+20
3.414246413e+20
1.074443004e+20
1.731263895e+20
1.961541121e+20
6.58536429e+19
3.095369984e+20
1.558946541e+20
2.090185754e+20
1.894102292e+20
2.331042402e+20
1.066951997e+20
2.363774608e+20
1.731263907e+20
4.358980269e+19
1.975609287e+20
3.316467864e+20
2.227066471e+20
2.508222905e+20
3.156837132e+20
1.695303565e+20
1.493732806e+20
2.363774608e+20
1.731263895e+20
2.179490135e+20
1.756097156e+20
2.432076433e+20
1.781653177e+20
1.672148603e+20
2.735925515e+20
1.695303565e+20
1.707123206e+20
)
;

boundaryField
{
    flow
    {
        type            zeroGradient;
    }
    obstacle
    {
        type            calculated;
        value           nonuniform List<scalar> 10(491.0159916 77.43616216 214.6730136 720.6955268 1e-300 354.9707569 1e-300 424.9362901 334.5616512 547.0205151);
    }
    frontAndBack
    {
        type            empty;
    }
    procBoundary0to1
    {
        type            processor;
        value           nonuniform List<scalar> 
21
(
8.749221824e+20
5.832814553e+20
5.608475528e+20
4.03810238e+20
4.486780422e+20
4.935458472e+20
2.916407275e+20
2.467729232e+20
2.916407277e+20
4.03810238e+20
2.916407275e+20
4.486780438e+20
2.467729225e+20
3.365085307e+20
2.243390221e+20
2.243390205e+20
1.794712164e+20
1.346034132e+20
1.570373155e+20
1.570373143e+20
4.26244142e+20
)
;
    }
    procBoundary0to2
    {
        type            processor;
        value           nonuniform List<scalar> 
31
(
1.874519654e+20
1.24967977e+20
2.291079578e+20
1.457959731e+20
2.499359539e+20
1.457959731e+20
1.24967977e+20
1.457959731e+20
4.165599232e+20
2.499359539e+20
2.291079578e+20
2.082799616e+20
2.082799616e+20
2.499359539e+20
1.666239693e+20
2.707639501e+20
2.291079578e+20
1.666239693e+20
1.666239693e+20
2.499359539e+20
2.578663208e+20
2.164079869e+20
1.525643084e+20
1.756097144e+20
1.547685003e+20
2.449773118e+20
1.254111452e+20
2.104558102e+20
1.271477674e+20
2.578663208e+20
2.774075191e+20
)
;
    }
}


// ************************************************************************* //
