/*--------------------------------*- C++ -*----------------------------------*\
| =========                 |                                                 |
| \\      /  F ield         | OpenFOAM: The Open Source CFD Toolbox           |
|  \\    /   O peration     | Version:  2406                                  |
|   \\  /    A nd           | Website:  www.openfoam.com                      |
|    \\/     M anipulation  |                                                 |
\*---------------------------------------------------------------------------*/
FoamFile
{
    version     2.0;
    format      ascii;
    arch        "LSB;label=32;scalar=64";
    class       volScalarField;
    location    "0.01";
    object      internalT;
}
// * * * * * * * * * * * * * * * * * * * * * * * * * * * * * * * * * * * * * //

dimensions      [1 2 -2 0 0 0 0];

internalField   nonuniform List<scalar> 
654
(
298.8700698
301.1813208
301.0020623
299.3242706
298.9080338
298.5635492
298.7089625
298.6783513
298.3991114
299.1670035
299.0235368
301.0068934
300.2551916
301.1838073
302.3284543
303.8641661
305.9649148
310.5198826
338.4896622
427.8616324
300.3558285
299.5630464
300.6723022
300.8031617
301.9482498
301.8519653
302.1942568
301.1396595
302.6052678
303.9039086
302.8822811
300.9697928
301.8805954
300.8160569
300.3023161
302.0996351
307.7918977
320.9576192
353.1872476
424.1559019
299.1954115
298.0116316
298.0942694
296.9783753
298.2237045
298.573373
297.6185419
297.5416635
296.5616687
297.2801971
297.402389
298.555436
300.4168697
301.3517527
304.6464895
305.3834573
309.7791197
320.6685414
347.5700937
397.7920661
297.8334509
298.8502532
300.0121499
299.4034977
299.7728726
297.5876548
298.768628
298.9884591
299.5305278
295.8380318
296.6038771
298.3732408
298.7725051
300.2416399
301.0541033
305.444182
308.6661378
317.0392041
334.2049395
370.1182367
297.776982
298.9513749
297.5058135
299.4371631
299.4621158
298.3567885
298.6213194
300.0039025
301.3710839
302.5294195
304.055395
303.3390882
303.0601318
304.0336136
305.4735028
306.66367
309.5254064
318.2265028
336.8147459
355.425933
299.7504657
299.9948838
298.4983949
297.2835852
298.3093669
299.4118202
298.9793813
298.3697477
297.864726
299.8264754
299.65132
299.8578225
300.6351957
300.6365184
299.6055894
305.6667963
307.270013
319.1699366
319.0341883
337.3588611
298.2636304
299.5912499
299.305013
299.2090884
298.5969213
300.4498413
299.0304173
298.3495034
300.0352733
299.6078481
300.0438303
299.0133616
302.0942387
302.4655544
305.0276252
306.8018704
307.8316868
309.7920414
313.4292196
325.5185971
300.9963293
301.0829447
301.0790993
301.3959844
299.660389
299.2927763
299.818961
299.7243997
301.1402239
300.9703987
300.1397111
300.9263384
300.3454833
299.4065057
298.7979623
300.3815189
305.1205457
311.8304138
316.0356246
319.66364
302.8285735
301.8262001
301.3924263
300.8243851
300.9014538
300.1707009
299.0660206
298.7567734
300.1124465
300.6604772
300.0008004
299.9586797
300.8149511
300.3398876
302.1638172
303.100782
304.9017438
307.4144901
309.2777498
316.5833947
302.8345957
304.2031707
303.6321138
303.9914754
304.1392756
304.5778605
303.7511497
303.2147747
300.6014016
301.2814768
301.1773792
300.5389172
302.5071584
302.4501355
300.6330677
302.2963439
303.3686648
305.7772883
309.0375065
312.7964895
301.0633328
301.0619883
301.6586968
301.923259
301.7389925
301.2489677
301.2972952
300.1423033
300.5979323
300.1669678
299.3430894
300.1456807
299.3488115
298.7560738
298.9085188
300.1941045
302.235514
304.8661013
305.5698307
308.4122894
299.5343148
300.6371479
299.6710052
301.0848932
301.8805752
302.6512881
301.8338878
301.2988745
300.9412021
301.3142157
301.5299186
304.0461787
303.9492137
304.2965682
303.347037
301.4000109
300.8355841
302.8135758
304.708807
309.6504328
296.0981041
296.5903755
296.7762773
296.4356928
295.2101889
295.9463906
298.3456555
301.3472208
301.5993368
301.5708291
299.0555607
298.8762012
299.0183684
299.5126585
300.8214787
299.2931066
301.5420017
302.2806427
301.5869279
303.3801465
297.7781066
296.9649487
296.6817317
298.1783103
300.3598638
299.6750551
299.0719012
298.5024111
297.8243
298.7959945
300.10077
300.0807636
301.0268529
302.126997
302.7384614
303.3504371
301.4597769
301.6450674
302.3014033
302.471082
299.8217367
301.5977493
302.221947
301.1092269
298.9146264
299.652162
296.6863825
298.3435109
296.913607
298.9799993
300.4722885
299.8480348
297.824695
297.9142442
297.7472191
297.9137837
298.295503
299.9204689
300.8011792
303.5660173
301.2800635
300.0190058
299.4829476
297.6494312
296.749641
298.567423
300.3636483
301.3710851
298.1707596
297.8548041
296.667579
297.7129195
298.252376
297.919163
296.3780993
297.9321632
299.7662883
299.6569183
299.6624684
303.8764487
300.7032549
300.8175894
300.6754082
300.7201332
302.5735636
299.7775168
299.3195318
298.3936304
299.4876305
299.8317367
300.5507896
300.1839246
301.2099439
300.5443825
301.1821567
300.6105559
301.8163178
302.8396577
302.3991581
303.7171219
303.2104936
302.4204647
302.3893739
301.9040258
302.3727439
302.6475479
302.6093535
303.2422319
303.8563669
302.3470269
301.9942018
301.1776378
300.3182454
301.2019922
302.2922439
300.3038434
300.1188014
300.8050071
303.2317561
301.7189287
296.8184284
298.1460762
298.6706671
299.596599
298.2158472
299.0921288
298.3782168
296.9324863
297.7265581
298.5520521
298.3698692
298.7946888
298.2737796
297.2801732
297.70845
299.1432249
300.2118513
299.5318123
298.9240288
301.1416003
296.791745
297.2267615
297.8216538
297.5784715
299.4549598
297.7026049
296.8896651
297.7631286
297.9874026
295.604662
296.6408456
299.4814091
300.7286824
301.4521789
302.205826
301.5043695
301.933379
303.0323428
301.2647781
300.6716015
301.5507659
301.4242272
301.5178267
299.3760656
299.2121065
300.7519237
301.3890998
304.0234248
304.3005858
305.6354372
304.4528449
301.9812794
301.8316473
300.3641546
299.8391709
300.5207929
301.2844427
301.2998166
300.9375584
301.8169402
300.0878502
299.8183473
300.1129248
301.4424513
302.6035117
302.4685763
302.9533613
303.5174216
303.0694351
302.3265957
303.1248197
302.2369802
300.395768
301.8146205
302.2104191
301.9691448
301.7503536
301.1335783
300.7111457
299.3816879
546.1906017
603.8851055
630.655507
656.3622184
671.661079
681.3900035
698.3710969
705.4881225
701.0603526
707.1378912
512.7370569
569.0383933
616.5353845
652.3894464
683.2328013
701.4833115
725.4474861
740.9118971
748.7078888
758.2274906
459.5425743
513.0461674
560.1999571
605.1505523
636.9291247
668.2578726
696.5807775
720.8133153
735.9726306
750.5124009
408.5016148
455.8929647
505.025043
542.1829898
582.0600659
619.3929994
640.6389412
668.3683328
692.3721156
715.7726343
384.8657233
416.1540476
454.5725153
492.1178237
528.095916
564.6753967
602.3885039
617.4723739
645.8667661
670.6110571
361.6671565
385.6355714
412.401811
447.7648084
477.1664455
510.3322764
554.1353532
575.7759353
603.7513228
629.9472618
344.1108436
368.4162633
381.8305915
409.0195918
433.1879612
454.4799847
489.1114692
516.9579291
544.3256253
571.0601256
328.5305761
345.1634432
357.543715
376.7078105
398.659087
421.1671689
444.6541217
475.3355385
493.5952964
517.0487782
325.4392043
333.4810718
340.0963871
354.8459691
377.5224746
396.1580936
410.4067488
434.9438021
453.6702628
476.8329522
316.1370826
324.6803316
333.336102
344.6968391
357.263618
373.2670268
388.3969204
404.5559675
417.9195698
439.5763158
314.0476384
322.5322112
323.5549551
333.6094782
340.6525925
354.364481
366.0558318
378.160668
392.6735847
411.730877
309.4341046
311.8794836
315.6766035
317.5049148
325.0789369
331.9380356
342.2735639
353.0775104
364.5082306
381.5168034
304.3435449
306.2919566
308.2387439
315.319074
318.7383633
324.5077171
333.056016
338.6376367
347.9627464
358.7821138
306.3105869
308.0219814
309.6434808
311.6093353
316.7188622
317.4536796
324.1001208
333.024656
337.9177915
342.7001055
303.8682209
305.4678675
308.1562977
310.6044738
316.0697132
315.3970691
319.1515501
323.8912372
332.9539178
339.2309155
303.686035
306.0979905
304.9207978
306.780632
310.0799097
318.1269441
319.4898935
318.3892946
323.0230372
328.5864184
305.1926541
304.0648942
307.0454982
307.572014
306.366829
310.2590202
311.8193694
315.5313779
318.7245369
320.5303571
304.4694554
305.0635984
305.9750346
303.4583866
304.6721625
306.1502369
308.4895217
312.2973763
317.3340036
319.0668259
300.6208932
301.6718046
303.5410256
303.4780881
304.110241
304.0593632
304.8655108
308.21522
309.5804102
313.6606396
301.4793304
300.4075576
301.8899662
302.7229924
303.9111693
304.9449797
306.7539515
307.6477508
309.4327977
311.8202583
302.4689639
302.3476822
302.070235
301.8671192
302.7962896
301.9287793
304.7407273
304.6237357
305.5607695
307.6160561
301.0929918
299.0643108
299.8693562
301.6130603
)
;

boundaryField
{
    flow
    {
        type            calculated;
        value           nonuniform List<scalar> 
42
(
298.8700698
300.3558285
299.1954115
297.8334509
297.776982
299.7504657
298.2636304
300.9963293
302.8285735
302.8345957
301.0633328
299.5343148
296.0981041
297.7781066
299.8217367
301.2800635
300.7032549
303.2104936
296.8184284
296.791745
301.5507659
300.0878502
298.8700698
301.1813208
301.0020623
299.3242706
298.9080338
298.5635492
298.7089625
298.6783513
298.3991114
299.1670035
299.0235368
301.0068934
300.2551916
301.1838073
302.3284543
303.8641661
305.9649148
310.5198826
338.4896622
427.8616324
)
;
    }
    obstacle
    {
        type            calculated;
        value           nonuniform List<scalar> 10(530.8928867 580.9914768 584.4356451 584.4616307 600.5642824 613.9622225 619.9006564 629.0003097 635.9525136 616.6102299);
    }
    frontAndBack
    {
        type            empty;
    }
    procBoundary0to1
    {
        type            processor;
        value           nonuniform List<scalar> 
21
(
707.7151556
758.3871097
771.7632755
730.6123969
687.5124473
649.2780263
601.0742809
553.3769172
503.842089
459.8405184
431.1596276
403.02782
372.6528979
356.0948635
339.8951125
334.0165185
325.614417
322.635577
314.2758285
313.4119269
307.6653687
)
;
    }
    procBoundary0to2
    {
        type            processor;
        value           nonuniform List<scalar> 
31
(
301.2969546
303.9373246
302.8981962
300.5677085
299.1548368
297.5850248
297.1516317
297.2773656
297.2266226
297.9549661
297.8504941
300.2607881
301.2650074
299.9002591
300.4812266
298.7477663
297.0149539
296.7885168
296.9017982
298.2808698
303.3579671
304.3109598
305.386117
304.5824685
305.3508625
303.3759577
297.1657425
298.8967664
300.5344209
303.3579671
301.3387137
)
;
    }
}


// ************************************************************************* //
