/*--------------------------------*- C++ -*----------------------------------*\
| =========                 |                                                 |
| \\      /  F ield         | OpenFOAM: The Open Source CFD Toolbox           |
|  \\    /   O peration     | Version:  2406                                  |
|   \\  /    A nd           | Website:  www.openfoam.com                      |
|    \\/     M anipulation  |                                                 |
\*---------------------------------------------------------------------------*/
FoamFile
{
    version     2.0;
    format      ascii;
    arch        "LSB;label=32;scalar=64";
    class       volScalarField;
    location    "0.01";
    object      internalE;
}
// * * * * * * * * * * * * * * * * * * * * * * * * * * * * * * * * * * * * * //

dimensions      [1 -1 -2 0 0 0 0];

internalField   nonuniform List<scalar> 
654
(
0.2075194612
0.396767468
0.3567071955
0.5157957193
0.2681190529
0.2378762793
0.3479233185
0.2553818933
0.2301922531
0.323439941
0.3748428456
0.3804527561
0.5773161138
0.3748844768
0.5099848822
0.3230918844
0.4165930808
0.7172771333
0.490896924
0.3451581979
0.3287889749
0.5229406256
0.4604127876
0.3826829267
0.5190752748
0.1243402902
0.410467498
0.2427588139
0.4959885576
0.1553197228
0.2545618546
0.540361528
0.6381588799
0.08834494117
0.4159751289
0.1819546055
0.3955021594
0.3174575929
0.4409844122
0.5429199108
0.1865772096
0.4331815279
0.4441210291
0.6358023973
0.9148089522
0.7739331621
0.2144831152
0.6557632871
0.3595251667
0.2419129543
0.3391168937
0.3853366965
0.5234887866
0.4894206754
0.2444298646
1.234339762
0.1686437936
0.4145519283
0.3205702267
0.3726217087
0.260048787
0.2879450734
0.6921571461
0.1899132002
0.2118618678
0.2478427829
0.1729146287
0.5069360774
0.1219603653
0.7152953165
0.3468620897
0.2740541492
0.211450082
0.3647748863
0.5373891244
0.4585970786
1.022998032
0.7062962199
0.4365389564
0.620770651
0.4049786547
0.386803729
0.4524117734
0.2920276882
0.2136352377
0.3162813912
0.2715245984
0.2815177886
0.2361971611
0.2150226873
0.5273587522
0.3611981981
0.2904236102
0.3712242403
0.3769319472
0.1501474248
0.6089777546
0.4452021715
0.7586590493
0.6520913014
0.3781758506
0.4622193067
0.3527846821
0.3034343049
0.1836523471
0.9119680137
0.4132648428
0.1427853532
0.4299691475
0.6903426993
0.3257862636
0.4533549242
0.5651231644
0.2443612889
0.6409660326
0.2838582758
0.4245412326
0.6081032143
0.5852917554
0.256167346
0.1542407994
0.4994154519
0.3093015865
0.3925357652
0.722948325
0.6876865172
0.3526952259
0.5187293497
0.228917386
0.52139816
0.3836643401
0.4921145032
0.1723842956
0.44995516
0.3271722287
0.5506684673
0.3082203072
0.4520069671
0.2055342469
0.6125508638
0.1751781414
0.1601818781
0.4085479433
0.2443081008
0.3596995516
0.07705409673
0.1086233712
0.469030283
0.5628826494
0.7627284361
0.5902946645
0.6556644624
0.3585089094
0.5647638928
0.1828627551
0.5103461045
0.52940946
0.4755744836
0.2284320743
0.3731031155
0.3627383855
0.1753033961
0.2359095657
0.4431034048
0.3599802121
0.5732071528
0.09997826364
0.7480699393
0.3057706832
0.5292773483
0.5387120747
0.6589544736
0.1731514113
0.2822715614
0.2181479566
0.1202262529
0.1767815993
0.1182039234
0.4833252959
0.4847691646
0.4224962964
0.4717221949
0.5586144668
0.4153170848
0.6241733125
0.3852207124
0.3326471367
0.4918020937
0.1968712322
0.33264738
0.199463198
0.4524791652
0.3706795215
0.5395419577
0.4168362654
0.3755355437
0.7884722605
0.3856804233
0.5317750117
0.2161551254
0.1872167454
0.4989319401
0.4699774104
0.4829754904
0.3025363201
0.2605443094
0.2169967315
0.5194548151
0.2049014689
0.4736823502
0.348624939
0.5946230187
0.5357720567
0.5229938094
0.3960247317
0.2035816077
0.2190865281
0.1639843255
0.4438027192
0.4490317148
0.3569376976
0.200939196
0.3660602744
0.5395586458
0.4573275512
0.1894132445
0.1763288626
0.6350934572
0.3738881006
0.4113820988
0.5332589213
0.8007840413
0.4831927649
0.2222850369
0.4826877301
0.0908983299
0.2103468947
0.1370308458
0.4011786375
0.6119092717
0.6981723252
0.5205111912
0.3398918251
0.2322304765
0.4418015488
0.4992782309
0.5068593078
0.4382883548
0.2638610646
0.3424238427
0.1831628242
0.5304021149
0.5041316486
0.176303532
0.6234701836
0.7710909134
0.6311597714
0.331811782
0.5794175005
0.2607660433
0.1977660633
0.45296864
0.4488304191
0.5007800939
0.2246821025
0.309966109
0.5676174648
0.4797130203
0.2097203765
0.1855756328
0.4680993752
0.7328900728
0.3518739338
0.1838617556
0.1988145821
0.3688389008
0.794352
0.3877143522
0.4962248927
0.4000554306
0.26068353
0.4959733464
0.5098914094
0.453093132
0.5391160838
0.5110035114
0.5577471452
0.3207062691
0.4152141866
0.3284175118
0.4333614191
0.3447125203
0.5668575309
0.7946285917
0.2528875141
0.2376394157
0.2494072698
0.130902395
0.1730304963
0.2235321532
0.7048067873
0.31737479
0.2192877974
0.4856790907
0.1758537573
0.2863235306
0.5534604192
0.3622306967
0.3510779003
0.4114685828
0.5929193429
0.5824875767
0.2396725922
0.3707638091
0.4771754232
1.023634484
0.6237884277
0.5250130128
0.3451186358
0.2484447144
0.1671006873
0.2526037687
0.1765253467
0.210352938
0.5259635214
0.4591923317
0.3339609261
0.5513950492
0.3747163472
0.5140423485
0.3457057723
0.2750926679
1.109101937
0.4561870145
0.1464120395
0.5216175311
0.255133847
0.3752126302
0.4007802992
0.1602843708
0.3092000427
0.3154041534
0.6543198451
0.6120475228
0.2264717153
0.5111698987
0.4161556173
0.3101849314
0.2279247371
0.7049960625
0.4471213005
0.765869786
0.3966635721
0.1645786039
0.3807276797
0.4103603234
0.1242307297
0.3127962918
0.5045150526
0.321981059
0.1345299279
0.4289569566
0.2911326962
0.5568221156
0.3697224816
0.4573421702
0.4567106884
0.749959821
0.5025839165
0.2211012125
0.281360515
0.3814786391
0.4182402256
0.1578497386
0.4877693886
0.4179799571
0.6315971265
0.4771789311
0.3065521269
0.2345370896
0.4277267656
0.3168656287
0.3416819202
0.4581772523
0.5503279049
0.5178929137
0.2646186617
0.1277024615
0.106419276
0.6110513229
0.188541893
0.6241764308
0.4171141215
0.7309949051
0.1255986515
0.6342778235
0.6309425774
0.5422760146
0.4573298907
0.7839622486
0.3791884517
0.284552579
0.5032694857
0.5090508906
0.2568921206
0.3394040274
0.4313344137
0.923650039
0.340789777
0.07824177423
0.405295518
0.478369358
0.5684720189
0.4690199011
0.1739338986
0.5346440712
0.7732326814
0.5529986094
0.7026084475
0.4652103614
0.1604644724
0.5106553075
0.3068571555
0.5186453817
0.2678016332
0.7614203558
0.2543980697
0.6951135325
0.228106757
0.4365564175
0.3402294679
0.3705274659
0.4210491046
0.5901877244
0.4893925934
0.3162362846
0.4673461501
0.399818461
0.4508869726
0.526032591
2.244821566
3.380122871
1.898330989
2.393104418
2.679937977
3.15237853
1.701542494
2.362513768
3.091624898
2.981122133
1.032099755
1.290302873
1.691066759
2.079377683
1.567913939
3.270040693
1.224685282
4.428582041
1.766330178
1.277616054
0.2643254059
1.004807391
0.8411719977
1.182130231
4.243764669
3.307588107
1.64228851
1.861854269
2.866003879
2.342072182
0.7553287901
0.4832932116
1.840313745
0.9944352215
2.883055517
1.176270626
1.070953995
2.1241773
3.41286023
2.262340548
0.7394071553
0.3371307
0.5531096593
0.862203957
0.8807965267
0.8699853154
1.34533498
0.9677883845
1.740591925
3.229916524
0.4129975074
0.4616533008
0.3912537551
0.663293942
0.8347523904
1.158025522
0.6660184973
2.394840642
1.154813043
1.642241417
0.6996613986
0.7030787014
0.4102164482
0.3871281206
0.6674970468
0.58719896
0.6317174893
0.3429097055
1.882513282
2.410011417
1.053651651
0.2952713749
0.5317040669
0.6490672404
0.8842753562
1.027524217
0.3056340577
0.5899011642
0.706466142
0.6429305389
0.4746278788
0.3955822145
0.4512254342
0.4224970299
0.937090823
0.5071259915
0.883071875
1.301395751
0.6838493899
0.8263425003
0.515670144
0.1339372022
0.6106776488
0.4208039054
0.8037582544
0.2616035545
0.286536407
0.4520913031
0.5208701254
0.2746329267
0.4379084372
0.5819901918
0.2196035763
0.5943035208
0.4426402182
0.2428102348
0.4699607868
0.4878847458
0.6651065502
0.7129081072
0.515039027
0.6805063206
0.3626990283
0.6254088499
0.4986191114
0.7468758406
0.6621309991
0.1365313388
0.4052258804
0.4976413243
0.4908716161
0.7953604124
0.1502032908
0.7203191389
0.3487419725
0.5626238384
0.6320578631
0.8388603693
0.3631476724
0.8251711822
0.3418005496
0.252038841
0.4155145846
0.3118664055
0.4923006536
0.2519234595
0.2991109416
0.8026829944
0.6125279239
0.5117096488
0.4961664851
0.4539634681
0.4759528218
0.5653448662
0.6070218042
0.4377657067
0.5571001543
0.3696075794
0.7060851271
0.1595170178
0.3817312551
0.4387550702
0.1423839865
0.7772742225
0.3733609341
0.2925212475
0.2940177187
0.7299335355
0.5350969307
0.09558246477
0.02355304664
0.4187140628
0.5123940084
0.2247043171
0.4928116218
0.2634669295
0.5841867572
0.5846537476
0.5270346526
0.5846687477
0.3736216837
0.7680711595
0.3477846141
0.07181335132
0.2815052506
0.1636782866
0.2247583105
0.6690215051
0.2428674591
0.4986264553
0.3721442742
0.3541983559
0.5452279343
0.6730768572
0.1917726629
0.2899646013
0.3886138885
0.196339183
0.578584443
0.3242219735
0.2904252373
0.519865938
0.5620379405
0.1317016233
0.5034609068
0.2009553682
0.07096900061
0.5596006064
1.222849316
0.5142824216
0.7265710051
0.6931537866
0.1946436637
0.2187971622
0.5833510146
0.312252923
0.3069061602
0.5192913328
0.4819688785
0.3932515723
0.3933426883
0.6839115596
0.385545958
0.3268483641
)
;

boundaryField
{
    flow
    {
        type            zeroGradient;
    }
    obstacle
    {
        type            calculated;
        value           nonuniform List<scalar> 10(1.450428764e-18 5.802134343e-19 1.480802777e-18 5.106126131e-18 0 1.830260586e-18 0 1.945382839e-18 1.171385616e-18 2.012008385e-18);
    }
    frontAndBack
    {
        type            empty;
    }
    procBoundary0to1
    {
        type            processor;
        value           nonuniform List<scalar> 
21
(
4.240630514
2.660775312
1.652809897
1.344632884
2.279316861
1.821506726
1.130227079
1.075113601
1.399100368
0.8513268168
1.117027829
0.6922392769
1.034826983
0.749122436
0.7851656107
0.5153034934
0.2304023427
0.2144761065
0.3771805143
0.1172234544
0.846446856
)
;
    }
    procBoundary0to2
    {
        type            processor;
        value           nonuniform List<scalar> 
31
(
0.3165495964
0.1795446566
0.3749093997
0.3873787778
0.7442345378
0.1517230216
0.2042281509
0.3615873137
0.5512308641
0.5260209316
0.541308102
0.4961634613
0.59767968
0.4834536732
0.3848832407
0.6122483582
0.695403983
0.44251061
0.291898215
0.675597947
0.3355382717
0.4693170666
0.3176166376
0.5441981636
0.3747132339
0.6333980841
0.4693049283
0.3879572819
0.1034375737
0.3355382717
0.3994400955
)
;
    }
}


// ************************************************************************* //
