/*--------------------------------*- C++ -*----------------------------------*\
| =========                 |                                                 |
| \\      /  F ield         | OpenFOAM: The Open Source CFD Toolbox           |
|  \\    /   O peration     | Version:  2406                                  |
|   \\  /    A nd           | Website:  www.openfoam.com                      |
|    \\/     M anipulation  |                                                 |
\*---------------------------------------------------------------------------*/
FoamFile
{
    version     2.0;
    format      ascii;
    arch        "LSB;label=32;scalar=64";
    class       volScalarField;
    location    "0.01";
    object      internalEMean;
}
// * * * * * * * * * * * * * * * * * * * * * * * * * * * * * * * * * * * * * //

dimensions      [1 -1 -2 0 0 0 0];

internalField   nonuniform List<scalar> 
654
(
0.3151293761
0.408288477
0.4097939148
0.4070879515
0.4080174683
0.4072639147
0.4067235532
0.4082708094
0.4065333404
0.4060309805
0.4068079281
0.4095148505
0.407870511
0.4105523411
0.413494958
0.4179982947
0.4213720144
0.434904646
0.4999600847
0.8045488323
0.3202198943
0.4106947354
0.4160198234
0.4141335472
0.4153627429
0.4167232715
0.4164050384
0.4149172298
0.4165798065
0.4181490951
0.4179192262
0.4160160134
0.4190892863
0.4187532703
0.4179776648
0.4247620786
0.4366157369
0.468683889
0.5478823348
0.7632213637
0.321004606
0.412741209
0.4130185299
0.4097388131
0.411585621
0.4124717407
0.412119761
0.4107983308
0.410451611
0.4107279934
0.4116921663
0.412773203
0.412806943
0.4164313237
0.4222282341
0.4231793896
0.4331277869
0.4571963182
0.5186194356
0.6525479064
0.3198688212
0.4107831406
0.4164781406
0.4149788699
0.4140081352
0.4105024141
0.4123892315
0.4129763898
0.4123814367
0.4089481495
0.4082924388
0.4124698253
0.4141386685
0.4127301995
0.4151456351
0.4207866173
0.4282874939
0.447126015
0.4885570915
0.5807453353
0.3192858359
0.411515309
0.4080881899
0.4116157066
0.4123733638
0.4107912191
0.4104255247
0.4114889332
0.4132775127
0.4151008554
0.4163115571
0.415426744
0.4166656718
0.4183188166
0.4213364966
0.4274137744
0.4333337978
0.453220405
0.4913939982
0.5369643686
0.3193072858
0.4100790369
0.4123252419
0.4074414101
0.4088901843
0.4095058744
0.4084931497
0.4100197044
0.4090344784
0.4129785663
0.4122806169
0.4116765925
0.4103145747
0.4103163799
0.4125450871
0.4210932957
0.4256257664
0.4473500587
0.4527560567
0.4916930734
0.3199362894
0.4129130216
0.4150661467
0.4142017725
0.4166000348
0.4177510092
0.4157688169
0.4136638636
0.4176318631
0.4188461826
0.4183857917
0.4167769205
0.4235730489
0.4214060737
0.42599313
0.4261418654
0.4305022927
0.4357560248
0.4474426046
0.4730882143
0.3215086399
0.4126919045
0.4144874733
0.4136410052
0.4114141519
0.4116151779
0.4131923788
0.4138636203
0.4159571643
0.4140435664
0.4128403772
0.4124599386
0.41319251
0.4130286177
0.413013997
0.4168267815
0.4253244571
0.4364890585
0.4460105521
0.4544766477
0.3252335106
0.4179462094
0.4194342733
0.4186005031
0.4162503571
0.4143590345
0.4141843205
0.4141512266
0.4132257491
0.4138420008
0.4157377276
0.4168179449
0.4153608185
0.4143248464
0.4155115651
0.419449674
0.4253263303
0.4309089309
0.43508598
0.4523277715
0.3239075987
0.4148430768
0.4189800448
0.419204935
0.4201783895
0.4214937469
0.4190220156
0.4187965295
0.4169590206
0.4182922077
0.4163116107
0.4159994722
0.4205593473
0.420358309
0.418074931
0.4215180388
0.4237547853
0.425140804
0.4328018152
0.4386328817
0.3235281311
0.4153383134
0.415988028
0.4157103803
0.4133221612
0.4108577323
0.4106030698
0.4099180528
0.4101254119
0.411600384
0.4134920451
0.4141691377
0.4150838444
0.415009365
0.4141552923
0.4121469085
0.415488481
0.4231638157
0.4276114869
0.43448928
0.3207911111
0.4158242149
0.4169524751
0.4181664624
0.4222057121
0.4227614343
0.4224875995
0.4221026188
0.4219996203
0.4190481624
0.4167035399
0.4174180685
0.4149687371
0.4186018614
0.4188919776
0.4207362278
0.4227512073
0.4231796982
0.4254777792
0.4339095303
0.3173749999
0.4081373923
0.4096818679
0.4081632157
0.4043790041
0.4057363751
0.4108102077
0.4134440972
0.4128793484
0.4132218913
0.4127852836
0.414230838
0.4159326354
0.4154316181
0.4142971729
0.4133627565
0.4173965913
0.4197663508
0.4210838776
0.4232299321
0.3205629226
0.4103949151
0.4135781889
0.4163246729
0.4205539137
0.4190004592
0.4160242994
0.4159703153
0.4153679226
0.4161302562
0.4167910178
0.4170825116
0.4179040683
0.4195964287
0.4208722097
0.4193764487
0.4150462172
0.4136879297
0.4155269019
0.4184129958
0.3189262553
0.4146030617
0.4166517717
0.4133773355
0.4119374839
0.4145566236
0.4116736017
0.4134582329
0.4127743971
0.4165068832
0.4178340628
0.4162934276
0.4144264007
0.4116297055
0.4114074882
0.4107723832
0.4119163134
0.4147208259
0.4155494
0.4187928153
0.3242981809
0.4148311974
0.4153387365
0.4121710934
0.4081261557
0.410712047
0.4141157801
0.4142828027
0.4103207297
0.4088581152
0.4068274818
0.4081411276
0.4050383648
0.4065134269
0.4060725579
0.4100352278
0.41387836
0.413158635
0.4141572592
0.4177792561
0.3219651827
0.4108057204
0.4122629918
0.4130766529
0.4159793063
0.4129111311
0.409577619
0.4083964569
0.4095320512
0.409640472
0.4112797114
0.4124782178
0.4146762652
0.4161107473
0.414386846
0.4134102218
0.4158842618
0.4184003416
0.4165482462
0.4183899138
0.3231064078
0.4155427174
0.4178564939
0.4183925591
0.4183986942
0.4164900604
0.4185346537
0.4188431731
0.4196390001
0.4174241201
0.4169370052
0.4150388429
0.4145540707
0.4150983889
0.4172267871
0.4142233093
0.4152280912
0.4144215379
0.4198489187
0.4176067899
0.3185226409
0.4120186173
0.4131300562
0.4114902622
0.4103913516
0.4131539861
0.4114299178
0.4101878189
0.4103858089
0.4109141182
0.4108521291
0.4125111251
0.4093303063
0.4090609755
0.4091794367
0.4106266995
0.4133021893
0.4117716546
0.4097498882
0.4124778742
0.317026056
0.4095857777
0.4162891668
0.4153673607
0.4170910467
0.4150869073
0.4130399219
0.4123370988
0.4139587229
0.4108271724
0.4122587154
0.4167920205
0.4191159172
0.418139119
0.4194365081
0.4173184902
0.4182248594
0.420470362
0.4205301247
0.4188547958
0.3224043608
0.4128389887
0.4120914649
0.4101801213
0.4105233551
0.4140630049
0.4144635691
0.4155683797
0.4172685586
0.4206985384
0.4203489488
0.416936532
0.4167993758
0.4170358935
0.4179797003
0.4201656716
0.4207828325
0.4210209099
0.4198570192
0.4198688263
0.3206504316
0.4116741265
0.4139168157
0.4130286473
0.4161510047
0.4143476389
0.4183744861
0.4207506696
0.4232060851
0.4206299896
0.4196921398
0.4170983646
0.4154298842
0.4178694216
0.4174006355
0.4171802824
0.4160797142
0.4145884514
0.4158746805
0.4140360795
1.828035287
2.322832696
2.54168504
2.72286616
2.807987282
2.897772901
2.998640389
3.062620139
2.957225484
3.001000415
1.171612968
1.556787994
1.888228329
2.147279382
2.379986371
2.527697715
2.665320732
2.781540396
2.839706408
2.868131678
0.872941422
1.132497817
1.377350152
1.647629948
1.861768641
2.083000434
2.278345359
2.449028308
2.554003569
2.656018567
0.6977554888
0.8596307677
1.053270618
1.254986359
1.45873887
1.673890118
1.852784606
2.031231136
2.187816965
2.351351827
0.6155784629
0.7186162966
0.8474615959
0.995767291
1.161333391
1.329682943
1.521669584
1.644485162
1.843689161
2.033044024
0.5496252228
0.6185522854
0.6984256558
0.8144831266
0.9276139529
1.078453184
1.270834855
1.402561927
1.564046726
1.722113655
0.5150800327
0.5715248207
0.6143994329
0.6987442509
0.7788873369
0.8713178519
1.001274615
1.128288894
1.274415221
1.420852908
0.4761629223
0.5152938468
0.5507365033
0.6056989819
0.6678958412
0.7387186899
0.8285922521
0.939758889
1.040029261
1.15772372
0.4694377893
0.4896265994
0.508239582
0.5451541862
0.6016269482
0.657426083
0.7101268733
0.7882463218
0.8705973948
0.9704403745
0.4503724971
0.4701955678
0.492480474
0.5169591392
0.5483338234
0.5901291995
0.6394240026
0.6904823146
0.7400672578
0.8148580086
0.445800792
0.4604308073
0.4703427293
0.4946498693
0.5140966787
0.5444687058
0.5755245009
0.6158969936
0.65757865
0.7188163609
0.4345011332
0.4389434368
0.4456088373
0.4539617047
0.4684592211
0.4888566553
0.5147845366
0.549010136
0.5862224633
0.630182666
0.4260707844
0.4322809487
0.4354702972
0.4489691769
0.4577522711
0.4736282401
0.4965014883
0.508093897
0.5292876562
0.5660652613
0.4259075222
0.4294241528
0.4358060375
0.4401892477
0.4499469641
0.4520360388
0.4652546244
0.4876312505
0.5055187917
0.521840711
0.4201439042
0.421815989
0.4273656745
0.432986351
0.4403600869
0.446223939
0.4535602829
0.4653838453
0.4840873393
0.5006825855
0.4211715189
0.4258791202
0.4234584181
0.4270412659
0.4365686861
0.4488885232
0.4535219716
0.4543905502
0.4663157908
0.4788493618
0.4198173437
0.4214866271
0.4242710233
0.4266567697
0.423451291
0.4316127552
0.4370600166
0.4454730967
0.450799499
0.4609297524
0.4224864643
0.4192189956
0.4226934044
0.4190908351
0.4251766073
0.4285587308
0.431826499
0.4392887924
0.4481934129
0.4529289526
0.4142572477
0.4197910201
0.423105302
0.4249386338
0.4244555942
0.4229609295
0.4244601409
0.4291283616
0.4327063554
0.4431618017
0.4192160348
0.4180841317
0.4204594208
0.4196449193
0.4223293374
0.4256324456
0.430255478
0.4342962222
0.4344080706
0.4381166774
0.4201644438
0.4195631037
0.4185540442
0.4180493791
0.4186868829
0.4176156059
0.420893509
0.4223738165
0.4285244676
0.4322947762
0.4164544389
0.411626494
0.4138989148
0.418568371
)
;

boundaryField
{
    flow
    {
        type            calculated;
        value           nonuniform List<scalar> 
42
(
0.3151293761
0.3202198943
0.321004606
0.3198688212
0.3192858359
0.3193072858
0.3199362894
0.3215086399
0.3252335106
0.3239075987
0.3235281311
0.3207911111
0.3173749999
0.3205629226
0.3189262553
0.3242981809
0.3219651827
0.3231064078
0.3185226409
0.317026056
0.3224043608
0.3206504316
0.3151293761
0.408288477
0.4097939148
0.4070879515
0.4080174683
0.4072639147
0.4067235532
0.4082708094
0.4065333404
0.4060309805
0.4068079281
0.4095148505
0.407870511
0.4105523411
0.413494958
0.4179982947
0.4213720144
0.434904646
0.4999600847
0.8045488323
)
;
    }
    obstacle
    {
        type            calculated;
        value           nonuniform List<scalar> 10(1.023226778e-18 1.157233439e-18 1.193275685e-18 1.156081385e-18 1.2360434e-18 1.203446467e-18 1.228200965e-18 1.257833159e-18 1.221774877e-18 1.172135591e-18);
    }
    frontAndBack
    {
        type            empty;
    }
    procBoundary0to1
    {
        type            processor;
        value           nonuniform List<scalar> 
21
(
2.985416227
2.892863107
2.749522115
2.431927256
2.151050231
1.886147531
1.578578998
1.309474759
1.094130245
0.9001740217
0.7892355482
0.6908787526
0.6035707317
0.5501603369
0.51379368
0.4905373904
0.4728628825
0.4618915448
0.447353738
0.4430273522
0.4299965783
)
;
    }
    procBoundary0to2
    {
        type            processor;
        value           nonuniform List<scalar> 
31
(
0.3219163936
0.4185446759
0.4210855656
0.4157454565
0.4134900822
0.4111149194
0.4108152582
0.4097409969
0.4072949634
0.4118830361
0.412894898
0.4179544012
0.4186158712
0.413821858
0.4140964326
0.4115099428
0.4098063625
0.4095110049
0.4069266905
0.4079076079
0.4218845888
0.4234200199
0.425699578
0.4234704653
0.4254617225
0.425030191
0.4077208679
0.411378522
0.414482747
0.4218845888
0.4130828097
)
;
    }
}


// ************************************************************************* //
