/*--------------------------------*- C++ -*----------------------------------*\
| =========                 |                                                 |
| \\      /  F ield         | OpenFOAM: The Open Source CFD Toolbox           |
|  \\    /   O peration     | Version:  2406                                  |
|   \\  /    A nd           | Website:  www.openfoam.com                      |
|    \\/     M anipulation  |                                                 |
\*---------------------------------------------------------------------------*/
FoamFile
{
    version     2.0;
    format      ascii;
    arch        "LSB;label=32;scalar=64";
    class       volScalarField;
    location    "0.01";
    object      linearKE;
}
// * * * * * * * * * * * * * * * * * * * * * * * * * * * * * * * * * * * * * //

dimensions      [1 -1 -2 0 0 0 0];

internalField   nonuniform List<scalar> 
654
(
7.825338972
5.542030852
9.038962933
8.973116808
8.339533226
7.127178858
7.439211958
6.853996326
5.370898645
6.960839624
4.214078832
9.451863753
6.587333359
7.790079506
6.369525307
6.061809551
9.440579953
10.24898208
8.98650192
4.192290718
4.748655974
8.179726572
9.28498209
6.05606703
5.829906679
3.825785137
7.429951632
6.939556531
8.328935125
4.707025812
3.389165512
11.34627439
12.34083119
7.311813026
6.717162318
8.807896501
8.69735657
6.404965169
9.783601428
9.944993245
6.502106141
10.62134687
6.157224668
11.34397724
12.58927924
12.00995372
3.782123125
9.429127334
7.274711145
3.906122234
8.218128077
8.205781824
7.394855792
6.777517854
4.83840776
18.72032606
4.077059288
8.578408298
5.208942579
8.04986874
5.498356667
9.145276308
10.16683162
4.268458351
6.091098028
5.531332787
7.764147057
8.470927543
3.992382647
14.51056864
6.409528357
7.746272596
7.193546127
8.178614641
7.254597615
12.28188392
12.17370781
11.91830523
4.634325503
5.735091093
4.875227021
7.607706584
8.420367681
6.847006492
7.845750799
5.58335031
7.908451495
7.225829129
8.523084468
6.086722676
7.656279786
9.365170992
6.030336939
9.708898843
7.005441357
4.049948878
8.737697595
6.135804705
9.647198173
8.678984138
6.568458808
9.803586316
5.187201974
4.506669647
8.210341443
16.40238365
7.528132468
3.701991331
8.524991949
9.577916655
5.653198316
10.23083092
7.655755182
6.329080186
9.71778445
7.120504581
11.90907029
11.31578588
8.448168155
5.346259485
7.049928396
9.579139068
4.965541873
9.784410605
11.95285644
9.717755291
5.395781492
8.750261361
6.367695355
7.898326382
7.087558524
8.521165333
6.438532258
7.655455851
7.953205189
6.824686432
8.499827784
8.353770483
3.719541231
8.641274715
6.697452796
6.495104194
8.476024258
10.05074192
10.85713239
3.577037777
4.906760243
9.352940235
7.854855228
12.24380929
8.628335071
11.16199754
4.557550476
6.433640189
8.400423782
12.45951348
6.541827632
14.11850951
5.927749211
5.446078455
6.673163977
7.84078485
5.859837085
8.29105419
7.460169141
8.511345356
3.042633035
12.1366513
6.189686451
7.99733075
11.26839881
13.22838092
5.297806997
7.735133351
4.394213109
3.764752413
3.692656725
4.812763934
7.767701731
7.366256265
7.042714646
7.930961299
12.59759227
8.092095767
9.046492039
7.763375576
7.1258806
8.258534312
4.40895718
11.41983228
5.746420503
6.650339854
4.811019566
3.450849764
7.967096495
10.16794131
8.405771723
9.941975862
9.563207195
2.440304848
3.667128829
8.783448141
6.283343682
8.404365211
7.746457576
9.359967834
4.114463285
5.502938112
5.676066142
7.890108341
8.016985957
9.38679013
8.865173747
6.112331128
12.18408767
6.131463593
5.85928202
6.496832706
10.5476977
6.232539928
4.830313593
6.407199127
6.464127833
6.519784845
10.60137078
6.622281986
4.015433625
10.51251091
7.679508204
7.15237956
6.32601443
10.18167638
5.306253291
6.021862006
9.357713222
4.505477432
3.586893845
3.477521428
11.44209041
12.02978504
7.934172761
6.942987159
7.882223076
7.463849381
8.377415011
10.74460628
8.788737264
8.347582709
7.744226893
8.432995852
2.287404212
9.997656705
13.66415113
8.117149548
8.799317262
15.95740036
7.737275624
7.460773396
7.355997435
7.826334984
4.771739985
10.40214351
7.048945638
8.865075614
6.873678783
5.109615137
10.24937282
10.61524413
2.510161783
6.2709386
8.922633276
9.237514886
11.64719867
4.096931606
3.571640348
8.669553861
8.554112226
6.379819313
7.740943714
9.71441656
6.331413808
6.999584517
9.989994826
7.672402166
8.354048328
5.186873238
7.592410932
7.413255662
9.507940887
10.7979814
7.725279257
9.905821224
11.59633665
9.573357925
4.871631777
5.177775807
7.227132243
4.167572759
6.50775645
3.544321653
7.568927854
5.173040469
6.582370703
7.827943494
6.183554444
6.735027676
8.677083403
6.860028432
8.531015139
12.13954838
6.66464818
8.790283751
1.297281221
7.258323211
7.55101884
12.75304704
8.820550002
7.067643233
7.57572594
3.568576739
5.248108583
5.465823854
8.438538871
6.871014864
7.343132966
6.434201249
4.441974899
9.47250683
7.709662311
7.01767424
4.233395278
5.87886743
12.55653424
10.21938516
4.136086716
11.01887626
7.726698168
6.786268879
9.471846757
2.330919803
5.883236824
7.631657016
6.549304888
9.733394085
8.935002426
8.481374713
9.513873027
7.020400676
7.531683133
13.16905065
6.580452778
9.769205567
6.165641972
6.045021813
8.453404304
8.285002565
9.387320431
7.310396486
10.08282051
8.349904738
4.787918298
8.840960194
7.774589173
7.584641878
5.700904023
8.711517205
9.682457681
12.44849621
5.748062501
7.446186657
9.209557396
8.054237506
8.319668694
4.404150056
8.570035804
10.75230982
12.17503659
7.261224792
6.782344917
7.561236793
6.854643194
7.82847476
9.861425924
8.462381306
7.211752034
11.6104693
9.017632171
2.592690302
3.009297789
10.15121928
4.16012385
8.276669126
6.246518762
9.437206189
5.204788915
14.50458841
8.282792063
8.059184698
12.78729528
11.50931976
4.605101203
5.484086431
8.400634373
8.842329522
5.139454105
6.965666605
5.57510077
13.49758487
5.060846729
5.360648671
7.524369989
8.136484439
7.676875823
5.146280955
5.903571307
10.79683705
7.836565705
8.978056751
11.97692053
7.82009775
3.761900732
10.92971743
4.808313557
13.66881095
5.742653942
9.433919818
9.76616823
11.18732804
4.438347812
7.366898861
8.892813271
7.413864318
6.417006686
10.63888217
12.43645767
8.548892368
9.992964738
6.340354622
7.609110726
10.55775876
6.266435842
9.146633202
7.576660184
11.00305137
10.53078556
13.04942887
10.2073021
9.597391507
6.271389733
4.908841962
12.53524475
9.761841681
11.42453828
15.31799695
12.49840438
9.697269275
6.1671716
13.50566326
6.57199567
7.020462619
4.727656477
6.760350506
8.180148126
15.70016893
13.42443393
14.61625137
6.743823756
9.204602936
16.35259062
9.926685479
9.387292716
6.161628579
15.39897113
6.365042051
13.28188481
10.4106208
6.338440478
14.94946277
10.37544701
14.66492251
9.500575016
6.041421616
9.01626349
10.64049312
11.72777569
9.489144845
12.63630563
11.71813986
14.75610721
14.75773847
7.106399229
6.251766793
12.07010965
9.185511117
6.533891187
15.73084781
11.1799987
11.15583344
8.404687999
9.410509073
14.50987602
11.61177436
12.26781623
6.816383329
7.58883297
7.626530537
10.72742804
8.316385034
15.85126864
11.25084894
11.49559932
10.21040854
8.428972333
9.140433429
9.245717688
9.154419465
6.975749693
5.465105615
9.790482364
6.132633352
6.809151098
10.00699152
5.328815858
4.382814169
8.343750341
8.141212795
10.90951631
13.89671399
11.54812724
13.03290834
12.92968489
2.991243317
6.151593261
8.628295425
13.40742622
6.924841643
10.87570719
8.838073567
7.767905185
6.478205704
9.25209706
6.915222029
5.586392396
7.543434356
8.868848126
6.501501648
4.039797596
8.085753875
5.339342358
9.419963161
10.88633897
9.076973905
5.916623237
8.558068637
5.972688826
10.5856501
10.39952448
4.589189304
8.89351718
11.70500143
10.38920087
9.341573334
5.923201191
9.74024255
8.54378037
7.755923204
6.609472191
9.705583413
13.05085189
7.226192488
7.345758646
7.595043127
6.111690169
8.039968742
9.081853911
4.877671971
5.99885095
10.89094927
10.50549109
8.865664285
11.89685395
9.221194437
11.69863451
8.778903237
9.725993406
8.414074514
10.03956431
11.22122217
11.67891431
4.425634761
6.293524641
4.707642941
4.770071318
8.938855396
5.940039754
6.028428699
4.665686715
13.42545988
9.381310203
3.51658986
1.042696104
8.524943836
8.714318535
6.101418468
9.650958174
6.073693047
12.33875539
7.063537393
8.909939313
6.171434811
5.130929611
9.527707504
10.51477541
1.745586961
5.620451185
5.522610097
2.129430248
10.13009888
8.198887533
7.957304795
7.928488944
4.429667367
10.78406757
12.45137809
3.634112787
6.666309025
7.120052227
2.08069268
13.57943807
6.611370448
8.902523833
9.242689712
8.777918425
5.820679079
8.413094679
7.535992931
1.0507442
6.509894618
13.20196346
10.18340682
8.600572736
12.8501767
7.192307752
5.607347454
8.014665696
7.252316157
8.434924504
8.171587406
9.064212605
7.939375419
7.162214529
11.86642388
7.187011887
5.800566084
)
;

boundaryField
{
    flow
    {
        type            zeroGradient;
    }
    obstacle
    {
        type            calculated;
        value           nonuniform List<scalar> 10(1.019980148e-17 6.606101922e-19 2.417201475e-18 6.035588215e-18 0 3.335218818e-18 0 4.854586538e-18 2.673708903e-18 3.277932037e-18);
    }
    frontAndBack
    {
        type            empty;
    }
    procBoundary0to1
    {
        type            processor;
        value           nonuniform List<scalar> 
21
(
8.947324396
9.610488767
9.654723369
8.597514748
11.4043958
16.3710034
10.20492856
7.431392782
9.088483791
14.10218845
10.15013468
18.08399158
8.503032889
12.63675954
8.899169286
8.161915851
7.253020764
4.216120731
5.739476351
6.204511574
16.41799475
)
;
    }
    procBoundary0to2
    {
        type            processor;
        value           nonuniform List<scalar> 
31
(
7.100164977
4.881365103
8.70473198
5.871617298
9.13023619
5.484847174
4.790703696
5.703082622
18.70705289
9.569118132
8.251919708
8.37464021
8.288511505
10.30484435
6.90850366
10.43105278
9.445637788
7.319059848
5.447091095
11.15088236
9.861478447
9.407168062
4.544240756
6.83700283
5.119621304
9.360752056
4.62970646
8.221317877
3.856818873
9.861478447
10.97760567
)
;
    }
}


// ************************************************************************* //
