/*--------------------------------*- C++ -*----------------------------------*\
| =========                 |                                                 |
| \\      /  F ield         | OpenFOAM: The Open Source CFD Toolbox           |
|  \\    /   O peration     | Version:  2406                                  |
|   \\  /    A nd           | Website:  www.openfoam.com                      |
|    \\/     M anipulation  |                                                 |
\*---------------------------------------------------------------------------*/
FoamFile
{
    version     2.0;
    format      ascii;
    arch        "LSB;label=32;scalar=64";
    class       volScalarField;
    location    "0.01";
    object      linearKEMean;
}
// * * * * * * * * * * * * * * * * * * * * * * * * * * * * * * * * * * * * * //

dimensions      [1 -1 -2 0 0 0 0];

internalField   nonuniform List<scalar> 
654
(
5.794032829
7.779271935
7.742459941
7.749572934
7.758762629
7.763664777
7.757756296
7.772974426
7.737104952
7.694205852
7.722050951
7.712171539
7.696491873
7.728605385
7.739374104
7.78152386
7.751180012
7.765806566
7.846050748
8.340705758
5.881632082
7.886805408
7.862605954
7.81631261
7.811484478
7.837216749
7.807464738
7.809495931
7.825900898
7.836835488
7.869449393
7.878896404
7.910232683
7.913025014
7.904317909
7.971787063
7.985648844
8.084614302
8.199413023
8.466251063
5.91883192
7.974383008
7.892870108
7.847232181
7.852265085
7.852501377
7.879885308
7.874833636
7.874820837
7.851978814
7.859153444
7.844014025
7.803349709
7.828923693
7.845992883
7.826610297
7.845028834
7.922982833
7.982900223
8.217306999
5.902488316
7.875033513
7.867023223
7.86145883
7.855843309
7.859216443
7.864936813
7.863206913
7.835864572
7.864804094
7.82714362
7.859319362
7.886549425
7.806570978
7.810881404
7.777050907
7.786468979
7.839640692
7.951743272
8.184966773
5.898972646
7.912885968
7.819612024
7.840951821
7.849707872
7.8270506
7.816375405
7.803732542
7.80526255
7.819696795
7.799103035
7.776906298
7.807601626
7.810182814
7.832022604
7.893026888
7.87539635
7.938478414
7.98891805
8.071632405
5.878717521
7.884766596
7.871991692
7.795966683
7.798500741
7.77292304
7.761414245
7.819711324
7.802435148
7.834712081
7.823550479
7.824290452
7.779816033
7.784492971
7.834048555
7.809913812
7.823237923
7.847136783
7.859049871
7.949450568
5.909293607
7.932714641
7.888300629
7.873243942
7.931565839
7.905927483
7.919221604
7.878659012
7.912114835
7.937705137
7.910914876
7.885923246
7.929837872
7.877326209
7.886698784
7.823104959
7.862766083
7.877624315
7.961309126
7.995797244
5.894409976
7.890901716
7.824116367
7.803507271
7.805970685
7.836845615
7.845165069
7.846786784
7.836095166
7.809425151
7.802149094
7.790889362
7.807118246
7.831686312
7.833385509
7.876649034
7.91395058
7.891699078
7.916823949
7.919637064
5.899419838
7.949946838
7.90543925
7.899087737
7.846128333
7.842292197
7.855715568
7.885347738
7.837388992
7.842836391
7.883699033
7.908995427
7.848520192
7.84238944
7.818357456
7.842241026
7.876179819
7.900892559
7.89261621
7.984892427
5.895814692
7.846282062
7.844258402
7.846419066
7.85159903
7.850762847
7.827020943
7.818635354
7.857203005
7.863509125
7.824227718
7.838859952
7.883953833
7.873221498
7.884656233
7.915012933
7.908947519
7.888607505
7.911113813
7.891542091
5.892441743
7.892669998
7.820656518
7.811928131
7.772756202
7.747797081
7.739056703
7.772095763
7.76144895
7.787059354
7.840984664
7.831292101
7.860464514
7.874428764
7.864024751
7.783064435
7.791353899
7.856605576
7.911792172
7.949772449
5.903449348
7.954900531
7.906335061
7.874145381
7.936527381
7.927818617
7.932263217
7.93073264
7.931443424
7.875908861
7.83140338
7.792341404
7.759185431
7.82680655
7.844403386
7.921983504
7.9676247
7.900574326
7.880523206
7.910936238
5.885236989
7.887653653
7.825247976
7.818206602
7.767602781
7.783381486
7.8260391
7.805394586
7.796407552
7.806796999
7.852902724
7.866119484
7.892783412
7.85021009
7.809416371
7.821795272
7.854437926
7.899990808
7.946465527
7.921471521
5.891377031
7.915559639
7.908299315
7.917912268
7.953629355
7.947800846
7.91284959
7.937559785
7.932124416
7.913913144
7.89204547
7.901019266
7.898943193
7.908178405
7.921877184
7.867458225
7.831773584
7.776397623
7.774337058
7.819403738
5.873027599
7.914295534
7.841016708
7.815965299
7.848273853
7.85890086
7.877828603
7.854498747
7.88909332
7.907125248
7.896306562
7.88565432
7.906319757
7.854277601
7.847911587
7.833057876
7.838490437
7.842686896
7.846886228
7.834713259
5.906045758
7.926165923
7.856509627
7.829191336
7.766740566
7.785378761
7.816060886
7.799457623
7.813413157
7.79640255
7.795363446
7.810187625
7.745293771
7.778048918
7.80370057
7.849222488
7.861287855
7.864127301
7.869033802
7.820220053
5.884680359
7.860571694
7.797592536
7.814761538
7.823030098
7.832816652
7.774147339
7.78146025
7.762618812
7.760510123
7.763013691
7.790363367
7.803895192
7.852785786
7.806059815
7.784642972
7.797079485
7.825531887
7.806673126
7.807461423
5.898469007
7.929218066
7.88872239
7.900143568
7.893469753
7.849262096
7.883449878
7.882159574
7.877916865
7.862893666
7.838553985
7.829162191
7.817735683
7.821221606
7.848447012
7.846656406
7.87572069
7.83322416
7.865553226
7.868816596
5.891089663
7.920009222
7.85102477
7.784896671
7.815116993
7.831981119
7.818460792
7.835174943
7.818358087
7.826483981
7.824304367
7.846744152
7.79818208
7.811685149
7.795918891
7.788213079
7.81430111
7.802168975
7.792018139
7.776442343
5.899533169
7.934546716
7.959070154
7.940801655
7.934418161
7.93523588
7.911447414
7.870455117
7.900952037
7.895941012
7.897589294
7.914634273
7.933515581
7.890783252
7.891075789
7.891630556
7.878130567
7.915484993
7.93278907
7.918623886
5.9022706
7.892163
7.78171639
7.804120692
7.813963399
7.84398047
7.848314583
7.790602481
7.826775902
7.857297026
7.88854494
7.889206777
7.88026516
7.928648969
7.946320298
7.964601748
7.942582033
7.934217555
7.928196523
7.896527811
5.881612333
7.914818729
7.860615422
7.826063119
7.847623275
7.808382292
7.854019933
7.888360234
7.935084458
7.900380716
7.852722761
7.817433975
7.830299729
7.851886359
7.834319921
7.854227204
7.840414811
7.832550004
7.878197608
7.8792913
9.755877865
9.87201261
9.602394536
9.170013901
8.770637743
8.491977369
8.171918605
7.793665328
7.423052221
7.216033343
9.137926175
9.777156103
10.24735945
10.45953165
10.48414359
10.3492562
10.00056094
9.744267001
9.420346102
9.085698335
8.685571083
9.339683283
9.85171011
10.40057616
10.68205439
10.98230742
11.086139
11.03388191
10.85248767
10.52796857
8.46481756
8.812765303
9.256425586
9.825969573
10.27239162
10.67413761
11.07168342
11.32537233
11.51352118
11.57034253
8.260912846
8.573806203
8.960940561
9.337279165
9.866913184
10.28176418
10.67070358
11.01543453
11.41137101
11.74857148
8.114117165
8.332684364
8.607432917
8.965606153
9.327374372
9.818742708
10.33667478
10.76836193
11.19477346
11.59690018
8.127775195
8.287430495
8.428391409
8.723535772
8.997547141
9.423645345
9.822246334
10.25044761
10.76324476
11.19966113
7.982127787
8.104054523
8.290478611
8.464811541
8.708625715
8.939179182
9.333691331
9.701326397
10.1292116
10.5097342
8.001710383
8.08589292
8.14992339
8.290620594
8.503875562
8.737689809
8.986226464
9.26494604
9.659335149
10.01551963
7.982496508
8.062290679
8.175071498
8.221760961
8.333137738
8.499134012
8.759083064
8.966250863
9.202857938
9.50592845
7.983237
7.989241481
8.105921808
8.218228322
8.315202723
8.382420471
8.508706872
8.689374671
8.861875076
9.134164362
7.916481205
7.931943429
7.934979713
7.986615051
8.015141243
8.135056072
8.231610697
8.420259507
8.654612205
8.836620512
7.914419778
7.943596222
7.917201827
7.966989027
7.996654434
8.102886559
8.229205755
8.282354585
8.368640292
8.572070403
7.846071042
7.863100904
7.919452054
7.946506694
7.979659386
7.989878692
8.033121835
8.176656782
8.299805783
8.407265466
7.839847746
7.821395469
7.879523985
7.905487242
7.887128539
8.005747965
8.003250242
8.068235962
8.136321389
8.22041539
7.894455844
7.919559133
7.884524726
7.908286121
7.975408853
7.969612907
8.000869395
8.009020045
8.050644503
8.102742478
7.791531411
7.850676002
7.830119433
7.84344814
7.811370432
7.855298387
7.885924062
7.943345073
7.962392637
8.099252215
7.874373094
7.794147324
7.817445185
7.811930243
7.883424787
7.904062672
7.904881235
7.945413694
7.952717636
7.970069817
7.823820317
7.909612414
7.911888962
7.948860779
7.953227031
7.905601325
7.8993395
7.897829756
7.902298973
7.968185031
7.904142624
7.89390225
7.894080207
7.856765382
7.864447631
7.906584166
7.934559727
7.980274087
7.949656607
7.951760701
7.893678542
7.893790123
7.887616274
7.88700253
7.877132928
7.868608457
7.854647246
7.872757701
7.942413792
7.951360695
7.876321652
7.84367937
7.834204178
7.886322968
)
;

boundaryField
{
    flow
    {
        type            calculated;
        value           nonuniform List<scalar> 
42
(
5.794032829
5.881632082
5.91883192
5.902488316
5.898972646
5.878717521
5.909293607
5.894409976
5.899419838
5.895814692
5.892441743
5.903449348
5.885236989
5.891377031
5.873027599
5.906045758
5.884680359
5.898469007
5.891089663
5.899533169
5.9022706
5.881612333
5.794032829
7.779271935
7.742459941
7.749572934
7.758762629
7.763664777
7.757756296
7.772974426
7.737104952
7.694205852
7.722050951
7.712171539
7.696491873
7.728605385
7.739374104
7.78152386
7.751180012
7.765806566
7.846050748
8.340705758
)
;
    }
    obstacle
    {
        type            calculated;
        value           nonuniform List<scalar> 10(4.134704804e-18 3.660807635e-18 3.385419978e-18 3.112898853e-18 3.024999672e-18 2.827360088e-18 2.782641695e-18 2.659786987e-18 2.511790293e-18 2.478618771e-18);
    }
    frontAndBack
    {
        type            empty;
    }
    procBoundary0to1
    {
        type            processor;
        value           nonuniform List<scalar> 
21
(
6.993232003
8.773707984
10.30742004
11.36332658
11.90730867
11.96862067
11.59697077
10.95144957
10.53726694
9.850521281
9.463519562
9.060949038
8.757070365
8.455453361
8.37926098
8.145440524
8.136555207
8.029302239
7.995055984
8.004336494
7.918499247
)
;
    }
    procBoundary0to2
    {
        type            processor;
        value           nonuniform List<scalar> 
31
(
5.883294087
7.889811194
7.888610648
7.831442688
7.833255791
7.834088662
7.851299885
7.833201996
7.804143628
7.872164816
7.894107095
7.936721193
7.927510916
7.856419772
7.850269872
7.848109293
7.852155791
7.859413957
7.804614432
7.783026023
7.899073564
7.906176101
7.927954345
7.904786383
7.926736768
7.961546916
7.799471627
7.835320009
7.866610498
7.899073564
7.81502001
)
;
    }
}


// ************************************************************************* //
