/*--------------------------------*- C++ -*----------------------------------*\
| =========                 |                                                 |
| \\      /  F ield         | OpenFOAM: The Open Source CFD Toolbox           |
|  \\    /   O peration     | Version:  2406                                  |
|   \\  /    A nd           | Website:  www.openfoam.com                      |
|    \\/     M anipulation  |                                                 |
\*---------------------------------------------------------------------------*/
FoamFile
{
    version     2.0;
    format      ascii;
    arch        "LSB;label=32;scalar=64";
    class       volVectorField;
    location    "0.01";
    object      momentumMean;
}
// * * * * * * * * * * * * * * * * * * * * * * * * * * * * * * * * * * * * * //

dimensions      [1 -2 -1 0 0 0 0];

internalField   nonuniform List<vector> 
654
(
(0.006252408037 -3.273284529e-05 -1.12765537e-05)
(0.008212151498 -3.419743295e-05 -1.913665721e-05)
(0.008217020085 -4.251375406e-05 -1.639555945e-05)
(0.008214814805 -3.920879659e-05 -1.442714147e-05)
(0.008232549587 -4.007074117e-05 -1.650497971e-05)
(0.008233673836 -4.444578151e-05 -1.279880849e-05)
(0.008222340366 -3.807007445e-05 -2.437405789e-06)
(0.008246309094 -3.704812952e-05 -1.219369291e-05)
(0.008211141551 -3.270099652e-05 -2.457623059e-06)
(0.008173964546 -2.586928655e-05 -9.889407401e-07)
(0.008202338129 -2.140547508e-05 -2.475240597e-06)
(0.008196724645 -1.893996113e-05 -9.998295275e-06)
(0.00818029962 -2.208382859e-05 -9.309711324e-06)
(0.008200665485 -3.122284605e-05 -1.436937123e-05)
(0.008208472562 -2.229440633e-05 -1.205763328e-05)
(0.008235050406 -3.857981323e-05 -1.015943301e-05)
(0.008183202132 -4.337440401e-05 -1.048955727e-06)
(0.008148547612 -7.461198587e-05 -4.133844752e-06)
(0.008045685162 -0.000103489302 -1.473053275e-05)
(0.007747899297 6.516467002e-05 1.403026492e-05)
(0.006335079755 -6.670450576e-06 3.541578324e-06)
(0.008315287182 -1.535723988e-05 1.886441683e-06)
(0.008342430954 -8.002148221e-06 9.017719777e-06)
(0.008295890171 -1.132265795e-05 -2.512298958e-06)
(0.008291361874 -7.252407879e-07 -6.290365792e-06)
(0.008318997203 -7.453859277e-06 -1.148473469e-05)
(0.008294240868 -1.114025181e-05 -2.132914132e-05)
(0.008294203285 -8.461958265e-06 -1.459212372e-05)
(0.008301048408 -7.244660761e-06 -1.051386227e-05)
(0.008305862476 -9.067067818e-06 -6.395439226e-06)
(0.008335871588 -1.522562016e-05 -6.12972687e-06)
(0.008345246304 -1.423151993e-05 -6.025908298e-06)
(0.008371405875 -1.368506947e-05 -1.839031056e-06)
(0.008377468742 -1.341033284e-05 -5.218590673e-06)
(0.008366062846 -1.041044481e-05 -1.133783243e-05)
(0.008419664792 -1.270280033e-05 -1.339102505e-05)
(0.008404009474 -1.110694382e-05 -9.112765853e-06)
(0.008433909793 7.532665674e-06 -8.564915747e-06)
(0.008348259705 7.952973553e-05 -9.369001638e-06)
(0.008160544439 0.000429461165 2.528715697e-06)
(0.006374103592 2.176101128e-06 1.240393728e-05)
(0.008400552725 -6.578808404e-06 1.439674061e-05)
(0.008366983819 -1.36812119e-05 2.559057863e-06)
(0.008322971831 -1.686349529e-05 2.781219235e-06)
(0.008328379093 -2.680507853e-05 7.300082608e-06)
(0.008332353383 -1.741612403e-05 7.640357628e-06)
(0.008358432668 -3.229016843e-06 1.17500922e-05)
(0.008342140029 -2.410289763e-06 8.441708445e-06)
(0.008351084392 -1.976060096e-06 1.478288206e-06)
(0.008331948118 -9.28713985e-06 1.978076612e-06)
(0.008343702365 -1.580872178e-05 -1.210008469e-06)
(0.008332083261 -2.333968648e-05 -8.092466027e-06)
(0.008284672702 -1.854084031e-05 -8.705119761e-06)
(0.008309238491 -1.210259893e-05 -9.843312811e-06)
(0.008319281357 -1.486489522e-05 -1.601983366e-05)
(0.008287851137 -3.39557247e-06 -6.587860754e-06)
(0.008256106087 9.105416133e-06 -3.47795116e-06)
(0.008267744584 4.108272897e-05 -1.219327232e-05)
(0.008182332212 0.0001478902004 -9.212542407e-07)
(0.008217473668 0.0003807897483 8.574254037e-06)
(0.006370934668 -1.233783836e-05 1.471601376e-06)
(0.008319183583 -1.202221263e-05 5.168443415e-06)
(0.008359778146 -8.736652501e-06 1.137041906e-05)
(0.008350683088 -2.458223007e-06 1.245184321e-05)
(0.00833617956 6.982379032e-06 9.217863114e-06)
(0.008331009382 -7.012222137e-07 7.882701761e-06)
(0.008338242926 -1.446757287e-05 -8.574833849e-07)
(0.008339348722 -2.060992289e-05 -5.74298625e-06)
(0.008309328523 -1.829785876e-05 -2.241725974e-06)
(0.008340977484 -5.063685405e-06 -1.294218001e-06)
(0.008300439814 3.236955594e-06 -4.716529215e-07)
(0.008333857943 1.365604983e-05 -4.299954183e-06)
(0.008358303089 1.602886577e-05 -5.381194281e-06)
(0.008277125128 9.414825156e-06 7.513174042e-06)
(0.008276041964 7.948230351e-06 7.071774415e-06)
(0.008225807392 4.529530341e-07 2.502888231e-06)
(0.008218564611 1.877773638e-05 1.507740865e-06)
(0.008209823764 5.27617237e-05 1.06898795e-05)
(0.008232780888 0.0001251202523 5.237312181e-06)
(0.008327787966 0.0003025585951 8.096593785e-06)
(0.006362624059 -6.671753983e-06 2.459499211e-06)
(0.00834628372 -1.002321523e-05 9.380162516e-06)
(0.008288655845 -3.84412434e-06 6.036225576e-06)
(0.008310205808 -3.712184954e-06 6.520703519e-06)
(0.008318108149 -8.795152656e-06 1.034007487e-05)
(0.008302911711 -8.128473288e-06 9.398437833e-06)
(0.008289250542 5.753522335e-06 2.03711621e-05)
(0.008274171896 5.323992407e-06 2.019328054e-05)
(0.008275851369 5.952736633e-06 1.033612493e-05)
(0.008286744616 2.751305451e-07 6.185474347e-06)
(0.008267654107 -6.972580304e-06 1.387907387e-05)
(0.008252661101 -3.746290112e-06 1.79838424e-05)
(0.008282557277 -5.216118154e-06 1.098758761e-05)
(0.008283547408 -6.920150261e-07 6.977524363e-06)
(0.008298606514 9.109337936e-06 8.375968564e-06)
(0.008346331282 1.997983699e-05 1.66450674e-06)
(0.008316229066 3.024323329e-05 2.928910947e-06)
(0.008345242096 5.41956186e-05 -9.333271447e-07)
(0.008347151258 0.0001170606534 -1.343757605e-06)
(0.008343975572 0.0002525882741 8.470932431e-06)
(0.006331475044 1.166576844e-05 -1.923240218e-06)
(0.008300392462 1.152895619e-05 1.776428423e-06)
(0.00833955656 3.739249031e-06 8.284177619e-06)
(0.008265807427 -3.948426565e-07 -1.744508676e-06)
(0.00827027342 7.843144087e-06 1.396541905e-06)
(0.008250195111 -3.630396204e-06 5.639566549e-06)
(0.008238659175 -4.839279577e-06 -1.145471184e-06)
(0.008291406953 -3.611853456e-06 -4.77055268e-06)
(0.008281246498 5.949933672e-07 4.107976363e-06)
(0.008306127258 3.843758361e-06 5.489797499e-06)
(0.008296222205 8.920474555e-06 2.627158325e-06)
(0.008290338585 1.818093546e-06 -5.64765642e-06)
(0.008240195331 -6.651003062e-06 -4.778302437e-06)
(0.008241907465 -1.421056123e-05 -4.124131599e-06)
(0.008290132116 1.121709471e-06 -1.088539442e-06)
(0.008258786255 2.664562482e-06 -2.151879557e-06)
(0.008262255002 2.671508536e-05 -7.622680449e-06)
(0.008252351498 5.687330643e-05 -1.085845774e-05)
(0.008238952339 9.531591307e-05 -5.628564583e-06)
(0.008268106027 0.0001977035806 5.171015217e-06)
(0.006367940566 -3.4717586e-06 -1.226851138e-05)
(0.008362095935 1.232167415e-06 -1.931493578e-05)
(0.008368916417 4.280754028e-06 -1.860596067e-05)
(0.008350623198 3.472880465e-06 -2.008379831e-05)
(0.008412268827 4.73530212e-07 -2.065729151e-05)
(0.008383699034 1.249132725e-05 -1.819116767e-05)
(0.008394122683 -6.137470393e-07 -1.389751163e-05)
(0.008363677603 -6.10537289e-06 -1.668614415e-05)
(0.008397815293 -7.682176666e-06 -1.607402626e-05)
(0.008426906483 -8.850444591e-06 -1.439035755e-05)
(0.008401095845 -8.038048236e-06 -1.824849998e-05)
(0.008383627255 -4.611467782e-06 -9.313387909e-06)
(0.008428889362 6.675302391e-06 -8.735581476e-07)
(0.008374430422 1.223284463e-05 -6.711998453e-06)
(0.008374511734 1.646838623e-05 -5.376932699e-06)
(0.008306770758 1.515956914e-05 -1.004016902e-05)
(0.008327771114 3.879465605e-05 -1.33149303e-05)
(0.008327666428 4.296871895e-05 -1.268816967e-05)
(0.008380144176 8.974063377e-05 -5.419203735e-06)
(0.008380435229 0.0001503905252 -1.919681755e-06)
(0.006350618768 -7.800372426e-06 -1.353733437e-05)
(0.008317281667 -7.910077522e-06 -1.871072615e-05)
(0.008304688173 -1.120354743e-05 -1.239098913e-05)
(0.008277103128 -7.350086384e-06 -1.212574843e-05)
(0.008283015145 -1.406047816e-06 -1.043574608e-05)
(0.008306251889 -4.473761566e-06 -2.126720911e-05)
(0.008318883279 4.99807042e-06 -2.120079138e-05)
(0.008326000203 4.794840545e-06 -1.519338509e-05)
(0.008321983952 1.839979739e-06 -1.690666927e-05)
(0.00829094999 -6.063356896e-06 -1.934838453e-05)
(0.008286816382 -4.394130321e-07 -1.680417503e-05)
(0.008265509814 4.502914831e-06 -1.850765985e-05)
(0.008288737171 1.453007444e-05 -2.167846884e-05)
(0.008309873776 1.480702195e-05 -1.423609531e-05)
(0.008303535531 1.792883774e-05 -2.171008277e-05)
(0.008341504438 1.580009843e-05 -1.568187623e-05)
(0.008363731637 1.297650355e-05 -2.762404087e-06)
(0.008336909529 4.259835627e-05 -1.843639155e-05)
(0.008353289165 6.40516275e-05 -1.365990353e-05)
(0.008332498437 0.0001051113937 -1.890845817e-05)
(0.006364567183 -3.004760763e-06 -1.170204079e-05)
(0.008384696607 1.390607936e-06 -1.608757515e-05)
(0.008389923897 1.823812285e-06 -2.495083123e-05)
(0.008385560195 2.15011283e-06 -1.893876427e-05)
(0.008333282992 -2.449830378e-06 -1.37667718e-05)
(0.008322374473 2.653096233e-07 -5.168903663e-06)
(0.008341495304 -5.358073954e-06 -2.056593373e-06)
(0.0083605238 5.041439851e-06 -3.635223042e-06)
(0.008307775358 6.686478607e-06 -4.205389198e-06)
(0.008311408164 1.784917523e-05 6.95640308e-06)
(0.008359146323 9.857034968e-06 5.066833814e-06)
(0.008386695352 1.327065914e-05 -8.731369097e-06)
(0.008325016639 -1.148016122e-05 -2.580574116e-06)
(0.008312332075 -1.008757821e-05 2.482435577e-06)
(0.008283597571 -6.603300237e-06 7.09379658e-06)
(0.008315541927 6.952196174e-06 9.036398779e-07)
(0.008343994327 2.723824745e-05 5.620629263e-06)
(0.008362875255 4.072007214e-05 -5.377433792e-06)
(0.008344133451 5.290129142e-05 -1.154145914e-05)
(0.008426469993 9.088215036e-05 -5.109509524e-06)
(0.006354589777 -1.432545934e-06 3.331847514e-06)
(0.008274273736 -8.108090489e-06 6.630465234e-06)
(0.00832332831 -1.071808849e-05 9.836564724e-06)
(0.008322687175 -8.963712281e-06 3.714960981e-06)
(0.008331951836 -9.18872219e-06 -4.298861559e-06)
(0.008335861068 -1.862985722e-06 -4.450955798e-06)
(0.008311266243 -1.655415251e-06 -2.493395188e-06)
(0.008312123045 6.67974389e-07 -1.047299881e-05)
(0.008348959959 1.237052261e-05 -1.355668777e-05)
(0.00835585527 7.557368455e-06 -1.947997804e-05)
(0.008313419838 6.85991651e-06 -8.209902523e-06)
(0.008325332348 4.887325316e-06 -4.11009339e-06)
(0.008365305468 6.670013807e-06 1.881624827e-06)
(0.00835735732 9.558089521e-06 -1.098126966e-05)
(0.008366227544 7.334197527e-06 -1.033772162e-05)
(0.008386820826 5.203746053e-06 -7.862372409e-06)
(0.008381666977 1.238520206e-05 -4.371722497e-06)
(0.008341659501 2.756531468e-05 2.044263344e-06)
(0.008364487824 4.993542494e-05 6.471453745e-06)
(0.008323081129 7.507463323e-05 1.696009134e-06)
(0.006363035153 1.692806559e-05 -1.539027859e-06)
(0.008342132571 2.355265968e-05 -6.098757888e-06)
(0.008306451074 1.480963812e-05 -9.960380759e-06)
(0.008295087485 8.475781558e-06 -5.467710932e-06)
(0.008254980929 7.043735905e-06 -1.609095194e-06)
(0.008224648087 -3.077552648e-06 -1.654456223e-06)
(0.00821695737 -7.019221391e-06 2.648461817e-06)
(0.008240953656 -9.018635509e-06 -3.539268029e-06)
(0.00823154617 -1.288117626e-05 -1.614637735e-06)
(0.008265475323 -1.446415771e-05 -7.643946602e-06)
(0.008323962674 -9.685598143e-06 -9.178683196e-06)
(0.008315071734 -7.761842997e-06 -9.361244787e-06)
(0.008349129997 9.952963853e-07 -7.725064131e-06)
(0.008362980368 1.149361683e-05 -1.219719011e-05)
(0.008342103329 1.800696503e-05 -1.403211251e-05)
(0.008261107908 1.88708678e-05 -9.286553765e-06)
(0.008263148107 1.83099899e-05 -8.994760079e-06)
(0.008323760539 1.165317732e-05 -7.101068778e-06)
(0.008378992769 1.599488666e-05 -1.350443657e-05)
(0.008398277561 4.506791658e-05 -6.120112789e-06)
(0.006361022575 1.543128092e-06 5.363166272e-06)
(0.008386094179 -1.416771041e-06 1.185512041e-05)
(0.008390636481 3.164358444e-06 1.964222424e-05)
(0.008366221034 3.077168194e-06 1.782865501e-05)
(0.008429179449 -5.839906203e-06 1.398011887e-05)
(0.008422270024 -3.122366021e-06 9.679419491e-06)
(0.008432370303 5.811238504e-06 4.580934978e-06)
(0.008438288097 -1.963115102e-06 4.295255151e-06)
(0.008436776443 -1.100463276e-06 7.856820695e-06)
(0.008371294896 -1.875720957e-06 7.460193491e-06)
(0.0083230125 2.29885e-06 2.974246336e-06)
(0.00827564665 9.028102524e-06 -8.737552481e-07)
(0.008237180616 3.379516578e-06 2.155234198e-07)
(0.008301762972 -1.014715617e-06 -1.441023894e-06)
(0.008325385179 -8.441668555e-06 3.177849278e-06)
(0.00840398856 -4.878131693e-06 -9.244709156e-06)
(0.008448689532 6.89924145e-07 1.186557558e-06)
(0.008380808743 1.79243432e-05 7.225302432e-06)
(0.008362267082 2.048414134e-05 -8.440988042e-07)
(0.008375700407 3.043384566e-05 1.290668095e-05)
(0.006354256666 3.171913833e-06 1.4685608e-05)
(0.008328285747 1.070404826e-06 4.711413248e-06)
(0.008314850208 -2.20401585e-06 4.988885177e-06)
(0.008299395477 5.749711492e-06 5.572129744e-06)
(0.008251924144 5.033159511e-06 1.020581902e-06)
(0.008262885195 7.347017402e-06 3.460479854e-06)
(0.008302045534 -8.305067658e-07 5.050376154e-06)
(0.008274412121 3.081370241e-06 -2.263195229e-06)
(0.008262382772 8.515207033e-06 4.128128363e-06)
(0.008274771014 2.258804461e-06 6.457199685e-06)
(0.008328628874 9.736207036e-08 1.042721664e-05)
(0.008352781317 -1.341101293e-05 5.062051871e-06)
(0.008377125983 -1.868202955e-05 9.732588011e-06)
(0.008341921639 -1.942177766e-05 1.155380504e-05)
(0.008293660256 -8.295112376e-06 1.039555002e-05)
(0.008304137257 -1.966251689e-06 1.384545386e-05)
(0.008328895205 -4.577226368e-06 6.426478915e-06)
(0.008364619875 2.806449734e-06 6.188698939e-06)
(0.008400306335 1.178365198e-05 5.204908434e-06)
(0.008378132287 3.654342491e-05 -3.743557714e-07)
(0.006369486283 -6.413802371e-06 -2.215068979e-06)
(0.008362979683 -2.313813804e-06 -6.387959135e-06)
(0.008398145326 4.615041975e-06 -1.271013397e-05)
(0.008408348284 -2.002145234e-06 -2.133953802e-05)
(0.008441494536 -4.036136364e-06 -1.377578414e-05)
(0.008429803144 4.417589489e-06 -8.180264484e-06)
(0.008392003454 1.870751977e-05 -1.433384852e-06)
(0.008413877305 1.042643566e-05 3.641599026e-06)
(0.008412777552 -3.04678026e-06 3.896127715e-06)
(0.008398583286 -7.013980801e-06 9.276568843e-06)
(0.008370789423 -1.023641734e-05 2.740988377e-06)
(0.008380014662 1.10775886e-06 9.618243308e-06)
(0.008375115038 6.385175349e-06 1.088088948e-05)
(0.008383628111 1.550841546e-06 9.944657737e-06)
(0.008391943692 -6.060506492e-06 9.113940244e-06)
(0.008336154099 -1.304742121e-06 -7.142636041e-07)
(0.008299326135 -8.525095323e-07 -9.970580357e-06)
(0.008251024947 1.677575296e-07 1.498366154e-06)
(0.008251951852 8.410449383e-06 -3.84178134e-06)
(0.008294290086 1.024975714e-05 -7.154270213e-06)
(0.006322553871 -3.574469579e-06 -7.139573796e-06)
(0.008337188589 -6.584373017e-06 -3.552109087e-07)
(0.008316305738 -9.372690504e-06 1.151146103e-05)
(0.008289062522 -9.051252346e-06 1.531499261e-05)
(0.008318186162 -7.541165633e-06 6.772101769e-06)
(0.008341599961 -9.05181154e-06 -1.825699554e-06)
(0.008363955716 -1.33745925e-05 1.207013672e-06)
(0.008347224489 -1.538860677e-05 -1.188513867e-05)
(0.008377569912 -1.676884049e-06 -4.473606484e-06)
(0.008394504496 4.694096372e-06 -2.945879317e-06)
(0.008381206511 7.419387063e-06 2.248782028e-06)
(0.008368340051 -8.609872219e-06 -1.672798116e-06)
(0.008390528053 5.50440134e-07 -3.182935285e-06)
(0.008334033212 9.748702178e-06 -1.039685104e-05)
(0.008328770542 1.173525005e-05 -6.293364172e-06)
(0.008309321407 1.933574712e-05 -2.251061453e-06)
(0.008314682902 1.935491574e-05 7.24366993e-06)
(0.008318341284 1.500078342e-05 4.133397428e-06)
(0.008317434692 2.570210239e-05 7.119712091e-06)
(0.008300500097 1.752786099e-05 1.402679039e-06)
(0.006378386889 -1.095035506e-05 6.958867393e-06)
(0.008371831 -1.549979578e-05 3.592021494e-06)
(0.008350512483 -9.46124381e-06 2.386696506e-06)
(0.008328640929 -2.23935762e-06 6.937929536e-06)
(0.008267581157 -2.359262427e-06 9.832359598e-06)
(0.008279147489 -6.360305419e-06 1.260525186e-05)
(0.008305423519 3.548440559e-06 9.45640989e-06)
(0.008282733696 3.541504372e-07 1.056385505e-05)
(0.008294903532 -7.073934756e-06 1.04364093e-05)
(0.008274717582 -5.337068001e-06 1.138500178e-06)
(0.008267025374 9.231437589e-07 9.607294742e-07)
(0.008278354507 1.493677851e-05 -3.549535718e-07)
(0.008204988008 2.325178553e-05 5.971722496e-06)
(0.008239404072 1.713831046e-05 1.558561902e-05)
(0.008269806143 1.027731314e-05 1.740908969e-05)
(0.008311411684 5.778582494e-06 1.249806448e-05)
(0.008329397935 5.433863444e-06 8.854377414e-06)
(0.008325621667 1.21075872e-05 8.072188132e-06)
(0.008336892679 1.165173088e-05 -9.034813849e-07)
(0.00828441777 1.080245689e-05 3.16252725e-06)
(0.006348854881 8.021529435e-06 1.959442611e-07)
(0.008284059955 1.314760622e-05 4.612152016e-06)
(0.008274188762 -2.198271861e-07 -2.933121522e-06)
(0.008287336041 5.755890991e-06 -1.385253286e-05)
(0.008294228892 4.536289527e-06 -1.614099715e-05)
(0.008307132068 -3.07411795e-06 -2.014346271e-05)
(0.008248712625 2.862033661e-06 -2.138603392e-05)
(0.008256421038 4.140558534e-06 -1.610059853e-05)
(0.008241671249 5.217555923e-06 -1.39317685e-05)
(0.008239616671 1.428433456e-05 -1.326333173e-05)
(0.008247266963 8.633506125e-06 -6.771017269e-06)
(0.008275702556 5.356310318e-06 -3.275450034e-06)
(0.008291145966 -1.975680924e-06 -1.229959208e-05)
(0.008340976937 -3.204317063e-06 -2.062343003e-05)
(0.008290389926 1.935113876e-06 -1.532681704e-05)
(0.008273573184 -1.258344611e-06 -8.283045893e-06)
(0.008285776984 9.978494555e-06 -1.352966245e-05)
(0.008307971435 4.086088653e-06 -1.01943228e-05)
(0.008286542023 1.944278583e-05 -8.247031373e-06)
(0.00828074551 1.772468871e-05 -5.194826866e-06)
(0.006345811904 5.410100727e-06 3.300015099e-06)
(0.00834972047 -1.915950398e-06 2.526030824e-06)
(0.008353030046 9.826800723e-06 1.074839331e-05)
(0.008373400967 1.314401569e-05 7.677094584e-06)
(0.008363482761 1.723876924e-05 1.645881552e-05)
(0.008317045825 8.786128155e-06 9.332648438e-06)
(0.008357193019 5.101344367e-06 1.238157732e-05)
(0.008351391227 5.882466812e-06 5.515780701e-06)
(0.008351333803 -2.03387987e-06 8.282039441e-06)
(0.00834071053 -8.31354745e-06 -1.277412208e-06)
(0.008325054002 -4.566479358e-06 -1.028625084e-05)
(0.008314374234 -1.271841984e-08 -5.969217386e-06)
(0.008310739536 7.105710427e-06 -1.764608026e-06)
(0.008305863912 6.402633632e-06 3.504740961e-06)
(0.008326037075 6.05510477e-06 1.21048125e-06)
(0.00832262895 1.307231763e-05 3.761068176e-06)
(0.00835322116 8.114410441e-06 1.039039311e-05)
(0.008311156395 7.479630417e-06 3.609631626e-06)
(0.008347736831 8.095475298e-06 9.804310159e-06)
(0.008343859988 9.398750916e-06 8.821860093e-06)
(0.006361513209 1.073632192e-05 -2.015385147e-06)
(0.008365018828 1.034363515e-05 -7.48811726e-06)
(0.008339148713 1.421284345e-05 -1.084050186e-05)
(0.008274147795 3.825996261e-06 -7.87912998e-07)
(0.008297781669 -3.909697018e-06 -1.041133233e-05)
(0.008321483381 9.399289902e-06 -7.932713327e-06)
(0.008302876502 9.793356766e-06 -4.08123852e-06)
(0.008318242802 1.343263345e-05 6.965055108e-06)
(0.008299578373 1.496551786e-05 4.929782897e-06)
(0.008298107168 1.339587561e-05 6.616483562e-06)
(0.00829989314 4.2723555e-06 9.215145982e-06)
(0.008322115917 2.127641146e-06 5.600401714e-06)
(0.008272069295 8.619802905e-07 1.051590499e-05)
(0.008291791428 -4.964831931e-06 4.351265992e-06)
(0.008278689423 -3.781858194e-06 1.284428569e-06)
(0.008268744584 -5.857469022e-06 -2.968391879e-06)
(0.008295814081 -1.225934103e-07 -2.893294713e-06)
(0.008284486375 9.315262519e-07 1.172295823e-06)
(0.008266913571 4.671870563e-06 5.560434868e-06)
(0.008258111053 9.957849484e-06 9.074268917e-06)
(0.006352460867 2.644880823e-06 -7.449070962e-06)
(0.008362772693 1.306275395e-06 -1.356346583e-05)
(0.008439500944 -5.383516363e-06 -1.206235421e-05)
(0.00842352667 5.679994429e-06 -1.363202634e-05)
(0.008411553914 1.566354018e-05 -1.096105706e-05)
(0.008417909484 1.233953468e-05 -2.856187921e-06)
(0.008394829862 -2.474477225e-08 -6.791224383e-06)
(0.00835515999 1.197701675e-05 -8.671084091e-06)
(0.008386247064 7.443173342e-06 -8.816885966e-06)
(0.008386200222 9.244984936e-06 -1.162457766e-05)
(0.008384599725 1.067683893e-05 -6.69502944e-06)
(0.00839994678 8.381360124e-06 -5.880009608e-06)
(0.008413078715 1.022595533e-05 -9.692055363e-06)
(0.008369902943 1.67442718e-05 -1.17364186e-05)
(0.008371258102 1.191931293e-05 -6.217408494e-06)
(0.008363278793 1.624509946e-05 -4.342298844e-06)
(0.008358973495 1.367073429e-05 8.497929787e-07)
(0.008385812163 -2.987648312e-06 -6.299249989e-06)
(0.008414386234 6.075118003e-06 -1.187513432e-05)
(0.008397284202 -6.351358956e-06 -1.997678528e-05)
(0.006355473172 -1.742112495e-05 -1.452870283e-06)
(0.008314932435 -9.272666676e-06 8.518832202e-07)
(0.008254633491 7.463382757e-06 7.391416567e-08)
(0.008275359672 2.392945511e-06 3.225062825e-06)
(0.00828399987 5.714787106e-06 -5.500132079e-06)
(0.008312849865 8.529225173e-06 -5.310853193e-06)
(0.008311842083 1.272377528e-05 -3.669558494e-06)
(0.008256848226 5.511786394e-06 -1.177566018e-05)
(0.008289013622 1.766274341e-06 -5.746670308e-06)
(0.008318205608 3.227677768e-06 -1.123209069e-05)
(0.008347493133 4.957697639e-06 -1.23700439e-05)
(0.008348191529 8.540304734e-06 -1.855171695e-05)
(0.00834683375 3.015166432e-07 -1.351536978e-05)
(0.008397589903 5.489037691e-06 -6.824922926e-06)
(0.008423142776 1.091096786e-05 -2.914523506e-06)
(0.008442371379 3.834966307e-06 -3.508743263e-06)
(0.008424135039 -1.131270571e-06 -7.171220599e-06)
(0.008421710707 -4.590649348e-06 -2.638795386e-06)
(0.008412693551 -2.902034979e-06 1.230268103e-06)
(0.008381478072 -1.655990111e-07 1.832752127e-06)
(0.006343641405 1.500363961e-05 1.76235001e-06)
(0.008336930997 1.001640102e-05 -2.624434675e-06)
(0.008332207204 -1.062429823e-05 -1.057395986e-05)
(0.008286516256 -2.241573196e-06 -8.489720276e-06)
(0.008313848296 -1.735093609e-06 -8.938951794e-06)
(0.008276641511 4.29088946e-06 -5.838137624e-06)
(0.008334107876 4.885973631e-06 -1.127125907e-05)
(0.008366001068 6.678393132e-06 2.360527026e-06)
(0.008420290655 1.083367483e-05 4.178877731e-06)
(0.008387921475 1.195621337e-05 -1.877122546e-06)
(0.008342604584 1.011403971e-05 1.530122455e-05)
(0.008309968497 -7.622576235e-06 1.278105213e-05)
(0.008320748263 -9.788246638e-06 1.14476105e-05)
(0.008338220068 -1.559275983e-05 4.550343084e-06)
(0.008318365036 -2.209482445e-05 -1.028158468e-05)
(0.008332996172 -1.785225457e-05 -3.841218985e-06)
(0.008319185069 -6.851042849e-06 1.866607764e-06)
(0.00830513254 1.094853139e-05 -4.756135064e-06)
(0.008347547991 1.36911198e-05 -5.311616057e-06)
(0.008347627239 1.631880689e-05 -7.526244184e-06)
(0.007789110246 0.001758255096 -5.583810479e-05)
(0.008067772385 0.002299731032 6.588849015e-06)
(0.00796397625 0.002294649831 -1.633994616e-06)
(0.007629933333 0.002221366965 2.712779685e-05)
(0.007291988892 0.002134669138 3.406696895e-05)
(0.006988234893 0.001999779665 1.84051496e-05)
(0.006616199307 0.001906270177 -3.872703534e-05)
(0.006272547708 0.001844780071 -5.233238804e-05)
(0.005915183897 0.001694161495 -8.399072911e-05)
(0.005704426343 0.001661080584 -6.071749726e-05)
(0.00838658987 0.00129260961 -4.279100081e-05)
(0.008934478764 0.002106072401 -4.749853357e-05)
(0.009451043168 0.00260574902 2.189093642e-05)
(0.009781152488 0.002839106222 -1.747939354e-05)
(0.009883937729 0.002957612879 -7.143432488e-05)
(0.009768637936 0.003044612791 -5.736796765e-05)
(0.009558873888 0.002939353349 -3.32145041e-05)
(0.009275870414 0.002940050689 -2.944952983e-05)
(0.009043617775 0.002801716409 1.256234188e-05)
(0.008740621718 0.002646849487 2.659734406e-05)
(0.008416319796 0.0009140470042 -5.041900949e-06)
(0.008928740777 0.001524226732 -6.338509246e-05)
(0.009434357324 0.002089845578 -2.82794159e-06)
(0.009940202213 0.002561694687 -4.04037788e-05)
(0.0102710497 0.002890230238 -9.186875235e-06)
(0.0106245793 0.003183480843 1.987312963e-05)
(0.01080855532 0.003377627475 -2.07568468e-05)
(0.01087075207 0.003464314205 -8.247098736e-06)
(0.01077863954 0.003410354521 -1.581936862e-05)
(0.01051274655 0.003409412899 -2.714646718e-05)
(0.008441082664 0.0006382727579 2.639289358e-05)
(0.008679769031 0.001066236659 -5.844661867e-07)
(0.009069658874 0.001503143961 4.997117201e-05)
(0.009573813663 0.00202671307 -1.646847275e-06)
(0.01001559448 0.002456625618 1.655604053e-05)
(0.01047587818 0.002807704963 -2.364679189e-05)
(0.01087585786 0.003148871638 -5.700939343e-06)
(0.01124122837 0.003405992902 -3.366834253e-05)
(0.01143212734 0.003602781172 8.561055502e-07)
(0.01151809844 0.003709328558 -1.953379876e-05)
(0.008442121707 0.00046682325 5.927059856e-07)
(0.008651553611 0.0007649372341 9.591305032e-06)
(0.008965567585 0.001111828808 1.202103062e-05)
(0.00926621289 0.001489240763 2.164324735e-05)
(0.009756477966 0.001913913531 2.585296761e-05)
(0.01012838934 0.002348555423 3.676995119e-05)
(0.01051445833 0.002681724793 1.215805395e-05)
(0.01091436045 0.002988919243 2.074656605e-06)
(0.01132479673 0.003339456065 -5.204536196e-06)
(0.01170704876 0.003621861452 8.518809014e-06)
(0.008358271128 0.00033866437 6.701802861e-06)
(0.008497468832 0.0005442812695 2.060959991e-05)
(0.008715793244 0.0007789281894 2.622244074e-05)
(0.009000564399 0.001124687056 -4.199734224e-07)
(0.009339376351 0.001438306989 -7.571557502e-06)
(0.009798367223 0.00179268826 -8.551087563e-06)
(0.01027673979 0.002226313008 -1.052321556e-05)
(0.01070091023 0.002539527741 1.18474388e-05)
(0.01108764093 0.002905416718 3.375083e-05)
(0.01153235829 0.003207780077 -6.286222616e-06)
(0.008469299427 0.0002524383787 -8.483259432e-06)
(0.00855917301 0.0004035641573 4.137517412e-06)
(0.008665856136 0.0005815570008 -1.880006808e-05)
(0.008892955453 0.0008185416132 -9.144702789e-06)
(0.009144718508 0.001046469426 3.570635577e-06)
(0.009491821031 0.001366311304 -3.965157855e-05)
(0.009873112711 0.001691469862 -3.041798875e-05)
(0.01025473746 0.002064152851 -1.555656443e-05)
(0.01074222009 0.002419806722 -2.225475944e-05)
(0.01117124123 0.002729647479 -8.330827753e-06)
(0.008362506195 0.0001792547851 -1.068112673e-05)
(0.008445070214 0.0002923759064 -1.222108063e-05)
(0.00859661789 0.0004080616871 -1.464852535e-06)
(0.008717799958 0.0005797608634 5.223206758e-06)
(0.008919457172 0.0007718961117 1.212777794e-05)
(0.009098312267 0.001010811611 1.677959463e-05)
(0.009472477037 0.001244236221 1.572449414e-06)
(0.009798262853 0.001545520587 -2.461015592e-06)
(0.0101843761 0.001893771524 -8.092638724e-06)
(0.01055853669 0.002231812765 1.266680218e-06)
(0.008411566353 0.000143090116 -1.331915753e-05)
(0.008453267066 0.000208190464 9.54013356e-06)
(0.008500574724 0.0003081823805 5.272081052e-06)
(0.008600798849 0.0004077455708 -3.113291962e-06)
(0.008783189796 0.0005637789236 1.525014995e-05)
(0.008973635395 0.0007325672338 2.97837009e-05)
(0.009159959591 0.0009566501151 1.257520514e-06)
(0.009412510028 0.001181548632 -1.461751829e-06)
(0.009779894344 0.001433556826 -2.069882008e-05)
(0.01012175685 0.001736207455 -9.925699861e-06)
(0.00840701714 9.902900641e-05 1.026098286e-05)
(0.008478971789 0.0001576494076 -3.204655132e-06)
(0.008552041273 0.0002239265258 3.584712612e-06)
(0.008567561653 0.0003125710547 2.560291974e-06)
(0.008672263442 0.0003969603472 1.014798182e-06)
(0.008807164903 0.0005305378306 1.96823355e-05)
(0.009019127032 0.0007243326685 -2.800212054e-06)
(0.009205041871 0.0008684146674 1.079307347e-05)
(0.009386483894 0.001095975117 8.338877563e-06)
(0.009660919037 0.001326239536 3.698683573e-06)
(0.008425914392 7.193258885e-05 -1.582752137e-05)
(0.008420497305 0.0001112887409 -4.42165338e-06)
(0.008519998048 0.000154406873 -2.064535716e-05)
(0.008607372174 0.0002339246089 -7.640216881e-06)
(0.008686175593 0.000315385827 -7.806586314e-06)
(0.008722285286 0.0004048135531 -9.016256451e-06)
(0.008806739087 0.0005389204275 2.004146535e-05)
(0.008988907814 0.0006692096396 1.478424452e-05)
(0.009130720606 0.0008435027985 1.84831787e-05)
(0.00937937554 0.001032635905 -2.747179467e-07)
(0.00836438582 4.120796012e-05 1.683904885e-05)
(0.008363521326 5.600938927e-05 5.362992895e-06)
(0.008353596374 9.082932135e-05 7.751013158e-06)
(0.008382609946 0.000159447215 1.852143075e-05)
(0.00841182016 0.0001953369046 1.311864488e-05)
(0.008509681217 0.0002818872527 1.280458007e-05)
(0.008585390375 0.0003858510921 1.284160009e-05)
(0.008772020371 0.0004991283967 -3.407591768e-06)
(0.008975240012 0.000610986974 1.701470231e-05)
(0.009131921335 0.0007554658479 9.656043875e-06)
(0.008372052408 5.164526707e-05 8.344960403e-06)
(0.008403195478 7.684922344e-05 8.354879199e-06)
(0.008366893098 0.0001062574008 1.494803768e-05)
(0.008410631026 0.0001243799264 1.006577416e-06)
(0.008439552114 0.0001540377248 -5.72617514e-06)
(0.008519740002 0.0002129827934 -7.531727764e-06)
(0.00863739201 0.0002629436108 -7.734284398e-06)
(0.008648037556 0.0003501289095 -9.754392319e-06)
(0.008713922128 0.0004424681647 -1.595953222e-05)
(0.008897807219 0.0005574686914 -2.067637645e-05)
(0.008314551825 3.03180024e-05 -2.80274862e-06)
(0.008326332303 4.237573196e-05 1.348653778e-06)
(0.008376380589 6.481868723e-05 -6.67326211e-06)
(0.008392157956 9.416576197e-05 2.739292992e-06)
(0.008413452892 0.0001222590843 -7.931103373e-06)
(0.008415127104 0.0001505373238 -1.656382191e-05)
(0.008439985915 0.0001926036862 -9.376676274e-06)
(0.008558546213 0.0002605591219 -1.196982395e-05)
(0.008669477925 0.0003215953108 -2.959802141e-05)
(0.00876580455 0.000396412104 -7.59465844e-06)
(0.008296027592 2.804671759e-05 -1.342311652e-06)
(0.00827995153 3.174540316e-05 2.294266121e-06)
(0.008319198951 4.527809711e-05 1.045644762e-05)
(0.008349187073 4.926117441e-05 5.123833739e-06)
(0.008313510816 8.87241788e-05 9.802674431e-06)
(0.008423693108 0.0001079921266 6.660986667e-06)
(0.008421094184 0.0001350915758 4.601077912e-06)
(0.008467074154 0.0001782267713 3.46303077e-06)