/*--------------------------------*- C++ -*----------------------------------*\
| =========                 |                                                 |
| \\      /  F ield         | OpenFOAM: The Open Source CFD Toolbox           |
|  \\    /   O peration     | Version:  2406                                  |
|   \\  /    A nd           | Website:  www.openfoam.com                      |
|    \\/     M anipulation  |                                                 |
\*---------------------------------------------------------------------------*/
FoamFile
{
    version     2.0;
    format      ascii;
    arch        "LSB;label=32;scalar=64";
    class       volVectorField;
    location    "0.01";
    object      momentum;
}
// * * * * * * * * * * * * * * * * * * * * * * * * * * * * * * * * * * * * * //

dimensions      [1 -2 -1 0 0 0 0];

internalField   nonuniform List<vector> 
654
(
(0.008589371384 0.0006607418602 -0.0005005793567)
(0.005338838126 0.0003632222047 -4.774935169e-05)
(0.01003957649 5.105301079e-06 0.0004200292936)
(0.009515789382 -0.000452453894 -0.0002038655061)
(0.008769543056 -0.0003537574822 -0.0001542109495)
(0.008051187221 -0.0007373444475 -0.000669265445)
(0.007595099705 0.0002129367228 -0.000291358197)
(0.006938480086 0.0001785421487 0.0007253002492)
(0.005489495896 -0.0005121066535 0.0001608806492)
(0.007498428273 -0.0001166958668 0.0005355149135)
(0.004415858777 0.0001709540609 0.0002781010239)
(0.01016462052 -0.0001955042979 0.0005696131213)
(0.007777407626 8.329389829e-05 -0.000803089936)
(0.00765842284 -0.0007122618001 0.0006376519384)
(0.005748463409 0.0009581139371 7.95714277e-05)
(0.006149659407 -0.001000111951 0.0002941708713)
(0.01000555602 0.001112375958 -0.0002382695883)
(0.01063440134 -0.0009004431804 0.0004431999842)
(0.009160032796 0.0001793937146 -6.610030478e-05)
(0.004181521241 0.0003098541029 0.0003292519734)
(0.005198576482 -1.195588634e-05 0.0004431129923)
(0.00824698623 0.0008776390892 -1.860410729e-05)
(0.009406098106 -0.0005569465993 0.0001766750816)
(0.00649332654 0.0004541817184 0.0001184372127)
(0.006466074116 -0.0002513724464 3.434904024e-05)
(0.004208536785 0.0003604665632 0.0002735993397)
(0.008320163573 0.0001080653955 -0.0004094043803)
(0.008067431291 1.623655143e-05 0.0007244186515)
(0.008596253144 0.0003117163792 -0.0002909117636)
(0.005277972382 -0.0001609061568 0.0007967865405)
(0.003830825737 0.000371515317 0.0001226875482)
(0.01177622442 -0.0001809457416 -0.0005928901021)
(0.01210887215 -3.061139543e-05 -0.0001546558827)
(0.007840165414 -0.0006407199039 -3.583115481e-05)
(0.006785875851 -0.0001946954897 -0.0003496206342)
(0.009181553548 -0.0007222389351 0.000796038075)
(0.009471785378 0.0008643334793 -3.225634519e-05)
(0.006925701161 0.0004729757732 -7.598831075e-05)
(0.01072444792 -8.265860227e-05 0.0004046146717)
(0.009689904372 0.0008361905324 0.0002767517411)
(0.006483939687 -2.192419987e-05 0.0001094475749)
(0.01118853052 -0.0003602706719 -2.980645542e-05)
(0.006444831051 0.0003639593113 -0.0006748406182)
(0.01160579268 0.0002938385743 -7.174526522e-05)
(0.01376109038 -0.0007655675022 0.0004454988317)
(0.01241802546 -0.0002835271314 0.0003654489902)
(0.003859069062 0.0004651798302 0.0004871366867)
(0.01050263728 0.001084856909 0.0002848757574)
(0.007337572859 0.0001564866643 -6.460082733e-05)
(0.004303699014 -0.0001608541891 -0.0001775680473)
(0.008206897206 0.0001367204436 0.0002603462644)
(0.007971984822 0.0005300713022 -0.0001962178371)
(0.00750937352 0.000790355743 3.099942113e-06)
(0.007001783207 9.764706875e-05 -0.0002441344975)
(0.005230419199 8.644251528e-05 0.000390927096)
(0.01991911254 -0.001275650772 -0.0007439041124)
(0.004410161052 -0.0001165362567 0.0001526692404)
(0.008301534009 -0.000275067963 -7.724760279e-06)
(0.005770571069 -9.538205909e-05 -0.0001626385191)
(0.007026345726 0.0009237785876 0.001157975993)
(0.006496745072 -0.0003563707086 -0.0003444788093)
(0.00931847097 -0.0001822782534 -0.000405099734)
(0.01112435344 0.0001190627379 -0.0002975092966)
(0.004926550623 -0.0002531822698 -5.363461946e-05)
(0.006256036417 0.0002470670256 -0.0007093285528)
(0.005917186677 -0.0006603337868 0.0002779111292)
(0.008926987734 0.0006942865954 -0.0004897878901)
(0.009264679131 0.0002588996298 -0.0001376111893)
(0.004700588466 0.0004008608959 0.0001487776437)
(0.01469070866 -0.000792652735 0.000704181572)
(0.006909916051 0.0004817445323 -0.0004360109462)
(0.00842869189 -0.0007340824567 -0.0005352186295)
(0.006877915905 -1.563492926e-05 -0.0004553962663)
(0.008113233515 0.0002299897347 0.0002889486756)
(0.008524627246 -0.0006927132779 0.0004924417521)
(0.01326674464 -0.0002712812358 4.861831732e-05)
(0.0126318817 -0.0002059840122 -0.0001473776699)
(0.01264044462 0.0002294059213 -0.0008568374089)
(0.004984364205 -0.0004299415584 0.0002544217911)
(0.005285103587 0.001222414349 6.405798767e-05)
(0.005287336383 -0.000247868542 -0.0005337343731)
(0.007877854193 0.0005362904665 -0.0004230267643)
(0.00923341315 -0.0001682657162 0.0001771606361)
(0.00748034607 -0.0006364646016 -3.989758063e-05)
(0.007994822807 0.0002020912928 -0.0002753006103)
(0.005987478245 0.0002410471813 -0.0002422161244)
(0.008715211668 0.0001806214421 -0.0005763970996)
(0.007256176724 0.0006120086029 0.0003843007693)
(0.00921331586 0.0002667754305 0.001627230735)
(0.006698545273 -0.0004695963507 5.95056424e-05)
(0.008039111476 0.000514886586 0.0007843758522)
(0.01054155324 -0.0004434432916 0.0003512304012)
(0.007259115882 -0.0001796704844 0.0002463056839)
(0.008780308816 -0.000370400062 -5.81060055e-05)
(0.00792000842 -0.0002857634572 0.0007637894377)
(0.004303396291 0.0003406929829 -0.0001239066102)
(0.009139475637 0.0001876937116 -0.0006145384719)
(0.005861009265 -0.0002091747076 -0.0005772196386)
(0.00992741394 0.0004327815007 4.19488945e-05)
(0.009703808203 0.001480972143 0.0001775707381)
(0.00690856446 0.0002018923297 -0.0002144239679)
(0.01050402392 0.0005137590875 -0.0001103164485)
(0.005438220863 4.637790916e-05 0.0009375689553)
(0.005013734662 0.0001759057706 0.000321389346)
(0.008646881293 0.001282079803 0.0004868037625)
(0.0166974208 -0.0003966595523 -0.0006411717914)
(0.008090989888 0.0005861417321 -0.0005954581596)
(0.003661928285 -2.893504521e-05 -0.0001640126822)
(0.009316812469 -0.0003608057537 0.0002377305822)
(0.01001101042 0.0005397624936 -0.000256225764)
(0.006070493291 0.0003169859769 -0.0005115400628)
(0.0106885532 0.0002048716743 0.0003565734885)
(0.007908941966 6.925668862e-05 0.0001121456024)
(0.0065556675 -0.0002191852573 0.0002038282568)
(0.01067776531 -0.0001706755604 0.0004967315325)
(0.007730478682 -0.0003691283111 0.0002149793239)
(0.01159583889 0.0006676201317 -0.0002994658368)
(0.01186096445 0.0009299279862 -0.0006737674546)
(0.009072816074 0.0011650196 -0.0006496901493)
(0.005486290912 -2.490357464e-05 -6.272394754e-05)
(0.006970369747 7.753114265e-05 -0.0003900415698)
(0.01021591326 0.0003775773838 -0.0008440191271)
(0.005093011808 3.689132478e-05 0.0009291402648)
(0.009901212844 -0.0001556365691 -0.0004745419254)
(0.01278439398 -0.0004537984035 -0.0008644125401)
(0.01021995353 -0.0007547943715 8.648126455e-05)
(0.005998101255 -5.485953305e-06 5.979916261e-06)
(0.008590069561 3.287526325e-06 0.00159192121)
(0.006383035255 0.0001634655401 -0.0002161720173)
(0.008473031459 -4.437805054e-05 -0.0009937460382)
(0.00771626682 0.0005333883128 0.0002658539766)
(0.008418452088 0.0002943404714 0.0002745308765)
(0.00671728422 -0.0005029020689 0.0003457623227)
(0.007930739027 -8.226538603e-06 0.0008178493253)
(0.008738939808 -0.0003585231491 3.522548756e-05)
(0.006759731576 0.001421614723 0.000672968147)
(0.009230539466 -0.0003607854127 0.0004975759611)
(0.00799866516 -7.47678956e-05 -0.0007704936365)
(0.003805566058 2.918167584e-05 -0.0004588557826)
(0.008738134198 0.0002720617719 -0.0002185761886)
(0.006999780039 0.0005043423176 -0.0002845610568)
(0.006529157599 0.0007818267197 -0.0003759657206)
(0.008566139215 5.749911904e-05 -0.0002694456682)
(0.01070783085 -4.585606273e-05 -0.0004350221558)
(0.01137525535 0.0006645935996 0.000160500752)
(0.003623255284 0.0003956148152 0.0001046612312)
(0.004775634959 0.000142652555 0.0002285681456)
(0.00993323561 -0.00017275107 0.0001471010727)
(0.008122652031 0.000698007804 -0.0003085527185)
(0.01253924982 -0.000325517545 0.0001742496175)
(0.008914571297 0.000390366441 -0.0001986371253)
(0.01171150183 -0.0003514280903 0.000513662473)
(0.004933818933 3.508552604e-05 0.0001367390981)
(0.007408269227 -0.0006372880229 -0.0005926444674)
(0.008594741814 -0.0001322071354 0.0005757800705)
(0.01299273422 7.179399817e-05 8.531342029e-05)
(0.007501517343 -0.0003640256023 0.0001163888413)
(0.01525628918 0.0009457248909 -0.002054545989)
(0.006166380126 -0.000620295512 5.773231413e-05)
(0.005870617872 -0.0002877498599 -0.0006389791288)
(0.007031046644 -0.0002660044922 -0.0003855485428)
(0.008094825833 0.0006586795908 0.0001025646735)
(0.006512992854 -0.0002021117052 -0.0004134267951)
(0.008636062782 -0.0001044028775 -0.00019741969)
(0.007854372734 -0.0008238377886 0.0003822577049)
(0.009456748342 0.0001069534407 0.000622775064)
(0.003410250052 -0.000327413103 2.843325554e-05)
(0.01276525997 -6.75492309e-05 0.0001822928563)
(0.007002423776 9.072133115e-05 0.0001865993229)
(0.008500604326 -0.0006190525269 -0.0001399936442)
(0.01170961936 0.0004467950636 -0.0002331611584)
(0.01453236002 -0.0004455702592 0.001519958554)
(0.005992011173 -1.458367209e-07 5.074873646e-05)
(0.008006928232 0.0002150419961 0.0005474573414)
(0.004874872716 0.0005736119722 0.0002704144833)
(0.003894223062 -0.0002564023624 6.966026656e-05)
(0.004561905049 0.0004386611393 0.0002206573279)
(0.005158640903 6.163073139e-05 0.0001653453026)
(0.007181349459 -0.0007792554621 -0.0002560079261)
(0.00776844352 -4.549960462e-05 5.034489134e-06)
(0.007600902087 -0.0006361688761 0.0001567097482)
(0.008635674865 0.000419444268 -0.0003540663582)
(0.01314802889 -0.0005361717922 0.0003585284631)
(0.008574909355 -0.0003953696373 -0.0001490863197)
(0.009715297573 0.0002149027337 0.0001542893015)
(0.008456798858 0.0004535911053 -0.001021761146)
(0.008602417862 -8.277651475e-05 0.0002080363148)
(0.008493986044 -5.194145864e-05 0.0001128424087)
(0.00480177541 0.0005579958956 -0.0008060217766)
(0.01230617802 -0.000169552671 -0.0008403734848)
(0.005653247942 -0.000201021514 -0.0006833792764)
(0.007088888094 -0.0005500505119 0.0002523206478)
(0.005654526312 5.073885278e-05 3.657205534e-05)
(0.004127976378 0.0002641365735 -0.0002336570078)
(0.008979965355 -0.0002607517123 0.0002110561122)
(0.01039074524 0.0006293328405 0.0004822708529)
(0.009354093754 0.0004575836377 -4.583282794e-05)
(0.01008558139 -2.893468396e-05 0.0002243989848)
(0.009968036852 -0.0005823473024 -0.0005701090552)
(0.002923798847 0.0002687937959 0.0003867475149)
(0.004281467529 0.0002220172527 0.001047072946)
(0.009297385743 -0.0003291685675 -0.0002101212769)
(0.006316556386 0.000435107597 -0.000421060018)
(0.008346913498 -0.0001951842877 -0.0008267058994)
(0.008432859828 -0.0002123562585 -0.0003482324257)
(0.01016813305 -7.435979287e-05 5.678760451e-05)
(0.004773786068 0.0001088964061 -0.0001923225572)
(0.006207562522 0.0001184554342 0.0006451151832)
(0.005472402767 0.0005635103375 0.0001402330227)
(0.008302194939 0.0001510534919 -0.000254367547)
(0.008565487889 -0.0002638083835 -0.0005521453242)
(0.009913096357 -0.0004971180166 0.0009607297983)
(0.009430873645 0.0003820725012 0.0005569977376)
(0.006717580329 0.0003109843284 -2.967426087e-05)
(0.01151580652 -0.0006722961761 -0.0001122809425)
(0.00619443509 7.250014707e-05 0.000154131253)
(0.006313098377 0.0005112199105 0.00025216594)
(0.006819209789 -3.404482235e-05 -0.0002632040847)
(0.01170225954 0.0007460220478 0.0002123895456)
(0.006783557432 0.0007810026108 -0.0003953624034)
(0.005869807015 -0.0004258275795 -6.583590041e-05)
(0.006559045484 -0.0006782721579 0.000159965809)
(0.006494228395 -9.151892274e-05 -0.0002923666418)
(0.007208919249 -0.0004300411255 0.0004182318522)
(0.01100001013 -3.601442272e-05 7.8172881e-05)
(0.007601417043 0.0001288683338 -0.0005883530081)
(0.004572236326 -0.0002166378692 -0.0001625949396)
(0.0106961366 0.0003955954622 -0.0004932064403)
(0.008749421051 0.0003547469775 -0.0001959969374)
(0.008083263445 0.0004644361839 0.0002906071427)
(0.006480883124 0.0002420923801 0.0004122205672)
(0.01027576134 -0.0002151231297 -0.0006467041211)
(0.005406686819 -0.0006526057969 0.0001927145303)
(0.006610990237 -0.0002666917394 -0.0003473016192)
(0.01058331122 -0.0001646546004 -0.0003633778982)
(0.004645711641 -0.0001431079918 -0.0002953230474)
(0.003583030178 0.0001975251783 -8.781880311e-05)
(0.003546011833 -0.0009046515402 0.0001682821203)
(0.01170081865 0.0003893409582 -0.0005477539135)
(0.01246417188 0.0001819395793 0.00018666763)
(0.008901080285 -0.0005945596094 0.0001030722787)
(0.007154414364 0.0006042257512 0.0004026828655)
(0.008581623562 0.0007147076035 -4.378329048e-05)
(0.007866464398 -6.897705421e-05 0.001056928614)
(0.008379664286 0.001123880296 -6.698772195e-05)
(0.0118791013 -0.0003996732308 -0.0004300653371)
(0.008538342479 4.827262346e-06 0.0001760255106)
(0.008813985607 9.768326006e-05 -0.0006445936242)
(0.007269098902 -0.0004682468814 -0.0004435965414)
(0.008623585968 -0.0007705133694 -0.0006392980676)
(0.002438738609 -8.798288033e-05 8.434469373e-05)
(0.01101264047 -0.0005335625933 5.616638635e-05)
(0.01452867189 -0.0002950078127 -0.001107537804)
(0.008690335411 0.0003853712564 0.0008528397012)
(0.009390246622 0.0001144857397 0.0003920137129)
(0.01724976187 0.00076972629 -0.0001944328438)
(0.008381609366 -5.640428525e-05 -0.000122322299)
(0.008000714658 0.0001536593881 0.0002381889963)
(0.007803654475 -0.0005844769956 0.0003244839508)
(0.008397744608 -0.0006885494622 8.716125454e-05)
(0.004738951798 -0.0001640675342 -3.225004991e-05)
(0.01029182125 -0.0001813693486 0.0002285688982)
(0.007781309339 -0.0003132192941 -0.0007501418183)
(0.009475288647 9.587574832e-06 0.0004787417696)
(0.007131700152 -0.0005021361432 0.0006119138211)
(0.005415555017 0.0001766775829 -0.0008326450075)
(0.01102570447 0.0006339725085 0.0006129728766)
(0.01094830087 0.0003305651884 -4.243035518e-05)
(0.002594440968 0.0002858808483 0.0004733434816)
(0.006921828082 -2.215209831e-05 -0.000423617051)
(0.00972734025 0.0004716449173 0.0001576240791)
(0.009856094656 0.0002487862674 -0.0008681713574)
(0.01250805353 -0.0002560280124 -0.0005428471522)
(0.004751636751 1.86077261e-05 0.0003796839808)
(0.003764170502 0.0002031526081 -0.0002057090105)
(0.008443807923 0.0001989219666 -0.0002518327771)
(0.01003182092 -0.0002819329508 0.0001405874917)
(0.006426013346 0.0003796889901 0.0004699935462)
(0.008323104191 0.0003514974175 0.000604604828)
(0.00960833489 0.0003782214492 0.0001626199661)
(0.007316814952 0.0002827092856 -0.001007299056)
(0.007147175706 -0.0001650379082 -0.0006011643058)
(0.0105606001 -0.0006977080179 0.0005814013853)
(0.007912516063 0.0008401928493 0.0004056989844)
(0.008815469341 -0.0005754194449 0.00066292328)
(0.006060516667 0.0007060583561 4.203611271e-05)
(0.007965554206 0.0002019701127 0.0002178165468)
(0.008058178423 0.000332630583 -0.0005476319083)
(0.01078174233 -0.0003271268441 -0.001055236709)
(0.01107017522 0.0006738468004 -0.0009550073467)
(0.008694669936 0.00067768431 -7.829383494e-05)
(0.009975796547 0.0001343145469 0.0008011744889)
(0.01188660626 -0.0001419579745 -0.0004215231925)
(0.0101295338 0.000356257431 -0.0002375325809)
(0.005231692949 0.0003056972968 -0.0002979112422)
(0.005354831457 -0.0003380266905 -0.0003215203267)
(0.008179645478 -0.0002862048236 0.000500139516)
(0.003842891696 0.0003716060891 0.0003605331852)
(0.006587111248 -0.0002442603928 0.0001729775904)
(0.003507766881 -0.0002745486039 -0.0001094772135)
(0.008718893435 -2.317303962e-05 -0.0003884063495)
(0.005819064052 -4.228325283e-05 -0.0002854086335)
(0.007325112799 8.558921807e-05 0.0001474234045)
(0.008469853196 0.0007781536606 -0.0005950354335)
(0.006296946413 -0.0007047878459 -0.0001112605615)
(0.007125046678 -9.993422042e-05 -0.0002799476742)
(0.009431847177 0.0002772821347 0.0002013540045)
(0.007197855822 -2.794675059e-05 -0.0002054296167)
(0.008789361401 -0.000574890596 0.0008498527861)
(0.01218363458 -4.264504822e-05 -0.0008320679195)
(0.006596037669 0.0001272369089 -0.0002183024225)
(0.008856081399 0.0003743360191 -0.0004403546604)
(0.001446221015 -0.0003791560856 -0.0001197737239)
(0.007722850459 0.000415236374 0.0006603979709)
(0.008230766879 0.0002157580015 0.0006259887276)
(0.01272613329 0.000573122749 -0.0006171946487)
(0.009166860166 -5.455926335e-05 -0.0002125303998)
(0.00763709461 0.0004717952541 -0.0002090805571)
(0.00795988461 -0.0001317792765 0.0005653765403)
(0.003930720825 -4.503720121e-05 -0.00045834624)
(0.005258893505 5.460078876e-05 -0.0005901562175)
(0.005980721008 0.0001593925586 0.0002931806942)
(0.008578992761 -0.0005293483327 0.0005558740855)
(0.007112315681 0.0004166140118 9.061034671e-05)
(0.008262811459 0.0008221393178 0.0002467868148)
(0.007004447317 1.967502836e-05 0.0001545449933)
(0.004926868707 -0.0004578959115 -1.432222315e-05)
(0.00960389141 0.0001192314798 -0.0001886745493)
(0.008565994701 -0.0001046120686 0.0002488126686)
(0.007177066575 -0.0005298338117 0.0003682392105)
(0.005545983706 0.0004157342488 -0.0001009271015)
(0.006148940131 -0.000300191159 -0.0001203647563)
(0.0137728054 -0.0009661128725 0.0001460325233)
(0.01103776695 -0.0004590908181 0.0007625811734)
(0.004243557504 -0.0005351792782 0.0004837135532)
(0.01144350302 -0.0004064086017 0.0001625544533)
(0.008433115938 0.0001973780233 -0.0002320153357)
(0.007584664518 -0.0001835131241 0.0006004987186)
(0.009871404803 -0.0001402359461 -0.0006178238832)
(0.002526777747 7.780364917e-05 0.0001006375111)
(0.006221719864 -0.0002183301399 0.0001951043163)
(0.007463142378 -0.000149168873 0.0005318211407)
(0.006770363574 0.0007317394616 -0.0002914661041)
(0.01046798032 0.0005209434103 -0.0002309258774)
(0.009673669565 -0.0005151817924 -0.0002276923028)
(0.00844954418 -0.0005091005096 4.948369981e-05)
(0.01060247845 0.0002938588944 -0.0003631789198)
(0.007353339878 0.0007646449575 -0.0003408759007)
(0.007937277378 0.0005321384112 -2.497530211e-06)
(0.01448080128 -0.0003698782151 -0.0009114203767)
(0.006580362986 -0.0002340632385 7.570789069e-05)
(0.01031760165 -0.0004665704201 0.0004641034032)
(0.006854930805 -0.0004227580542 7.177715862e-05)
(0.006061225435 0.0007431588569 -0.0007395243341)
(0.009441723725 -3.057937627e-05 -0.0004881803992)
(0.009202478793 -0.001621275914 0.0003471851563)
(0.009639641864 -0.0009588616214 -0.0007797539736)
(0.007360492249 -0.000125535456 -0.0001014421527)
(0.01143483778 -0.0003810799676 0.0006035183323)
(0.009168181987 -0.0008024412561 0.0008506199647)
(0.005459921305 -0.0002341886661 0.0002385817745)
(0.009185731539 0.0002076508035 -0.0005166300636)
(0.008006219292 0.001115468737 -0.000332696932)
(0.008178977116 0.0007369477868 -0.0006501358922)
(0.006020019113 0.0003690050385 -5.097392737e-05)
(0.008548045476 0.0006063224884 0.0002997694792)
(0.01031962068 -0.0001747791833 -6.927725514e-05)
(0.01414311084 -0.001136331078 -3.789436272e-05)
(0.006147388758 0.0005666454928 -0.0002010334575)
(0.007764937544 0.0004860447372 -0.0001027981631)
(0.009750907755 0.0003485086735 0.000685272734)
(0.008566596835 0.0004176595292 0.0003844854491)
(0.008627025585 6.598164623e-05 -0.0002206059043)
(0.00394300471 0.0004824907789 -0.000749489773)
(0.009018221093 0.0002083789894 0.0003203946857)
(0.01053148 -0.001023890919 -0.0003482056327)
(0.01267626678 0.0002577357217 0.001376367482)
(0.00783644524 0.0002437997971 0.0007484733773)
(0.006638256398 0.0002537880587 -0.0002062217215)
(0.008428490017 -0.0002988066184 0.0003458859247)
(0.007177413413 0.0001243678613 0.0004731609062)
(0.00849445287 0.0001283314019 0.0003862088885)
(0.01052790659 0.001285514837 0.0002667482079)
(0.008913303459 0.001309880657 -0.0002111294511)
(0.007813331278 -0.00085002243 0.0005160258666)
(0.01172447747 0.001064188803 0.0007563236569)
(0.00925102339 -0.0001552527469 -0.0008022105784)
(0.002719015541 8.29248787e-05 0.0003410286899)
(0.003355056296 -0.0002980481342 -3.191307283e-05)
(0.01116601462 4.830652114e-05 -0.0007434497255)
(0.005115940013 0.000536315284 5.475304972e-05)
(0.008265686576 0.0002983934429 -0.000321502024)
(0.006610535416 0.001261951909 -0.0002701676029)
(0.01041541737 0.0006230153403 2.853084186e-05)
(0.005369987108 0.0003328551468 -0.0002544661447)
(0.01395992691 3.311809685e-05 -0.000148099419)
(0.009272564849 0.0008782471533 0.0005302926652)
(0.008610520559 -0.0003190478801 6.325523471e-05)
(0.01296213005 0.0004716476673 -0.0003081561087)
(0.01228027207 0.0004004118079 0.0008668642825)
(0.005503209165 -0.0002374876777 -8.693456689e-05)
(0.006096274651 -0.0002951613663 0.000197750806)
(0.008770761952 0.0007365128516 -0.0003910368848)
(0.009593938964 4.927371855e-05 2.410150465e-05)
(0.005859015969 -0.0003201719862 -0.0003852954317)
(0.007075154903 0.0002453004921 -0.0002275853424)
(0.005673787539 -0.0001281546464 -0.0006479683455)
(0.01414722348 2.756362346e-05 0.0007074552111)
(0.005683481523 9.197618294e-05 0.0004212861348)
(0.005000785738 0.0001215728329 -0.0005910411756)
(0.007606687664 0.0006281176699 -0.0006087484759)
(0.008820705412 0.000274319609 7.680306331e-05)
(0.008982440975 -0.0004386606948 6.041723165e-05)
(0.006543682848 -7.244674467e-05 -0.0008400429171)
(0.006257659595 0.0003777071257 -0.0001270602707)
(0.01028924682 0.000347593701 -0.0008591252413)
(0.008415196985 -0.0001235426376 -0.0007810194266)
(0.009332659549 0.0004427286718 0.0001733240325)
(0.01169533931 -0.0008316685854 -0.0006182449578)
(0.008630257445 -0.0001588698537 -3.338255139e-05)
(0.00419192203 0.0003147817235 0.0001142477061)
(0.01147176258 0.0007940210192 -0.0004257713731)
(0.005151712992 0.0006159003832 -0.000374778872)
(0.01432555658 0.001136972749 -0.0003492374011)
(0.006164029544 0.0003526014115 -0.0003030387042)
(0.009620507853 0.0009104733122 -0.0006706139793)
(0.01026423124 -0.0001139829556 0.0005370888703)
(0.01162646717 -0.000476833788 -0.0007085750809)
(0.004564537367 -0.0001252933887 -0.0001376048539)
(0.007437707121 0.0003435835332 -0.0001057025107)
(0.009314991049 -0.000298145561 -3.738913204e-05)
(0.008032939006 -0.0004991710081 -1.339881232e-05)
(0.006884469041 6.244835721e-06 2.680431988e-05)
(0.01073830386 -0.0006336946222 0.000758005142)
(0.01322303766 0.0002460927531 0.0003848625517)
(0.00869926729 -0.0003689409249 -0.0004589657066)
(0.01019422004 0.0006094262327 -0.0007418329965)
(0.006820498422 0.0004259942461 -0.0004321669619)
(0.008309009089 0.0004231266345 0.0003055735826)
(0.01126715237 -1.811385675e-05 0.0003675401939)
(0.004321427616 0.001325351033 0.0003724414467)
(0.009294486237 0.0007222936648 0.0001517010602)
(0.006143446239 0.001350917276 -0.0006301037234)
(0.008343763285 0.0004519362505 -0.001677387936)
(0.008414537963 0.001305156579 -0.001570385581)
(0.01245381717 0.00343073607 0.002416888894)
(0.007777389736 0.002029461259 0.0002560603065)
(0.007855674917 0.002426708164 -0.0005822967372)
(0.004015862234 0.002327268237 6.798204015e-05)
(0.00385955348 0.001783654952 0.0004751030246)
(0.0100051779 0.0009502120863 0.0007174377432)
(0.006912318822 0.002649810624 -1.723235026e-05)
(0.01125987486 0.001204820341 0.0003114497309)
(0.01428053964 0.002980449266 -0.0002990813815)
(0.009186434885 0.004344514779 0.0004724733648)
(0.0112621575 0.002755405375 0.0002145345207)
(0.006388545137 0.00221923276 -0.002451834442)
(0.01171675956 0.005958673238 -0.00173819451)
(0.006873732045 0.002487632 -9.925852359e-07)
(0.007326756937 0.003083358187 -0.0002888341569)
(0.005072810539 0.0004650787886 0.0005696857272)
(0.005932156131 0.001423772145 -0.001074553791)
(0.008154106041 0.00167049186 -0.001064088346)
(0.01685331722 0.001340498975 0.0006240218343)
(0.01321089485 0.003211421891 0.00239667896)
(0.01348178054 0.004972311962 -0.0003286709713)
(0.00773664362 0.002034713657 0.0002046560543)
(0.009248340692 0.003159842205 8.866550282e-05)
(0.01585240645 0.002582962739 -0.0006777958099)
(0.009832096599 0.001579725584 -0.0008218158557)
(0.009772578452 0.0007689099743 8.959627507e-05)
(0.006186187199 0.0005388899756 -0.0001877112995)
(0.01498841185 0.002134410144 0.001514744835)
(0.006727935277 0.001689210123 -0.0002637834252)
(0.01375176983 0.002990947313 0.001370070382)
(0.009440737673 0.002193956852 -0.0001871150046)
(0.007679309648 0.002677952734 -0.0007893629031)
(0.01581926298 0.004656482149 0.0004724912043)
(0.01136861394 0.003296035408 -0.0003580315053)
(0.01493207439 0.005858219527 0.0006002449867)
(0.01037840546 0.0003738148278 -0.0004906540922)
(0.006417840523 2.292083823e-05 0.0002081219775)
(0.009694204471 0.0009059951031 -0.001043212249)
(0.01083245747 0.001301776965 -0.0003975935075)
(0.01174010285 0.001387147308 -0.000371516496)
(0.008866687021 0.00256815438 -2.565424025e-05)
(0.01183167092 0.001856867388 -0.00038352749)
(0.01237652873 0.001344641236 0.0002286343582)
(0.01317341279 0.004349552238 -0.002361833808)
(0.01531769822 0.005610429217 0.002236343221)
(0.007162367079 0.0004123295197 0.0001028637482)
(0.006837841121 0.0003591592058 0.0002021047057)
(0.01243934244 0.001304228509 -0.000354364577)
(0.009133636022 0.0002262890761 -0.0007440411197)
(0.006533699436 0.003747110815 -0.0008531244965)
(0.01593492176 -7.1560508e-05 -0.0004498588116)
(0.01233313102 0.0006717987865 -0.0008892090115)
(0.01109626203 0.003138524284 -4.100724445e-05)
(0.007759634124 0.001841838418 -0.0003996192979)
(0.009658519249 0.003489362232 0.00208149751)
(0.01509780483 -0.0005138683302 -0.0006597354712)
(0.01194179871 0.0006684205852 -0.001187831701)
(0.01269402305 0.001842552838 -0.0001075235588)
(0.007621375916 0.0008212503958 0.0008217677586)
(0.007420588755 0.001418950419 0.0007583307653)
(0.008325180848 0.0007471508032 0.0006209169224)
(0.01034579246 0.003123150555 0.0002692179867)
(0.009230014161 0.001049758225 -0.0002849373948)
(0.01604349836 0.002770829853 0.001184693731)
(0.01029580786 0.003371557063 -0.0008761892401)
(0.01172318878 4.815384611e-05 0.001175773175)
(0.01031958499 -0.0004197085365 -0.0008612744891)
(0.008417674453 0.0001997429191 -0.0005919272708)
(0.008823854475 0.001942461797 0.0007612391729)
(0.01011683797 -0.0004499024523 0.000201550767)
(0.009539796509 0.001400888269 -0.0001219267593)
(0.006026763034 0.001945398206 0.0003004842923)
(0.005504200877 0.0006357650694 0.0009816192023)
(0.01087290636 0.0003080081041 -8.074191877e-05)
(0.006131565146 0.002024240724 0.0002127066959)
(0.007244974615 0.0001238203205 0.0002164300184)
(0.01102617685 8.02394411e-05 0.0005603100747)
(0.005468635171 0.0006138892776 -0.000369066811)
(0.004990955063 -0.0001659536476 0.0001072707272)
(0.009193551531 0.0002332905953 0.0001439373657)
(0.008219909188 -3.728507789e-05 0.0002555527313)
(0.01144730341 -0.001321440142 0.0005215874892)
(0.0128007024 0.002254019777 -0.0009745276563)
(0.01111411231 0.00118618371 0.0003505993506)
(0.01246698887 0.003036875393 -0.0006772802324)
(0.01347247845 -4.988685087e-05 -0.0003120305865)
(0.003300286681 0.0008735124257 -9.238143984e-05)
(0.006474540994 0.001001378479 0.0006490149067)
(0.008534461036 -0.0004250667508 -0.0006772024315)
(0.01394097056 0.0003958524711 -4.467846042e-05)
(0.007228450848 0.0003524906576 -0.0005582217545)
(0.0113289517 0.001009460261 0.001442663125)
(0.00924715177 0.000311968719 0.0003650153475)
(0.008502425798 0.0004787762459 -0.0005147785566)
(0.005254741904 0.0004271437666 -0.0009897698181)
(0.01007208982 0.0006863716687 -9.605091561e-05)
(0.008044702808 0.0006088011693 -0.0007577974883)
(0.006342051584 0.0003208626038 -0.0005344120004)
(0.007780052447 -0.0008572409904 -0.0005882968846)
(0.008955471952 -8.522323318e-05 -0.0003175857885)
(0.006618887714 0.0003078409376 0.0005938297107)
(0.003657907948 0.001418023737 6.88063806e-05)
(0.008863701972 5.205157742e-05 -0.0006585886895)
(0.00532130424 0.001228229226 0.0004376172455)
(0.01005975318 0.001048774045 0.0004612746798)
(0.01208454687 -8.61015624e-05 -0.0001271508362)
(0.009681150687 0.0002080888461 -0.0003734498043)
(0.006738122967 0.0006321293309 0.000229301728)
(0.009240271338 0.0004720412056 0.0009179411587)
(0.006851480833 3.450632952e-05 -0.0007995567682)
(0.009704659838 0.000243384236 -0.0001821308242)
(0.009803883498 9.618457571e-06 -0.0006774640491)
(0.004950034226 0.0007587484851 -0.0001699950945)
(0.009442546117 0.0005909525323 0.0003741213881)
(0.0130227956 0.001006722572 -0.0008880005273)
(0.01022275292 0.0002501296955 7.158024022e-06)
(0.01070798931 -0.000491684939 -0.0001282194156)
(0.006230537854 -0.0004804252969 0.00035448388)
(0.009207825325 0.0004849614399 0.0003168261173)
(0.008460570874 -0.0001198725595 8.532956521e-05)
(0.007533875738 0.001250870658 -0.0004627983963)
(0.006724204277 0.0009108699305 0.0001152763676)
(0.01034001319 0.001323911833 -9.575858719e-06)
(0.01246901723 0.0003049373272 0.0002366059162)
(0.007403485026 0.0008800240935 -0.0008828115763)
(0.007353293555 -0.0002496188031 0.0006413302464)
(0.00730358738 0.001229247832 -0.0004341919419)
(0.00700536786 -0.0001252057203 -4.415236681e-05)
(0.00835195941 0.0005499596004 -0.0009007413662)
(0.009678490094 -0.0002972088069 -0.0009157732296)
(0.006011382968 -0.0003021853661 0.0007977818312)
(0.006876474496 -9.459524173e-05 0.0005343724575)
(0.01237054126 0.0004585469517 -0.0006822653973)
(0.01069459091 -0.0007887911174 -0.0001215008262)
(0.00940892005 0.0003375401838 0.001215663146)
(0.01340472409 0.0002838596615 8.434821601e-05)
(0.009660746918 0.0004173364867 -5.396167206e-05)
(0.01227223728 -0.001231022524 -0.0001483023431)
(0.008600712264 0.0001865861872 -0.0003974444719)
(0.01065216958 0.0001563356974 0.0002610860802)
(0.00861209817 0.000692984847 -0.0001469257624)
(0.01073479894 -7.866294493e-05 -0.0003634852889)
(0.0119674854 -0.0001388511051 -0.0001825978828)
(0.0124774045 0.000987480862 6.126617312e-05)
(0.004667202691 -0.0001878253127 -0.0004438766316)
(0.007567260671 -0.0005678699235 -0.0001830851826)
(0.004797086649 0.0002786868732 0.0004874546375)