/*--------------------------------*- C++ -*----------------------------------*\
| =========                 |                                                 |
| \\      /  F ield         | OpenFOAM: The Open Source CFD Toolbox           |
|  \\    /   O peration     | Version:  2406                                  |
|   \\  /    A nd           | Website:  www.openfoam.com                      |
|    \\/     M anipulation  |                                                 |
\*---------------------------------------------------------------------------*/
FoamFile
{
    version     2.0;
    format      ascii;
    arch        "LSB;label=32;scalar=64";
    class       volScalarField;
    location    "0.01";
    object      overallT;
}
// * * * * * * * * * * * * * * * * * * * * * * * * * * * * * * * * * * * * * //

dimensions      [1 2 -2 0 0 0 0];

internalField   nonuniform List<scalar> 
654
(
293.7923799
303.4458732
298.502844
299.2059331
299.7728066
299.4305503
299.6426636
299.4842051
299.4868396
299.0098931
297.6186347
298.5435502
298.4546358
303.7699842
309.7361637
320.6624917
340.1635451
392.4010049
551.6312794
967.7086876
294.7268143
303.1684273
300.6460105
301.2881702
301.236673
301.7893703
301.9816038
301.6932672
302.6247728
302.3063092
301.4016676
301.5023251
306.1910201
308.9574693
312.7144898
325.9617421
355.6426934
423.716492
588.5972568
865.1822447
295.3204803
304.919546
299.4773637
299.3157807
299.2056113
299.3350196
298.1865585
299.6701431
299.4233622
299.7617522
300.0623754
299.516137
301.1341236
307.1786061
313.4680522
323.2161176
361.9861003
416.4719345
547.9991798
715.5933724
292.0841243
302.449306
299.3379019
299.1548947
298.1873794
298.0898914
297.955127
298.6817568
299.5923888
298.4107109
299.8219033
301.0948631
302.4541511
304.4576053
313.4737044
328.4358719
348.8371192
400.4043118
484.0102614
611.3488935
293.6664185
303.5982593
298.4569062
298.8983762
300.5868268
300.3310377
301.3336837
301.694205
301.379475
301.5124779
301.9512057
302.9091237
304.4752924
305.7630935
309.2101788
322.9022115
341.8768539
379.4822707
439.8865684
521.7241918
294.2286688
304.2379191
300.5036105
300.4282854
299.6348325
298.3747779
298.452196
299.2956806
298.5732253
301.2039445
300.6757701
300.9224098
302.1052014
302.5630955
309.6994574
322.4028801
335.7207761
373.4029936
403.1152921
463.8844697
294.4758889
303.5059024
298.9677474
299.8913996
300.7938548
302.0251183
300.1773149
298.5752832
299.4241938
300.5336508
300.8374713
300.7637841
302.7782292
303.6124064
311.5075295
316.9803799
331.0171042
347.0359679
373.6424202
416.9707282
293.5076019
303.5331574
299.7741135
301.8238267
299.9263631
300.4704824
301.4086223
301.5814189
301.8722599
301.8183894
300.9409962
301.7622192
301.5794522
303.5174184
309.9916108
311.5402953
321.6617541
338.7189588
353.8488773
378.9812187
297.3521987
306.7779731
301.0380773
300.8586007
300.6134736
300.6427954
300.3241477
301.1016261
300.8789829
300.508788
301.1674086
300.8004627
302.3722653
304.6839377
306.9123434
309.0636743
319.6465264
327.3340804
341.8845197
359.1218095
295.3562413
304.2435518
300.7804386
300.8127778
300.9852929
301.9701787
300.9384652
299.750834
300.4503902
300.6917669
302.2044979
302.2073286
304.1685487
305.0231761
304.1366747
308.8808975
313.9659584
319.7692547
329.5800596
347.8841708
295.6371562
304.1706163
301.0536035
300.9978292
300.8170385
300.2180362
300.0346268
301.2987437
300.8667961
300.8172189
299.8020874
300.1132026
300.3335808
300.2790014
303.738141
303.8747847
308.0947503
316.2445002
320.5698539
335.4616606
294.2869791
304.6493543
300.437505
300.9257608
300.7945325
300.13827
299.852008
298.2354036
301.0185763
300.5981883
299.9555945
300.7897133
300.255959
302.0927811
302.0065841
304.5118618
308.5293875
313.382006
316.1015928
326.2646231
292.6026239
303.0074392
297.7871416
298.7369495
297.6378217
298.2619582
300.3501844
302.4205338
301.5593396
300.8113368
300.420986
300.1002813
301.9346943
301.8428802
301.5652258
304.4597748
305.7649197
307.9518645
313.6441685
317.0320303
292.9637921
301.5501703
298.393513
299.1034878
299.5683994
300.7929822
299.5362471
299.3205152
298.7818491
298.3841709
300.5613988
300.3798507
300.0045641
299.4846318
301.1591325
302.6526488
302.963277
303.7628282
307.7563614
311.4797257
295.4752119
306.0230195
301.3252359
299.3934041
299.8711755
298.9526743
297.1819763
297.438865
297.6417943
299.257952
300.0360219
300.2707138
299.0083098
298.2842499
299.4368643
301.7657004
303.2711134
305.1326561
304.6354461
307.5377389
294.8239357
303.1338058
299.7077516
298.7036724
297.7439457
298.9916255
300.1761329
300.8976934
299.6435727
299.4610954
300.7621978
299.5445284
299.9772517
301.1372413
300.4913138
301.274643
302.8151071
303.2454634
304.8981585
308.4851162
294.9215531
304.5038087
299.3594791
300.5445547
301.6314346
300.1462126
299.6558208
298.9143465
299.5810697
299.2600797
299.8131205
300.3126958
300.8650721
300.0259052
300.6663415
301.7675069
303.3839861
305.4605227
304.6808418
308.0845514
294.640037
303.5528479
300.9933023
300.2797163
300.6815225
301.249298
300.456553
300.0713117
299.1805933
298.6877377
299.1182716
298.3127973
299.6256612
300.1899227
301.6207094
300.1739691
298.8571748
300.1079461
301.8708311
303.877622
291.7243651
302.3005578
297.7683504
298.2978429
298.2869556
299.1168979
300.3216099
300.0270699
300.4133703
301.4481348
300.6816183
301.0152445
300.384477
298.8647954
299.2269266
300.4933607
300.6130259
300.1110265
300.3507717
300.4154917
292.8634678
302.1494233
298.8381433
298.4135004
298.9489854
297.2834447
296.7824754
296.9428227
296.9263141
295.6563758
297.284515
298.4979633
300.437635
300.7509641
301.5352516
300.1526097
300.1786029
301.1846665
301.8174069
302.2898589
295.2303122
304.228237
298.6885999
298.6622396
299.2653166
300.698853
300.6723164
301.3285651
301.5175163
302.8091299
301.852167
301.785236
300.3177047
299.3258985
299.1393344
300.7140219
301.6811245
301.5066463
301.13407
302.1710834
294.0197603
303.9213008
299.4331796
300.5683896
300.2166278
300.2166236
300.2548112
301.5385879
301.5721785
300.816533
301.0321264
300.5989959
301.1643478
301.8992163
302.3127235
301.0500529
300.3404268
301.6472975
301.3652471
301.0585773
1056.912471
994.5845581
962.0224445
935.7311171
917.9247309
903.227714
892.6385789
869.9268266
862.0273531
850.2880345
1011.311509
1008.897222
995.1386921
981.1481746
972.5199994
965.4393104
952.7419936
948.096093
934.6168647
928.8018655
869.5846493
928.0716871
938.2977884
952.1963839
949.9094093
947.9431475
944.6577671
938.3770115
934.5582709
929.113454
731.6886936
813.305065
858.4375177
885.7646245
898.1714713
900.4086291
905.6415442
898.3036721
906.6607927
914.4120536
611.2690446
696.9023031
752.9816779
805.1430122
830.026954
850.7070975
869.0917866
862.2386282
872.7443631
877.9338556
537.3974261
610.7904202
661.8396204
718.7733513
749.5825596
782.7641861
813.8618332
824.3263081
842.7795055
844.7464557
465.5870451
527.9495899
570.3672154
632.913208
665.7948979
707.0441669
736.4402264
763.0609539
783.0831422
799.0895227
416.9692524
466.065465
499.2301824
556.8068157
594.6361624
639.0571779
668.3495084
704.0543404
729.2102301
746.9463177
391.2410297
426.8728891
452.7329466
492.5475658
529.3534127
569.3088398
609.0524129
639.9709648
666.9142016
691.9513995
362.2417977
382.1111843
415.6818529
448.5977615
472.1391292
507.3853534
545.8517237
574.2278423
606.2114923
634.975876
347.6252977
364.7722575
382.7346054
410.132806
431.7631529
464.6905646
498.4419511
523.2336206
547.8783088
574.8904421
335.9850767
346.7778646
358.6516867
381.9289792
392.9629205
417.4930635
445.7826643
468.8575761
496.1888127
519.9293283
324.967072
333.2526223
344.9112612
354.9878698
365.1867542
386.9942864
406.0180932
426.4893929
445.1350822
478.0859806
320.1704597
325.4661025
334.1821979
340.9544786
352.5477087
359.0764969
376.6045636
397.8239095
417.8370221
433.8971506
315.876011
317.2046038
324.0899241
327.7790603
341.7080475
348.8629899
358.6289497
375.8808683
392.6871067
407.7619781
307.8415646
313.6149414
318.505886
323.7767757
329.1134886
341.1183261
347.0563596
355.3835426
370.5907635
382.3437192
308.7283935
311.4192657
314.6557026
316.5332455
318.1930691
326.8901692
334.7233011
342.0157114
350.7797683
360.3663378
307.2988996
307.6707755
309.5854696
311.235098
313.0563727
317.759524
324.0353124
329.4882842
338.9852861
347.5257807
301.5626724
307.4607854
309.9159504
310.5576076
313.5245877
315.4410925
317.555764
323.3648231
327.4359497
335.5378248
303.2329844
303.770146
305.8841129
306.4246624
308.6065876
311.1044931
313.1557179
318.564084
322.3534079
325.4499795
301.932229
302.4602379
304.07467
303.8845289
305.5885636
307.6043902
310.3253214
314.5563093
318.7235328
322.2729145
299.5602507
300.0023735
301.8125357
303.6259328
)
;

boundaryField
{
    flow
    {
        type            calculated;
        value           nonuniform List<scalar> 
42
(
293.7923799
294.7268143
295.3204803
292.0841243
293.6664185
294.2286688
294.4758889
293.5076019
297.3521987
295.3562413
295.6371562
294.2869791
292.6026239
292.9637921
295.4752119
294.8239357
294.9215531
294.640037
291.7243651
292.8634678
295.2303122
294.0197603
293.7923799
303.4458732
298.502844
299.2059331
299.7728066
299.4305503
299.6426636
299.4842051
299.4868396
299.0098931
297.6186347
298.5435502
298.4546358
303.7699842
309.7361637
320.6624917
340.1635451
392.4010049
551.6312794
967.7086876
)
;
    }
    obstacle
    {
        type            calculated;
        value           nonuniform List<scalar> 10(935.2779355 880.5080033 823.4011407 805.3728264 777.28984 775.972368 773.2839732 750.1658619 743.6189324 737.6297401);
    }
    frontAndBack
    {
        type            empty;
    }
    procBoundary0to1
    {
        type            processor;
        value           nonuniform List<scalar> 
21
(
842.2393121
915.8336439
929.8580433
908.9458253
878.3421548
847.1935109
813.2933291
764.7591915
715.7901173
660.2055591
601.0503316
554.7657651
502.4324091
459.5513001
419.8184201
394.7832754
374.2859424
358.4394078
342.558135
334.9918163
323.5983758
)
;
    }
    procBoundary0to2
    {
        type            processor;
        value           nonuniform List<scalar> 
31
(
293.3645255
304.0246641
299.9989042
299.9659417
299.1579628
298.1034309
298.8207559
299.8836817
299.1813216
299.9728864
300.7297457
301.9086702
301.2395676
300.0394727
299.2714241
299.1372415
297.8340903
297.407087
297.9518222
299.3940538
306.2169601
307.1916398
306.5104892
306.3712713
310.5402793
313.6152111
299.9068542
301.8376308
301.8598674
306.2169601
302.5941295
)
;
    }
}


// ************************************************************************* //
