/*--------------------------------*- C++ -*----------------------------------*\
| =========                 |                                                 |
| \\      /  F ield         | OpenFOAM: The Open Source CFD Toolbox           |
|  \\    /   O peration     | Version:  2406                                  |
|   \\  /    A nd           | Website:  www.openfoam.com                      |
|    \\/     M anipulation  |                                                 |
\*---------------------------------------------------------------------------*/
FoamFile
{
    version     2.0;
    format      ascii;
    arch        "LSB;label=32;scalar=64";
    class       volScalarField;
    location    "0.01";
    object      p;
}
// * * * * * * * * * * * * * * * * * * * * * * * * * * * * * * * * * * * * * //

dimensions      [1 -1 -2 0 0 0 0];

internalField   nonuniform List<scalar> 
654
(
0.3062061604
0.4134049445
0.4041230542
0.4068197154
0.409984865
0.4092350095
0.4088424396
0.4101067118
0.4090031747
0.4056755955
0.4036224191
0.4039292883
0.4037940142
0.4164278284
0.4303808452
0.4565115091
0.4998687366
0.6260383032
1.02465509
2.496424916
0.3102177448
0.4189329062
0.4159591933
0.4152464471
0.4137313238
0.4165792451
0.4159166672
0.4161885192
0.4166245589
0.4144854659
0.4145142902
0.4172428362
0.4290626161
0.4376421284
0.4467709347
0.4806802646
0.5497463433
0.7187762442
1.156515981
2.085851106
0.3140756296
0.4286867888
0.4162123943
0.4151136474
0.4138442092
0.4142254005
0.4134306719
0.4156961093
0.417052749
0.4164422665
0.417829169
0.4149869272
0.4144495904
0.4298513234
0.4426054744
0.4643648462
0.5547859435
0.6848506972
1.017062874
1.521429728
0.309577665
0.4190282409
0.4149181507
0.4144045892
0.4103586663
0.4116570842
0.4105177774
0.4122703379
0.4125233829
0.4148753362
0.4156754383
0.4187404226
0.4226440917
0.4223893984
0.44368947
0.4735763794
0.5211857577
0.643078166
0.8535449764
1.211595898
0.3119400437
0.4221762628
0.4102625434
0.4103813177
0.4149546632
0.4153216127
0.4166386529
0.4153529984
0.4132966908
0.4127752782
0.4115098099
0.414445341
0.4199084211
0.4222847925
0.4299264288
0.4651346664
0.5088202
0.5986218913
0.7420207673
0.9556931444
0.3095038538
0.4197457563
0.4169416879
0.414624681
0.4119181924
0.4071419347
0.4072926679
0.4121403995
0.4106560234
0.4161407577
0.4146297969
0.4141125562
0.4136584101
0.4146987824
0.4357098511
0.4595199569
0.4913083765
0.5740388977
0.6516283113
0.799040197
0.313164674
0.4219053345
0.4142866324
0.4157760033
0.4217086081
0.4214014997
0.4184265414
0.414185606
0.4162142172
0.4210032742
0.4202302339
0.4208432698
0.425171446
0.424069134
0.4410758878
0.4497047869
0.4845435963
0.5230687121
0.5907070145
0.694606154
0.3081768574
0.4182893817
0.4114932421
0.4146196353
0.4120227605
0.4143146622
0.4168436709
0.4181372835
0.4176424015
0.4159878611
0.4146773153
0.4143694167
0.4160218444
0.4224802305
0.4388013968
0.4426343881
0.4637539707
0.4992184309
0.534951526
0.5950330063
0.3154309316
0.4293742804
0.4186123874
0.4186798555
0.4155863974
0.4154451756
0.417088342
0.4195688088
0.4149848263
0.4134940149
0.4184321818
0.4187674926
0.4189446793
0.4243126855
0.4263945556
0.433202708
0.4596070146
0.477445066
0.5115369395
0.5536244423
0.310576362
0.4149348567
0.4124216969
0.4118992164
0.4129161718
0.4154792936
0.4125552268
0.4108226088
0.4166099116
0.416927642
0.4186778877
0.4198484373
0.4244089157
0.4263185147
0.4261954076
0.4368203969
0.448425834
0.4575639436
0.4807509803
0.5206383351
0.3138096845
0.4224859683
0.4145973197
0.4135867127
0.4112173398
0.4085143429
0.4077351631
0.4125503919
0.4107367927
0.4130864658
0.4145487591
0.4140944438
0.4173596834
0.4185352583
0.4253081673
0.4205691311
0.4289131396
0.4494864467
0.462596301
0.4980009179
0.311424913
0.4250733079
0.4187299463
0.4177981066
0.4196741734
0.4169108776
0.417864087
0.4149497041
0.4221804523
0.4173884889
0.4130774407
0.4099668565
0.4065650018
0.4135491732
0.4158069249
0.4279761547
0.4407708213
0.4477952012
0.4519914928
0.4727116478
0.3111305714
0.4228549052
0.4120075972
0.4134442281
0.4099212911
0.4110273672
0.41541047
0.4158983809
0.4127880902
0.4114874239
0.4159264362
0.417058384
0.4226936197
0.4208184119
0.4160043446
0.425255826
0.4271389133
0.4328920567
0.4491416235
0.4549716588
0.311925111
0.4209559348
0.4175552646
0.4184776028
0.4187069434
0.4216055698
0.4171008477
0.4178703949
0.4175937047
0.4151743516
0.4178572482
0.4177753473
0.4155387274
0.4134801982
0.4172128594
0.4177686494
0.4184962188
0.4185285639
0.4280237115
0.4391826594
0.3112204494
0.4247420111
0.414591386
0.4094513945
0.4141345349
0.4129437689
0.4128197215
0.4113687328
0.4144616278
0.4171522398
0.4168229489
0.4172714702
0.4171714228
0.4124817703
0.4152985555
0.4196242787
0.4233676821
0.4267329135
0.4243776415
0.4279249775
0.3127158761
0.4220091661
0.4158583532
0.4146042004
0.4104053036
0.4116846083
0.4136848964
0.413198215
0.4136986922
0.4125329775
0.4161858994
0.412326115
0.4089424456
0.4138319224
0.4154651969
0.4177021546
0.4208940484
0.4214049457
0.4262174896
0.4283395
0.311647665
0.4191957438
0.4092558237
0.4126746879
0.4138205686
0.4137575289
0.4103445611
0.4095842538
0.4097450058
0.4083387762
0.4095973096
0.412773122
0.4138849557
0.4149143405
0.4132040232
0.4160620214
0.419484512
0.424435278
0.4217865287
0.4284172733
0.307885027
0.4181359811
0.4146412268
0.4146408205
0.4144984043
0.4132830451
0.4135721413
0.4115436276
0.4088765853
0.4090040185
0.4103194295
0.4084590047
0.4129606853
0.4127737672
0.4156820229
0.4139247396
0.4123188942
0.4128209603
0.4167084006
0.4225865071
0.3094117146
0.421587326
0.4110498713
0.408517234
0.4105544452
0.4132110112
0.4158961177
0.4173126738
0.4165583049
0.4175575229
0.4161575522
0.4176205639
0.4141579314
0.4126950731
0.4126578366
0.413715531
0.4142226857
0.4130987478
0.4130093995
0.4108202724
0.310032565
0.4208916924
0.4186572148
0.4173099505
0.4159164827
0.4141128486
0.4127913806
0.410443857
0.4115019814
0.4109469575
0.4137496222
0.4145108973
0.4184398781
0.4165180476
0.4178853393
0.4142001588
0.4141737947
0.4161974785
0.421815799
0.4226120228
0.3111417916
0.4192397383
0.4056468475
0.4085500798
0.4106450301
0.413941229
0.4128207282
0.4094290585
0.4109081402
0.4142146516
0.4143644848
0.4164854134
0.4133150364
0.4146333095
0.4163537317
0.4206159354
0.4217061952
0.4215025985
0.420313962
0.4206899294
0.3098439536
0.4210635886
0.412354304
0.4110326194
0.4106801267
0.4092061058
0.4121633841
0.416178743
0.4197214706
0.4171283811
0.414863068
0.4133308982
0.4172013862
0.4180646297
0.4176361333
0.4150640232
0.4128394974
0.4157672308
0.4173823523
0.4179012274
4.67691135
4.827529518
4.767491836
4.654432042
4.52389536
4.470135529
4.388871457
4.252371533
4.088882015
4.013517787
3.070364922
3.562414067
3.820773508
3.950744175
4.05950075
4.112912371
4.057134692
4.077896082
4.014901964
3.943512032
2.171126226
2.659376309
2.926716882
3.222453225
3.386524579
3.535993789
3.630677292
3.68101547
3.702570815
3.709449335
1.617807168
1.982856546
2.281721169
2.580462176
2.779118047
2.939616633
3.130136304
3.195887901
3.316363288
3.438920559
1.219118001
1.526611448
1.774670848
2.051409622
2.26795874
2.452249631
2.644517133
2.730942605
2.923095908
3.080587087
0.99472042
1.22045927
1.402487249
1.636089623
1.81024443
2.03797529
2.263581067
2.411656114
2.596069989
2.700789827
0.818131443
0.9839987211
1.120019802
1.336221364
1.475946557
1.678334252
1.845131355
2.023511033
2.206076343
2.366451621
0.6897971143
0.8161178433
0.9144771517
1.088326725
1.215114747
1.375676466
1.523335481
1.693403805
1.867449441
2.015662874
0.6276335601
0.718160899
0.7887794528
0.8977419211
1.004894701
1.136333446
1.282987922
1.407529035
1.552625852
1.700114591
0.5598413362
0.6088125897
0.6952471618
0.7766681808
0.8421883942
0.9435274148
1.071457898
1.173132587
1.295790962
1.418556353
0.5252417497
0.5609304261
0.6137223821
0.6837544789
0.7432628805
0.8269890259
0.9224272073
1.009689029
1.090759952
1.19356727
0.4966383663
0.5208041989
0.5467148248
0.607481943
0.6315010471
0.698856416
0.7742499169
0.8490595953
0.9391825554
1.011228242
0.474191198
0.4956985579
0.5218199873
0.5431069782
0.5689294356
0.6256297813
0.6777812041
0.7277827144
0.7756364313
0.8797829372
0.4580264691
0.4699565789
0.4933675112
0.5092790507
0.5347807741
0.5508169249
0.5908739072
0.6457683956
0.7047816199
0.7532886061
0.4478148891
0.4488277937
0.4641948477
0.4728889825
0.4998938893
0.5251366095
0.547065393
0.5898862071
0.6288324975
0.6692615093
0.4307767829
0.4433098806
0.4549022117
0.4664725617
0.4812317138
0.5029579636
0.5187405085
0.5423846977
0.5807636752
0.6094169878
0.4279235062
0.4384773491
0.4417971405
0.4473747908
0.450694431
0.4701730954
0.4905653136
0.5077915583
0.5263636125
0.5564047899
0.4290300977
0.4251903088
0.4310062126
0.4369908647
0.4446771858
0.4556438063
0.4680950695
0.479591048
0.4991594932
0.5202601174
0.4164202092
0.4332171016
0.4379152962
0.4414602075
0.4463553944
0.4493484675
0.4539075883
0.4642830412
0.4743013938
0.4946778435
0.4232802155
0.4258837847
0.4297308818
0.428197221
0.4332042964
0.4399611986
0.4452207568
0.4599799371
0.4646398224
0.4700336124
0.418921799
0.4198234232
0.4231830139
0.4227058258
0.4251218391
0.430699396
0.4337488054
0.4453270457
0.4592906672
0.4666237349
0.4129211074
0.4137783804
0.4183690828
0.4232240312
)
;

boundaryField
{
    flow
    {
        type            calculated;
        value           nonuniform List<scalar> 
42
(
0.3062061604
0.3102177448
0.3140756296
0.309577665
0.3119400437
0.3095038538
0.313164674
0.3081768574
0.3154309316
0.310576362
0.3138096845
0.311424913
0.3111305714
0.311925111
0.3112204494
0.3127158761
0.311647665
0.307885027
0.3094117146
0.310032565
0.3111417916
0.3098439536
0.3062061604
0.4134049445
0.4041230542
0.4068197154
0.409984865
0.4092350095
0.4088424396
0.4101067118
0.4090031747
0.4056755955
0.4036224191
0.4039292883
0.4037940142
0.4164278284
0.4303808452
0.4565115091
0.4998687366
0.6260383032
1.02465509
2.496424916
)
;
    }
    obstacle
    {
        type            calculated;
        value           nonuniform List<scalar> 10(3.685157677 3.71330507 3.637188832 3.534605027 3.506800078 3.451501947 3.466614828 3.472418672 3.326346696 3.312018742);
    }
    frontAndBack
    {
        type            empty;
    }
    procBoundary0to1
    {
        type            processor;
        value           nonuniform List<scalar> 
21
(
3.931207756
3.893827883
3.688249213
3.421266079
3.146145636
2.844385726
2.507483969
2.143143289
1.86123153
1.553891261
1.307542359
1.124399373
0.9539017188
0.8165576458
0.7151503573
0.6392743776
0.5906655995
0.5473206785
0.5144508247
0.4938682234
0.4671101614
)
;
    }
    procBoundary0to2
    {
        type            processor;
        value           nonuniform List<scalar> 
31
(
0.3077909109
0.4187451313
0.4143679619
0.4143581829
0.4134972836
0.412308553
0.4146612278
0.415728192
0.4117592286
0.4165322127
0.4195471633
0.4217774087
0.4185569555
0.414142018
0.4113176959
0.4124040802
0.4116900347
0.4109335176
0.4093252546
0.4104447926
0.4285113314
0.4301003446
0.4283118162
0.4276155122
0.4375128768
0.4489388744
0.4139890223
0.4181244879
0.4175294014
0.4285113314
0.4159510697
)
;
    }
}


// ************************************************************************* //
