/*--------------------------------*- C++ -*----------------------------------*\
| =========                 |                                                 |
| \\      /  F ield         | OpenFOAM: The Open Source CFD Toolbox           |
|  \\    /   O peration     | Version:  2406                                  |
|   \\  /    A nd           | Website:  www.openfoam.com                      |
|    \\/     M anipulation  |                                                 |
\*---------------------------------------------------------------------------*/
FoamFile
{
    version     2.0;
    format      ascii;
    arch        "LSB;label=32;scalar=64";
    class       volScalarField;
    location    "0.01";
    object      rhoM;
}
// * * * * * * * * * * * * * * * * * * * * * * * * * * * * * * * * * * * * * //

dimensions      [1 -3 0 0 0 0 0];

internalField   nonuniform List<scalar> 
654
(
5.049331109e-06
2.905505464e-06
6.086773598e-06
5.464641352e-06
4.980390442e-06
4.980390442e-06
4.01188862e-06
3.874007286e-06
2.974446132e-06
4.496139531e-06
2.490195221e-06
5.879951596e-06
5.049331109e-06
4.149769955e-06
3.874007286e-06
3.458697042e-06
5.948892263e-06
7.53952633e-06
4.911449774e-06
3.942947953e-06
3.043386799e-06
4.427198864e-06
5.049331109e-06
3.874007286e-06
3.942947953e-06
2.421254554e-06
4.980390442e-06
5.049331109e-06
4.980390442e-06
3.458697042e-06
2.559135888e-06
6.708905843e-06
6.502083841e-06
4.565080198e-06
3.52763771e-06
5.118271776e-06
5.53358202e-06
4.080829287e-06
6.364202506e-06
5.602522687e-06
3.52763771e-06
6.502083841e-06
3.874007286e-06
6.502083841e-06
7.885895906e-06
6.986334752e-06
2.143825645e-06
6.364202506e-06
4.01188862e-06
2.490195221e-06
4.427198864e-06
4.080829287e-06
4.01188862e-06
3.874007286e-06
3.043386799e-06
1.148247428e-05
2.559135888e-06
4.427198864e-06
3.458697042e-06
5.187212443e-06
4.01188862e-06
5.464641352e-06
6.571024508e-06
2.974446132e-06
3.458697042e-06
3.458697042e-06
5.395700685e-06
5.464641352e-06
2.905505464e-06
7.954836573e-06
3.942947953e-06
5.049331109e-06
3.52763771e-06
4.358258196e-06
5.53358202e-06
7.746348332e-06
7.401644995e-06
7.885895906e-06
2.905505464e-06
4.080829287e-06
3.043386799e-06
4.427198864e-06
5.464641352e-06
4.496139531e-06
4.427198864e-06
3.52763771e-06
5.118271776e-06
3.942947953e-06
5.53358202e-06
4.01188862e-06
4.634020865e-06
6.295261839e-06
4.911449774e-06
4.427198864e-06
4.842509107e-06
2.490195221e-06
5.395700685e-06
3.389756375e-06
6.433143174e-06
6.571024508e-06
4.01188862e-06
6.01783293e-06
3.112327466e-06
2.974446132e-06
5.049331109e-06
9.407589305e-06
4.565080198e-06
1.937003643e-06
5.602522687e-06
5.602522687e-06
3.458697042e-06
6.01783293e-06
4.358258196e-06
3.52763771e-06
6.155714265e-06
4.565080198e-06
6.01783293e-06
6.77951275e-06
6.502083841e-06
3.043386799e-06
4.01188862e-06
5.948892263e-06
2.905505464e-06
5.53358202e-06
7.608466997e-06
5.811010928e-06
3.596578377e-06
4.565080198e-06
3.458697042e-06
5.049331109e-06
4.565080198e-06
4.427198864e-06
3.874007286e-06
4.496139531e-06
5.464641352e-06
3.874007286e-06
5.602522687e-06
4.01188862e-06
2.143825645e-06
5.464641352e-06
4.01188862e-06
3.52763771e-06
4.565080198e-06
6.01783293e-06
6.433143174e-06
2.00594431e-06
2.421254554e-06
5.53358202e-06
4.496139531e-06
6.986334752e-06
4.842509107e-06
6.502083841e-06
2.974446132e-06
4.702961533e-06
4.565080198e-06
7.401644995e-06
4.565080198e-06
9.061219729e-06
3.52763771e-06
3.389756375e-06
4.01188862e-06
4.496139531e-06
3.942947953e-06
4.911449774e-06
4.565080198e-06
5.53358202e-06
2.00594431e-06
7.124216086e-06
4.358258196e-06
4.980390442e-06
6.502083841e-06
8.714850153e-06
3.458697042e-06
4.427198864e-06
2.974446132e-06
2.143825645e-06
2.974446132e-06
2.974446132e-06
3.52763771e-06
4.358258196e-06
4.496139531e-06
5.049331109e-06
7.470585662e-06
4.911449774e-06
5.740404021e-06
4.980390442e-06
5.811010928e-06
4.565080198e-06
2.905505464e-06
6.986334752e-06
2.974446132e-06
3.942947953e-06
3.458697042e-06
2.628076555e-06
5.464641352e-06
5.602522687e-06
5.948892263e-06
5.395700685e-06
5.602522687e-06
1.937003643e-06
2.974446132e-06
5.53358202e-06
3.458697042e-06
4.565080198e-06
4.980390442e-06
6.01783293e-06
2.974446132e-06
3.942947953e-06
2.974446132e-06
4.702961533e-06
4.980390442e-06
5.879951596e-06
5.326760018e-06
4.149769955e-06
5.879951596e-06
3.458697042e-06
3.665519044e-06
3.874007286e-06
6.986334752e-06
4.01188862e-06
3.942947953e-06
3.596578377e-06
3.458697042e-06
4.427198864e-06
6.01783293e-06
4.565080198e-06
2.974446132e-06
5.948892263e-06
5.187212443e-06
4.911449774e-06
3.52763771e-06
5.464641352e-06
2.974446132e-06
3.942947953e-06
6.433143174e-06
2.490195221e-06
1.937003643e-06
2.074884977e-06
6.571024508e-06
6.848453417e-06
5.53358202e-06
4.01188862e-06
5.049331109e-06
4.496139531e-06
4.427198864e-06
7.055275419e-06
4.565080198e-06
4.980390442e-06
3.734459711e-06
5.049331109e-06
1.521693399e-06
6.571024508e-06
8.508028151e-06
5.049331109e-06
5.464641352e-06
9.960780883e-06
4.842509107e-06
4.565080198e-06
4.496139531e-06
4.980390442e-06
2.490195221e-06
5.464641352e-06
4.911449774e-06
5.464641352e-06
4.01188862e-06
3.458697042e-06
6.502083841e-06
5.948892263e-06
1.452752732e-06
4.01188862e-06
5.811010928e-06
5.879951596e-06
7.193156754e-06
3.112327466e-06
2.074884977e-06
4.427198864e-06
6.224654932e-06
3.458697042e-06
4.911449774e-06
5.049331109e-06
4.565080198e-06
3.942947953e-06
6.01783293e-06
4.496139531e-06
4.911449774e-06
3.942947953e-06
4.496139531e-06
4.911449774e-06
6.502083841e-06
6.01783293e-06
5.118271776e-06
5.464641352e-06
6.639965176e-06
5.879951596e-06
2.974446132e-06
3.043386799e-06
4.911449774e-06
1.937003643e-06
3.52763771e-06
2.00594431e-06
5.53358202e-06
3.52763771e-06
4.496139531e-06
4.980390442e-06
3.458697042e-06
4.01188862e-06
5.602522687e-06
3.942947953e-06
4.980390442e-06
6.502083841e-06
3.52763771e-06
4.842509107e-06
1.037442489e-06
4.427198864e-06
4.980390442e-06
6.986334752e-06
5.049331109e-06
4.427198864e-06
4.496139531e-06
2.490195221e-06
3.043386799e-06
3.458697042e-06
4.565080198e-06
4.01188862e-06
5.118271776e-06
4.01188862e-06
2.974446132e-06
5.049331109e-06
5.118271776e-06
4.01188862e-06
4.01188862e-06
3.596578377e-06
8.232265482e-06
6.502083841e-06
2.490195221e-06
6.295261839e-06
4.911449774e-06
4.496139531e-06
5.53358202e-06
1.452752732e-06
3.458697042e-06
4.01188862e-06
3.942947953e-06
6.01783293e-06
5.464641352e-06
4.427198864e-06
6.433143174e-06
4.080829287e-06
4.427198864e-06
8.370146817e-06
3.596578377e-06
5.948892263e-06
4.080829287e-06
3.458697042e-06
5.53358202e-06
5.948892263e-06
5.395700685e-06
4.01188862e-06
6.917394084e-06
5.602522687e-06
3.52763771e-06
5.464641352e-06
4.496139531e-06
4.911449774e-06
3.596578377e-06
4.634020865e-06
5.948892263e-06
8.508028151e-06
3.52763771e-06
4.358258196e-06
5.602522687e-06
4.911449774e-06
4.911449774e-06
2.00594431e-06
5.118271776e-06
5.464641352e-06
7.263763661e-06
4.496139531e-06
3.389756375e-06
5.118271776e-06
4.01188862e-06
4.911449774e-06
6.01783293e-06
4.980390442e-06
4.565080198e-06
6.433143174e-06
5.395700685e-06
1.521693399e-06
2.00594431e-06
6.571024508e-06
3.389756375e-06
4.427198864e-06
4.427198864e-06
6.155714265e-06
2.974446132e-06
7.124216086e-06
5.53358202e-06
4.911449774e-06
7.193156754e-06
7.055275419e-06
3.458697042e-06
3.665519044e-06
4.911449774e-06
5.53358202e-06
3.52763771e-06
3.874007286e-06
3.043386799e-06
8.161658575e-06
3.52763771e-06
2.559135888e-06
4.01188862e-06
5.118271776e-06
5.879951596e-06
4.496139531e-06
3.458697042e-06
5.395700685e-06
4.980390442e-06
5.53358202e-06
6.086773598e-06
5.395700685e-06
2.559135888e-06
6.433143174e-06
2.974446132e-06
8.092717908e-06
3.596578377e-06
5.326760018e-06
5.740404021e-06
6.364202506e-06
2.559135888e-06
4.080829287e-06
5.187212443e-06
4.565080198e-06
4.01188862e-06
5.879951596e-06
7.608466997e-06
4.911449774e-06
5.602522687e-06
3.942947953e-06
4.980390442e-06
6.502083841e-06
9.024167986e-06
1.174175054e-05
1.06973655e-05
1.403127236e-05
1.420263227e-05
2.01958426e-05
1.266654279e-05
1.392519182e-05
1.710833107e-05
1.346083516e-05
8.330644354e-06
1.041482666e-05
1.027481109e-05
1.43861406e-05
1.441601666e-05
1.344001806e-05
7.454945995e-06
1.80063616e-05
1.057378391e-05
1.138966334e-05
4.928867033e-06
6.220021455e-06
6.192943924e-06
1.282711034e-05
1.327452842e-05
1.329675597e-05
9.481871811e-06
8.894193022e-06
1.541980674e-05
1.16863086e-05
6.732697341e-06
3.564490051e-06
9.782113491e-06
5.598723923e-06
1.063419217e-05
7.76212169e-06
7.889536327e-06
1.545453294e-05
1.160188895e-05
1.213038565e-05
6.941924935e-06
4.543109563e-06
8.093591139e-06
8.646152236e-06
7.350264587e-06
8.193639222e-06
8.612691153e-06
8.821534503e-06
1.167507234e-05
1.412605993e-05
4.512083993e-06
4.543109563e-06
8.586288732e-06
5.598723923e-06
6.637264201e-06
1.049275767e-05
7.817395193e-06
1.071592428e-05
5.506442123e-06
7.914326123e-06
8.538199797e-06
6.98965835e-06
7.671036725e-06
4.747723014e-06
5.709160344e-06
5.53463428e-06
7.310663748e-06
5.831998623e-06
1.101465304e-05
7.988042017e-06
7.358707975e-06
5.591389955e-06
4.997119175e-06
6.661621505e-06
6.637264201e-06
6.684193505e-06
5.139455679e-06
4.665950118e-06
7.489468806e-06
4.73385249e-06
4.164486101e-06
6.639670339e-06
3.519026376e-06
2.976796081e-06
6.137648213e-06
4.671599223e-06
6.876073411e-06
8.456485809e-06
6.829049507e-06
9.097343826e-06
7.427893128e-06
2.585870535e-06
4.504421576e-06
4.606458566e-06
7.849880578e-06
4.168450655e-06
7.527087119e-06
5.32163289e-06
5.433258737e-06
3.180473627e-06
5.831618261e-06
5.102080194e-06
3.941580789e-06
4.535826344e-06
5.06728809e-06
4.096819608e-06
3.61926131e-06
5.7593401e-06
3.084315104e-06
6.434663154e-06
7.14948038e-06
5.661050828e-06
4.081867162e-06
6.02422438e-06
4.63880022e-06
6.324307026e-06
5.646187155e-06
3.134852938e-06
5.433258763e-06
7.914326151e-06
5.691575815e-06
6.570009484e-06
3.589169575e-06
5.173223469e-06
4.496543948e-06
4.24008169e-06
4.632724214e-06
7.290437242e-06
6.388180354e-06
4.289775436e-06
3.956930643e-06
4.473448663e-06
4.292296685e-06
4.747722995e-06
5.56690409e-06
4.0968196e-06
4.270274991e-06
7.800803026e-06
5.947311229e-06
5.546509006e-06
8.121416801e-06
5.45206822e-06
7.038052751e-06
4.535826359e-06
6.708392383e-06
4.814861334e-06
6.659650055e-06
6.852730128e-06
7.269918655e-06
2.736396573e-06
5.067237323e-06
2.58587054e-06
3.026328797e-06
6.024224405e-06
4.139184227e-06
3.522040011e-06
3.040388738e-06
8.601802775e-06
5.360075323e-06
2.218603618e-06
4.859681878e-07
4.68243129e-06
5.559959918e-06
3.684825416e-06
5.067288093e-06
4.168450643e-06
8.251985548e-06
4.300901448e-06
4.699656061e-06
3.624550681e-06
3.470962463e-06
5.032419334e-06
6.755784753e-06
1.062897579e-06
3.639568205e-06
3.090522461e-06
1.592335481e-06
6.197047309e-06
4.772839451e-06
5.695722499e-06
4.998052208e-06
3.005519426e-06
7.038052751e-06
8.079387355e-06
2.56920811e-06
4.240081687e-06
4.704865354e-06
1.531097197e-06
7.416285384e-06
3.845698409e-06
4.928867026e-06
4.612770449e-06
5.63010314e-06
2.551295614e-06
5.495775963e-06
4.240081717e-06
1.085604036e-06
4.665950111e-06
7.930337955e-06
5.251645445e-06
5.96998855e-06
7.687950696e-06
3.941580789e-06
3.614193218e-06
5.56690409e-06
4.240081687e-06
5.355879057e-06
4.373559968e-06
5.947311271e-06
4.216059536e-06
4.026115799e-06
6.500348567e-06
4.081867159e-06
4.1103259e-06
)
;

boundaryField
{
    flow
    {
        type            zeroGradient;
    }
    obstacle
    {
        type            calculated;
        value           nonuniform List<scalar> 10(1.18830598e-23 1.80039077e-24 4.991147567e-24 1.694979875e-23 1e-300 8.714921872e-24 1e-300 1.083305505e-23 8.130102442e-24 1.271822698e-23);
    }
    frontAndBack
    {
        type            empty;
    }
    procBoundary0to1
    {
        type            processor;
        value           nonuniform List<scalar> 
21
(
2.101024668e-05
1.38583187e-05
1.34852429e-05
9.537100466e-06
1.080304556e-05
1.199473446e-05
7.077671777e-06
5.811726681e-06
6.92915935e-06
9.685612898e-06
7.151927993e-06
1.065453317e-05
5.88598288e-06
8.120848202e-06
5.29013848e-06
5.290138442e-06
4.469730644e-06
3.129529358e-06
3.725373801e-06
3.725373774e-06
1.005868873e-05
)
;
    }
    procBoundary0to2
    {
        type            processor;
        value           nonuniform List<scalar> 
31
(
4.496139531e-06
3.043386799e-06
5.53358202e-06
3.458697042e-06
5.948892263e-06
3.458697042e-06
2.905505464e-06
3.458697042e-06
9.753958881e-06
6.01783293e-06
5.395700685e-06
5.049331109e-06
4.980390442e-06
5.879951596e-06
4.01188862e-06
6.433143174e-06
5.53358202e-06
4.080829287e-06
3.874007286e-06
6.086773598e-06
6.20877634e-06
5.31800987e-06
3.547120169e-06
4.228242898e-06
3.817917805e-06
5.916870199e-06
2.915809127e-06
5.102080207e-06
2.956185592e-06
6.20877634e-06
6.590989264e-06
)
;
    }
}


// ************************************************************************* //
