/*--------------------------------*- C++ -*----------------------------------*\
| =========                 |                                                 |
| \\      /  F ield         | OpenFOAM: The Open Source CFD Toolbox           |
|  \\    /   O peration     | Version:  2406                                  |
|   \\  /    A nd           | Website:  www.openfoam.com                      |
|    \\/     M anipulation  |                                                 |
\*---------------------------------------------------------------------------*/
FoamFile
{
    version     2.0;
    format      ascii;
    arch        "LSB;label=32;scalar=64";
    class       volScalarField;
    location    "0.01";
    object      rhoMMean;
}
// * * * * * * * * * * * * * * * * * * * * * * * * * * * * * * * * * * * * * //

dimensions      [1 -3 0 0 0 0 0];

internalField   nonuniform List<scalar> 
654
(
3.664089077e-06
4.710114408e-06
4.730863924e-06
4.726269935e-06
4.743756121e-06
4.741070226e-06
4.731500178e-06
4.750272326e-06
4.732432981e-06
4.714737973e-06
4.726881612e-06
4.727281801e-06
4.718640223e-06
4.733420603e-06
4.749192061e-06
4.778073327e-06
4.782393553e-06
4.863545675e-06
5.131025341e-06
6.531058916e-06
3.704858672e-06
4.763045761e-06
4.807259265e-06
4.783657063e-06
4.780127759e-06
4.797737371e-06
4.788344903e-06
4.787199155e-06
4.784607111e-06
4.780765679e-06
4.793743936e-06
4.800983456e-06
4.822080009e-06
4.83577425e-06
4.837550586e-06
4.888524149e-06
4.931384749e-06
5.076105956e-06
5.390854177e-06
6.25566736e-06
3.729024854e-06
4.812859122e-06
4.815719597e-06
4.7942114e-06
4.795870975e-06
4.800643543e-06
4.811711707e-06
4.798551871e-06
4.810200803e-06
4.80271343e-06
4.812892488e-06
4.806750562e-06
4.778566159e-06
4.805281022e-06
4.818302977e-06
4.81682498e-06
4.859891736e-06
4.956521433e-06
5.185787517e-06
5.700934802e-06
3.731891661e-06
4.775344735e-06
4.823292698e-06
4.815987237e-06
4.798970514e-06
4.79207124e-06
4.795486906e-06
4.79966192e-06
4.783464029e-06
4.803038888e-06
4.782124247e-06
4.80233636e-06
4.816319485e-06
4.77562183e-06
4.792838044e-06
4.787527738e-06
4.821423635e-06
4.902099962e-06
5.080950132e-06
5.452914357e-06
3.726990334e-06
4.784633354e-06
4.76816949e-06
4.778958225e-06
4.78680409e-06
4.784692173e-06
4.777369924e-06
4.767106804e-06
4.765959056e-06
4.768408554e-06
4.758833507e-06
4.759223241e-06
4.778726493e-06
4.780517159e-06
4.790994099e-06
4.840757639e-06
4.86213262e-06
4.946065821e-06
5.067610925e-06
5.248932503e-06
3.701911469e-06
4.74812171e-06
4.79869775e-06
4.761868771e-06
4.762642573e-06
4.751729078e-06
4.746225071e-06
4.773134634e-06
4.771413575e-06
4.784119403e-06
4.778614063e-06
4.770830808e-06
4.742126788e-06
4.74204406e-06
4.785631099e-06
4.7894305e-06
4.816749708e-06
4.874312416e-06
4.932674044e-06
5.066049658e-06
3.727408976e-06
4.789479196e-06
4.819070655e-06
4.809473364e-06
4.847695945e-06
4.831494721e-06
4.83170121e-06
4.81932963e-06
4.838475391e-06
4.859779098e-06
4.847066481e-06
4.84415052e-06
4.871464271e-06
4.842502734e-06
4.853420228e-06
4.826348873e-06
4.859440393e-06
4.888751424e-06
4.963422706e-06
5.051441401e-06
3.712217286e-06
4.762022107e-06
4.784883207e-06
4.76988755e-06
4.772471929e-06
4.781061686e-06
4.792607769e-06
4.801008158e-06
4.802998982e-06
4.783300029e-06
4.782056765e-06
4.764668762e-06
4.782335193e-06
4.796801236e-06
4.80472004e-06
4.823520764e-06
4.845461725e-06
4.865425318e-06
4.904261908e-06
4.941018281e-06
3.73256728e-06
4.811422156e-06
4.836224592e-06
4.835464579e-06
4.807297297e-06
4.797115239e-06
4.811879498e-06
4.81659658e-06
4.783093416e-06
4.782205643e-06
4.814978037e-06
4.830271701e-06
4.799518707e-06
4.794319706e-06
4.779239653e-06
4.807013744e-06
4.843832601e-06
4.867226648e-06
4.885926856e-06
4.962898965e-06
3.718342092e-06
4.738708123e-06
4.793910394e-06
4.791211377e-06
4.79945843e-06
4.807068897e-06
4.791575534e-06
4.796421042e-06
4.819046744e-06
4.82312924e-06
4.802045476e-06
4.807210444e-06
4.827866443e-06
4.82776526e-06
4.830256455e-06
4.844418826e-06
4.854167786e-06
4.830708131e-06
4.865599107e-06
4.871562787e-06
3.73391206e-06
4.79352066e-06
4.792314428e-06
4.783989311e-06
4.761418886e-06
4.740336789e-06
4.736505146e-06
4.747018452e-06
4.741445838e-06
4.765889116e-06
4.798932149e-06
4.794668741e-06
4.81780048e-06
4.825674921e-06
4.815292498e-06
4.770996599e-06
4.776174022e-06
4.82327691e-06
4.863463071e-06
4.896249919e-06
3.72151557e-06
4.805516295e-06
4.836552175e-06
4.828870769e-06
4.861854316e-06
4.856911958e-06
4.866555612e-06
4.871491972e-06
4.876512394e-06
4.833125387e-06
4.802731217e-06
4.770982144e-06
4.745275481e-06
4.781755092e-06
4.799547616e-06
4.850751787e-06
4.884737203e-06
4.85817401e-06
4.854396519e-06
4.870503225e-06
3.725800222e-06
4.781250263e-06
4.796343437e-06
4.784637687e-06
4.760026285e-06
4.763280159e-06
4.784445319e-06
4.766794009e-06
4.75581124e-06
4.761892682e-06
4.797761949e-06
4.817958273e-06
4.833941886e-06
4.819804425e-06
4.78643381e-06
4.799536494e-06
4.808231099e-06
4.824869877e-06
4.851348009e-06
4.848342321e-06
3.74024902e-06
4.800814666e-06
4.842718553e-06
4.849031602e-06
4.863720255e-06
4.856996228e-06
4.832177671e-06
4.841733931e-06
4.843787904e-06
4.83711903e-06
4.822279707e-06
4.826869698e-06
4.820384068e-06
4.8220174e-06
4.826225321e-06
4.798600775e-06
4.780582642e-06
4.761727432e-06
4.773690159e-06
4.803725837e-06
3.697123112e-06
4.775801409e-06
4.79013157e-06
4.770264828e-06
4.787023242e-06
4.805754359e-06
4.818831799e-06
4.813613678e-06
4.828665821e-06
4.838888576e-06
4.830421246e-06
4.823115118e-06
4.834857901e-06
4.799653464e-06
4.800618966e-06
4.792395157e-06
4.79870654e-06
4.803485107e-06
4.797320603e-06
4.789398008e-06
3.741419678e-06
4.805042166e-06
4.820533197e-06
4.81223599e-06
4.779173045e-06
4.781382479e-06
4.793262476e-06
4.777648686e-06
4.782905172e-06
4.769766456e-06
4.765228285e-06
4.764616942e-06
4.719821671e-06
4.742591919e-06
4.762208476e-06
4.782148491e-06
4.798028255e-06
4.792311762e-06
4.806827625e-06
4.780890897e-06
3.720368156e-06
4.744742077e-06
4.765101859e-06
4.772273105e-06
4.775871683e-06
4.784188343e-06
4.752426149e-06
4.755683481e-06
4.751353799e-06
4.74899582e-06
4.757390544e-06
4.775160157e-06
4.785090362e-06
4.811088908e-06
4.782102461e-06
4.7798063e-06
4.789048098e-06
4.800644876e-06
4.785843919e-06
4.785252029e-06
3.703515224e-06
4.773877527e-06
4.800854698e-06
4.816729796e-06
4.809618035e-06
4.784215378e-06
4.808066433e-06
4.8002269e-06
4.800321418e-06
4.79816547e-06
4.797586368e-06
4.789656109e-06
4.797556126e-06
4.78942271e-06
4.797485186e-06
4.793007833e-06
4.80736857e-06
4.787597678e-06
4.812165049e-06
4.811387249e-06
3.728503571e-06
4.800855697e-06
4.80628943e-06
4.772754023e-06
4.781954124e-06
4.800724939e-06
4.790934281e-06
4.798960725e-06
4.787867651e-06
4.781763423e-06
4.783866551e-06
4.796027976e-06
4.767156499e-06
4.779456806e-06
4.774791876e-06
4.769504481e-06
4.783877007e-06
4.777759657e-06
4.764159934e-06
4.762190022e-06
3.712755356e-06
4.788042564e-06
4.857763698e-06
4.850143776e-06
4.839216492e-06
4.844183428e-06
4.832055577e-06
4.811229789e-06
4.827854112e-06
4.830577373e-06
4.83042537e-06
4.83754892e-06
4.844065791e-06
4.820784049e-06
4.823496187e-06
4.810284531e-06
4.814239934e-06
4.822388805e-06
4.849413671e-06
4.839922353e-06
3.715565678e-06
4.759417608e-06
4.749525434e-06
4.761422552e-06
4.766932224e-06
4.78353297e-06
4.778399244e-06
4.749954866e-06
4.764482726e-06
4.781158078e-06
4.794333035e-06
4.7968149e-06
4.798003345e-06
4.825680711e-06
4.845090112e-06
4.859339544e-06
4.854027572e-06
4.856586708e-06
4.849005484e-06
4.834439925e-06
3.714524236e-06
4.77154979e-06
4.793226777e-06
4.762209142e-06
4.779034164e-06
4.760730479e-06
4.79958998e-06
4.817534174e-06
4.852604728e-06
4.835765585e-06
4.81295064e-06
4.797248788e-06
4.804990013e-06
4.811640434e-06
4.800019412e-06
4.801071642e-06
4.792092485e-06
4.784043131e-06
4.804231999e-06
4.804121694e-06
1.163374659e-05
1.337614838e-05
1.401182061e-05
1.442882371e-05
1.45433366e-05
1.4784993e-05
1.492166633e-05
1.5105139e-05
1.468007323e-05
1.476193122e-05
7.943682956e-06
9.502880636e-06
1.064087523e-05
1.144079737e-05
1.211005761e-05
1.252416981e-05
1.277350908e-05
1.305148868e-05
1.318966681e-05
1.31535754e-05
6.600801937e-06
7.667309095e-06
8.548224505e-06
9.464118434e-06
1.016088367e-05
1.083213885e-05
1.136798478e-05
1.180753997e-05
1.206064622e-05
1.230335701e-05
5.933976288e-06
6.549242701e-06
7.243993274e-06
8.040389031e-06
8.711696419e-06
9.388123315e-06
1.005254703e-05
1.05616077e-05
1.098593747e-05
1.141819763e-05
5.556959115e-06
6.002222547e-06
6.478691964e-06
7.035039137e-06
7.645241826e-06
8.185291154e-06
8.781838941e-06
9.253976367e-06
9.919483988e-06
1.05344737e-05
5.283528289e-06
5.575491698e-06
5.886837073e-06
6.317702374e-06
6.752316288e-06
7.336959195e-06
7.964495869e-06
8.457620543e-06
8.997694331e-06
9.494472812e-06
5.201943197e-06
5.389639015e-06
5.589180593e-06
5.934836473e-06
6.244519621e-06
6.658060254e-06
7.111747743e-06
7.582665522e-06
8.133158957e-06
8.643657337e-06
5.03522417e-06
5.189397723e-06
5.352716727e-06
5.586401822e-06
5.820013586e-06
6.094051564e-06
6.474676283e-06
6.869959685e-06
7.321738842e-06
7.778516887e-06
5.012216283e-06
5.100921171e-06
5.192861167e-06
5.338416233e-06
5.535777261e-06
5.762938167e-06
6.005601007e-06
6.289892086e-06
6.664158529e-06
7.063601068e-06
4.948234405e-06
5.029871588e-06
5.130784198e-06
5.207831465e-06
5.33007609e-06
5.494758468e-06
5.723609206e-06
5.931203756e-06
6.151343231e-06
6.444230899e-06
4.933826542e-06
4.960737903e-06
5.0529726e-06
5.154024265e-06
5.246245812e-06
5.33764276e-06
5.46307147e-06
5.662043406e-06
5.81822442e-06
6.062178937e-06
4.877968418e-06
4.891219849e-06
4.904553057e-06
4.967492586e-06
5.008358243e-06
5.114762013e-06
5.22316198e-06
5.400940642e-06
5.584483375e-06
5.735338384e-06
4.865521612e-06
4.904110782e-06
4.906909419e-06
4.946234296e-06
4.987204546e-06
5.0688797e-06
5.176664709e-06
5.208911648e-06
5.282894528e-06
5.479718164e-06
4.828355669e-06
4.842693421e-06
4.886758648e-06
4.903329323e-06
4.932171084e-06
4.944216102e-06
4.986178213e-06
5.085786973e-06
5.195910342e-06
5.290161542e-06
4.800757399e-06
4.79554669e-06
4.817555203e-06
4.843655371e-06
4.842345791e-06
4.916174075e-06
4.937806862e-06
4.992277689e-06
5.051471172e-06
5.125910973e-06
4.821810805e-06
4.836753559e-06
4.826303087e-06
4.837684921e-06
4.89076927e-06
4.903494731e-06
4.933906839e-06
4.959105602e-06
5.015564889e-06
5.066397967e-06
4.779587799e-06
4.816116103e-06
4.802415728e-06
4.820267494e-06
4.803879452e-06
4.836303393e-06
4.873346436e-06
4.910246746e-06
4.91819984e-06
5.000950719e-06
4.823341574e-06
4.776744399e-06
4.801079343e-06
4.800772616e-06
4.85150505e-06
4.865787207e-06
4.863470653e-06
4.888519883e-06
4.908677288e-06
4.933139084e-06
4.789467888e-06
4.837620047e-06
4.845469733e-06
4.867403332e-06
4.853072309e-06
4.835571718e-06
4.840211778e-06
4.838422822e-06
4.8570888e-06
4.906273437e-06
4.830985717e-06
4.83462665e-06
4.839354052e-06
4.815792612e-06
4.826584839e-06
4.848305154e-06
4.870673945e-06
4.903749284e-06
4.876231885e-06
4.882357558e-06
4.826901244e-06
4.821790076e-06
4.813149999e-06
4.810437143e-06
4.802691032e-06
4.804292151e-06
4.79718764e-06
4.817183431e-06
4.871253071e-06
4.880060829e-06
4.80487265e-06
4.780726359e-06
4.795201439e-06
4.821234953e-06
)
;

boundaryField
{
    flow
    {
        type            calculated;
        value           nonuniform List<scalar> 
42
(
3.664089077e-06
3.704858672e-06
3.729024854e-06
3.731891661e-06
3.726990334e-06
3.701911469e-06
3.727408976e-06
3.712217286e-06
3.73256728e-06
3.718342092e-06
3.73391206e-06
3.72151557e-06
3.725800222e-06
3.74024902e-06
3.697123112e-06
3.741419678e-06
3.720368156e-06
3.703515224e-06
3.728503571e-06
3.712755356e-06
3.715565678e-06
3.714524236e-06
3.664089077e-06
4.710114408e-06
4.730863924e-06
4.726269935e-06
4.743756121e-06
4.741070226e-06
4.731500178e-06
4.750272326e-06
4.732432981e-06
4.714737973e-06
4.726881612e-06
4.727281801e-06
4.718640223e-06
4.733420603e-06
4.749192061e-06
4.778073327e-06
4.782393553e-06
4.863545675e-06
5.131025341e-06
6.531058916e-06
)
;
    }
    obstacle
    {
        type            calculated;
        value           nonuniform List<scalar> 10(6.700699647e-24 6.929959967e-24 7.094552814e-24 6.87742927e-24 7.161289413e-24 6.809453889e-24 6.876043492e-24 6.960222881e-24 6.678176991e-24 6.609752537e-24);
    }
    frontAndBack
    {
        type            empty;
    }
    procBoundary0to1
    {
        type            processor;
        value           nonuniform List<scalar> 
21
(
1.467274162e-05
1.326210868e-05
1.238786767e-05
1.156933216e-05
1.087653705e-05
1.009112019e-05
9.124861182e-06
8.2206755e-06
7.541394852e-06
6.804758557e-06
6.357243578e-06
5.950145314e-06
5.625084406e-06
5.366252902e-06
5.251095952e-06
5.106466029e-06
5.047851357e-06
4.975153481e-06
4.942400836e-06
4.912643217e-06
4.854479143e-06
)
;
    }
    procBoundary0to2
    {
        type            processor;
        value           nonuniform List<scalar> 
31
(
3.712634262e-06
4.784143313e-06
4.830292488e-06
4.80604091e-06
4.802968281e-06
4.801140249e-06
4.803744082e-06
4.790541549e-06
4.761948834e-06
4.804404246e-06
4.817920241e-06
4.837414038e-06
4.828437213e-06
4.794682196e-06
4.78844342e-06
4.786643298e-06
4.793936304e-06
4.793812877e-06
4.763247918e-06
4.752237239e-06
4.831547734e-06
4.833971337e-06
4.843838329e-06
4.831628218e-06
4.84336759e-06
4.870752226e-06
4.767010315e-06
4.784403812e-06
4.793701519e-06
4.831547734e-06
4.764885985e-06
)
;
    }
}


// ************************************************************************* //
