/*--------------------------------*- C++ -*----------------------------------*\
| =========                 |                                                 |
| \\      /  F ield         | OpenFOAM: The Open Source CFD Toolbox           |
|  \\    /   O peration     | Version:  2406                                  |
|   \\  /    A nd           | Website:  www.openfoam.com                      |
|    \\/     M anipulation  |                                                 |
\*---------------------------------------------------------------------------*/
FoamFile
{
    version     2.0;
    format      ascii;
    arch        "LSB;label=32;scalar=64";
    class       volScalarField;
    location    "0.01";
    object      rhoN;
}
// * * * * * * * * * * * * * * * * * * * * * * * * * * * * * * * * * * * * * //

dimensions      [0 -3 0 0 0 0 0];

internalField   nonuniform List<scalar> 
654
(
1.041399808e+20
6.248398848e+19
1.24967977e+20
1.145539789e+20
1.041399808e+20
1.041399808e+20
8.331198464e+19
8.331198464e+19
6.248398848e+19
9.372598272e+19
5.20699904e+19
1.24967977e+20
1.041399808e+20
8.331198464e+19
8.331198464e+19
7.289798656e+19
1.24967977e+20
1.562099712e+20
1.041399808e+20
8.331198464e+19
6.248398848e+19
9.372598272e+19
1.041399808e+20
8.331198464e+19
8.331198464e+19
5.20699904e+19
1.041399808e+20
1.041399808e+20
1.041399808e+20
7.289798656e+19
5.20699904e+19
1.35381975e+20
1.35381975e+20
9.372598272e+19
7.289798656e+19
1.041399808e+20
1.145539789e+20
8.331198464e+19
1.35381975e+20
1.145539789e+20
7.289798656e+19
1.35381975e+20
8.331198464e+19
1.35381975e+20
1.666239693e+20
1.457959731e+20
4.165599232e+19
1.35381975e+20
8.331198464e+19
5.20699904e+19
9.372598272e+19
8.331198464e+19
8.331198464e+19
8.331198464e+19
6.248398848e+19
2.395219558e+20
5.20699904e+19
9.372598272e+19
7.289798656e+19
1.041399808e+20
8.331198464e+19
1.145539789e+20
1.35381975e+20
6.248398848e+19
7.289798656e+19
7.289798656e+19
1.145539789e+20
1.145539789e+20
6.248398848e+19
1.666239693e+20
8.331198464e+19
1.041399808e+20
7.289798656e+19
9.372598272e+19
1.145539789e+20
1.562099712e+20
1.562099712e+20
1.666239693e+20
6.248398848e+19
8.331198464e+19
6.248398848e+19
9.372598272e+19
1.145539789e+20
9.372598272e+19
9.372598272e+19
7.289798656e+19
1.041399808e+20
8.331198464e+19
1.145539789e+20
8.331198464e+19
9.372598272e+19
1.35381975e+20
1.041399808e+20
9.372598272e+19
1.041399808e+20
5.20699904e+19
1.145539789e+20
7.289798656e+19
1.35381975e+20
1.35381975e+20
8.331198464e+19
1.24967977e+20
6.248398848e+19
6.248398848e+19
1.041399808e+20
1.978659635e+20
9.372598272e+19
4.165599232e+19
1.145539789e+20
1.145539789e+20
7.289798656e+19
1.24967977e+20
9.372598272e+19
7.289798656e+19
1.24967977e+20
9.372598272e+19
1.24967977e+20
1.457959731e+20
1.35381975e+20
6.248398848e+19
8.331198464e+19
1.24967977e+20
6.248398848e+19
1.145539789e+20
1.562099712e+20
1.24967977e+20
7.289798656e+19
9.372598272e+19
7.289798656e+19
1.041399808e+20
9.372598272e+19
9.372598272e+19
8.331198464e+19
9.372598272e+19
1.145539789e+20
8.331198464e+19
1.145539789e+20
8.331198464e+19
4.165599232e+19
1.145539789e+20
8.331198464e+19
7.289798656e+19
9.372598272e+19
1.24967977e+20
1.35381975e+20
4.165599232e+19
5.20699904e+19
1.145539789e+20
9.372598272e+19
1.457959731e+20
1.041399808e+20
1.35381975e+20
6.248398848e+19
9.372598272e+19
9.372598272e+19
1.562099712e+20
9.372598272e+19
1.874519654e+20
7.289798656e+19
7.289798656e+19
8.331198464e+19
9.372598272e+19
8.331198464e+19
1.041399808e+20
9.372598272e+19
1.145539789e+20
4.165599232e+19
1.457959731e+20
9.372598272e+19
1.041399808e+20
1.35381975e+20
1.770379674e+20
7.289798656e+19
9.372598272e+19
6.248398848e+19
4.165599232e+19
6.248398848e+19
6.248398848e+19
7.289798656e+19
9.372598272e+19
9.372598272e+19
1.041399808e+20
1.562099712e+20
1.041399808e+20
1.145539789e+20
1.041399808e+20
1.24967977e+20
9.372598272e+19
6.248398848e+19
1.457959731e+20
6.248398848e+19
8.331198464e+19
7.289798656e+19
5.20699904e+19
1.145539789e+20
1.145539789e+20
1.24967977e+20
1.145539789e+20
1.145539789e+20
4.165599232e+19
6.248398848e+19
1.145539789e+20
7.289798656e+19
9.372598272e+19
1.041399808e+20
1.24967977e+20
6.248398848e+19
8.331198464e+19
6.248398848e+19
9.372598272e+19
1.041399808e+20
1.24967977e+20
1.145539789e+20
8.331198464e+19
1.24967977e+20
7.289798656e+19
7.289798656e+19
8.331198464e+19
1.457959731e+20
8.331198464e+19
8.331198464e+19
7.289798656e+19
7.289798656e+19
9.372598272e+19
1.24967977e+20
9.372598272e+19
6.248398848e+19
1.24967977e+20
1.041399808e+20
1.041399808e+20
7.289798656e+19
1.145539789e+20
6.248398848e+19
8.331198464e+19
1.35381975e+20
5.20699904e+19
4.165599232e+19
4.165599232e+19
1.35381975e+20
1.457959731e+20
1.145539789e+20
8.331198464e+19
1.041399808e+20
9.372598272e+19
9.372598272e+19
1.457959731e+20
9.372598272e+19
1.041399808e+20
7.289798656e+19
1.041399808e+20
3.124199424e+19
1.35381975e+20
1.770379674e+20
1.041399808e+20
1.145539789e+20
2.082799616e+20
1.041399808e+20
9.372598272e+19
9.372598272e+19
1.041399808e+20
5.20699904e+19
1.145539789e+20
1.041399808e+20
1.145539789e+20
8.331198464e+19
7.289798656e+19
1.35381975e+20
1.24967977e+20
3.124199424e+19
8.331198464e+19
1.24967977e+20
1.24967977e+20
1.457959731e+20
6.248398848e+19
4.165599232e+19
9.372598272e+19
1.24967977e+20
7.289798656e+19
1.041399808e+20
1.041399808e+20
9.372598272e+19
8.331198464e+19
1.24967977e+20
9.372598272e+19
1.041399808e+20
8.331198464e+19
9.372598272e+19
1.041399808e+20
1.35381975e+20
1.24967977e+20
1.041399808e+20
1.145539789e+20
1.35381975e+20
1.24967977e+20
6.248398848e+19
6.248398848e+19
1.041399808e+20
4.165599232e+19
7.289798656e+19
4.165599232e+19
1.145539789e+20
7.289798656e+19
9.372598272e+19
1.041399808e+20
7.289798656e+19
8.331198464e+19
1.145539789e+20
8.331198464e+19
1.041399808e+20
1.35381975e+20
7.289798656e+19
1.041399808e+20
2.082799616e+19
9.372598272e+19
1.041399808e+20
1.457959731e+20
1.041399808e+20
9.372598272e+19
9.372598272e+19
5.20699904e+19
6.248398848e+19
7.289798656e+19
9.372598272e+19
8.331198464e+19
1.041399808e+20
8.331198464e+19
6.248398848e+19
1.041399808e+20
1.041399808e+20
8.331198464e+19
8.331198464e+19
7.289798656e+19
1.770379674e+20
1.35381975e+20
5.20699904e+19
1.35381975e+20
1.041399808e+20
9.372598272e+19
1.145539789e+20
3.124199424e+19
7.289798656e+19
8.331198464e+19
8.331198464e+19
1.24967977e+20
1.145539789e+20
9.372598272e+19
1.35381975e+20
8.331198464e+19
9.372598272e+19
1.770379674e+20
7.289798656e+19
1.24967977e+20
8.331198464e+19
7.289798656e+19
1.145539789e+20
1.24967977e+20
1.145539789e+20
8.331198464e+19
1.457959731e+20
1.145539789e+20
7.289798656e+19
1.145539789e+20
9.372598272e+19
1.041399808e+20
7.289798656e+19
9.372598272e+19
1.24967977e+20
1.770379674e+20
7.289798656e+19
9.372598272e+19
1.145539789e+20
1.041399808e+20
1.041399808e+20
4.165599232e+19
1.041399808e+20
1.145539789e+20
1.562099712e+20
9.372598272e+19
7.289798656e+19
1.041399808e+20
8.331198464e+19
1.041399808e+20
1.24967977e+20
1.041399808e+20
9.372598272e+19
1.35381975e+20
1.145539789e+20
3.124199424e+19
4.165599232e+19
1.35381975e+20
7.289798656e+19
9.372598272e+19
9.372598272e+19
1.24967977e+20
6.248398848e+19
1.457959731e+20
1.145539789e+20
1.041399808e+20
1.457959731e+20
1.457959731e+20
7.289798656e+19
7.289798656e+19
1.041399808e+20
1.145539789e+20
7.289798656e+19
8.331198464e+19
6.248398848e+19
1.666239693e+20
7.289798656e+19
5.20699904e+19
8.331198464e+19
1.041399808e+20
1.24967977e+20
9.372598272e+19
7.289798656e+19
1.145539789e+20
1.041399808e+20
1.145539789e+20
1.24967977e+20
1.145539789e+20
5.20699904e+19
1.35381975e+20
6.248398848e+19
1.666239693e+20
7.289798656e+19
1.145539789e+20
1.145539789e+20
1.35381975e+20
5.20699904e+19
8.331198464e+19
1.041399808e+20
9.372598272e+19
8.331198464e+19
1.24967977e+20
1.562099712e+20
1.041399808e+20
1.145539789e+20
8.331198464e+19
1.041399808e+20
1.35381975e+20
1.881167181e+20
2.420241812e+20
2.22508593e+20
2.8807704e+20
3.008440407e+20
4.219955753e+20
2.615388156e+20
2.963413932e+20
3.537565711e+20
2.783833088e+20
1.776657894e+20
2.209786002e+20
2.119129458e+20
2.987465601e+20
3.008440408e+20
2.813303837e+20
1.525643092e+20
3.731706436e+20
2.210978569e+20
2.338419794e+20
1.045092878e+20
1.262734858e+20
1.271477674e+20
2.667380001e+20
2.793551809e+20
2.813303835e+20
1.961541117e+20
1.865853218e+20
3.205918926e+20
2.449773118e+20
1.358620742e+20
7.365953343e+19
2.013172985e+20
1.1736472e+20
2.256330304e+20
1.623059905e+20
1.634617599e+20
3.182926078e+20
2.432076426e+20
2.561126441e+20
1.46313003e+20
9.470511435e+19
1.695303566e+20
1.813818402e+20
1.504220205e+20
1.7312639e+20
1.743592105e+20
1.865853218e+20
2.432076428e+20
2.895186414e+20
9.405835905e+19
9.470511435e+19
1.801260038e+20
1.1736472e+20
1.396775903e+20
2.164079872e+20
1.634617596e+20
2.19512143e+20
1.105489284e+20
1.670299854e+20
1.776657893e+20
1.473190668e+20
1.589347094e+20
9.60256801e+19
1.181887304e+20
1.190243931e+20
1.525643092e+20
1.207316788e+20
2.321527498e+20
1.670299853e+20
1.567639317e+20
1.157506954e+20
1.059564729e+20
1.387037599e+20
1.396775903e+20
1.406651918e+20
1.089745066e+20
9.878046449e+19
1.547684999e+20
1.002179912e+20
8.360743026e+19
1.367962763e+20
7.416953098e+19
6.401712002e+19
1.289331604e+20
9.73835943e+19
1.416668585e+20
1.756097146e+20
1.43713607e+20
1.8930065e+20
1.567639318e+20
5.261395245e+19
9.536082561e+19
9.602568003e+19
1.611664504e+20
8.6563195e+19
1.525643092e+20
1.097560717e+20
1.105489285e+20
6.681199412e+19
1.254111454e+20
1.052279048e+20
8.476517826e+19
9.602568003e+19
1.074443003e+20
8.656319494e+19
7.628215455e+19
1.207316787e+20
6.632935708e+19
1.336239882e+20
1.46313003e+20
1.157506954e+20
8.476517832e+19
1.2803424e+20
9.669987025e+19
1.298447925e+20
1.198719577e+20
6.585364341e+19
1.10548929e+20
1.67029986e+20
1.149602166e+20
1.367962766e+20
7.416953128e+19
1.066952e+20
9.669986985e+19
8.656319482e+19
9.807705572e+19
1.53658499e+20
1.326587136e+20
8.908265883e+19
8.360742998e+19
9.470511377e+19
8.476517769e+19
9.60256797e+19
1.181887304e+20
8.656319476e+19
8.717960478e+19
1.646341072e+20
1.216038208e+20
1.113533227e+20
1.672148614e+20
1.157506956e+20
1.48339062e+20
9.602568036e+19
1.396775914e+20
9.738359478e+19
1.416668588e+20
1.426828939e+20
1.547685003e+20
5.567666177e+19
1.045092877e+20
5.261395256e+19
6.357388413e+19
1.280342405e+20
8.595544028e+19
7.574279594e+19
6.538470404e+19
1.756097132e+20
1.10548928e+20
4.454132941e+19
1.045092877e+19
9.470511396e+19
1.165521193e+20
7.468663977e+19
1.074443004e+20
8.656319476e+19
1.743592108e+20
8.780485781e+19
9.949403591e+19
7.794732648e+19
7.315650138e+19
1.052279051e+20
1.377434156e+20
2.133903993e+19
7.521100973e+19
6.492239607e+19
3.269235179e+19
1.317072858e+20
9.949403591e+19
1.224886559e+20
1.045092884e+20
6.313674307e+19
1.48339062e+20
1.707123206e+20
5.372215018e+19
8.656319476e+19
9.807705606e+19
3.292682145e+19
1.547684992e+20
7.794732703e+19
1.045092877e+20
9.47051146e+19
1.165521201e+20
5.334759983e+19
1.181887304e+20
8.656319536e+19
2.179490135e+19
9.878046435e+19
1.658233932e+20
1.113533235e+20
1.254111452e+20
1.578418566e+20
8.476517826e+19
7.468664028e+19
1.181887304e+20
8.656319476e+19
1.089745067e+20
8.780485781e+19
1.216038217e+20
8.908265883e+19
8.360743015e+19
1.367962757e+20
8.476517826e+19
8.535616032e+19
)
;

boundaryField
{
    flow
    {
        type            zeroGradient;
    }
    obstacle
    {
        type            calculated;
        value           nonuniform List<scalar> 10(245.5079958 38.71808108 107.3365068 360.3477634 1e-300 177.4853784 1e-300 212.468145 167.2808256 273.5102575);
    }
    frontAndBack
    {
        type            empty;
    }
    procBoundary0to1
    {
        type            processor;
        value           nonuniform List<scalar> 
21
(
4.374610912e+20
2.916407277e+20
2.804237764e+20
2.01905119e+20
2.243390211e+20
2.467729236e+20
1.458203637e+20
1.233864616e+20
1.458203638e+20
2.01905119e+20
1.458203637e+20
2.243390219e+20
1.233864613e+20
1.682542654e+20
1.12169511e+20
1.121695102e+20
8.973560819e+19
6.730170662e+19
7.851865773e+19
7.851865717e+19
2.13122071e+20
)
;
    }
    procBoundary0to2
    {
        type            processor;
        value           nonuniform List<scalar> 
31
(
9.372598272e+19
6.248398848e+19
1.145539789e+20
7.289798656e+19
1.24967977e+20
7.289798656e+19
6.248398848e+19
7.289798656e+19
2.082799616e+20
1.24967977e+20
1.145539789e+20
1.041399808e+20
1.041399808e+20
1.24967977e+20
8.331198464e+19
1.35381975e+20
1.145539789e+20
8.331198464e+19
8.331198464e+19
1.24967977e+20
1.289331604e+20
1.082039934e+20
7.628215418e+19
8.78048572e+19
7.738425015e+19
1.224886559e+20
6.270557261e+19
1.052279051e+20
6.35738837e+19
1.289331604e+20
1.387037596e+20
)
;
    }
}


// ************************************************************************* //
