/*--------------------------------*- C++ -*----------------------------------*\
| =========                 |                                                 |
| \\      /  F ield         | OpenFOAM: The Open Source CFD Toolbox           |
|  \\    /   O peration     | Version:  2406                                  |
|   \\  /    A nd           | Website:  www.openfoam.com                      |
|    \\/     M anipulation  |                                                 |
\*---------------------------------------------------------------------------*/
FoamFile
{
    version     2.0;
    format      ascii;
    arch        "LSB;label=32;scalar=64";
    class       volScalarField;
    location    "0.01";
    object      rhoNMean;
}
// * * * * * * * * * * * * * * * * * * * * * * * * * * * * * * * * * * * * * //

dimensions      [0 -3 0 0 0 0 0];

internalField   nonuniform List<scalar> 
654
(
7.637001352e+19
9.818733949e+19
9.860806502e+19
9.850600784e+19
9.886841497e+19
9.879968258e+19
9.862056181e+19
9.900587974e+19
9.86767974e+19
9.830189347e+19
9.853724983e+19
9.853933263e+19
9.838937106e+19
9.873095019e+19
9.906211533e+19
9.963488523e+19
9.974943921e+19
1.014427553e+20
1.069809195e+20
1.361963497e+20
7.721979576e+19
9.929955449e+19
1.002159863e+20
9.971819721e+19
9.963488523e+19
9.999312676e+19
9.9803592e+19
9.97952608e+19
9.970986601e+19
9.965779602e+19
9.993897397e+19
1.001160119e+20
1.005513171e+20
1.008262466e+20
1.00811667e+20
1.018384872e+20
1.027445051e+20
1.057666473e+20
1.123566253e+20
1.303291032e+20
7.770925367e+19
1.003138779e+20
1.003534511e+20
9.993064277e+19
9.996188477e+19
1.000597763e+20
1.002951327e+20
9.999937516e+19
1.002451455e+20
1.000701903e+20
1.002638907e+20
1.001389227e+20
9.952657965e+19
1.000889355e+20
1.003846931e+20
1.003680307e+20
1.012698829e+20
1.032672878e+20
1.080743893e+20
1.188153869e+20
7.778840006e+19
9.955782164e+19
1.005471515e+20
1.003888587e+20
1.000306172e+20
9.991189758e+19
9.997438156e+19
1.00043114e+20
9.971819721e+19
1.001222603e+20
9.970361761e+19
1.001264259e+20
1.003971899e+20
9.956615284e+19
9.987857278e+19
9.97806812e+19
1.004992471e+20
1.021488244e+20
1.058812013e+20
1.13647961e+20
7.766134928e+19
9.970153482e+19
9.935162448e+19
9.956407004e+19
9.973902521e+19
9.972444561e+19
9.954740764e+19
9.934537608e+19
9.932454808e+19
9.938078367e+19
9.917042091e+19
9.919333171e+19
9.958073244e+19
9.965571322e+19
9.990148358e+19
1.009491318e+20
1.014010993e+20
1.031548166e+20
1.056708385e+20
1.094240434e+20
7.715522897e+19
9.900796254e+19
1.000493624e+20
9.926831249e+19
9.927872649e+19
9.906211533e+19
9.896005815e+19
9.953282805e+19
9.946201286e+19
9.97640188e+19
9.965363042e+19
9.943910206e+19
9.885383537e+19
9.885383537e+19
9.973277681e+19
9.97806812e+19
1.003284575e+20
1.015177361e+20
1.027882438e+20
1.055646157e+20
7.769259127e+19
9.982650279e+19
1.004430115e+20
1.002659735e+20
1.010532718e+20
1.00707527e+20
1.007054442e+20
1.004242663e+20
1.008179154e+20
1.012553033e+20
1.009970362e+20
1.009553802e+20
1.015552265e+20
1.009116414e+20
1.011532461e+20
1.00603387e+20
1.012927937e+20
1.018801432e+20
1.033985041e+20
1.052646926e+20
7.736559173e+19
9.927872649e+19
9.971194881e+19
9.940369447e+19
9.944118486e+19
9.961197443e+19
9.981817159e+19
1.00011872e+20
1.000451968e+20
9.964113363e+19
9.962655403e+19
9.927456089e+19
9.964321643e+19
9.991606318e+19
1.001160119e+20
1.005075783e+20
1.009637114e+20
1.013844369e+20
1.022175568e+20
1.029756958e+20
7.778840006e+19
1.002951327e+20
1.007970874e+20
1.007866734e+20
1.001951583e+20
9.998271276e+19
1.003097123e+20
1.004055211e+20
9.972861121e+19
9.969528642e+19
1.003721963e+20
1.006471258e+20
1.000097892e+20
9.991814598e+19
9.959947763e+19
1.002326487e+20
1.010366094e+20
1.015260673e+20
1.0189264e+20
1.034859817e+20
7.746973171e+19
9.877260619e+19
9.994522237e+19
9.988065558e+19
1.000639419e+20
1.002326487e+20
9.991606318e+19
1.000389484e+20
1.004659223e+20
1.005596483e+20
1.001180947e+20
1.002555595e+20
1.006950302e+20
1.00665871e+20
1.007241894e+20
1.009949534e+20
1.011719913e+20
1.007033614e+20
1.014365069e+20
1.015677233e+20
7.783422165e+19
9.992231157e+19
9.988065558e+19
9.972652841e+19
9.92141597e+19
9.878302018e+19
9.87059566e+19
9.892048496e+19
9.882051058e+19
9.931829969e+19
1.000493624e+20
9.994522237e+19
1.004325975e+20
1.00613801e+20
1.003555339e+20
9.944118486e+19
9.957031844e+19
1.005346547e+20
1.013573605e+20
1.02038436e+20
7.75697061e+19
1.001805787e+20
1.007762594e+20
1.005950559e+20
1.012990421e+20
1.011740741e+20
1.013823541e+20
1.014698317e+20
1.015656405e+20
1.007304378e+20
1.000951839e+20
9.943701926e+19
9.888507737e+19
9.963696803e+19
1.000181204e+20
1.011074246e+20
1.017822516e+20
1.012198957e+20
1.011365838e+20
1.014948253e+20
7.763427288e+19
9.967029282e+19
9.998479556e+19
9.972861121e+19
9.92141597e+19
9.929955449e+19
9.973277681e+19
9.937245248e+19
9.915375852e+19
9.92454017e+19
9.997438156e+19
1.003846931e+20
1.00749183e+20
1.004617567e+20
9.975152201e+19
1.000347828e+20
1.002576423e+20
1.005804763e+20
1.011282526e+20
1.010428578e+20
7.797168642e+19
1.000951839e+20
1.00967877e+20
1.011282526e+20
1.014135961e+20
1.012698829e+20
1.007533486e+20
1.009324694e+20
1.010157814e+20
1.008720682e+20
1.005929731e+20
1.006700366e+20
1.005513171e+20
1.005908903e+20
1.006929474e+20
1.001326743e+20
9.972028001e+19
9.933287928e+19
9.955782164e+19
1.001930755e+20
7.704484059e+19
9.956823564e+19
9.985357919e+19
9.943493646e+19
9.981608879e+19
1.002034895e+20
1.005013299e+20
1.003763619e+20
1.006929474e+20
1.009012274e+20
1.007200238e+20
1.005575655e+20
1.007866734e+20
1.000764387e+20
1.000785215e+20
9.986815878e+19
1.000181204e+20
1.001535023e+20
1.000597763e+20
9.992231157e+19
7.796335522e+19
1.001472539e+20
1.004492599e+20
1.002972155e+20
9.961405723e+19
9.963488523e+19
9.985982759e+19
9.956615284e+19
9.967237562e+19
9.942243967e+19
9.932454808e+19
9.929538889e+19
9.836229466e+19
9.883092458e+19
9.92370705e+19
9.968278962e+19
1.00001458e+20
9.986399319e+19
1.001035151e+20
9.957864964e+19
7.75509609e+19
9.891215376e+19
9.930996849e+19
9.949117205e+19
9.957656684e+19
9.97640188e+19
9.911001972e+19
9.913084772e+19
9.904337014e+19
9.895589255e+19
9.911418532e+19
9.952449685e+19
9.971403161e+19
1.002805531e+20
9.965363042e+19
9.960780883e+19
9.9803592e+19
1.000681075e+20
9.97702672e+19
9.97765156e+19
7.718230537e+19
9.952241405e+19
1.000868527e+20
1.003763619e+20
1.002222347e+20
9.967445842e+19
1.001764131e+20
1.000410312e+20
1.000285344e+20
9.999729236e+19
9.999729236e+19
9.981192319e+19
9.998062996e+19
9.981817159e+19
9.996813317e+19
9.990564918e+19
1.002097379e+20
9.97869296e+19
1.002847187e+20
1.002493111e+20
7.772591607e+19
1.000931011e+20
1.001868271e+20
9.948075806e+19
9.967445842e+19
1.000514452e+20
9.987232438e+19
1.000556107e+20
9.983691679e+19
9.968903802e+19
9.973485961e+19
9.999520956e+19
9.939744607e+19
9.966404442e+19
9.954949044e+19
9.942243967e+19
9.971403161e+19
9.957031844e+19
9.928289209e+19
9.920791131e+19
7.736767453e+19
9.98098404e+19
1.012407237e+20
1.010990934e+20
1.008824822e+20
1.00988705e+20
1.007658454e+20
1.002992983e+20
1.006179666e+20
1.006617054e+20
1.006596226e+20
1.00801253e+20
1.009428834e+20
1.004659223e+20
1.005263235e+20
1.002513939e+20
1.003263747e+20
1.004992471e+20
1.01103259e+20
1.008991446e+20
7.743848972e+19
9.920166291e+19
9.899130015e+19
9.92370705e+19
9.937453528e+19
9.971819721e+19
9.960364323e+19
9.900379694e+19
9.931829969e+19
9.969736922e+19
1.00001458e+20
1.00001458e+20
1.000181204e+20
1.005638139e+20
1.00967877e+20
1.012657173e+20
1.011574117e+20
1.012094817e+20
1.01051189e+20
1.00759597e+20
7.739266813e+19
9.945159886e+19
9.989523518e+19
9.92412361e+19
9.960780883e+19
9.92204081e+19
1.000243688e+20
1.004055211e+20
1.011407493e+20
1.007720938e+20
1.002826359e+20
9.995563637e+19
1.001659991e+20
1.002805531e+20
1.000368656e+20
1.000639419e+20
9.987232438e+19
9.971819721e+19
1.001680819e+20
1.001680819e+20
2.424134735e+20
2.785992963e+20
2.919079636e+20
3.004686205e+20
3.028038247e+20
3.080243088e+20
3.109958056e+20
3.144269987e+20
3.055240736e+20
3.073819414e+20
1.655029984e+20
1.981546677e+20
2.218262334e+20
2.383954871e+20
2.523028548e+20
2.60990197e+20
2.661092066e+20
2.719162773e+20
2.747118763e+20
2.739781714e+20
1.375864774e+20
1.59881174e+20
1.780810439e+20
1.972026043e+20
2.117146961e+20
2.257676328e+20
2.368996797e+20
2.460862834e+20
2.513484657e+20
2.563242154e+20
1.237160047e+20
1.365731932e+20
1.510579052e+20
1.676523016e+20
1.815206985e+20
1.957388605e+20
2.09472976e+20
2.201201919e+20
2.288694466e+20
2.379353276e+20
1.158485456e+20
1.250717831e+20
1.350309291e+20
1.465565269e+20
1.592797286e+20
1.705554631e+20
1.829616581e+20
1.92898491e+20
2.067574501e+20
2.195798459e+20
1.100712721e+20
1.16175816e+20
1.226636895e+20
1.317493668e+20
1.408036065e+20
1.530610412e+20
1.661076607e+20
1.764350801e+20
1.876324852e+20
1.980040259e+20
1.08415845e+20
1.123602522e+20
1.165457628e+20
1.237344236e+20
1.302310876e+20
1.388603493e+20
1.482728931e+20
1.5808167e+20
1.695776343e+20
1.802119917e+20
1.049774894e+20
1.081300905e+20
1.115658086e+20
1.164578108e+20
1.213454438e+20
1.270401449e+20
1.349692854e+20
1.431965516e+20
1.526127958e+20
1.621772075e+20
1.04477935e+20
1.063433206e+20
1.082387753e+20
1.11274558e+20
1.15425263e+20
1.201973243e+20
1.253250415e+20
1.312638715e+20
1.389931678e+20
1.474073026e+20
1.031841101e+20
1.048911756e+20
1.070096802e+20
1.086263832e+20
1.111661708e+20
1.145101225e+20
1.192420846e+20
1.236204586e+20
1.282610778e+20
1.342653834e+20
1.028162374e+20
1.033969393e+20
1.052889471e+20
1.073929866e+20
1.093073844e+20
1.112856434e+20
1.138761798e+20
1.179636306e+20
1.212920733e+20
1.264506071e+20
1.017042585e+20
1.019384806e+20
1.02241639e+20
1.035583611e+20
1.043756911e+20
1.066696611e+20
1.089352761e+20
1.12622901e+20
1.164854065e+20
1.196380113e+20
1.013990914e+20
1.022225961e+20
1.023264045e+20
1.031294464e+20
1.040189756e+20
1.057131376e+20
1.079741204e+20
1.086738759e+20
1.101730616e+20
1.142752347e+20
1.007093298e+20
1.009766969e+20
1.019407218e+20
1.023164287e+20
1.028972576e+20
1.031357184e+20
1.039747556e+20
1.060550968e+20
1.083534263e+20
1.10291012e+20
1.001449805e+20
1.000170193e+20
1.004488554e+20
1.00967802e+20
1.009116876e+20
1.024735107e+20
1.029329601e+20
1.040707077e+20
1.053066986e+20
1.069014177e+20
1.00450147e+20
1.007725556e+20
1.005865995e+20
1.008226966e+20
1.019753855e+20
1.022008366e+20
1.028152676e+20
1.033682674e+20
1.045593871e+20
1.055518154e+20
9.963288433e+19
1.004000482e+20
1.000822453e+20
1.004727356e+20
1.001101524e+20
1.007595587e+20
1.015206505e+20
1.022575374e+20
1.024434813e+20
1.041554447e+20
1.005044918e+20
9.953297089e+19
1.000589362e+20
1.000288836e+20
1.010771504e+20
1.013893059e+20
1.013877009e+20
1.018821709e+20
1.022975567e+20
1.028169778e+20
9.98084606e+19
1.007893921e+20
1.009595656e+20
1.014180558e+20
1.010921933e+20
1.007530665e+20
1.00842829e+20
1.008438785e+20
1.012362863e+20
1.023337051e+20
1.007156005e+20
1.008020194e+20
1.008769195e+20
1.004044507e+20
1.006516717e+20
1.010949918e+20
1.015903942e+20
1.022465611e+20
1.016829047e+20
1.017658024e+20
1.006131814e+20
1.005094852e+20
1.003598519e+20
1.003062918e+20
1.001509812e+20
1.001817494e+20
1.000364177e+20
1.004268061e+20
1.015767777e+20
1.01785846e+20
1.00180513e+20
9.969081208e+19
9.997205124e+19
1.005154144e+20
)
;

boundaryField
{
    flow
    {
        type            calculated;
        value           nonuniform List<scalar> 
42
(
7.637001352e+19
7.721979576e+19
7.770925367e+19
7.778840006e+19
7.766134928e+19
7.715522897e+19
7.769259127e+19
7.736559173e+19
7.778840006e+19
7.746973171e+19
7.783422165e+19
7.75697061e+19
7.763427288e+19
7.797168642e+19
7.704484059e+19
7.796335522e+19
7.75509609e+19
7.718230537e+19
7.772591607e+19
7.736767453e+19
7.743848972e+19
7.739266813e+19
7.637001352e+19
9.818733949e+19
9.860806502e+19
9.850600784e+19
9.886841497e+19
9.879968258e+19
9.862056181e+19
9.900587974e+19
9.86767974e+19
9.830189347e+19
9.853724983e+19
9.853933263e+19
9.838937106e+19
9.873095019e+19
9.906211533e+19
9.963488523e+19
9.974943921e+19
1.014427553e+20
1.069809195e+20
1.361963497e+20
)
;
    }
    obstacle
    {
        type            calculated;
        value           nonuniform List<scalar> 10(139.5987063 144.2672043 147.8837647 143.2678705 149.0701276 141.9716172 143.5039122 144.8400223 139.1499021 137.6840176);
    }
    frontAndBack
    {
        type            empty;
    }
    procBoundary0to1
    {
        type            processor;
        value           nonuniform List<scalar> 
21
(
3.055362864e+20
2.762824783e+20
2.580414723e+20
2.410904158e+20
2.266138188e+20
2.104075682e+20
1.902192994e+20
1.713927687e+20
1.572863312e+20
1.417867481e+20
1.325821181e+20
1.241604317e+20
1.173113606e+20
1.119025468e+20
1.094864163e+20
1.063703466e+20
1.051835931e+20
1.036917394e+20
1.030994844e+20
1.023838422e+20
1.012284969e+20
)
;
    }
    procBoundary0to2
    {
        type            processor;
        value           nonuniform List<scalar> 
31
(
7.738641973e+19
9.974110801e+19
1.006908646e+20
1.001847443e+20
1.001118463e+20
1.000618591e+20
1.001347571e+20
9.983066839e+19
9.92516501e+19
1.001243431e+20
1.004055211e+20
1.008199982e+20
1.006429602e+20
9.994313957e+19
9.981608879e+19
9.97681844e+19
9.993480837e+19
9.993897397e+19
9.927039529e+19
9.904961854e+19
1.007290316e+20
1.007790354e+20
1.009648798e+20
1.007011956e+20
1.009201171e+20
1.014740567e+20
9.937579148e+19
9.968660363e+19
9.989152432e+19
1.007290316e+20
9.928841891e+19
)
;
    }
}


// ************************************************************************* //
