/*--------------------------------*- C++ -*----------------------------------*\
| =========                 |                                                 |
| \\      /  F ield         | OpenFOAM: The Open Source CFD Toolbox           |
|  \\    /   O peration     | Version:  2406                                  |
|   \\  /    A nd           | Website:  www.openfoam.com                      |
|    \\/     M anipulation  |                                                 |
\*---------------------------------------------------------------------------*/
FoamFile
{
    version     2.0;
    format      ascii;
    arch        "LSB;label=32;scalar=64";
    class       volScalarField;
    location    "0.01";
    object      translationalT;
}
// * * * * * * * * * * * * * * * * * * * * * * * * * * * * * * * * * * * * * //

dimensions      [1 2 -2 0 0 0 0];

internalField   nonuniform List<scalar> 
654
(
290.4072532
304.9555748
296.8366985
299.1270415
300.3493218
300.008551
300.265131
300.021441
300.2119918
298.9051528
296.6820333
296.9013214
297.2542653
305.4941021
314.6746366
331.8613755
362.9626319
446.9884197
693.7256909
1327.606724
290.9741381
305.5720145
300.6284827
301.6115092
300.7622885
301.7476403
301.8398352
302.062339
302.6377761
301.241243
300.4145918
301.8573466
309.0646366
314.3850777
320.9892723
341.8698134
387.5432238
492.2224072
745.5372629
1159.199807
292.7371928
309.5248223
300.3994266
300.874051
299.8602159
299.8427839
298.5652362
301.0891296
301.3311579
301.4161223
301.8356996
300.1566043
301.6122929
311.063175
319.349094
335.1045577
396.7907541
480.3408633
681.6185706
927.4609099
288.2512398
304.8486745
298.8884033
298.9891594
297.1303839
298.4247158
297.4127929
298.4772886
299.6336295
300.1258303
301.9672541
302.9092779
304.9085817
307.2682489
321.7534385
343.7636652
375.6177735
455.9810503
583.880476
772.1693313
290.9260428
306.6961823
299.090968
298.5391849
301.336634
301.6472038
303.1419265
302.8210734
301.385069
300.8345169
300.5484129
302.6224807
305.4187327
306.9160801
311.7012962
333.7279059
363.4444856
420.3194492
508.6011167
632.5896976
290.5474709
307.0666093
301.840421
302.5247523
300.5184763
297.6834164
298.1007392
299.9129693
299.0455582
302.1222573
301.3587369
301.6321347
303.0852052
303.8474802
316.4287028
333.5602692
354.6879516
409.5583649
459.1693613
548.2348755
291.9507279
306.1156706
298.7429037
300.3462737
302.2584771
303.075303
300.9419134
298.7258031
299.0168074
301.1508527
301.3665652
301.9307323
303.2342228
304.3769744
315.8274656
323.7660529
346.4740492
371.8652522
413.7845539
477.9388156
288.515117
305.1666325
298.904123
302.1090548
300.1036793
301.2556198
302.4683966
302.8194317
302.3602839
302.3837165
301.4751862
302.3194731
302.4020981
306.2580269
317.4540431
318.9794795
332.6892264
356.6446555
379.0577125
418.5262712
293.7012821
310.0791551
300.8018447
300.8814112
300.4214868
300.9575251
301.162899
302.6648612
301.3900071
300.4076619
301.9451474
301.3616514
303.4104749
307.5799711
310.0780276
313.0389358
329.4763814
340.6138073
363.6223663
387.4807526
290.3706717
304.2704726
298.8793218
298.6936461
298.8826378
300.2317241
299.0633422
297.4415402
300.3497158
300.2986271
302.8892437
303.3196029
305.2761422
306.7385365
306.4724128
313.2706
321.0308207
329.0972322
343.2750949
371.2759583
292.0197052
306.243035
300.650208
300.380876
300.2024025
299.5307485
299.1928479
302.069704
301.0460386
301.2507197
300.1080861
300.0915506
300.9900937
301.2942865
306.9578892
306.3285714
312.0009077
323.8300996
330.5698693
353.4945747
290.7887554
307.3241585
300.9485048
300.8196725
300.070504
298.4629247
298.5307548
296.1930896
301.0701591
300.1208368
298.9060451
298.6187363
297.7937891
300.6235896
301.1129488
306.5864291
313.6585898
320.4276261
323.6967834
337.34075
290.2723037
307.2854816
298.4610511
300.2711207
299.2562437
299.8056699
301.6865371
303.1360758
301.5326747
300.3050085
301.3312696
300.9163347
303.8789115
303.3963613
302.0610572
307.9042203
308.5801983
311.7326791
321.682329
326.1332861
289.7542492
304.6069847
299.5347006
299.7202727
299.0407565
301.538267
299.8458111
299.8659179
299.4202152
298.1096218
300.8684846
300.5792421
299.3230381
297.723055
300.1062465
302.1874566
303.9656104
305.1746687
311.3930001
317.4854882
292.5775287
308.9731997
300.7274285
298.2495223
300.5088748
298.4863492
297.5123721
296.8357678
298.1272524
299.4432539
299.7451776
300.5524997
299.7973864
298.5309204
300.5632944
304.3336449
306.5881869
308.6074476
307.191624
310.1855533
290.5198505
305.2103391
299.857621
299.4064999
298.4068156
299.2744272
300.0511226
300.582099
300.6254482
300.5319562
303.4919437
300.7656009
301.1271688
303.2826268
303.2334567
303.5029628
304.8476529
305.6378269
308.3886185
311.5575611
291.0670852
306.9612882
298.482193
300.4275023
301.0033486
300.3920099
299.8800134
299.2614906
299.6433625
298.8789751
299.3213412
300.3985432
300.6351575
299.6802536
300.3224646
302.5388076
304.4290983
307.2077661
306.2019642
310.9961711
288.9263992
304.3077701
300.0625879
299.1968434
299.5540416
300.3171314
299.0213527
297.9573648
296.0634109
296.2482115
297.2009849
296.4029036
299.1639383
299.5152098
301.1730198
300.0873863
298.0160903
299.6432389
300.9635478
305.3167509
288.3283229
305.0702122
297.166806
297.4320055
298.3343612
299.1334107
301.6172053
302.0901257
302.2045784
303.3788566
302.2227844
302.4956149
301.7916086
299.9212102
300.2392444
301.3934513
300.8804757
300.4971693
301.3019337
299.9314194
290.2446163
305.4311978
299.515803
298.9701864
298.6116691
297.0040047
296.7110156
296.3959521
296.2189219
295.6908517
297.7136279
297.8423327
300.2436034
300.2834877
301.0882021
299.2514366
299.0087522
299.9528822
302.1858261
303.3686971
291.0166765
306.0975769
296.8024487
298.1863556
299.30079
300.6634726
300.1944608
299.531992
299.6621366
300.9249251
300.1183817
301.6545405
299.3084097
298.6337277
298.6727768
300.8428412
301.945579
301.6445327
301.2650777
302.4071789
289.974367
306.6566032
298.9800162
299.9856818
298.6253718
298.7153217
298.4557777
300.2193654
300.5740074
299.8098246
299.6369976
299.5070063
301.6767343
301.9556135
302.3809265
300.437325
299.4004756
301.9897769
301.8013147
302.1765035
1397.393717
1255.05086
1182.933736
1121.97705
1082.100499
1051.119521
1022.150234
979.5526293
969.3386868
945.7214634
1343.694477
1302.136441
1247.540897
1200.32066
1165.378131
1141.409976
1104.271665
1086.21889
1058.556182
1042.518115
1142.946033
1204.755367
1190.363009
1183.560272
1158.562932
1134.399998
1110.042427
1083.419476
1066.948698
1048.180823
947.1467461
1051.579798
1094.045834
1114.819048
1108.912408
1087.752382
1082.309946
1051.593898
1049.519911
1046.838333
762.2045921
884.0678067
951.9211196
1013.826471
1031.314313
1041.394898
1046.893975
1025.416131
1023.996094
1016.149055
654.5509392
760.8936527
828.1314933
899.4457132
931.1933024
964.3854592
987.0128199
990.0265567
1002.131627
987.9459183
546.5711795
634.305141
696.058298
782.1756189
820.8661891
875.4202883
901.3260646
927.1296371
942.2548201
951.1091209
475.9283699
546.6668128
593.6878273
676.8728193
725.2875461
784.317184
817.4797662
856.5335416
886.2868526
900.2113441
435.1089133
489.1341007
527.8239863
584.3486303
630.5740381
684.7426706
741.4828556
776.6557398
809.0768275
835.3636976
392.9782744
420.3984194
470.5790201
517.8650431
548.7228033
596.7975711
650.8215926
687.3424256
731.7394406
765.2422495
370.0104039
392.9322883
422.1877057
461.1483579
492.5035264
538.241287
586.699364
619.9489224
651.3481249
683.6634855
353.6857247
370.043452
387.3017421
424.8783555
438.2189095
474.5297488
514.7887312
546.0442867
583.9758674
612.2043449
338.7160901
351.2263995
369.3596061
381.4337337
396.1523482
428.6519993
454.6594781
485.0572304
509.9166393
557.6218919
329.410375
337.0955166
350.5413426
360.5179075
376.4336063
386.8250418
411.6075255
441.0234119
471.1165092
494.6951806
323.8812043
325.0290947
334.7123417
339.2287846
358.8002703
371.1736038
384.947216
410.5406223
432.5092327
453.4493531
310.6119176
318.626242
327.5626115
335.1075382
341.8025413
356.4459141
365.4340036
380.0463747
402.302581
418.1819197
311.0855532
316.3221801
319.7291723
322.5073999
326.0772292
337.9776018
349.9925889
359.6719337
372.1499226
386.9236582
309.1851958
309.4088936
311.9924263
316.4195723
318.6458462
325.4990488
334.3991729
340.9488896
353.4194744
366.4984173
302.1905252
311.3201059
314.1659003
315.2772873
319.8008188
323.0289121
326.0159328
333.4645586
339.3396428
350.1226149
304.402087
306.0118715
308.5468774
308.8924424
311.7368665
315.2108355
317.4235621
325.8416395
330.967148
334.5364603
301.5744058
302.535275
305.41096
305.2294687
307.4500797
311.3881307
314.0483842
321.1780251
327.4987084
332.0441535
298.5384234
300.6277486
303.1079886
304.9678478
)
;

boundaryField
{
    flow
    {
        type            calculated;
        value           nonuniform List<scalar> 
42
(
290.4072532
290.9741381
292.7371928
288.2512398
290.9260428
290.5474709
291.9507279
288.515117
293.7012821
290.3706717
292.0197052
290.7887554
290.2723037
289.7542492
292.5775287
290.5198505
291.0670852
288.9263992
288.3283229
290.2446163
291.0166765
289.974367
290.4072532
304.9555748
296.8366985
299.1270415
300.3493218
300.008551
300.265131
300.021441
300.2119918
298.9051528
296.6820333
296.9013214
297.2542653
305.4941021
314.6746366
331.8613755
362.9626319
446.9884197
693.7256909
1327.606724
)
;
    }
    obstacle
    {
        type            calculated;
        value           nonuniform List<scalar> 10(1204.867968 1080.185688 982.7114711 952.6469569 895.1068785 883.9791317 875.5395178 830.9428967 815.3965449 818.3094136);
    }
    frontAndBack
    {
        type            empty;
    }
    procBoundary0to1
    {
        type            processor;
        value           nonuniform List<scalar> 
21
(
931.922083
1020.798
1035.254555
1027.834778
1005.56196
979.1371673
954.7726945
905.6807076
857.0888028
793.7822528
714.3108009
655.9243952
588.9520832
528.5222578
473.1006251
435.2944467
406.733626
382.3086283
361.413006
349.3784092
334.2203805
)
;
    }
    procBoundary0to2
    {
        type            processor;
        value           nonuniform List<scalar> 
31
(
288.0762395
304.0828905
298.0660429
299.5647639
299.1600469
298.449035
299.9335054
301.6212257
300.4844544
301.3181666
302.6492467
303.0072582
301.2226076
300.1322818
298.464889
299.3968917
298.3801812
297.8194671
298.6518382
300.1361764
308.1229555
309.1120932
307.2600706
307.5638065
313.9998905
320.44138
301.7342621
303.798207
302.7434984
308.1229555
303.4310733
)
;
    }
}


// ************************************************************************* //
