/*--------------------------------*- C++ -*----------------------------------*\
| =========                 |                                                 |
| \\      /  F ield         | OpenFOAM: The Open Source CFD Toolbox           |
|  \\    /   O peration     | Version:  2406                                  |
|   \\  /    A nd           | Website:  www.openfoam.com                      |
|    \\/     M anipulation  |                                                 |
\*---------------------------------------------------------------------------*/
FoamFile
{
    version     2.0;
    format      ascii;
    arch        "LSB;label=32;scalar=64";
    class       volVectorField;
    location    "0.01";
    object      UMean;
}
// * * * * * * * * * * * * * * * * * * * * * * * * * * * * * * * * * * * * * //

dimensions      [0 1 -1 0 0 0 0];

internalField   nonuniform List<vector> 
654
(
(1706.401756 -8.93341963 -3.077587216)
(1743.51423 -7.260425116 -4.062885855)
(1736.896308 -8.986467322 -3.465658642)
(1738.117991 -8.295928318 -3.052542845)
(1735.449584 -8.447049164 -3.479306121)
(1736.669875 -9.374630493 -2.699561045)
(1737.787183 -8.046089616 -0.5151443933)
(1735.965546 -7.799159075 -2.566946076)
(1735.078253 -6.90997562 -0.5193149209)
(1733.704947 -5.486898042 -0.2097551859)
(1735.253557 -4.528455933 -0.5236519127)
(1733.919193 -4.006522549 -2.115019941)
(1733.61376 -4.680125532 -1.972964855)
(1732.503019 -6.596254309 -3.035726684)
(1728.393473 -4.694357702 -2.538880956)
(1723.508586 -8.074345157 -2.126261427)
(1711.110146 -9.069601555 -0.2193369733)
(1675.433553 -15.3410682 -0.849965237)
(1568.046273 -20.16932194 -2.870875073)
(1186.31594 9.97765766 2.148237385)
(1709.938304 -1.800460198 0.9559280496)
(1745.791999 -3.224247814 0.396057854)
(1735.381949 -1.664596765 1.875854677)
(1734.215071 -2.366946001 -0.5251837506)
(1734.548174 -0.1517199591 -1.315940935)
(1733.941764 -1.553619696 -2.393781444)
(1732.172814 -2.326534958 -4.454387006)
(1732.579535 -1.767621941 -3.048154725)
(1734.948809 -1.514160012 -2.19743482)
(1737.349838 -1.896572312 -1.337743712)
(1738.906312 -3.176143816 -1.278693011)
(1738.236838 -2.964292641 -1.2551404)
(1736.057025 -2.838001329 -0.3813771345)
(1732.394506 -2.773151133 -1.079163419)
(1729.400592 -2.152007431 -2.343713461)
(1722.332658 -2.598493931 -2.739277672)
(1704.18856 -2.252297151 -1.847912162)
(1661.49207 1.483945713 -1.687300427)
(1548.596833 14.75271505 -1.737943808)
(1304.504215 68.65153472 0.4042279666)
(1709.321831 0.5835576894 3.326321966)
(1745.439148 -1.366923119 2.991307297)
(1737.431686 -2.840948612 0.5313967751)
(1736.046064 -3.517470108 0.5801202749)
(1736.572801 -5.589199266 1.522159926)
(1735.67425 -3.627872779 1.591527794)
(1737.101717 -0.6710744615 2.441977599)
(1738.470325 -0.5022952399 1.759220005)
(1736.119704 -0.4108061549 0.3073235956)
(1734.841822 -1.93372767 0.411866467)
(1733.614949 -3.284661318 -0.2514098272)
(1733.412865 -4.855605918 -1.683562715)
(1733.715183 -3.880000757 -1.821701211)
(1729.188876 -2.518603777 -2.048436453)
(1726.599883 -3.085089355 -3.324787533)
(1720.604583 -0.7049399727 -1.367677003)
(1698.825105 1.873584151 -0.7156437527)
(1668.053835 8.28862127 -2.460046323)
(1577.837924 28.51836871 -0.1776498242)
(1441.425653 66.79426472 1.504008436)
(1707.159598 -3.306054806 0.3943312159)
(1742.111626 -2.517559108 1.082318388)
(1733.209795 -1.811346117 2.357397689)
(1733.950419 -0.5104297181 2.585522469)
(1737.076637 1.454974356 1.920800115)
(1738.49865 -0.1463296722 1.644946698)
(1738.768782 -3.016914268 -0.1788104945)
(1737.486694 -4.294036378 -1.196539745)
(1737.094389 -3.825231809 -0.468640709)
(1736.604195 -1.054267001 -0.2694581558)
(1735.722324 0.6768865523 -0.09862832856)
(1735.375725 2.84362627 -0.8953879655)
(1735.412926 3.328032084 -1.117283498)
(1733.203638 1.9714344 1.573234714)
(1726.751851 1.658355713 1.475487874)
(1718.174357 0.09461105166 0.5227934685)
(1704.592924 3.894645607 0.3127169441)
(1674.756498 10.76308605 2.180673504)
(1620.323104 24.62536515 1.030774175)
(1527.217818 55.4856679 1.48481954)
(1707.174822 -1.790118403 0.65991564)
(1744.393583 -2.094876345 1.960476764)
(1738.330792 -0.8062054732 1.265941907)
(1738.915767 -0.7767770252 1.364461293)
(1737.716437 -1.837374685 2.160120755)
(1735.307395 -1.698849789 1.964272203)
(1735.107533 1.204328412 4.264095605)
(1735.679991 1.116818361 4.235961428)
(1736.45037 1.249011283 2.168739766)
(1737.84283 0.05769860993 1.297177932)
(1737.327876 -1.465186856 2.91648654)
(1734.0353 -0.787164191 3.778734784)
(1733.214338 -1.091528917 2.299271078)
(1732.772236 -0.1447573564 1.459575216)
(1732.126223 1.901346098 1.748273613)
(1724.178714 4.1274194 0.3438525255)
(1710.407699 6.220158037 0.6023922373)
(1687.248492 10.95731852 -0.1887009147)
(1647.157089 23.09977131 -0.2651658986)
(1589.651909 48.12183696 1.613839086)
(1710.325895 3.151282395 -0.5195262595)
(1748.142311 2.428108816 0.3741328742)
(1737.879107 0.7792216192 1.726338697)
(1735.832679 -0.08291758457 -0.3663495909)
(1736.488366 1.646805102 0.2932283672)
(1736.251157 -0.7640158234 1.186845137)
(1735.834068 -1.019606004 -0.2413436292)
(1737.098906 -0.7567047094 -0.9994590654)
(1735.596038 0.1246996006 0.8609558359)
(1736.187281 0.8034411429 1.147504282)
(1736.114718 1.86674932 0.5497741165)
(1737.713811 0.3810853118 -1.183788872)
(1737.658164 -1.4025359 -1.007628571)
(1738.049533 -2.996716405 -0.8696949137)
(1732.296524 0.2343911278 -0.2274599566)
(1724.377513 0.5563422378 -0.449297585)
(1715.317487 5.546288883 -1.582536132)
(1693.028841 11.66796495 -2.227690146)
(1670.281122 19.32337556 -1.141077747)
(1632.061781 39.02519596 1.02071941)
(1708.409409 -0.9314133818 -3.291431516)
(1745.930109 0.2572654279 -4.032784148)
(1736.624552 0.8882945145 -3.860902237)
(1736.286401 0.7220916309 -4.175883052)
(1735.312801 0.09768150012 -4.261259729)
(1735.218502 2.585396025 -3.765122124)
(1737.301691 -0.12702504 -2.876318512)
(1735.444189 -1.266851068 -3.462337177)
(1735.632532 -1.587726721 -3.322126281)
(1734.010191 -1.821161911 -2.961113511)
(1733.233055 -1.658332575 -3.764854484)
(1730.670263 -0.9519662454 -1.922604979)
(1730.257864 1.370286637 -0.1793214728)
(1729.359978 2.526140987 -1.386059817)
(1725.486634 3.393150697 -1.107864649)
(1721.129362 3.141001518 -2.080282483)
(1713.730479 7.983358763 -2.740013092)
(1703.434212 8.789303284 -2.595380408)
(1688.38011 18.08039312 -1.09182797)
(1659.018597 29.77180438 -0.3800265316)
(1710.734658 -2.101270434 -3.646697736)
(1746.58611 -1.661075347 -3.929155668)
(1735.609379 -2.341446373 -2.589611614)
(1735.282654 -1.54093494 -2.542145554)
(1735.581742 -0.294616257 -2.18665426)
(1737.323723 -0.935725548 -4.448218933)
(1735.773858 1.042870742 -4.423644162)
(1734.219132 0.9987153503 -3.164623884)
(1732.664109 0.3830897626 -3.520023496)
(1733.311718 -1.267609571 -4.044986602)
(1732.897954 -0.09188787456 -3.514005762)
(1734.750143 0.9450635617 -3.884353933)
(1733.198706 3.038280224 -4.533029986)
(1732.378176 3.086853346 -2.967830979)
(1728.203821 3.731505184 -4.518490689)
(1729.339386 3.275636035 -3.251126511)
(1726.095904 2.678073688 -0.570101312)
(1713.500667 8.755320138 -3.789266168)
(1703.271424 13.06040108 -2.785312814)
(1686.392959 21.27322503 -3.826834287)
(1705.144665 -0.8050118156 -3.135118517)
(1742.66492 0.2890222248 -3.34362162)
(1734.808576 0.3771148859 -5.159154781)
(1734.178807 0.4446548609 -3.916637991)
(1733.465288 -0.509606589 -2.863723825)
(1734.870658 0.05530607668 -1.0775025)
(1733.521238 -1.113509587 -0.4273991845)
(1735.774143 1.046680943 -0.7547285684)
(1736.904266 1.397940209 -0.8792195411)
(1737.986357 3.732414824 1.454643233)
(1736.071537 2.047160941 1.052306734)
(1736.278179 2.747393927 -1.807635188)
(1734.552389 -2.391940092 -0.5376735197)
(1733.787604 -2.104068738 0.5177868246)
(1733.245908 -1.381663343 1.484293966)
(1729.876878 1.446260931 0.1879836268)
(1722.601711 5.623284224 1.160368189)
(1718.201321 8.366175459 -1.104825023)
(1707.789268 10.82727863 -2.362184183)
(1697.892714 18.31231121 -1.029541314)
(1708.984709 -0.3852646957 0.8960572835)
(1746.103267 -1.711033952 1.399213681)
(1736.22943 -2.235771553 2.051887481)
(1737.073679 -1.870865544 0.7753698779)
(1736.019169 -1.914533134 -0.8956972169)
(1734.08396 -0.3875512837 -0.9259188694)
(1734.558119 -0.3454845362 -0.5203706318)
(1732.984442 0.1392651694 -2.183502807)
(1732.492006 2.567006146 -2.813147183)
(1732.455187 1.566901503 -4.038867107)
(1731.224721 1.428540514 -1.7096678)
(1731.842707 1.016665564 -0.8549851182)
(1732.712694 1.381565519 0.3897425187)
(1731.102668 1.979816542 -2.274607209)
(1732.046243 1.518386776 -2.140201399)
(1731.233638 1.074173444 -1.622975364)
(1726.694945 2.551457347 -0.9006121522)
(1726.798489 5.706267887 0.4231808854)
(1719.107481 10.26295505 1.33004253)
(1708.503306 15.41079044 0.3481447757)
(1704.12025 4.533600501 -0.4121757113)
(1740.293442 4.913436564 -1.272291979)
(1733.28591 3.090289325 -2.078407189)
(1733.926843 1.771697428 -1.142918718)
(1733.722893 1.479335482 -0.3379444725)
(1735.034546 -0.6492265814 -0.3490165987)
(1734.814408 -1.481941046 0.5591594932)
(1736.027306 -1.899852634 -0.7455770533)
(1736.08356 -2.716719057 -0.3405369986)
(1734.298705 -3.034933746 -1.603886791)
(1734.544773 -2.018281952 -1.912651172)
(1734.232787 -1.618848646 -1.952427851)
(1732.975459 0.2065872984 -1.603442102)
(1733.017765 2.381763592 -2.527561494)
(1732.418816 3.739537118 -2.91407272)
(1731.526681 3.955330382 -1.946459942)
(1730.07685 3.833610294 -1.883256355)
(1725.748012 2.416029089 -1.472249864)
(1722.844945 3.288785465 -2.776712062)
(1715.246913 9.204578467 -1.249959232)
(1709.255935 0.4146504462 1.441124233)
(1745.097439 -0.294821816 2.466981627)
(1734.838409 0.6542591352 4.061203835)
(1732.54192 0.6372438488 3.692096116)
(1733.737562 -1.201168489 2.875470544)
(1734.079205 -0.642870624 1.992916399)
(1732.718369 1.194117353 0.9413094894)
(1732.177359 -0.4029802602 0.8817124561)
(1730.084077 -0.2256660472 1.611155691)
(1732.066567 -0.3880968954 1.543554717)
(1732.974869 0.4786547272 0.6192822796)
(1734.579254 1.892294343 -0.1831394924)
(1735.869845 0.7121855393 0.04541852641)
(1736.133033 -0.2122056854 -0.3013587827)
(1734.618728 -1.758846714 0.662114335)
(1732.512594 -1.005644467 -1.905830181)
(1729.60984 0.1412407907 0.2429112372)
(1725.094393 3.689522682 1.487246529)
(1722.617229 4.219709135 -0.1738833655)
(1719.678649 6.248603943 2.649968669)
(1705.474338 0.8513376037 3.941598348)
(1741.86359 0.2238755069 0.9853935663)
(1733.581074 -0.4595200236 1.040143443)
(1734.592256 1.201702588 1.164587605)
(1733.587936 1.057380613 0.2144067786)
(1734.70485 1.542428149 0.7264909344)
(1735.215888 -0.1735847544 1.055582375)
(1735.844281 0.64642404 -0.4747835179)
(1737.32353 1.790484652 0.868017706)
(1737.706321 0.4743501402 1.356015374)
(1735.940416 0.02029322659 2.173350147)
(1733.676558 -2.783546923 1.050663286)
(1732.980284 -3.864760892 2.013385399)
(1730.759363 -4.029577956 2.397152254)
(1732.743121 -1.733046503 2.171877944)
(1730.195669 -0.4096753282 2.884748116)
(1732.216076 -0.9519564 1.336557828)
(1733.646728 0.5816632999 1.282666496)
(1731.54066 2.428943864 1.072878801)
(1728.040582 7.537302957 -0.07721314765)
(1702.957811 -1.714806243 -0.592225001)
(1741.991779 -0.4819627427 -1.330598988)
(1734.179931 0.9529857917 -2.624586547)
(1734.026291 -0.4128958931 -4.40078345)
(1735.604454 -0.8298454995 -2.832355361)
(1735.600101 0.9095311756 -1.684222943)
(1736.691824 3.871447005 -0.296633309)
(1737.781841 2.15345077 0.7521270434)
(1736.817903 -0.6290077765 0.8043555564)
(1736.277986 -1.450032707 1.917788003)
(1735.857298 -2.122734052 0.568400952)
(1736.117854 0.2294983974 1.992646147)
(1737.437291 1.324619628 2.257266086)
(1738.614239 0.3216167461 2.06234381)
(1738.821363 -1.255744622 1.888419963)
(1737.205175 -0.2719005355 -0.1488483076)
(1736.049088 -0.1783275379 -2.08564125)
(1732.779766 0.03523039317 0.3146686104)
(1728.631641 1.761833949 -0.8047822989)
(1726.636858 2.133709851 -1.489316929)
(1710.128032 -0.9668246013 -1.931116054)
(1745.71509 -1.378694894 -0.07437723604)
(1736.133051 -1.956666611 2.403161764)
(1737.652483 -1.897431835 3.210512029)
(1737.653181 -1.575335078 1.414679108)
(1735.752462 -1.883536041 -0.3798986419)
(1735.681191 -2.775484402 0.2504784816)
(1734.086914 -3.196892771 -2.469067828)
(1734.96577 -0.3472768899 -0.9264684386)
(1734.800123 0.9700773841 -0.6087925503)
(1735.088118 1.535971023 0.4655457388)
(1735.04879 -1.785126834 -0.3468293985)
(1735.42392 0.1138482548 -0.658330679)
(1736.382277 2.031126258 -2.16616702)
(1734.936807 2.444528536 -1.310948487)
(1733.855647 4.034672953 -0.4697153258)
(1732.692515 4.033360986 1.50950467)
(1731.73042 3.12289579 0.8604996863)
(1733.766696 5.357595316 1.484101789)
(1733.098832 3.659721109 0.2928716795)
(1704.803908 -2.926791432 1.859953705)
(1742.301256 -3.225735642 0.7475525437)
(1732.279842 -1.962696537 0.4951104803)
(1730.721633 -0.4653465925 1.441726788)
(1729.91877 -0.4936549493 2.057334921)
(1731.538425 -1.330223099 2.636319499)
(1732.728712 0.7402975691 1.972854592)
(1733.642266 0.07412651295 2.211099171)
(1734.281411 -1.479003765 2.182023043)
(1734.82657 -1.118936965 0.2386909691)
(1734.864497 0.193724981 0.2016124762)
(1737.46486 3.134937958 -0.07449781927)
(1738.410597 4.926411876 1.265243247)
(1737.320902 3.613701273 3.286308265)
(1736.548533 2.158098115 3.655675676)
(1738.007864 1.208365341 2.613483146)
(1736.004353 1.132520101 1.845420023)
(1737.287155 2.526460672 1.684403798)
(1734.385613 2.423995988 -0.187957933)
(1732.81883 2.259507092 0.6614932903)
(1706.512532 2.156111734 0.05266797609)
(1745.945264 2.770984388 0.9720553704)
(1736.413828 -0.046132736 -0.6155422505)
(1736.559467 1.20611098 -2.902711675)
(1736.69425 0.9498348843 -3.379696571)
(1736.37229 -0.6425578864 -4.21042427)
(1735.684547 0.6022258045 -4.500024462)
(1736.1166 0.8706547755 -3.385548805)
(1734.594307 1.09811985 -2.932168197)
(1735.022936 3.00786421 -2.792870796)
(1733.569462 1.81475665 -1.42326286)
(1733.073297 1.121702758 -0.6859351156)
(1732.704158 -0.4128826781 -2.570399124)
(1733.698357 -0.6660274055 -4.286644961)
(1733.628669 0.4046575521 -3.205037359)
(1730.943194 -0.2632626789 -1.732925013)
(1730.151131 2.083607087 -2.825125614)
(1730.594878 0.8511541175 -2.123531955)
(1731.469342 4.062561621 -1.723213609)
(1730.47218 3.704024072 -1.085591069)
(1713.456411 1.460801536 0.8910494217)
(1749.043712 -0.4013405009 0.5291360764)
(1739.904782 2.046885678 2.238849952)
(1738.399562 2.728825624 1.593839578)
(1738.907892 3.584228335 3.422062916)
(1738.434658 1.83648257 1.950716617)
(1738.160888 1.060997064 2.575167689)
(1739.790931 1.225455991 1.149066662)
(1739.744712 -0.4236966012 1.725309353)
(1738.312399 -1.732651261 -0.2662292945)
(1735.258808 -0.9518284835 -2.144047037)
(1735.902128 -0.002655393112 -1.246272645)
(1732.286047 1.481110432 -0.367813941)
(1734.209823 1.336827843 0.7317668898)
(1735.50032 1.262141421 0.2523157868)
(1736.410463 2.727372474 0.784698942)
(1737.587006 1.687911031 2.161347306)
(1735.976361 1.562293016 0.7539546698)
(1734.715403 1.682293773 2.037401057)
(1734.19007 1.953438879 1.833537738)
(1706.184019 2.879525718 -0.5405345893)
(1742.401637 2.154539899 -1.559746373)
(1735.049217 2.957134325 -2.255482534)
(1733.62125 0.8016328188 -0.1650856076)
(1735.228204 -0.8175940036 -2.177212925)
(1733.38058 1.957889698 -1.65239905)
(1733.039114 2.044143416 -0.8518669387)
(1733.342546 2.799071346 1.451367391)
(1733.460275 3.125716698 1.029640595)
(1735.365478 2.801450935 1.383691115)
(1734.975893 0.893075811 1.926296623)
(1735.210044 0.4436256745 1.167716648)
(1735.220838 0.1808164449 2.20590723)
(1734.881549 -1.038785814 0.9104101509)
(1733.832518 -0.7920467095 0.2690020009)
(1733.669528 -1.228108506 -0.6223690304)
(1734.119433 -0.0256263717 -0.6048012331)
(1733.968841 0.1949713503 0.2453651725)
(1735.230069 0.9806284061 1.167138582)
(1734.099441 2.09102313 1.905482325)
(1710.982884 0.7123768117 -2.006345759)
(1746.595311 0.2728203389 -2.832778875)
(1737.322247 -1.108229362 -2.483108476)
(1736.758138 1.171098155 -2.810643761)
(1738.205746 3.23679261 -2.26504788)
(1737.735494 2.547288902 -0.5896118434)
(1737.320634 -0.005120961847 -1.405452457)
(1736.595498 2.489387803 -1.802259396)
(1737.05478 1.541714635 -1.826253603)
(1736.06581 1.913846777 -2.406457193)
(1735.789104 2.210330997 -1.386012396)
(1736.405547 1.732563384 -1.21549357)
(1736.78044 2.111027341 -2.000810018)
(1736.211964 3.473350316 -2.434545602)
(1735.516683 2.471094091 -1.28898381)
(1738.624553 3.377159781 -0.9027114333)
(1736.301807 2.839645402 0.1765165406)
(1738.933235 -0.619537004 -1.306250957)
(1735.134762 1.252753099 -2.448777342)
(1735.003909 -1.3122853 -4.127501191)
(1710.499483 -4.688687123 -0.3910226353)
(1747.048299 -1.948277592 0.1789889626)
(1737.991217 1.571395471 0.0155624318)
(1738.001528 0.5025694494 0.6773317827)
(1737.805255 1.198839597 -1.153809582)
(1737.805492 1.78303886 -1.110236561)
(1739.461619 2.662769398 -0.7679472365)
(1738.300354 1.160387109 -2.47910991)
(1739.751007 0.3707169158 -1.206147789)
(1739.78887 0.6750828388 -2.349240605)
(1741.116662 1.034074521 -2.580138637)
(1740.361407 1.780411567 -3.867507365)
(1739.647339 0.06284210775 -2.816873771)
(1740.187635 1.137463919 -1.41429227)
(1738.490426 2.251963867 -0.6015416512)
(1737.349552 0.7891949662 -0.7220617599)
(1735.493858 -0.2330581263 -1.477375333)
(1734.080171 -0.9452419208 -0.5433436165)
(1734.931746 -0.5984804489 0.2537155519)
(1733.701981 -0.03425402191 0.3791032995)
(1707.793785 4.039182046 0.4744483809)
(1747.216599 2.099192392 -0.5500172461)
(1738.329437 -2.216523174 -2.206021194)
(1740.05719 -0.470700284 -1.782727306)
(1739.650317 -0.3630636547 -1.870451536)
(1738.523436 0.9013090489 -1.226311309)
(1736.420801 1.017998131 -2.348379574)
(1736.573269 1.386267931 0.4899865659)
(1735.210495 2.232548381 0.8611617812)
(1734.559157 2.472455118 -0.3881748428)
(1733.365914 2.101421866 3.179177535)
(1732.236301 -1.588947451 2.664246257)
(1731.688982 -2.037100308 2.3824421)
(1732.926677 -3.240632805 0.9456947472)
(1732.985707 -4.603069812 -2.141988145)
(1735.653369 -3.71838954 -0.8000753313)
(1736.023479 -1.429655807 0.3895183096)
(1736.007037 2.288551982 -0.9941664265)
(1737.540567 2.849804048 -1.105611898)
(1737.596958 3.396834621 -1.566622301)
(669.5272399 151.1340376 -4.799666586)
(603.1461493 171.9277454 0.4925819324)
(568.3755503 163.7652875 -0.1166154393)
(528.7980147 153.9534344 1.880111462)
(501.3972441 146.7798756 2.342445196)
(472.6573014 135.2573968 1.244853454)
(443.3954735 127.7518298 -2.595355941)
(415.2591847 122.1293012 -3.46454197)
(402.9396724 115.4055208 -5.721410773)
(386.4281886 112.524612 -4.113113409)
(1055.755865 162.7217019 -5.386796156)
(940.1863609 221.6246296 -4.998330021)
(888.1828759 244.88108 2.057249609)
(854.9362577 248.1563243 -1.527812527)
(816.1759459 244.2278124 -5.898760118)
(779.982872 243.0989708 -4.580580472)
(748.3357806 230.1132235 -2.600264649)
(710.713593 225.2655434 -2.256411552)
(685.6593046 212.4175272 0.9524381519)
(664.5053876 201.2266176 2.022061931)
(1275.045044 138.4751448 -0.7638315763)
(1164.520781 198.7955244 -8.266928028)
(1103.662792 244.4771516 -0.3308221009)
(1050.304081 270.6744115 -4.269153972)
(1010.84217 284.4467404 -0.9041413658)
(980.8385443 293.8921746 1.834645023)
(950.789038 297.1175225 -1.825903816)
(920.6618906 293.3984737 -0.6984603701)
(893.7033182 282.767147 -1.311651825)
(854.4616356 277.112409 -2.206427658)
(1422.500235 107.5624045 4.447758519)
(1325.308807 162.8030457 -0.08924179685)
(1252.024751 207.50212 6.898290779)
(1190.715228 252.0665433 -0.2048218399)
(1149.672119 281.9916466 1.900438185)
(1115.864996 299.0698853 -2.518798603)
(1081.900719 313.2411745 -0.5671139192)
(1064.348221 322.4881096 -3.187804687)
(1040.614638 327.9448097 0.07792740062)
(1008.749262 324.8611276 -1.710760261)
(1519.198096 84.00696141 0.1066601307)
(1441.391675 127.4423313 1.597958915)
(1383.854586 171.6131611 1.855471858)
(1317.151576 211.6890516 3.076492814)
(1276.150341 250.3404829 3.381576175)
(1237.389012 286.923871 4.492198322)
(1197.295738 305.3716666 1.384454216)
(1179.423852 322.9875596 0.2241908259)
(1141.67196 336.6562281 -0.5246781185)
(1111.308366 343.8103843 0.8086601433)
(1581.94878 64.09814644 1.268433232)
(1524.075237 97.62031744 3.696463205)
(1480.55622 132.3169267 4.454419311)
(1424.657869 178.0215322 -0.06647565801)
(1383.136683 213.0094219 -1.121327435)
(1335.480676 244.3366812 -1.16548114)
(1290.31893 279.5296834 -1.321265744)
(1265.238867 300.2650366 1.400800467)
(1232.275794 322.9068038 3.751053187)
(1214.63914 337.8576294 -0.6620928556)
(1628.10302 48.52770765 -1.630786633)
(1588.079088 74.87777125 0.7676798763)
(1550.469875 104.0504938 -3.363653718)
(1498.433107 137.9215109 -1.540851687)
(1464.43907 167.5820543 0.571803084)
(1425.613567 205.211616 -5.95542501)
(1388.282187 237.8416562 -4.277146751)
(1352.392167 272.2199529 -2.051595759)
(1320.793083 297.5235988 -2.73629958)
(1292.42065 315.7977431 -0.9638081923)
(1660.80117 35.60015981 -2.121281271)
(1627.370008 56.3410095 -2.35500944)
(1606.028925 76.23450071 -0.273665245)
(1560.539366 103.7807308 0.9349858682)
(1532.549201 132.6278883 2.083805778)
(1492.982488 165.8685688 2.753438242)
(1463.003959 192.1696416 0.2428614721)
(1426.247504 224.9679268 -0.3582285347)
(1390.977788 258.6505153 -1.10528918)
(1357.397155 286.9200899 0.1628434105)
(1678.212966 28.54827245 -2.657338945)
(1657.204019 40.81428766 1.870276611)
(1636.973231 59.34731751 1.015255537)
(1611.114322 76.37950153 -0.5831864407)
(1586.622688 101.842776 2.754834458)
(1557.128523 127.1169692 5.168145143)
(1525.236122 159.2929856 0.2093912852)
(1496.450161 187.8487924 -0.2323969648)
(1467.536269 215.1144544 -3.105991551)
(1432.945711 245.7963634 -1.405189756)
(1698.993308 20.01299824 2.073665477)
(1685.723311 31.34263069 -0.6371246414)
(1666.809779 43.6437233 0.6986675865)
(1645.13036 60.01942588 0.4916234312)
(1627.043084 74.47554978 0.1903909372)
(1602.830216 96.55343973 3.58202014)
(1575.776177 126.5517338 -0.4892388619)
(1551.96858 146.4145734 1.819710453)
(1525.924264 178.1684221 1.355618968)
(1499.157803 205.8026097 0.5739526766)
(1707.784885 14.57947259 -3.207960644)
(1697.42838 22.43390863 -0.8913297712)
(1686.13581 30.55763116 -4.085784507)
(1670.029424 45.38678843 -1.482378912)
(1655.693596 60.11647916 -1.488032889)
(1634.108103 75.84126015 -1.689183195)
(1612.049034 98.64788158 3.668534351)
(1587.573102 118.1922482 2.611114656)
(1569.331113 144.975982 3.176773078)
(1547.195429 170.3407167 -0.0453167004)
(1714.727342 8.447770997 3.452061885)
(1709.90501 11.45100629 1.096453045)
(1703.23295 18.51938806 1.580370947)
(1687.493197 32.09812843 3.728527105)
(1679.556404 39.00218298 2.619350343)
(1663.749202 55.11248656 2.503455692)
(1643.71513 73.87308561 2.458587372)
(1624.165299 92.41508651 -0.6309256098)
(1607.174632 109.4079672 3.046781801)
(1592.220149 131.7212338 1.683604912)
(1720.689594 10.61453862 1.715121434)
(1713.500337 15.67036856 1.703648137)
(1705.124832 21.65464893 3.046324356)
(1700.410964 25.14638792 0.2035037881)
(1692.241021 30.88658653 -1.148173308)
(1680.79349 42.01772502 -1.485876211)
(1668.524522 50.79402001 -1.494067094)
(1660.238864 67.21728706 -1.872635394)
(1649.459796 83.75487384 -3.020982557)
(1623.770959 101.7330955 -3.773255454)
(1722.02555 6.279156815 -0.5804768356)
(1719.359782 8.750446967 0.278492496)
(1714.09746 13.26414744 -1.365580457)
(1711.522397 19.20445391 0.5586598027)
(1705.831519 24.78808667 -1.608034928)
(1702.014421 30.44715699 -3.35014117)
(1692.676345 38.62751751 -1.880533722)
(1682.836159 51.23280297 -2.35358343)
(1668.519538 61.89392996 -5.696407262)
(1657.0013 74.93383725 -1.435619381)
(1728.066407 5.842144323 -0.2796041418)
(1726.591787 6.6197673 0.47841597)
(1726.850778 9.398563214 2.170488387)
(1723.736813 10.1702476 1.057844406)
(1716.83543 18.32256155 2.024364813)
(1713.465182 21.96670114 1.354912695)
(1705.432071 27.35861882 0.93180597)
(1696.034292 35.70049233 0.6936775129)
(1686.878499 48.50557214 -0.3500946205)
(1676.929468 60.08711887 0.8667416174)
(1733.912271 2.867590595 -0.1339704967)
(1731.975724 5.819630081 -2.139151674)
(1727.557419 8.85848885 -4.108122887)
(1726.280409 11.50532784 -0.04800658475)
(1722.23746 10.98321638 -1.612317437)
(1715.385709 17.94171736 -0.9261627052)
(1710.928811 22.93018005 -1.357420766)
(1703.261793 28.47532042 -0.06479023955)
(1691.669804 33.77128956 0.5137471214)
(1684.042764 41.97245091 -0.8656880866)
(1729.661313 3.509086222 1.079865649)
(1728.304547 0.5056853637 0.8675008863)
(1727.69267 1.481652017 -0.3877950284)
(1725.080887 4.771923959 1.328485563)
(1723.544005 6.962095691 0.5597037971)
(1719.491825 12.73631982 2.328351655)
(1712.936402 14.14994095 2.920029478)
(1710.201068 19.29469803 3.44310382)
(1707.665487 26.87304108 3.900583192)
(1704.142404 34.57711273 2.945882126)
(1731.543939 4.280881279 1.481503065)
(1730.975064 7.562581744 1.603021241)
(1728.345569 5.704619732 2.698122406)
(1726.653498 6.175029269 1.150291057)
(1724.786262 5.106734028 1.364888599)
(1722.754727 4.29794387 -1.620317836)
(1720.995527 12.04817462 -1.996761947)
(1719.333466 14.73708681 -0.6271677484)
(1713.144672 18.27344272 -1.698459414)
(1707.104435 25.37558323 -0.5366781339)
(1733.853773 3.049048796 0.7745021947)
(1732.448767 2.352921693 -1.865331555)
(1730.472275 4.048010691 -2.37605222)
(1730.332242 3.238068323 -2.957137977)
(1732.522977 5.807457011 -3.751692998)
(1729.424807 9.055722377 0.148845358)
(1727.018374 10.32829995 -3.542380634)
(1725.270557 13.59281915 -3.745220932)
(1720.644232 18.52890433 -3.164219207)
(1716.186677 19.17333453 -4.557061331)
(1734.761022 -2.256408799 -3.856692696)
(1732.421303 -1.792461122 -3.282142907)
(1730.908737 -0.7561615961 -2.953625012)
(1730.938845 4.582790852 -0.9529579215)
(1729.010792 7.996025275 -0.7957904936)
(1728.953956 7.927079007 -2.479201625)
(1727.361945 9.318325976 -1.933725133)
(1724.296231 12.52728316 -2.199633093)
(1724.673958 14.3826002 -2.563140646)
(1722.881138 14.26780023 -2.476124372)
(1735.030679 -0.03589616043 1.985859294)
(1735.797027 4.085745947 1.923891102)
(1736.009151 5.700714352 0.8240030543)
(1736.511398 5.529837005 -0.7584377259)
(1736.297293 4.317316859 -0.6923242107)
(1733.975088 6.443640941 0.1170530915)
(1733.033082 5.675199511 0.7409405722)
(1729.51533 7.324169333 -0.9820198362)
(1725.686941 8.798022262 1.37408667)
(1723.864118 11.94849921 2.86753079)
(1737.999175 2.647656967 -3.236862911)
(1738.300945 4.862905414 -2.769852492)
(1733.712727 3.008754387 -2.65828433)
(1734.396255 3.60812336 -1.2718134)
)
;

boundaryField
{
    flow
    {
        type            calculated;
        value           nonuniform List<vector> 
42
(
(1706.401756 -8.93341963 -3.077587216)
(1709.938304 -1.800460198 0.9559280496)
(1709.321831 0.5835576894 3.326321966)
(1707.159598 -3.306054806 0.3943312159)
(1707.174822 -1.790118403 0.65991564)
(1710.325895 3.151282395 -0.5195262595)
(1708.409409 -0.9314133818 -3.291431516)
(1710.734658 -2.101270434 -3.646697736)
(1705.144665 -0.8050118156 -3.135118517)
(1708.984709 -0.3852646957 0.8960572835)
(1704.12025 4.533600501 -0.4121757113)
(1709.255935 0.4146504462 1.441124233)
(1705.474338 0.8513376037 3.941598348)
(1702.957811 -1.714806243 -0.592225001)
(1710.128032 -0.9668246013 -1.931116054)
(1704.803908 -2.926791432 1.859953705)
(1706.512532 2.156111734 0.05266797609)
(1713.456411 1.460801536 0.8910494217)
(1706.184019 2.879525718 -0.5405345893)
(1710.982884 0.7123768117 -2.006345759)
(1710.499483 -4.688687123 -0.3910226353)
(1707.793785 4.039182046 0.4744483809)
(1706.401756 -8.93341963 -3.077587216)
(1743.51423 -7.260425116 -4.062885855)
(1736.896308 -8.986467322 -3.465658642)
(1738.117991 -8.295928318 -3.052542845)
(1735.449584 -8.447049164 -3.479306121)
(1736.669875 -9.374630493 -2.699561045)
(1737.787183 -8.046089616 -0.5151443933)
(1735.965546 -7.799159075 -2.566946076)
(1735.078253 -6.90997562 -0.5193149209)
(1733.704947 -5.486898042 -0.2097551859)
(1735.253557 -4.528455933 -0.5236519127)
(1733.919193 -4.006522549 -2.115019941)
(1733.61376 -4.680125532 -1.972964855)
(1732.503019 -6.596254309 -3.035726684)
(1728.393473 -4.694357702 -2.538880956)
(1723.508586 -8.074345157 -2.126261427)
(1711.110146 -9.069601555 -0.2193369733)
(1675.433553 -15.3410682 -0.849965237)
(1568.046273 -20.16932194 -2.870875073)
(1186.31594 9.97765766 2.148237385)
)
;
    }
    obstacle
    {
        type            calculated;
        value           nonuniform List<vector> 10((425.8987336 114.1192217 2.098561668) (341.6055477 91.53293066 -5.932410543) (314.333949 84.22552778 -4.655709009) (278.3079392 74.57238755 16.05154449) (261.0942642 69.95999719 0.8753015077) (249.8791709 66.95492216 11.2969348) (221.3276174 59.30455617 5.205007117) (211.7451639 56.73694577 -3.904149887) (211.9287884 56.78614782 -19.53894163) (202.49264 54.25773919 -3.891534457));
    }
    frontAndBack
    {
        type            empty;
    }
    procBoundary0to1
    {
        type            processor;
        value           nonuniform List<vector> 
21
(
(372.4988425 103.4057029 -1.356087481)
(635.0878368 197.2943587 -6.785302486)
(835.9275949 268.5173121 -6.821687633)
(988.4484087 316.5457091 0.7522110476)
(1096.385351 345.9709274 2.022828459)
(1184.491246 351.396329 0.1913025765)
(1266.834769 335.5192457 -2.480765858)
(1336.552237 309.6485891 -2.894270411)
(1406.544497 275.2099791 0.136035939)
(1467.825005 235.814341 2.571280377)
(1523.832029 195.2787879 -3.056155717)
(1566.667929 155.7387198 3.101074527)
(1609.594256 118.4593546 -3.473058671)
(1638.750471 96.63932444 -2.311225228)
(1666.757957 69.10951005 -1.712001408)
(1676.862934 52.95272966 2.184322046)
(1694.346021 43.70813295 3.328216661)
(1701.929977 34.03848048 -1.978792689)
(1709.513509 24.2171527 -1.321479379)
(1719.540784 15.62368362 -3.635431971)
(1724.37773 13.9959384 2.377948876)
)
;
    }
    procBoundary0to2
    {
        type            processor;
        value           nonuniform List<vector> 
31
(
(1708.982484 2.100187942 -0.5147291843)
(1742.333033 3.008331642 -0.807237036)