/*--------------------------------*- C++ -*----------------------------------*\
| =========                 |                                                 |
| \\      /  F ield         | OpenFOAM: The Open Source CFD Toolbox           |
|  \\    /   O peration     | Version:  2406                                  |
|   \\  /    A nd           | Website:  www.openfoam.com                      |
|    \\/     M anipulation  |                                                 |
\*---------------------------------------------------------------------------*/
FoamFile
{
    version     2.0;
    format      ascii;
    arch        "LSB;label=32;scalar=64";
    class       volScalarField;
    location    "0.006";
    object      dsmcRhoNMean;
}
// * * * * * * * * * * * * * * * * * * * * * * * * * * * * * * * * * * * * * //

dimensions      [0 -3 0 0 0 0 0];

internalField   nonuniform List<scalar> 
654
(
7.303666667
9.396333333
9.445
9.444666667
9.482
9.476
9.476666667
9.522
9.508
9.458333333
9.452666667
9.452
9.428666667
9.415666667
9.477
9.526
9.535
9.735666667
10.21433333
13.12233333
7.393
9.522
9.621666667
9.578
9.589666667
9.630666667
9.586333333
9.547
9.536666667
9.552333333
9.571666667
9.604333333
9.610666667
9.651666667
9.616
9.698
9.839666667
10.11633333
10.751
12.488
7.485
9.694333333
9.694666667
9.656333333
9.594333333
9.629
9.682666667
9.649
9.657
9.625333333
9.608666667
9.636666667
9.634
9.683333333
9.755333333
9.74
9.762
9.983333333
10.37633333
11.42933333
7.507666667
9.528
9.623
9.611
9.551333333
9.518
9.502
9.509
9.519666667
9.596666667
9.615
9.613666667
9.655333333
9.572333333
9.582
9.549333333
9.628
9.797666667
10.12266667
10.87033333
7.449333333
9.59
9.522333333
9.536
9.567666667
9.586333333
9.558
9.513333333
9.455333333
9.446666667
9.400333333
9.407333333
9.480666667
9.511333333
9.544333333
9.723666667
9.815
9.973666667
10.15966667
10.50433333
7.403333333
9.473666667
9.589
9.551
9.534
9.566
9.552666667
9.624666667
9.645
9.652333333
9.649666667
9.637333333
9.562
9.578
9.622666667
9.568666667
9.618666667
9.735666667
9.875
10.15733333
7.480333333
9.612666667
9.682
9.638
9.711333333
9.692666667
9.674333333
9.611333333
9.705666667
9.732666667
9.692
9.707666667
9.713
9.656666667
9.663
9.614666667
9.729666667
9.766
9.939666667
10.10433333
7.412333333
9.518
9.608666667
9.620666667
9.592
9.593
9.678666667
9.741
9.741333333
9.687333333
9.658666667
9.584333333
9.634333333
9.658
9.656
9.753333333
9.730333333
9.765
9.812333333
9.851
7.472666667
9.673666667
9.685666667
9.636666667
9.603
9.587666667
9.612
9.591
9.549333333
9.552666667
9.681
9.658
9.600333333
9.591333333
9.541333333
9.566
9.645666667
9.686
9.734333333
9.908666667
7.429666667
9.453
9.572333333
9.580333333
9.626333333
9.637333333
9.599
9.600666667
9.618666667
9.626
9.586333333
9.588333333
9.628
9.635
9.687
9.733
9.743666667
9.66
9.755333333
9.798
7.488666667
9.595
9.649666667
9.608
9.584
9.495333333
9.444
9.449666667
9.524333333
9.552333333
9.579
9.623666667
9.704
9.676666667
9.649666667
9.511333333
9.552
9.636333333
9.757666667
9.795666667
7.453333333
9.579
9.637666667
9.582
9.649666667
9.683666667
9.741
9.722666667
9.763
9.643
9.611
9.533666667
9.458333333
9.555
9.603333333
9.723
9.761333333
9.693666667
9.666333333
9.751
7.467
9.579333333
9.636666667
9.633666667
9.588666667
9.547333333
9.554333333
9.523666667
9.479666667
9.555333333
9.627
9.647666667
9.673333333
9.663666667
9.566333333
9.645
9.648666667
9.731666667
9.760333333
9.718666667
7.479
9.638333333
9.665666667
9.697333333
9.717666667
9.703333333
9.661333333
9.727
9.681666667
9.614666667
9.577666667
9.595666667
9.569
9.599
9.609
9.522
9.466666667
9.450333333
9.417333333
9.566333333
7.358
9.538
9.611666667
9.555666667
9.606666667
9.628333333
9.673333333
9.655333333
9.703666667
9.711666667
9.727
9.708
9.756
9.682333333
9.671
9.614
9.616333333
9.624666667
9.585666667
9.598
7.467333333
9.59
9.593666667
9.597
9.548666667
9.622
9.639666667
9.608
9.612
9.599
9.572333333
9.524
9.405666667
9.477666667
9.541333333
9.621666667
9.654
9.627666667
9.68
9.606333333
7.495666667
9.538666667
9.56
9.587333333
9.557666667
9.554666667
9.429666667
9.494666667
9.51
9.521
9.584666667
9.622666667
9.681666667
9.71
9.645
9.631
9.648666667
9.676333333
9.638
9.656
7.421
9.548
9.600666667
9.628666667
9.605
9.529333333
9.639333333
9.622
9.569333333
9.520333333
9.495
9.506333333
9.533666667
9.551666667
9.546
9.569666667
9.617333333
9.555333333
9.57
9.587666667
7.465666667
9.59
9.662333333
9.576
9.602666667
9.652
9.612333333
9.617333333
9.607
9.597666667
9.625666667
9.583333333
9.492
9.453333333
9.417333333
9.420666667
9.407
9.443666667
9.483666667
9.465666667
7.423666667
9.571333333
9.687666667
9.684666667
9.664333333
9.691666667
9.685666667
9.691666667
9.696333333
9.655666667
9.652333333
9.647
9.714666667
9.713666667
9.758
9.715333333
9.712
9.739333333
9.749
9.748333333
7.431666667
9.545333333
9.549666667
9.550333333
9.555333333
9.551333333
9.521333333
9.367666667
9.434333333
9.498333333
9.577666667
9.599666667
9.583666667
9.606333333
9.625
9.663333333
9.668666667
9.614
9.61
9.575
7.421
9.498333333
9.544666667
9.461333333
9.508
9.486666667
9.594333333
9.677
9.741
9.727666667
9.601333333
9.594333333
9.582333333
9.597333333
9.601
9.589333333
9.589333333
9.570666667
9.619333333
9.627666667
23.03066667
26.29266667
27.21433333
28.15233333
28.40633333
28.56266667
28.514
28.55433333
27.48133333
27.53
15.74566667
18.78366667
20.712
22.27466667
23.46166667
24.06366667
24.43466667
24.732
24.91066667
24.51033333
13.041
15.029
16.71666667
18.31433333
19.64566667
20.816
21.663
22.35
22.82733333
23.029
11.776
13.01966667
14.26866667
15.55166667
16.946
18.22466667
19.38933333
20.155
20.706
21.326
11.09733333
11.806
12.72433333
13.846
14.79833333
15.66633333
16.66733333
17.50233333
18.60166667
19.59566667
10.55166667
11.06833333
11.681
12.32833333
13.02133333
14.011
15.08966667
16.01033333
16.91166667
17.73033333
10.31533333
10.619
10.946
11.52833333
12.005
12.80933333
13.52566667
14.43233333
15.34366667
16.259
10.05066667
10.222
10.43566667
10.84766667
11.214
11.70266667
12.42633333
13.01266667
13.73366667
14.45833333
9.959
10.12533333
10.25533333
10.48366667
10.74433333
11.023
11.34033333
11.89266667
12.50666667
13.15733333
9.913333333
9.952666667
10.04933333
10.09166667
10.16133333
10.55266667
10.88333333
11.16466667
11.50733333
11.876
9.853
9.832333333
9.966333333
10.01433333
10.13866667
10.20533333
10.37433333
10.68433333
10.957
11.303
9.697333333
9.68
9.640333333
9.668333333
9.706
9.839666667
9.937
10.20833333
10.44933333
10.68
9.711
9.715666667
9.716666667
9.708
9.671
9.78
9.971
9.917333333
9.997333333
10.22833333
9.613333333
9.584666667
9.581
9.538666667
9.551333333
9.498333333
9.488666667
9.578
9.708333333
9.788333333
9.538333333
9.491333333
9.474
9.535
9.487
9.564666667
9.518666667
9.543
9.544333333
9.661333333
9.725333333
9.725666667
9.564666667
9.476333333
9.481666667
9.419333333
9.421333333
9.411333333
9.508
9.469333333
9.543666667
9.498
9.424333333
9.409
9.280333333
9.296
9.287333333
9.250666667
9.122666667
9.265
9.526333333
9.383
9.337333333
9.313
9.378333333
9.319
9.270666667
9.285333333
9.264666667
9.252
9.508
9.588
9.560333333
9.529666667
9.372333333
9.283
9.252
9.178
9.110333333
9.143
9.643333333
9.574
9.448666667
9.362666667
9.338
9.308666667
9.304666667
9.276666667
9.158
9.050666667
9.522333333
9.476
9.393
9.322666667
9.245
9.114
9.005
8.971333333
9.067333333
9.012333333
9.575333333
9.460333333
9.381
9.347333333
)
;

boundaryField
{
    flow
    {
        type            calculated;
        value           nonuniform List<scalar> 
42
(
7.303666667
7.393
7.485
7.507666667
7.449333333
7.403333333
7.480333333
7.412333333
7.472666667
7.429666667
7.488666667
7.453333333
7.467
7.479
7.358
7.467333333
7.495666667
7.421
7.465666667
7.423666667
7.431666667
7.421
7.303666667
9.396333333
9.445
9.444666667
9.482
9.476
9.476666667
9.522
9.508
9.458333333
9.452666667
9.452
9.428666667
9.415666667
9.477
9.526
9.535
9.735666667
10.21433333
13.12233333
)
;
    }
    obstacle
    {
        type            calculated;
        value           nonuniform List<scalar> 10(23.03066667 26.29266667 27.21433333 28.15233333 28.40633333 28.56266667 28.514 28.55433333 27.48133333 27.53);
    }
    frontAndBack
    {
        type            empty;
    }
    procBoundary0to1
    {
        type            processor;
        value           nonuniform List<scalar> 
21
(
27.172
24.338
22.93733333
21.477
19.96066667
18.62333333
16.986
15.29866667
13.88966667
12.483
11.78833333
11.01
10.36133333
9.856666667
9.779666667
9.421
9.297333333
9.304
9.155
9.027
8.944333333
)
;
    }
    procBoundary0to2
    {
        type            processor;
        value           nonuniform List<scalar> 
31
(
7.416
9.574333333
9.694666667
9.625666667
9.641
9.613333333
9.618333333
9.564666667
9.506333333
9.529333333
9.573
9.622666667
9.588666667
9.546666667
9.574666667
9.536666667
9.566333333
9.494333333
9.433
9.413333333
9.324333333
9.261333333
9.213
9.146666667
9.079333333
9.099666667
9.463333333
9.444666667
9.441666667
9.324333333
9.315333333
)
;
    }
}


// ************************************************************************* //
