/*--------------------------------*- C++ -*----------------------------------*\
| =========                 |                                                 |
| \\      /  F ield         | OpenFOAM: The Open Source CFD Toolbox           |
|  \\    /   O peration     | Version:  2406                                  |
|   \\  /    A nd           | Website:  www.openfoam.com                      |
|    \\/     M anipulation  |                                                 |
\*---------------------------------------------------------------------------*/
FoamFile
{
    version     2.0;
    format      ascii;
    arch        "LSB;label=32;scalar=64";
    class       volVectorField;
    location    "0.006";
    object      fDMean;
}
// * * * * * * * * * * * * * * * * * * * * * * * * * * * * * * * * * * * * * //

dimensions      [1 -1 -2 0 0 0 0];

internalField   uniform (0 0 0);

boundaryField
{
    flow
    {
        type            calculated;
        value           uniform (0 0 0);
    }
    obstacle
    {
        type            calculated;
        value           nonuniform List<vector> 10((4.445197871 -2.586280202 0.03120473341) (3.941445917 -2.727759351 0.008284261963) (3.557843401 -2.774423433 -0.01486861995) (3.258124515 -2.751967123 -0.0231711214) (3.208096161 -2.866027681 0.04981429315) (2.845333784 -2.81400162 -0.01397339478) (2.763631264 -2.786507958 -0.002656465607) (2.73679226 -2.871212929 0.00236168528) (2.602476796 -2.765187404 0.01616598274) (2.523845373 -2.769120447 0.001177710734));
    }
    frontAndBack
    {
        type            empty;
    }
    procBoundary0to1
    {
        type            processor;
        value           uniform (0 0 0);
    }
    procBoundary0to2
    {
        type            processor;
        value           uniform (0 0 0);
    }
}


// ************************************************************************* //
