/*--------------------------------*- C++ -*----------------------------------*\
| =========                 |                                                 |
| \\      /  F ield         | OpenFOAM: The Open Source CFD Toolbox           |
|  \\    /   O peration     | Version:  2406                                  |
|   \\  /    A nd           | Website:  www.openfoam.com                      |
|    \\/     M anipulation  |                                                 |
\*---------------------------------------------------------------------------*/
FoamFile
{
    version     2.0;
    format      ascii;
    arch        "LSB;label=32;scalar=64";
    class       volScalarField;
    location    "0.006";
    object      iDofMean;
}
// * * * * * * * * * * * * * * * * * * * * * * * * * * * * * * * * * * * * * //

dimensions      [0 -3 0 0 0 0 0];

internalField   nonuniform List<scalar> 
654
(
1.521207413e+20
1.957067946e+20
1.967204237e+20
1.967134811e+20
1.974910596e+20
1.973660916e+20
1.973799769e+20
1.983241794e+20
1.980325875e+20
1.969981303e+20
1.96880105e+20
1.968662197e+20
1.963802331e+20
1.961094692e+20
1.973869196e+20
1.984074914e+20
1.985949434e+20
2.027744279e+20
2.127440954e+20
2.733119083e+20
1.539813756e+20
1.983241794e+20
2.004000364e+20
1.994905472e+20
1.997335405e+20
2.005874883e+20
1.996641138e+20
1.988448793e+20
1.986296567e+20
1.98955962e+20
1.993586366e+20
2.000390178e+20
2.001709284e+20
2.010248763e+20
2.002820111e+20
2.019899068e+20
2.049405395e+20
2.107029518e+20
2.239217867e+20
2.60100016e+20
1.558975513e+20
2.019135374e+20
2.019204801e+20
2.011220736e+20
1.998307378e+20
2.00552775e+20
2.016705441e+20
2.009693349e+20
2.011359589e+20
2.004764057e+20
2.001292724e+20
2.007124563e+20
2.00656915e+20
2.016844295e+20
2.031840452e+20
2.028646826e+20
2.033228985e+20
2.079328283e+20
2.161182308e+20
2.380501108e+20
1.563696525e+20
1.984491474e+20
2.00427807e+20
2.001778711e+20
1.98935134e+20
1.982408674e+20
1.979076195e+20
1.980534155e+20
1.982755808e+20
1.998793365e+20
2.002611831e+20
2.002334124e+20
2.011012456e+20
1.993725219e+20
1.995738592e+20
1.98893478e+20
2.00531947e+20
2.040657637e+20
2.108348625e+20
2.264072609e+20
1.551546861e+20
1.997404832e+20
1.983311221e+20
1.986157714e+20
1.992753246e+20
1.996641138e+20
1.990739873e+20
1.981436701e+20
1.969356464e+20
1.967551371e+20
1.957901066e+20
1.959359025e+20
1.974632889e+20
1.981020141e+20
1.98789338e+20
2.02524492e+20
2.044267823e+20
2.07731491e+20
2.116054983e+20
2.187842143e+20
1.541965982e+20
1.973174929e+20
1.997196552e+20
1.989281913e+20
1.985741154e+20
1.992406113e+20
1.989629046e+20
2.004625204e+20
2.00886023e+20
2.010387616e+20
2.009832203e+20
2.007263417e+20
1.991572993e+20
1.994905472e+20
2.004208644e+20
1.992961526e+20
2.003375524e+20
2.027744279e+20
2.056764621e+20
2.115568997e+20
1.558003539e+20
2.002125844e+20
2.016566588e+20
2.00740227e+20
2.022676134e+20
2.018788241e+20
2.014969775e+20
2.001848138e+20
2.021495881e+20
2.02711944e+20
2.018649388e+20
2.02191244e+20
2.023023267e+20
2.011290162e+20
2.012609269e+20
2.002542404e+20
2.0264946e+20
2.034062105e+20
2.070233392e+20
2.104530159e+20
1.543840502e+20
1.982408674e+20
2.001292724e+20
2.003792084e+20
1.997821392e+20
1.998029672e+20
2.015872322e+20
2.028855106e+20
2.028924533e+20
2.017677415e+20
2.011706722e+20
1.996224579e+20
2.006638577e+20
2.011567869e+20
2.011151309e+20
2.031423892e+20
2.026633453e+20
2.033853825e+20
2.04371241e+20
2.051765902e+20
1.556406726e+20
2.014830922e+20
2.017330281e+20
2.007124563e+20
2.000112471e+20
1.996918845e+20
2.001986991e+20
1.997613112e+20
1.98893478e+20
1.989629046e+20
2.016358308e+20
2.011567869e+20
1.999557058e+20
1.997682538e+20
1.98726854e+20
1.992406113e+20
2.008999083e+20
2.017399708e+20
2.027466573e+20
2.063776713e+20
1.547450688e+20
1.968870477e+20
1.993725219e+20
1.995391459e+20
2.004972337e+20
2.007263417e+20
1.999279351e+20
1.999626485e+20
2.003375524e+20
2.00490291e+20
1.996641138e+20
1.997057698e+20
2.00531947e+20
2.00677743e+20
2.017607988e+20
2.027188866e+20
2.029410519e+20
2.011984429e+20
2.031840452e+20
2.040727064e+20
1.559739206e+20
1.998446231e+20
2.009832203e+20
2.001153871e+20
1.996155152e+20
1.977687662e+20
1.966995957e+20
1.96817621e+20
1.983727781e+20
1.98955962e+20
1.995113752e+20
2.004416924e+20
2.021148747e+20
2.015455762e+20
2.009832203e+20
1.981020141e+20
1.989490193e+20
2.007055137e+20
2.032326439e+20
2.040241077e+20
1.55237998e+20
1.995113752e+20
2.007332843e+20
1.995738592e+20
2.009832203e+20
2.016913721e+20
2.028855106e+20
2.02503664e+20
2.033437265e+20
2.00844367e+20
2.001778711e+20
1.985671727e+20
1.969981303e+20
1.990115033e+20
2.000181898e+20
2.025106067e+20
2.033090132e+20
2.018996521e+20
2.013303535e+20
2.030937905e+20
1.555226473e+20
1.995183179e+20
2.007124563e+20
2.006499723e+20
1.997127125e+20
1.98851822e+20
1.98997618e+20
1.983588928e+20
1.974424609e+20
1.99018446e+20
2.00511119e+20
2.009415643e+20
2.014761495e+20
2.012748122e+20
1.992475539e+20
2.00886023e+20
2.009623923e+20
2.02691116e+20
2.032881852e+20
2.02420352e+20
1.557725833e+20
2.007471696e+20
2.013164682e+20
2.019760214e+20
2.02399524e+20
2.021009894e+20
2.012262136e+20
2.025939186e+20
2.016497161e+20
2.002542404e+20
1.994836045e+20
1.998585085e+20
1.993030952e+20
1.999279351e+20
2.001362151e+20
1.983241794e+20
1.97171697e+20
1.968315064e+20
1.961441825e+20
1.992475539e+20
1.532523957e+20
1.986574274e+20
2.001917564e+20
1.990253886e+20
2.000876164e+20
2.005388897e+20
2.014761495e+20
2.011012456e+20
2.021079321e+20
2.02274556e+20
2.025939186e+20
2.021981867e+20
2.031979305e+20
2.016636015e+20
2.014275509e+20
2.002403551e+20
2.002889537e+20
2.004625204e+20
1.996502285e+20
1.999071071e+20
1.5552959e+20
1.997404832e+20
1.998168525e+20
1.998862791e+20
1.988795927e+20
2.00406979e+20
2.007749403e+20
2.001153871e+20
2.001986991e+20
1.999279351e+20
1.993725219e+20
1.983658354e+20
1.959011892e+20
1.974008049e+20
1.98726854e+20
2.004000364e+20
2.010734749e+20
2.005250044e+20
2.016150028e+20
2.000806738e+20
1.561197165e+20
1.986713127e+20
1.991156433e+20
1.996849418e+20
1.990670446e+20
1.990045606e+20
1.964010611e+20
1.977548809e+20
1.980742435e+20
1.983033514e+20
1.996294005e+20
2.004208644e+20
2.016497161e+20
2.022398427e+20
2.00886023e+20
2.00594431e+20
2.009623923e+20
2.015386335e+20
2.00740227e+20
2.011151309e+20
1.545645595e+20
1.988657073e+20
1.999626485e+20
2.005458324e+20
2.000529031e+20
1.984769181e+20
2.007679976e+20
2.00406979e+20
1.993100379e+20
1.982894661e+20
1.977618235e+20
1.979978742e+20
1.985671727e+20
1.989420766e+20
1.988240513e+20
1.993169806e+20
2.003097817e+20
1.99018446e+20
1.993239232e+20
1.996918845e+20
1.554948767e+20
1.997404832e+20
2.012470416e+20
1.994488912e+20
2.000043045e+20
2.010318189e+20
2.002056417e+20
2.003097817e+20
2.000945591e+20
1.999001645e+20
2.004833484e+20
1.996016299e+20
1.976993395e+20
1.968939904e+20
1.961441825e+20
1.962136092e+20
1.959289599e+20
1.966926531e+20
1.975257729e+20
1.97150869e+20
1.546201008e+20
1.993516939e+20
2.017746841e+20
2.017122001e+20
2.012886975e+20
2.018579961e+20
2.017330281e+20
2.018579961e+20
2.019551934e+20
2.011081882e+20
2.010387616e+20
2.009276789e+20
2.0233704e+20
2.02316212e+20
2.032395865e+20
2.023509254e+20
2.022814987e+20
2.028507973e+20
2.030521346e+20
2.030382492e+20
1.547867248e+20
1.98810166e+20
1.989004207e+20
1.98914306e+20
1.99018446e+20
1.98935134e+20
1.983102941e+20
1.951097254e+20
1.964982584e+20
1.978312502e+20
1.994836045e+20
1.999418205e+20
1.996085725e+20
2.000806738e+20
2.00469463e+20
2.012678696e+20
2.013789522e+20
2.002403551e+20
2.001570431e+20
1.994280632e+20
1.545645595e+20
1.978312502e+20
1.987962807e+20
1.970606143e+20
1.980325875e+20
1.975882569e+20
1.998307378e+20
2.015525188e+20
2.028855106e+20
2.02607804e+20
1.999765338e+20
1.998307378e+20
1.995808019e+20
1.998932218e+20
1.999695911e+20
1.997265978e+20
1.997265978e+20
1.993378086e+20
2.003514377e+20
2.005250044e+20
4.813837143e+20
5.533444453e+20
5.767069542e+20
6.00743767e+20
6.104197215e+20
6.181189206e+20
6.214598157e+20
6.268022906e+20
6.076063906e+20
6.131113994e+20
3.291136821e+20
3.953131778e+20
4.389140933e+20
4.753200031e+20
5.041644717e+20
5.207569675e+20
5.325511487e+20
5.428974328e+20
5.507695015e+20
5.458614155e+20
2.725811245e+20
3.162940363e+20
3.542478075e+20
3.908102917e+20
4.22162982e+20
4.504748664e+20
4.721429469e+20
4.906096403e+20
5.04707448e+20
5.128711375e+20
2.461402747e+20
2.740064492e+20
3.023715186e+20
3.318576369e+20
3.641502223e+20
3.943963433e+20
4.225886066e+20
4.424267248e+20
4.578052226e+20
4.749441955e+20
2.319548807e+20
2.484641289e+20
2.69645096e+20
2.954603481e+20
3.179993143e+20
3.390319668e+20
3.632628852e+20
3.841974703e+20
4.112788639e+20
4.364085224e+20
2.205494337e+20
2.329395053e+20
2.475355118e+20
2.63074798e+20
2.798136095e+20
3.032092309e+20
3.288777954e+20
3.51446258e+20
3.739133255e+20
3.948663091e+20
2.156096281e+20
2.234830243e+20
2.319599105e+20
2.460035664e+20
2.579737651e+20
2.772042048e+20
2.947905702e+20
3.168072423e+20
3.392451818e+20
3.620987375e+20
2.100776031e+20
2.151279288e+20
2.211452865e+20
2.314787928e+20
2.409760765e+20
2.53255054e+20
2.708307087e+20
2.85643835e+20
3.036484268e+20
3.219966939e+20
2.081615995e+20
2.130935225e+20
2.173237895e+20
2.237113824e+20
2.308834756e+20
2.385465244e+20
2.471614457e+20
2.61058475e+20
2.765197198e+20
2.930225591e+20
2.072070815e+20
2.094596523e+20
2.12958383e+20
2.153464787e+20
2.1835547e+20
2.283681356e+20
2.37201176e+20
2.450779909e+20
2.544246739e+20
2.644864141e+20
2.059460026e+20
2.069271673e+20
2.111995054e+20
2.136962596e+20
2.178683892e+20
2.208515647e+20
2.261075711e+20
2.345340908e+20
2.422569219e+20
2.517253232e+20
2.026922801e+20
2.037212239e+20
2.042911435e+20
2.063129517e+20
2.085708757e+20
2.129382461e+20
2.165759351e+20
2.240853144e+20
2.310325218e+20
2.378507001e+20
2.029779388e+20
2.0447185e+20
2.059087464e+20
2.071594004e+20
2.078187647e+20
2.116470113e+20
2.173169606e+20
2.176975077e+20
2.210388966e+20
2.277917822e+20
2.009365234e+20
2.017148771e+20
2.030337919e+20
2.035459889e+20
2.052472655e+20
2.055515195e+20
2.068045525e+20
2.102487306e+20
2.146491685e+20
2.179926882e+20
1.993688858e+20
1.997506247e+20
2.007663247e+20
2.034677472e+20
2.038648169e+20
2.069870273e+20
2.074584009e+20
2.094804395e+20
2.110231652e+20
2.151643153e+20
2.032775318e+20
2.046823058e+20
2.026876701e+20
2.022158568e+20
2.037502082e+20
2.038418979e+20
2.053370306e+20
2.065901934e+20
2.102198415e+20
2.108883477e+20
1.994803611e+20
1.998909272e+20
1.997138224e+20
2.007790267e+20
1.994237844e+20
2.011728646e+20
2.024165138e+20
2.030633678e+20
2.017002055e+20
2.063377085e+20
1.991180622e+20
1.974706867e+20
1.978701825e+20
1.987304789e+20
2.015296913e+20
2.01670603e+20
2.02053264e+20
2.038243418e+20
2.048397951e+20
2.060481899e+20
1.987348628e+20
2.017850308e+20
2.025958398e+20
2.033539389e+20
2.014007595e+20
2.008915342e+20
2.016464273e+20
2.014682448e+20
2.014275168e+20
2.036206889e+20
2.015635795e+20
2.014903927e+20
2.002294786e+20
1.997903179e+20
2.006629753e+20
2.014469828e+20
2.027942921e+20
2.03634098e+20
2.02481418e+20
2.015643627e+20
1.990344548e+20
1.994279244e+20
1.990498299e+20
1.989367576e+20
1.986645114e+20
1.972342393e+20
1.962630866e+20
1.969316619e+20
2.004767974e+20
2.007106539e+20
2.001422532e+20
1.990982103e+20
1.987955343e+20
1.994631206e+20
)
;

boundaryField
{
    flow
    {
        type            calculated;
        value           nonuniform List<scalar> 
42
(
1.521207413e+20
1.539813756e+20
1.558975513e+20
1.563696525e+20
1.551546861e+20
1.541965982e+20
1.558003539e+20
1.543840502e+20
1.556406726e+20
1.547450688e+20
1.559739206e+20
1.55237998e+20
1.555226473e+20
1.557725833e+20
1.532523957e+20
1.5552959e+20
1.561197165e+20
1.545645595e+20
1.554948767e+20
1.546201008e+20
1.547867248e+20
1.545645595e+20
1.521207413e+20
1.957067946e+20
1.967204237e+20
1.967134811e+20
1.974910596e+20
1.973660916e+20
1.973799769e+20
1.983241794e+20
1.980325875e+20
1.969981303e+20
1.96880105e+20
1.968662197e+20
1.963802331e+20
1.961094692e+20
1.973869196e+20
1.984074914e+20
1.985949434e+20
2.027744279e+20
2.127440954e+20
2.733119083e+20
)
;
    }
    obstacle
    {
        type            calculated;
        value           nonuniform List<scalar> 10(277.8430037 283.3478793 288.3278093 274.024264 304.3606444 294.7326749 285.1969482 284.7830505 286.5023463 274.9244757);
    }
    frontAndBack
    {
        type            empty;
    }
    procBoundary0to1
    {
        type            processor;
        value           nonuniform List<scalar> 
21
(
6.095739882e+20
5.4599631e+20
5.145738907e+20
4.818129157e+20
4.477956421e+20
4.177940376e+20
3.810622613e+20
3.432087904e+20
3.115994226e+20
2.800424001e+20
2.644583161e+20
2.469972631e+20
2.324451371e+20
2.211234945e+20
2.193960856e+20
2.113497912e+20
2.085754653e+20
2.087250261e+20
2.053823747e+20
2.025108338e+20
2.006562993e+20
)
;
    }
    procBoundary0to2
    {
        type            processor;
        value           nonuniform List<scalar> 
31
(
1.544604195e+20
1.994141779e+20
2.019204801e+20
2.004833484e+20
2.00802711e+20
2.002264697e+20
2.003306097e+20
1.992128406e+20
1.979978742e+20
1.984769181e+20
1.993864072e+20
2.004208644e+20
1.997127125e+20
1.988379367e+20
1.994211206e+20
1.986296567e+20
1.992475539e+20
1.977479382e+20
1.964704878e+20
1.960608705e+20
2.003692943e+20
2.004226503e+20
2.007964247e+20
2.007804401e+20
2.007421148e+20
2.026556253e+20
1.978012452e+20
1.987684976e+20
2.000811395e+20
2.003692943e+20
1.9878027e+20
)
;
    }
}


// ************************************************************************* //
