/*--------------------------------*- C++ -*----------------------------------*\
| =========                 |                                                 |
| \\      /  F ield         | OpenFOAM: The Open Source CFD Toolbox           |
|  \\    /   O peration     | Version:  2406                                  |
|   \\  /    A nd           | Website:  www.openfoam.com                      |
|    \\/     M anipulation  |                                                 |
\*---------------------------------------------------------------------------*/
FoamFile
{
    version     2.0;
    format      ascii;
    arch        "LSB;label=32;scalar=64";
    class       volScalarField;
    location    "0.006";
    object      iDof;
}
// * * * * * * * * * * * * * * * * * * * * * * * * * * * * * * * * * * * * * //

dimensions      [0 -3 0 0 0 0 0];

internalField   nonuniform List<scalar> 
654
(
1.041399808e+20
2.082799616e+20
1.24967977e+20
2.915919462e+20
2.291079578e+20
2.291079578e+20
1.24967977e+20
1.874519654e+20
2.915919462e+20
1.457959731e+20
2.707639501e+20
1.874519654e+20
2.915919462e+20
2.499359539e+20
2.291079578e+20
6.248398848e+19
1.874519654e+20
1.874519654e+20
1.874519654e+20
2.707639501e+20
1.666239693e+20
2.291079578e+20
1.666239693e+20
2.082799616e+20
1.666239693e+20
2.291079578e+20
1.457959731e+20
1.874519654e+20
1.666239693e+20
1.457959731e+20
2.291079578e+20
1.874519654e+20
2.082799616e+20
1.666239693e+20
1.24967977e+20
2.707639501e+20
1.666239693e+20
1.457959731e+20
2.291079578e+20
2.082799616e+20
2.499359539e+20
1.666239693e+20
1.874519654e+20
2.499359539e+20
1.24967977e+20
2.082799616e+20
1.457959731e+20
1.874519654e+20
1.666239693e+20
1.666239693e+20
2.499359539e+20
1.24967977e+20
1.874519654e+20
2.499359539e+20
1.041399808e+20
1.874519654e+20
1.457959731e+20
2.082799616e+20
1.666239693e+20
2.499359539e+20
1.24967977e+20
1.666239693e+20
2.499359539e+20
2.499359539e+20
2.082799616e+20
2.707639501e+20
1.874519654e+20
2.082799616e+20
2.707639501e+20
1.666239693e+20
2.291079578e+20
3.332479385e+20
8.331198464e+19
1.874519654e+20
1.457959731e+20
1.457959731e+20
1.666239693e+20
2.082799616e+20
2.082799616e+20
2.082799616e+20
1.666239693e+20
1.666239693e+20
2.291079578e+20
2.915919462e+20
2.082799616e+20
2.291079578e+20
2.499359539e+20
1.666239693e+20
2.499359539e+20
2.291079578e+20
2.082799616e+20
2.915919462e+20
1.666239693e+20
2.499359539e+20
1.666239693e+20
1.24967977e+20
1.24967977e+20
2.499359539e+20
2.707639501e+20
1.457959731e+20
1.666239693e+20
1.041399808e+20
1.666239693e+20
2.082799616e+20
8.331198464e+19
1.24967977e+20
2.291079578e+20
2.707639501e+20
1.666239693e+20
2.082799616e+20
1.457959731e+20
1.457959731e+20
2.707639501e+20
1.666239693e+20
2.291079578e+20
2.707639501e+20
2.707639501e+20
2.291079578e+20
8.331198464e+19
2.499359539e+20
2.915919462e+20
1.24967977e+20
2.082799616e+20
1.874519654e+20
1.457959731e+20
2.499359539e+20
2.499359539e+20
6.248398848e+19
2.082799616e+20
1.874519654e+20
2.082799616e+20
2.082799616e+20
2.291079578e+20
1.24967977e+20
1.666239693e+20
1.666239693e+20
1.24967977e+20
2.082799616e+20
1.666239693e+20
1.24967977e+20
1.457959731e+20
1.666239693e+20
2.499359539e+20
2.915919462e+20
1.041399808e+20
1.874519654e+20
1.874519654e+20
8.331198464e+19
2.499359539e+20
1.874519654e+20
1.874519654e+20
2.291079578e+20
2.499359539e+20
1.874519654e+20
2.082799616e+20
2.499359539e+20
2.082799616e+20
2.499359539e+20
1.874519654e+20
8.331198464e+19
1.041399808e+20
3.124199424e+20
1.24967977e+20
1.666239693e+20
2.291079578e+20
1.874519654e+20
2.499359539e+20
1.666239693e+20
1.457959731e+20
2.291079578e+20
2.499359539e+20
1.874519654e+20
2.291079578e+20
1.874519654e+20
2.915919462e+20
2.082799616e+20
2.707639501e+20
2.082799616e+20
2.082799616e+20
2.707639501e+20
1.457959731e+20
1.457959731e+20
2.915919462e+20
1.666239693e+20
2.707639501e+20
2.291079578e+20
1.457959731e+20
1.457959731e+20
1.666239693e+20
1.874519654e+20
1.874519654e+20
3.124199424e+20
2.291079578e+20
3.332479385e+20
1.457959731e+20
1.457959731e+20
2.291079578e+20
1.666239693e+20
2.499359539e+20
1.666239693e+20
1.457959731e+20
1.666239693e+20
1.457959731e+20
2.915919462e+20
1.24967977e+20
3.332479385e+20
2.291079578e+20
1.666239693e+20
1.041399808e-281
2.499359539e+20
2.499359539e+20
1.457959731e+20
1.041399808e+20
1.666239693e+20
3.124199424e+20
1.874519654e+20
2.499359539e+20
1.457959731e+20
1.041399808e+20
2.291079578e+20
1.666239693e+20
3.124199424e+20
1.24967977e+20
1.041399808e+20
1.457959731e+20
1.874519654e+20
3.332479385e+20
2.915919462e+20
2.082799616e+20
2.082799616e+20
2.499359539e+20
2.707639501e+20
2.707639501e+20
1.041399808e+20
8.331198464e+19
3.749039309e+20
3.124199424e+20
2.499359539e+20
1.666239693e+20
2.499359539e+20
2.082799616e+20
6.248398848e+19
2.499359539e+20
2.707639501e+20
1.874519654e+20
1.874519654e+20
1.874519654e+20
2.707639501e+20
1.24967977e+20
1.457959731e+20
2.915919462e+20
2.499359539e+20
2.915919462e+20
8.331198464e+19
1.666239693e+20
2.707639501e+20
1.457959731e+20
2.707639501e+20
1.666239693e+20
1.874519654e+20
1.874519654e+20
2.082799616e+20
1.666239693e+20
2.291079578e+20
3.332479385e+20
1.457959731e+20
1.874519654e+20
1.666239693e+20
1.874519654e+20
2.082799616e+20
2.915919462e+20
2.291079578e+20
2.082799616e+20
1.874519654e+20
8.331198464e+19
2.707639501e+20
1.874519654e+20
2.082799616e+20
1.457959731e+20
2.291079578e+20
1.666239693e+20
2.082799616e+20
1.666239693e+20
2.291079578e+20
1.457959731e+20
2.915919462e+20
1.457959731e+20
1.457959731e+20
2.082799616e+20
1.041399808e+20
3.540759347e+20
2.707639501e+20
1.874519654e+20
1.041399808e+20
1.24967977e+20
1.24967977e+20
1.457959731e+20
3.124199424e+20
2.499359539e+20
1.874519654e+20
1.874519654e+20
1.874519654e+20
1.666239693e+20
1.874519654e+20
2.291079578e+20
1.457959731e+20
1.666239693e+20
3.124199424e+20
1.457959731e+20
1.666239693e+20
2.707639501e+20
1.457959731e+20
1.666239693e+20
2.291079578e+20
1.666239693e+20
1.874519654e+20
1.041399808e+20
2.499359539e+20
1.666239693e+20
1.666239693e+20
1.874519654e+20
2.082799616e+20
2.499359539e+20
2.499359539e+20
1.666239693e+20
2.499359539e+20
2.707639501e+20
1.666239693e+20
2.291079578e+20
2.707639501e+20
1.874519654e+20
2.499359539e+20
2.707639501e+20
1.874519654e+20
2.082799616e+20
2.707639501e+20
2.291079578e+20
2.707639501e+20
2.082799616e+20
3.124199424e+20
1.457959731e+20
1.24967977e+20
2.082799616e+20
2.915919462e+20
1.874519654e+20
2.291079578e+20
4.165599232e+19
4.165599232e+19
2.291079578e+20
1.457959731e+20
1.24967977e+20
1.457959731e+20
2.499359539e+20
2.707639501e+20
2.291079578e+20
3.124199424e+20
1.457959731e+20
1.457959731e+20
1.041399808e+20
2.291079578e+20
1.666239693e+20
2.082799616e+20
2.082799616e+20
1.041399808e+20
6.248398848e+19
2.291079578e+20
2.082799616e+20
2.082799616e+20
2.291079578e+20
2.291079578e+20
2.707639501e+20
2.291079578e+20
2.291079578e+20
1.874519654e+20
2.291079578e+20
1.041399808e+20
8.331198464e+19
1.874519654e+20
1.666239693e+20
1.666239693e+20
1.24967977e+20
2.499359539e+20
1.874519654e+20
2.499359539e+20
1.457959731e+20
2.915919462e+20
2.291079578e+20
2.082799616e+20
2.082799616e+20
1.874519654e+20
2.915919462e+20
2.291079578e+20
1.457959731e+20
1.457959731e+20
2.291079578e+20
1.666239693e+20
1.457959731e+20
1.666239693e+20
1.874519654e+20
2.291079578e+20
1.666239693e+20
1.666239693e+20
1.457959731e+20
1.041399808e+20
2.915919462e+20
1.24967977e+20
2.291079578e+20
2.291079578e+20
2.291079578e+20
1.041399808e+20
2.082799616e+20
8.331198464e+19
2.915919462e+20
1.24967977e+20
2.082799616e+20
1.874519654e+20
1.874519654e+20
2.291079578e+20
2.915919462e+20
1.457959731e+20
1.666239693e+20
2.082799616e+20
1.874519654e+20
1.457959731e+20
2.499359539e+20
2.291079578e+20
2.499359539e+20
2.499359539e+20
2.082799616e+20
2.082799616e+20
1.457959731e+20
1.874519654e+20
1.874519654e+20
1.457959731e+20
2.082799616e+20
1.24967977e+20
1.666239693e+20
1.874519654e+20
1.666239693e+20
1.24967977e+20
4.598408665e+20
7.15549753e+20
7.416953099e+20
5.548150399e+20
5.372215012e+20
6.708647608e+20
6.102572364e+20
7.463412867e+20
6.190739994e+20
6.235786118e+20
3.135278636e+20
3.156837146e+20
2.754868295e+20
5.121369602e+20
6.231769416e+20
4.544567737e+20
5.884623355e+20
4.390242866e+20
6.190739994e+20
4.899546236e+20
2.090185757e+20
2.735925526e+20
3.814433022e+20
4.481198401e+20
4.082883413e+20
3.029711823e+20
4.576929273e+20
5.048779296e+20
3.537565711e+20
4.454132941e+20
2.508222908e+20
2.735925527e+20
3.814433024e+20
2.347294399e+20
2.363774605e+20
5.193791696e+20
4.358980263e+20
5.268291439e+20
5.527446424e+20
5.567666177e+20
2.508222908e+20
2.946381335e+20
1.907216512e+20
2.987465603e+20
2.793551809e+20
2.164079875e+20
3.051286184e+20
2.63414572e+20
4.864152856e+20
3.117893061e+20
2.508222908e+20
2.946381335e+20
3.814433022e+20
2.987465599e+20
3.438217607e+20
3.678935782e+20
2.833337167e+20
3.731706431e+20
2.653174281e+20
4.899546239e+20
2.299204332e+20
1.262734858e+20
1.907216512e+20
2.774075203e+20
2.148886007e+20
4.32815975e+20
3.269235197e+20
3.073170006e+20
3.095369997e+20
3.563306353e+20
2.299204332e+20
1.052279049e+20
1.059564729e+20
1.920513599e+20
2.363774605e+20
1.514855911e+20
2.179490132e+20
2.63414572e+20
4.421957139e+20
4.231426294e+20
1.254111454e+20
1.894102287e+20
2.119129457e+20
1.2803424e+20
1.289331604e+20
3.029711823e+20
2.833337169e+20
1.97560929e+20
3.095369997e+20
5.790372824e+20
2.299204334e+20
2.315013908e+20
3.390607133e+20
2.347294401e+20
2.793551807e+20
2.59689585e+20
1.961541118e+20
2.414633576e+20
2.432076426e+20
3.117893059e+20
1.254111454e+20
3.156837145e+20
2.542955348e+20
2.133904001e+20
1.719108804e+20
1.947671886e+20
3.487184208e+20
1.756097145e+20
2.432076426e+20
2.227066471e+20
2.090185757e+20
2.104558098e+20
2.119129458e+20
1.2803424e+20
1.504220204e+20
1.947671887e+20
2.397439153e+20
2.414633592e+20
2.653174296e+20
2.22706648e+20
3.553315786e+20
2.315013913e+20
1.483390626e+20
1.066952e+20
1.933997397e+20
2.813303832e+20
2.833337165e+20
3.292682122e+20
2.653174272e+20
1.113533235e+20
1.881167175e+20
1.894102275e+20
3.178694163e+20
2.347294393e+20
2.578663208e+20
1.082039934e+20
1.525643084e+20
2.414633573e+20
2.21097856e+20
2.004359809e+20
2.926260075e+20
2.525469723e+20
2.331042402e+20
1.707123206e+20
1.93399742e+20
1.514855919e+20
1.961541121e+20
1.317072867e+20
2.210978576e+20
2.227066471e+20
1.672148603e+20
1.683646482e+20
1.271477683e+20
1.920513607e+20
2.363774608e+20
2.596895861e+20
2.179490135e+20
2.195121415e+20
1.10548928e+20
1.336239882e+20
2.090185754e+20
1.052279044e+20
1.059564721e+20
2.560684792e+20
2.578663208e+20
2.380487856e+20
6.538470404e+19
3.073170023e+20
2.210978576e+20
1.781653177e+20
2.508222905e+20
1.683646482e+20
1.695303577e+20
1.280342396e+20
2.148885992e+20
2.164079869e+20
8.717960478e+19
1.097560715e+20
2.210978576e+20
2.004359824e+20
1.881167191e+20
2.315013913e+20
1.695303565e+20
2.987465611e+20
2.578663208e+20
1.947671882e+20
8.717960539e+19
2.19512143e+20
2.653174272e+20
1.781653189e+20
8.360743015e+19
2.946381343e+20
2.331042402e+20
2.347294393e+20
1.504220205e+20
2.596895861e+20
1.961541121e+20
1.317072858e+20
2.432076433e+20
1.336239882e+20
1.881167178e+20
2.735925515e+20
2.542955348e+20
1.920513607e+20
2.793551809e+20
1.731263895e+20
1.525643094e+20
1.097560723e+20
1.768782861e+20
1.781653177e+20
2.926260055e+20
3.156837132e+20
2.119129457e+20
2.133904008e+20
)
;

boundaryField
{
    flow
    {
        type            zeroGradient;
    }
    obstacle
    {
        type            calculated;
        value           nonuniform List<scalar> 10(1e-300 1e-300 165.0467719 280.6524055 950.4872472 247.7994849 488.2612973 136.50969 1083.674576 621.8839478);
    }
    frontAndBack
    {
        type            empty;
    }
    procBoundary0to1
    {
        type            processor;
        value           nonuniform List<scalar> 
21
(
8.07620476e+20
6.730170638e+20
4.262441401e+20
4.262441401e+20
4.935458465e+20
3.589424343e+20
2.692068253e+20
3.140746296e+20
2.243390213e+20
4.262441401e+20
3.813763359e+20
2.019051197e+20
1.570373143e+20
2.467729225e+20
1.794712177e+20
4.038102368e+20
2.243390205e+20
1.794712177e+20
1.794712177e+20
1.570373143e+20
8.973560883e+19
)
;
    }
    procBoundary0to2
    {
        type            processor;
        value           nonuniform List<scalar> 
31
(
1.24967977e+20
2.291079578e+20
2.499359539e+20
1.457959731e+20
2.082799616e+20
2.499359539e+20
2.499359539e+20
1.874519654e+20
1.666239693e+20
2.291079578e+20
2.499359539e+20
2.291079578e+20
6.248398848e+19
1.041399808e+20
8.331198464e+19
3.540759347e+20
2.291079578e+20
1.874519654e+20
2.291079578e+20
1.874519654e+20
2.793551809e+20
1.947671882e+20
2.615388143e+20
2.634145716e+20
2.210978576e+20
1.336239882e+20
1.881167178e+20
3.577748774e+20
1.271477674e+20
2.793551809e+20
1.920513594e+20
)
;
    }
}


// ************************************************************************* //
