/*--------------------------------*- C++ -*----------------------------------*\
| =========                 |                                                 |
| \\      /  F ield         | OpenFOAM: The Open Source CFD Toolbox           |
|  \\    /   O peration     | Version:  2406                                  |
|   \\  /    A nd           | Website:  www.openfoam.com                      |
|    \\/     M anipulation  |                                                 |
\*---------------------------------------------------------------------------*/
FoamFile
{
    version     2.0;
    format      ascii;
    arch        "LSB;label=32;scalar=64";
    class       volScalarField;
    location    "0.006";
    object      internalEMean;
}
// * * * * * * * * * * * * * * * * * * * * * * * * * * * * * * * * * * * * * //

dimensions      [1 -1 -2 0 0 0 0];

internalField   nonuniform List<scalar> 
654
(
0.3142902913
0.4050841255
0.4077682629
0.4066784474
0.4076565041
0.4086652311
0.4075566471
0.4078207603
0.4075778577
0.4043638295
0.4039339908
0.4084214758
0.405714273
0.4074717596
0.4134945629
0.4160509835
0.421189076
0.4324051691
0.4900857234
0.8088295486
0.3215121672
0.4117584763
0.4154406556
0.414203225
0.4161822552
0.4181546313
0.4147645018
0.4120089838
0.4142564242
0.4188256234
0.418779389
0.418002234
0.4200800255
0.419999905
0.4138029237
0.4209976043
0.4372796337
0.4678885562
0.5401605227
0.7551823176
0.3237944082
0.4181453593
0.4179469949
0.4122821479
0.4088544357
0.413152228
0.4134581916
0.4124521767
0.4107456757
0.4092756973
0.4075495461
0.4096812981
0.4100567271
0.4151441289
0.4245389294
0.4253533493
0.4312716036
0.4542591676
0.5091012056
0.645764077
0.3228877065
0.4091958016
0.4158954177
0.4136341517
0.4148247829
0.4081663383
0.4084031003
0.4093523842
0.409784489
0.4071756395
0.4090227875
0.4116805282
0.4157300678
0.4135360333
0.4159727417
0.4211943758
0.429421848
0.440798173
0.4840171712
0.5758188539
0.3173500127
0.4114178847
0.4056895164
0.4107637382
0.4101351363
0.4122548519
0.4112233927
0.41081058
0.4087272947
0.4099281137
0.4120875794
0.4112597947
0.414556133
0.4183813198
0.419901623
0.4281160047
0.4355598738
0.4528863639
0.4861533092
0.5312748277
0.3183933979
0.4071802488
0.4119936358
0.4083314669
0.4067186472
0.4092293192
0.4086039683
0.4102920147
0.411504031
0.4162234904
0.415298711
0.4136775471
0.4098293259
0.4126848565
0.4120209364
0.4162502811
0.4244439244
0.4459127226
0.4540301595
0.4850718637
0.3201559009
0.4130399919
0.4171925979
0.4121266234
0.4167103877
0.4159585937
0.4140028609
0.4093774733
0.4163791309
0.4161369648
0.4172134302
0.4145264824
0.4187610136
0.4177284152
0.4210845236
0.4193149492
0.4259015317
0.4289743718
0.4408856644
0.4647642989
0.3203866377
0.4124493121
0.4143727632
0.41653834
0.4128158647
0.4126685368
0.4186128538
0.4199426651
0.4208292986
0.4175337897
0.412391352
0.412676201
0.4135165399
0.4159977563
0.415608769
0.4225071712
0.4263082842
0.4376239788
0.4458312502
0.4498260058
0.3245520976
0.4204676944
0.4223186624
0.4185802767
0.4155854048
0.4132173841
0.4120069319
0.412578819
0.4142053749
0.4168729239
0.4209062617
0.4193154157
0.4176329445
0.4144644826
0.4140073947
0.4186516484
0.4233614664
0.4280378801
0.4343522121
0.4472024163
0.3223226251
0.4098043793
0.4139279447
0.4158990369
0.4201788661
0.4236676243
0.4223580764
0.4213331177
0.4164503805
0.41656347
0.4147969196
0.4146009074
0.4201165341
0.4221747089
0.4221611267
0.4248428779
0.4263700184
0.4278310193
0.4364829568
0.444193203
0.324558494
0.4160995754
0.4202365408
0.417520418
0.4169110322
0.4120833681
0.4087353741
0.4068597696
0.4115285118
0.4114631023
0.4108359731
0.4127375577
0.4171641015
0.4137869032
0.4127051584
0.4088781805
0.4136330847
0.4211997957
0.4258191605
0.4341829643
0.3219701757
0.4157200346
0.4149598152
0.4160178589
0.4206161576
0.4217680333
0.423038369
0.4210307685
0.423772072
0.4188230353
0.4183004225
0.4173133326
0.4134268949
0.418051395
0.4189840786
0.4202691536
0.4193782413
0.4193383979
0.4192969999
0.4288420012
0.3185709697
0.4074904762
0.4098602289
0.4091196238
0.40563782
0.4038297603
0.4089213039
0.41054405
0.4087316415
0.4102304892
0.4102713284
0.4115132516
0.4126702736
0.4135394878
0.4094837731
0.410991263
0.416495942
0.4218430071
0.4214408544
0.4224417677
0.3181538527
0.4077238166
0.4094095239
0.4137709013
0.418499204
0.4171672837
0.4139210623
0.4171140868
0.4130498339
0.4118822479
0.4125819505
0.4130516141
0.412427844
0.415013307
0.4150652955
0.4138604623
0.4092053393
0.4085172745
0.4076439865
0.4155463856
0.3143382227
0.4122490547
0.4167563071
0.4124046431
0.4107835823
0.4141241112
0.4109403242
0.4127421465
0.4122319959
0.4136897012
0.4172345022
0.4141942347
0.4164748392
0.412950974
0.4133772405
0.4096350948
0.4098056669
0.4127571027
0.4133020286
0.4176669375
0.3226862678
0.4110755196
0.4105357326
0.4068773528
0.4021353781
0.4057191782
0.408787955
0.410676783
0.4066946933
0.4094435002
0.4058225325
0.4062577876
0.4029047791
0.4047942151
0.4070434699
0.4110257723
0.415826582
0.4108720291
0.414662571
0.4188234693
0.3203334208
0.4085564297
0.408518155
0.4101497607
0.412251775
0.4101058939
0.4044971017
0.4056926683
0.4088946735
0.4105017121
0.4132884092
0.4125787373
0.4140908326
0.4160637418
0.4139246439
0.4106444284
0.4130424452
0.4164973147
0.4152748325
0.4198453806
0.3243838495
0.4163865537
0.4183553495
0.4178658054
0.4150951272
0.4133576126
0.416845526
0.4162534493
0.4146170794
0.4080479542
0.4055925907
0.4066473014
0.4078355992
0.4110687928
0.4113686437
0.4097168323
0.411227286
0.4076977376
0.4115353071
0.4104521103
0.3164681227
0.4075047019
0.4128263712
0.4115009301
0.4100045508
0.4118634479
0.4085239395
0.4072157765
0.4080055669
0.4089691757
0.4132858109
0.410817286
0.403084282
0.3995704757
0.3984289115
0.4004015816
0.4018331393
0.4061315185
0.4070427471
0.4089094029
0.3165932705
0.4096578199
0.41573522
0.4131774564
0.415956307
0.4168070693
0.4156464185
0.416218264
0.4156606092
0.4096876962
0.4120372221
0.4157478582
0.421130679
0.4220820249
0.4256277625
0.4235961002
0.4241146822
0.4244625823
0.4229809214
0.4206576089
0.3223396431
0.4120398308
0.4132810381
0.4105942599
0.4095045161
0.4109668805
0.4085168017
0.4056029267
0.4095037303
0.4137804922
0.4148707128
0.4143973939
0.4134403866
0.4126587811
0.4134493474
0.4180327473
0.4195522076
0.4182387798
0.4157231355
0.4159755216
0.3208946809
0.4108514111
0.4126827183
0.4099526986
0.4122374196
0.4129002433
0.4176321576
0.4220461969
0.4225810923
0.4211253351
0.4171508073
0.41480161
0.4122773292
0.4156277978
0.4141241713
0.411241196
0.4092994002
0.4080626866
0.411261639
0.4118815713
1.815955992
2.311078365
2.505224011
2.699024872
2.792953692
2.896454251
2.997839876
3.014219713
2.926621995
2.964371478
1.152516262
1.565270747
1.857134566
2.121916199
2.339416353
2.477751466
2.665256043
2.767898211
2.817632896
2.83867123
0.8526754532
1.107732148
1.346042509
1.609532759
1.842785551
2.081681326
2.261068529
2.45099539
2.555856356
2.645499876
0.692830636
0.8671853615
1.04086565
1.228379586
1.450957838
1.669292714
1.866230229
2.037283727
2.164621045
2.326692338
0.6209862351
0.7193191299
0.8405356908
0.9962801503
1.146043457
1.305304581
1.490941795
1.619222317
1.825555525
2.013136765
0.5463216578
0.6117684086
0.7004288721
0.8120168027
0.9123800202
1.063684274
1.244693069
1.396065028
1.547357448
1.717406349
0.5103518215
0.565653548
0.5968856519
0.6853265314
0.7581829129
0.87096672
0.9873515934
1.130585171
1.259461008
1.412255471
0.4757970545
0.5088377348
0.5413377584
0.5992051115
0.6596731153
0.7308241365
0.827052365
0.9372871337
1.033387425
1.145987975
0.4656343906
0.489409142
0.508878956
0.5499779324
0.5948866217
0.6491868508
0.6935261766
0.7715756671
0.8571130648
0.9671523647
0.4578004957
0.4673777958
0.4871868782
0.5080455311
0.525277292
0.5806214872
0.6295009849
0.6767066575
0.7251266516
0.7855654115
0.4443535749
0.4591016727
0.4690708822
0.483816606
0.5053158881
0.5369296036
0.5644811381
0.5975390002
0.6482787029
0.7032109041
0.4266456399
0.4380029185
0.4463127998
0.4531714402
0.4651629225
0.4801614184
0.5030330183
0.5386589142
0.5677051993
0.6087490773
0.4276159639
0.4324494603
0.4402303056
0.4502264924
0.4533823917
0.4707900552
0.4998881343
0.5032920214
0.5251984664
0.5536971782
0.4241726857
0.4252891115
0.4329317036
0.4374345575
0.4458207331
0.4460513762
0.4620824257
0.4769681592
0.4987908942
0.5104529298
0.4195370914
0.4210896009
0.4222270075
0.4324028161
0.4406019371
0.4476915518
0.4561585182
0.4671947885
0.4809210025
0.5000262079
0.424074334
0.4308994684
0.4268882881
0.4246897813
0.4332509662
0.4404797201
0.443881379
0.4532096029
0.4670255708
0.4745395006
0.4192211115
0.4176949742
0.4221014009
0.4254036259
0.4164385252
0.4293934818
0.4357898603
0.4426275264
0.4436863159
0.4551188809
0.4128750368
0.4131041137
0.4149010223
0.4142715982
0.4232609294
0.4251874663
0.4269952728
0.4365419737
0.4400919631
0.448152685
0.4103453964
0.418317252
0.4239408071
0.4269218232
0.420583042
0.4189912594
0.4221878906
0.4286091138
0.427286233
0.4362214839
0.4195229463
0.4189887764
0.4143473651
0.4133992314
0.4168996496
0.4204530347
0.4264220549
0.4303730436
0.430454117
0.4335225807
0.4162251676
0.4146344466
0.41744332
0.4165581328
0.4145522542
0.4109021994
0.4141316625
0.4148739333
0.4220464285
0.4219809612
0.4125326895
0.4091259365
0.4098634401
0.4150589975
)
;

boundaryField
{
    flow
    {
        type            calculated;
        value           nonuniform List<scalar> 
42
(
0.3142902913
0.3215121672
0.3237944082
0.3228877065
0.3173500127
0.3183933979
0.3201559009
0.3203866377
0.3245520976
0.3223226251
0.324558494
0.3219701757
0.3185709697
0.3181538527
0.3143382227
0.3226862678
0.3203334208
0.3243838495
0.3164681227
0.3165932705
0.3223396431
0.3208946809
0.3142902913
0.4050841255
0.4077682629
0.4066784474
0.4076565041
0.4086652311
0.4075566471
0.4078207603
0.4075778577
0.4043638295
0.4039339908
0.4084214758
0.405714273
0.4074717596
0.4134945629
0.4160509835
0.421189076
0.4324051691
0.4900857234
0.8088295486
)
;
    }
    obstacle
    {
        type            calculated;
        value           nonuniform List<scalar> 10(1.01432817e-18 1.115747451e-18 1.157051323e-18 1.112382282e-18 1.272666907e-18 1.230583831e-18 1.246159113e-18 1.236687665e-18 1.243165744e-18 1.143536007e-18);
    }
    frontAndBack
    {
        type            empty;
    }
    procBoundary0to1
    {
        type            processor;
        value           nonuniform List<scalar> 
21
(
2.980793087
2.838810076
2.729050225
2.403083386
2.112028847
1.869370489
1.575961035
1.299616294
1.077518132
0.8782036497
0.7696639753
0.6733587354
0.5838162984
0.5368152838
0.5092307767
0.4889142437
0.4644881047
0.461308775
0.4435726518
0.4366766644
0.4226154691
)
;
    }
    procBoundary0to2
    {
        type            processor;
        value           nonuniform List<scalar> 
31
(
0.3219439691
0.4186320727
0.4239461182
0.4182747966
0.417520512
0.4144482207
0.4132001053
0.4100574524
0.4082425414
0.408882277
0.410562239
0.4142727413
0.4113530743
0.4082177007
0.4108343793
0.4080587471
0.4060376442
0.4030804068
0.4021959077
0.4011821366
0.4206379047
0.4210250177
0.4212763394
0.4205454774
0.4196440539
0.4215956345
0.4048852572
0.4083320843
0.4104303552
0.4206379047
0.4073516654
)
;
    }
}


// ************************************************************************* //
