/*--------------------------------*- C++ -*----------------------------------*\
| =========                 |                                                 |
| \\      /  F ield         | OpenFOAM: The Open Source CFD Toolbox           |
|  \\    /   O peration     | Version:  2406                                  |
|   \\  /    A nd           | Website:  www.openfoam.com                      |
|    \\/     M anipulation  |                                                 |
\*---------------------------------------------------------------------------*/
FoamFile
{
    version     2.0;
    format      ascii;
    arch        "LSB;label=32;scalar=64";
    class       volScalarField;
    location    "0.006";
    object      internalT;
}
// * * * * * * * * * * * * * * * * * * * * * * * * * * * * * * * * * * * * * //

dimensions      [1 2 -2 0 0 0 0];

internalField   nonuniform List<scalar> 
654
(
299.2877428
299.8373417
300.2689106
299.4769707
299.0152473
299.9449452
299.1102427
297.8791201
298.1400491
297.3422305
297.2042164
300.5271874
299.2739485
300.9853442
303.4574697
303.7630084
307.2241214
308.9043973
333.7036327
428.6914805
302.4653406
300.7552939
300.3015662
300.7721033
301.8415048
301.9808959
300.9178589
300.1502247
302.1144922
304.9458196
304.2962796
302.6985132
304.0026901
302.6535603
299.2939994
301.9231085
309.0848894
321.6756608
349.4402187
420.5889244
300.8683118
299.9910114
299.8383886
296.9485373
296.3826797
298.4199285
296.9856936
297.2967783
295.8214613
295.7325229
294.9960465
295.677455
296.0303295
298.1761671
302.6734425
303.7314822
307.2634976
316.4659858
341.2393612
392.9632099
299.1199899
298.6952595
300.588637
299.3275709
302.0644404
298.2568278
298.9323482
299.4066115
299.3868242
295.0939369
295.8674067
297.8311893
299.4629331
300.46539
301.9309376
306.7668449
310.2036935
312.9075451
332.5559654
368.418923
296.2920655
298.3757126
296.3120509
299.5882421
298.1397274
299.0970703
299.2331436
300.3362925
300.6461913
301.8061063
304.8914042
304.0525367
304.118876
305.9354426
305.9855123
306.2177145
308.6430264
315.8154008
332.8071872
351.7625929
299.1132554
298.9286309
298.824429
297.3465565
296.7002049
297.533091
297.4930786
296.4874239
296.7363643
299.9115455
299.3278878
298.5409969
298.0939775
299.6695457
297.798669
302.5533901
306.9052773
318.5540106
319.7764726
332.1431414
297.6730171
298.8457819
299.6887398
297.4011602
298.4381746
298.473469
297.6330841
296.2369388
298.3750413
297.3742469
299.3944767
296.9862448
299.8553232
300.8608564
303.0792541
303.3227769
304.445914
305.5016333
308.4985073
319.9071928
300.6203409
301.3864984
299.9348867
301.1263249
299.3271554
299.1891384
300.8125395
299.8370983
300.4598688
299.7687059
296.9554366
299.4652429
298.5177273
299.5730194
299.3548885
301.2866767
304.7157928
311.693519
316.0073058
317.5873168
302.0700864
302.3015852
303.256183
302.1000751
300.990139
299.75371
298.11901
299.1864681
301.6765733
303.513473
302.3876682
301.9621699
302.5570989
300.5434342
301.7852012
304.3836626
305.2656842
307.3524288
310.3378402
313.8974822
301.7313052
301.5128645
300.7501434
301.9299563
303.579344
305.7505919
306.0227553
305.2271173
301.1253364
300.9776414
300.9413785
300.7364259
303.4817654
304.7469748
303.1013356
303.5851529
304.3428825
308.0307352
311.1888922
315.3068335
301.4306355
301.6137964
302.8868446
302.234219
302.5488398
301.8379071
301.0129338
299.4519663
300.5136841
299.5851876
298.2958422
298.2856272
298.9888897
297.406098
297.4585764
298.986406
301.1756557
304.0011643
303.5135825
308.2745629
300.4443281
301.8420147
299.4560209
301.9636856
303.1604547
302.9233412
302.0474163
301.1808452
301.8894611
302.0767517
302.7043315
304.4396446
304.0066052
304.2971572
303.4411154
300.6257236
298.8103665
300.8676261
301.6885983
305.8771726
296.7282913
295.8564806
295.806594
295.3640304
294.2246996
294.1813557
297.6721865
299.8157789
299.8776525
298.5939491
296.4006183
296.660992
296.7057358
297.628115
297.7077197
296.3666063
300.2219081
301.4827991
300.3107602
302.3145669
295.8642987
294.2138062
294.594773
296.7607983
299.5239455
299.0117126
297.9746849
298.2461531
296.7230164
297.9461319
299.6052478
299.3836508
299.7645919
300.7010468
300.4257394
302.2906197
300.6374755
300.6506921
301.0592717
302.1154318
297.1230328
300.6085023
301.5660098
300.1659766
297.3988369
299.1426311
295.4619197
297.3106431
295.4641116
296.2646609
298.3322529
296.7380178
296.9038896
296.6315727
297.285747
296.341141
296.3926026
298.2687591
299.8776672
302.6552848
300.548009
298.1274166
297.6221491
294.8675165
292.9061286
293.2642297
294.9408882
297.2802561
294.2751929
296.665401
294.8609448
296.675185
297.9282907
297.0515184
296.7089406
297.1102648
299.5738242
296.8140404
297.9328481
303.2300707
297.2288053
297.89505
297.2024457
297.5387573
299.9919243
298.5240878
298.3444634
297.1777884
299.0403868
299.8688245
299.8990717
298.2018339
297.4708397
298.0159786
298.4818731
296.5469498
297.7325311
299.3644973
299.6729888
302.4064372
304.0154825
303.3075323
303.0699273
301.8349951
300.5724529
301.6909836
300.7648334
300.8786711
301.3452948
298.0972433
297.0940494
297.5115055
297.5254208
299.3189817
299.715128
297.7734038
297.3898653
296.7504383
299.0846144
297.7477415
294.8222695
295.5377254
297.1558782
298.8722502
296.958481
296.7801481
295.5885438
294.4888363
295.377362
296.3628913
298.6197905
298.1473986
295.3500464
293.9729214
294.2536181
295.6058718
297.0937501
299.105883
298.5125877
300.451793
296.6074981
297.6786707
298.4671514
296.722753
299.3468706
299.1131573
298.465016
298.6906131
298.1468617
295.1002424
296.8951128
299.7344431
301.5003958
302.2126024
303.3667953
303.2446564
303.7201063
303.1161606
301.7585735
300.1216237
301.6660302
300.2251086
300.9928482
299.0151915
298.065536
299.2552178
298.408413
301.1400796
301.8877948
302.9852697
301.2672817
300.2339306
300.0406569
298.7668087
298.7586457
300.8723327
301.7993723
302.5652802
300.870575
302.1536897
300.745402
300.840489
300.7145391
301.3563282
301.5484826
302.7125366
302.7457384
303.3319518
301.7209229
301.0936515
302.1763356
300.693846
299.2382382
301.1985777
299.9943115
298.268306
296.8599448
296.5402187
297.3528717
297.5433339
546.4624493
605.0141274
629.271084
650.8246771
662.7985919
678.7987505
698.7821113
696.6116436
697.7353034
700.389511
507.2797462
573.5807605
612.9291069
646.6786684
672.173957
689.2377419
724.9766338
738.5479982
741.0728864
753.3193058
453.1420659
507.3295448
550.4248123
596.5958483
632.3260121
669.4067381
693.7238366
723.690406
733.5726427
747.2155213
407.7470248
458.4558849
498.6550181
536.2004481
577.1924106
613.1207532
639.7257532
667.0471945
684.9321188
709.6476579
387.8152268
419.3767124
451.554351
488.459624
522.06106
557.7217885
594.5468189
610.5178671
642.9912368
668.2307482
358.8301023
380.4436118
409.8952879
447.1283106
472.3384835
508.1790043
548.2442897
575.4308253
599.4681382
630.0418271
342.8845503
366.6505782
372.7559679
403.5548215
425.7403851
455.1432912
485.1819578
516.9571926
537.7958378
564.9794528
328.0865252
342.6327825
354.5986122
374.98224
396.5530133
418.0239451
442.3657557
475.3288764
492.9904831
515.5550513
324.0341857
332.6964966
339.1982639
356.1259173
373.2396292
394.2239632
406.4700299
428.1413013
449.0124731
478.1236646
320.0501708
323.2318115
331.3959835
341.752153
348.4744562
368.301931
384.4377037
399.9839235
412.8583186
430.2544623
312.5515883
321.3939972
321.7303092
327.9670763
335.9813181
352.1788471
361.6435539
369.0682417
387.643011
404.6738001
304.913394
311.4491329
316.4726628
318.1870044
323.0708872
326.6479875
336.4594205
348.2145021
355.9558637
370.7492493
305.1767688
306.3714073
309.7073699
314.8276006
316.0285281
322.2267112
333.215814
334.8983339
344.1922948
352.1118623
305.7948828
305.4166662
308.8854584
311.3127726
314.6511189
314.3479196
323.6724648
328.6263658
336.6167359
339.203381
304.8311746
305.3744998
304.65025
307.850126
313.0765354
313.315709
318.5159328
323.0731838
330.133814
336.6424821
302.2031648
304.9594221
305.0937477
304.2306756
308.0263552
313.0248834
313.1454082
317.7867603
321.8202398
325.9614066
304.431367
302.7001009
306.1646661
306.9228632
302.4964935
309.1949883
311.872857
315.7571782
318.6515917
319.5160276
300.3684868
303.0423197
303.7459872
301.9722807
304.2394589
305.410705
306.1283812
310.2532628
311.2257365
315.0674932
299.1037821
300.3054603
303.1245405
304.1180273
302.5081309
302.1271306
303.2924779
308.177691
307.2886362
310.3355632
301.501902
301.2273801
299.7664076
299.7378759
300.9613187
302.3452311
304.6003024
306.1547195
307.9555893
311.5619203
302.9329205
301.1797776
303.7960365
303.3241443
302.2771968
301.7884086
305.6653496
305.1736283
304.9597424
304.557171
298.5836219
297.6706766
298.6613026
301.4349614
)
;

boundaryField
{
    flow
    {
        type            calculated;
        value           nonuniform List<scalar> 
42
(
299.2877428
302.4653406
300.8683118
299.1199899
296.2920655
299.1132554
297.6730171
300.6203409
302.0700864
301.7313052
301.4306355
300.4443281
296.7282913
295.8642987
297.1230328
300.548009
297.2288053
304.0154825
294.8222695
296.6074981
301.6660302
300.745402
299.2877428
299.8373417
300.2689106
299.4769707
299.0152473
299.9449452
299.1102427
297.8791201
298.1400491
297.3422305
297.2042164
300.5271874
299.2739485
300.9853442
303.4574697
303.7630084
307.2241214
308.9043973
333.7036327
428.6914805
)
;
    }
    obstacle
    {
        type            calculated;
        value           nonuniform List<scalar> 10(528.8413677 570.4168358 581.3162848 588.0461908 605.7210337 604.8244195 632.9581878 629.0603177 628.5607378 602.5357736);
    }
    frontAndBack
    {
        type            empty;
    }
    procBoundary0to1
    {
        type            processor;
        value           nonuniform List<scalar> 
21
(
708.3563676
753.1700274
768.2634644
722.4982536
683.2291409
648.155996
599.0953294
548.5334843
500.9268851
454.2739624
421.5900279
394.9123867
363.8330512
351.6708585
336.226676
335.1021893
322.5951054
320.1574337
312.8585221
312.3619468
305.0977394
)
;
    }
    procBoundary0to2
    {
        type            processor;
        value           nonuniform List<scalar> 
31
(
301.9322354
304.1045121
304.1422058
302.2245837
301.199775
299.843879
298.7854943
298.1767518
298.6786158
298.4246391
298.2839282
299.4262186
298.3701932
297.3986431
298.4296882
297.5945669
295.2022745
295.2746223
296.5423484
296.4128716
304.1050522
304.3038875
303.9187475
303.4156401
302.8230834
301.358774
296.5168246
297.5858993
297.1527267
304.1050522
296.853804
)
;
    }
}


// ************************************************************************* //
