/*--------------------------------*- C++ -*----------------------------------*\
| =========                 |                                                 |
| \\      /  F ield         | OpenFOAM: The Open Source CFD Toolbox           |
|  \\    /   O peration     | Version:  2406                                  |
|   \\  /    A nd           | Website:  www.openfoam.com                      |
|    \\/     M anipulation  |                                                 |
\*---------------------------------------------------------------------------*/
FoamFile
{
    version     2.0;
    format      ascii;
    arch        "LSB;label=32;scalar=64";
    class       volScalarField;
    location    "0.006";
    object      internalE;
}
// * * * * * * * * * * * * * * * * * * * * * * * * * * * * * * * * * * * * * //

dimensions      [1 -1 -2 0 0 0 0];

internalField   nonuniform List<scalar> 
654
(
0.443961093
0.395575017
0.2496397864
0.64031911
0.5053618411
0.5488255751
0.4109097526
0.3066621848
0.4881564179
0.3031574973
0.5868892517
0.509097025
0.6182760797
0.6899979721
0.536505219
0.1719963238
0.6856369629
0.3953582794
0.3578426043
0.9951250172
0.2947206341
0.5456931543
0.3293112529
0.6676001743
0.2371819084
0.4831807199
0.3858242415
0.5407632522
0.4563826312
0.1445748339
0.9661738393
0.2966936005
0.2505268038
0.2110678768
0.1199796706
0.4100880923
0.3166488326
0.2765710591
0.4152456555
0.4097828479
0.5607090571
0.4077202628
0.4779617976
0.5409603856
0.1622192217
0.4751534619
0.3114076532
0.3714852529
0.3781714711
0.6455876946
0.6151097571
0.1519892992
0.304032363
0.6869301605
0.2809744753
0.5602835561
0.352983206
0.6757332199
0.4176687365
0.6841147425
0.2935339516
0.1999390087
0.6815186568
0.3624392632
0.2737793475
0.7250864126
0.4809537764
0.4568539302
0.7559987462
0.3309654458
0.7034473179
0.5988626789
0.08223847346
0.4035619326
0.2842432272
0.1581322781
0.3185662383
0.2318840377
0.7806082162
1.271697207
0.4977544544
0.4054796238
0.7480854176
0.7769438906
0.3139830206
0.3167412987
0.3845560806
0.2907855762
0.5295358222
0.3059899437
0.5122298792
0.6883282211
0.3792716754
0.3838408166
0.4315850386
0.2412414842
0.3435555568
0.7959786257
0.3572887431
0.4340939955
0.2027256752
0.208787879
0.2425311146
0.4283270593
0.1734945782
0.2258445645
0.6751696705
0.6559091335
0.2634807008
0.2942329264
0.3960943708
0.282023442
0.4860239262
0.261013534
0.3768015946
0.6323360089
0.657934501
0.5650665967
0.2339855592
0.6552473375
0.6281611119
0.2611298629
0.5242040797
0.3342955134
0.2501451888
0.6411090491
0.4602559752
0.07149670753
0.6497576384
0.4913872455
0.3960881559
0.6993025271
0.5480393465
0.3708652309
0.3444695238
0.3419705627
0.3619080243
0.3133499219
0.2189491651
0.1984278034
0.183347089
0.2957232583
0.6707226254
0.5138597897
0.3128110754
0.4253647797
0.331311402
0.1612361329
0.4803910862
0.4258562361
0.5478938147
0.2420166789
0.6652970122
0.3640288297
0.4575326382
0.508057128
0.4231914549
0.2570108554
0.4414928873
0.1673301022
0.4550287786
0.403301425
0.2623264557
0.3437073759
0.4397618248
0.2203963733
0.6398975712
0.3717615112
0.2622847249
0.2785842979
0.5543881085
0.3732657016
0.5469034719
0.1764615058
0.5220757235
0.4227417073
0.7046648004
0.6192956332
0.4560556313
0.6225501533
0.2041419991
0.373882598
0.3680539941
0.1533624326
0.4539109617
0.4677625657
0.2654934009
0.2683201693
0.2398255821
0.6300526764
0.5576907538
0.8366564657
0.4398910403
0.5610752393
0.2463211426
0.3967979864
0.4695732209
0.2461771262
0.7948824047
0.2253061575
0.340852789
0.136954064
0.3322560704
0.7983736447
0.1335482315
0.6892949635
0.463570275
0.3712669968
0
0.5352305467
0.5589843695
0.6763345882
0.2175260311
0.2687297372
0.5083281522
0.4355687173
0.3357429834
0.159430652
0.1424763509
0.4184018689
0.1965837698
0.7673784754
0.1452739548
0.3196481069
0.4215784378
0.5015375045
0.7419963288
0.5683026243
0.3370303151
0.3702123978
0.458810256
0.2766254411
0.3809165173
0.1618985753
0.07689111068
0.8528585303
0.6545232705
0.7151447135
0.3144597062
0.7475925063
0.6134882614
0.09084755803
0.5745170512
0.3997482627
0.2862515882
0.5021791967
0.2425588881
0.5178249107
0.4912446209
0.2628551421
0.501495256
0.5334323185
0.4192673192
0.2974332894
0.4169145986
0.3348666724
0.3323047837
0.8898025551
0.3782844919
0.3919325653
0.4071483971
0.5210603062
0.2732169574
0.276962422
1.040419222
0.3694633663
0.1735264802
0.2306001556
0.319986905
0.3823810222
0.6967074049
0.4551383628
0.4511512821
0.4804586403
0.1842230559
0.3058614262
0.4317200198
0.4096380643
0.1809415639
0.4692706865
0.4341127603
0.2402550189
0.09959881912
0.7343411335
0.4074087964
0.7419529903
0.2492698262
0.4320127203
0.384971269
0.1331527083
0.7833602382
0.8262352119
0.5334303672
0.387023521
0.3299429495
0.1612342572
0.109170847
0.7353453227
0.3856561968
0.4897990798
0.2637245026
0.361298703
0.2548699965
0.3543884867
0.6159127115
0.3824151366
0.2629073025
0.7744301337
0.4405691768
0.3861488454
0.8614904448
0.2939072115
0.2974001563
0.2963630639
0.2900348924
0.2356976123
0.2604805197
0.3042131061
0.1662238148
0.1942048287
0.3674880828
0.5080222357
0.7218706536
0.2647472549
0.4667177989
0.4640650412
0.5734651049
0.4099501366
0.4910230362
0.6509386313
0.445212145
0.4089162
0.5811965806
0.2662507925
0.306175702
0.418777575
0.4701986856
0.5187917463
0.274817144
0.7991896766
0.2760551642
0.1817356867
0.5730335793
0.6517425173
0.4512136887
0.803420444
0.0274982663
0.02800096543
0.3663799531
0.1755292099
0.3260585867
0.301086827
0.3710208012
0.388552789
0.3378653059
0.7981782228
0.5078925877
0.2384159205
0.1253421488
0.333399894
0.3014855941
0.4763415245
0.3787558996
0.5237582682
0.01709663473
0.3705875481
0.3031693237
0.3562568173
0.4180939056
0.4581326365
0.5516489911
0.5083003011
0.645095376
0.3047550408
0.4149357471
0.1706535512
0.1618857625
0.4023866445
0.4188736726
0.3844119388
0.3990782481
0.4630708845
0.3347606671
0.4130775842
0.3806501497
0.3989661135
0.688109541
0.4943453141
0.5748100684
0.2284165607
0.561069533
0.5297307011
0.2048380294
0.1599878502
0.4551197433
0.2967830946
0.2549393192
0.2686178888
0.2870707029
0.4406729594
0.3439044164
0.1404107386
0.3297139898
0.1292093668
0.6703776324
0.1110607615
0.4211001293
0.7235690263
0.3078818655
0.1870341015
0.5137637123
0.2199981867
0.5642616405
0.3443696538
0.4343512031
0.4236248196
0.2757066395
0.5029458784
0.909314097
0.3047754744
0.1517940858
0.3922406915
0.4279738083
0.2615943476
0.6937546673
0.4157923054
0.398841454
0.3146706078
0.3968887412
0.6105423686
0.3062744038
0.2874858072
0.6037382559
0.1461913957
0.2859196362
0.117442847
0.3275399743
0.3298659027
0.4001733802
0.1839408816
1.364521045
3.229516986
2.358467063
2.913504347
2.783331602
4.121603904
2.582309092
2.990303052
2.29128015
3.619179405
0.8185889774
1.049206666
1.344737132
2.120890888
3.487592056
2.345749235
2.926057018
2.092604221
3.176209466
1.320333602
0.3246205059
0.666371724
1.283662319
2.09930436
2.975962787
1.75025928
1.87109808
1.656340564
1.556151566
1.821887806
1.186346492
0.6834239147
2.14427971
0.5415856942
0.7279375332
1.856715564
2.343287504
3.296902837
2.858422196
2.608612566
0.6963032249
1.462011436
1.216035274
2.142934199
0.6565441831
0.6608957337
1.00708814
1.444139044
2.066535433
2.220633587
0.8757467942
0.7077109087
1.18617643
1.379335637
1.763421668
1.770621574
0.9033481913
2.441707287
0.5287554775
2.584519453
0.2852638993
0.178805683
0.8228040017
0.6925679799
0.5659463456
1.04102381
1.155229937
1.796242543
1.342957067
1.535836738
0.355214384
0.1205803684
0.3603715061
1.085924547
0.8862367944
0.3835769234
0.4050954148
0.8085788723
1.129473942
1.251986844
0.302327926
0.3714285269
0.3017539854
0.3344873334
0.1277001921
0.9522980525
0.7469975072
0.1652411296
0.9302597654
1.154512785
0.5993435955
0.7902656462
0.6504030037
0.7600004632
0.947483117
1.067545411
0.2966438469
0.7277308798
0.7389424808
0.6410509851
0.1103725314
0.557446083
0.4785077691
0.7753956372
0.2651983775
0.2545281478
0.7570030822
0.3422197148
1.043274738
0.5802831458
0.4271094165
0.5240357132
0.2785960592
0.1301534063
0.4505102214
0.4692262169
0.4620068916
0.7475602188
0.8777317326
0.5067090546
0.7669734091
0.5825853805
0.5334910925
0.207101694
0.3427778249
0.4691332419
0.8547004486
0.9633307203
0.620082362
0.220307139
0.3222869834
0.467528522
0.7745767207
0.2515188571
0.5996912739
0.09236476147
0.4441999855
0.7628549595
0.4058954898
0.317850791
0.6634184525
0.1960764086
0.4398626612
0.3695213187
0.7955740498
0.2602685737
0.2686899963
0.07787235131
0.3947517239
0.2498865745
0.3055078584
0.3873364446
0.2904601521
0.6693149697
0.5162654406
0.3915344334
0.6335644977
0.4129937007
0.07568839057
0.22281574
0.4991593075
0.1846410711
0.2647637395
0.4473628128
0.4258908951
0.3785121943
0.1578578511
0.6169004078
0.3087913559
0.2015447467
0.6176906531
0.299832733
0.3472623435
0.2823429136
0.2705993699
0.7586397693
0.07153363136
0.205960281
0.4242243434
0.7361327034
0.3709600254
0.3405978449
0.3956747202
0.5181943569
0.5422686539
0.4966445543
0.1966467689
0.4620050696
0.5035946162
0.4685752281
0.3051640653
0.6844896773
0.5892386191
0.479050479
0.1896195508
0.380725381
0.4580179485
0.4036975019
0.4116273195
0.2199699511
0.4427569315
0.5197695068
0.2872147195
0.4403870458
1.214790118
0.4463950393
0.4574520819
0.1317547413
0.4881772864
0.187715562
0.3551227285
0.8367126039
0.3403111985
0.6842208562
)
;

boundaryField
{
    flow
    {
        type            zeroGradient;
    }
    obstacle
    {
        type            calculated;
        value           nonuniform List<scalar> 10(0 0 8.965455028e-19 2.393302259e-18 8.484371077e-18 1.625739441e-18 3.07748528e-18 5.227618828e-19 3.878337378e-18 3.639771067e-18);
    }
    frontAndBack
    {
        type            empty;
    }
    procBoundary0to1
    {
        type            processor;
        value           nonuniform List<scalar> 
21
(
4.903825123
3.350692888
2.011105406
2.413896921
1.843384578
1.241688719
0.8807449004
1.852592259
0.5631056225
1.3141973
0.7533264127
0.4701013749
0.2617105564
0.6418141575
0.4071507345
0.8949277182
0.4678888415
0.3227619203
0.5254296149
0.1604792657
0.2605306186
)
;
    }
    procBoundary0to2
    {
        type            processor;
        value           nonuniform List<scalar> 
31
(
0.1859410558
0.4045053402
0.3711798301
0.4549451473
0.3107463076
0.6675595224
0.4132352459
0.2406552816
0.2460489731
0.3908530589
0.4834387628
0.3436390759
0.140944022
0.0864556186
0.1055393419
0.7373086164
0.6055611597
0.6271935384
0.490928924
0.4347892064
0.4407719527
0.616548656
0.4444688238
0.7615585364
0.2399497729
0.3874940108
0.3678937199
0.8263601537
0.2626297441
0.4407719527
0.5293420439
)
;
    }
}


// ************************************************************************* //
