/*--------------------------------*- C++ -*----------------------------------*\
| =========                 |                                                 |
| \\      /  F ield         | OpenFOAM: The Open Source CFD Toolbox           |
|  \\    /   O peration     | Version:  2406                                  |
|   \\  /    A nd           | Website:  www.openfoam.com                      |
|    \\/     M anipulation  |                                                 |
\*---------------------------------------------------------------------------*/
FoamFile
{
    version     2.0;
    format      ascii;
    arch        "LSB;label=32;scalar=64";
    class       volScalarField;
    location    "0.006";
    object      linearKEMean;
}
// * * * * * * * * * * * * * * * * * * * * * * * * * * * * * * * * * * * * * //

dimensions      [1 -1 -2 0 0 0 0];

internalField   nonuniform List<scalar> 
654
(
5.782285283
7.772301407
7.736052686
7.74413098
7.760194691
7.770793163
7.768134392
7.793249095
7.759110072
7.705661336
7.710064482
7.689401182
7.669058353
7.670308743
7.703978873
7.737579615
7.702731418
7.743764118
7.83579907
8.323371865
5.864736606
7.885278233
7.8586963
7.819300053
7.841173572
7.863420921
7.825366476
7.803899547
7.816668538
7.843423923
7.860442937
7.8834988
7.878447566
7.887042175
7.863240711
7.916827315
7.982733806
8.064159533
8.200303463
8.466304908
5.922971191
8.005585419
7.926598971
7.891462681
7.838260062
7.861775087
7.907393637
7.89588982
7.874337504
7.844091515
7.810741047
7.827474799
7.844236111
7.867720459
7.918575072
7.89981783
7.872122159
7.973048175
8.007218142
8.252794846
5.936506287
7.832489058
7.820575433
7.818569421
7.790572192
7.783923057
7.770453981
7.768238664
7.782372353
7.842368646
7.863843012
7.867736598
7.898305618
7.80898116
7.79585693
7.741110064
7.74987909
7.82132247
7.92483654
8.168433382
5.886525948
7.928568563
7.82732064
7.820891726
7.841793649
7.842324365
7.810428248
7.784367861
7.745161242
7.738510194
7.713099186
7.688422079
7.751675095
7.763118642
7.77904015
7.904922085
7.914462573
7.976938754
7.990129079
8.070574711
5.877522836
7.844944239
7.839168241
7.792555786
7.779304622
7.788296278
7.799133653
7.865476165
7.875264432
7.882403817
7.871869251
7.890339626
7.828933759
7.843291098
7.870944545
7.803776084
7.815190606
7.823944935
7.866458038
7.979208967
5.915567526
7.942040189
7.915469157
7.880140039
7.938955537
7.922741467
7.917711641
7.827436806
7.89558421
7.920316317
7.88297086
7.869140023
7.878048664
7.837913735
7.831554033
7.781797523
7.844597017
7.861797128
7.967011511
7.991920036
5.875753462
7.863954601
7.831174989
7.84261571
7.814891008
7.837219068
7.901193935
7.949898603
7.942694614
7.911510392
7.874456088
7.840955728
7.859565975
7.888075303
7.867849114
7.958635289
7.949482883
7.930181141
7.929242677
7.914901392
5.901808961
7.982620088
7.919528224
7.880934318
7.842065978
7.833140863
7.842685801
7.851597993
7.818186891
7.810911391
7.908968736
7.897131457
7.840887694
7.852251031
7.810162246
7.808579196
7.8509746
7.866120119
7.870186029
7.99841642
5.899309261
7.836297807
7.832519519
7.842825206
7.868305601
7.869141505
7.83766854
7.81223901
7.845986863
7.867874891
7.825726165
7.844916151
7.883892444
7.880623473
7.921892747
7.965753281
7.957201532
7.903149068
7.927403199
7.93030412
5.886308315
7.871796026
7.845522994
7.822576821
7.809801872
7.763520395
7.707216974
7.742760939
7.796415879
7.797357247
7.83316399
7.849644419
7.90517025
7.882149504
7.870934129
7.752432603
7.796154391
7.874107166
7.945495617
7.96764787
5.902778313
7.910798682
7.852960349
7.775758073
7.848129338
7.867483304
7.904746128
7.888042067
7.906440747
7.823021184
7.806454585
7.754680155
7.712840643
7.803377378
7.82918773
7.91668419
7.9468081
7.861757464
7.846970447
7.905635779
5.879056542
7.872827537
7.859195569
7.865733997
7.823930168
7.794546037
7.806410171
7.785628391
7.751371632
7.823746421
7.875243711
7.878749279
7.898653435
7.868093928
7.806087116
7.856505509
7.880812604
7.961911819
7.985833357
7.939795154
5.8946929
7.949905547
7.896539486
7.912856043
7.943000064
7.934191442
7.91537707
7.985822412
7.941899356
7.872060231
7.839693647
7.848836413
7.829259973
7.863426246
7.872624544
7.782779473
7.730392484
7.695335411
7.665863626
7.780510651
5.864309679
7.937309521
7.895321018
7.85098553
7.882830635
7.884274635
7.903136038
7.879267919
7.917265641
7.924614232
7.942346627
7.942137403
7.979236098
7.921508264
7.901605635
7.85844261
7.852419628
7.854199968
7.831219387
7.8286549
5.915346661
7.929794256
7.847606502
7.838760013
7.779714677
7.854910823
7.870901854
7.856678965
7.861917375
7.840358932
7.818341793
7.790680427
7.701486035
7.762466074
7.809476542
7.896462857
7.906559875
7.899625029
7.916129955
7.853356108
5.917046642
7.88349391
7.816920275
7.835786224
7.812736994
7.809773854
7.705373659
7.772125875
7.76352385
7.791620393
7.838275371
7.878091748
7.901516804
7.936761298
7.880879912
7.834653442
7.840683895
7.873158431
7.840229215
7.855431712
5.901602708
7.916920556
7.871511877
7.884924426
7.886293625
7.827554973
7.908584725
7.897286076
7.860141421
7.798770609
7.761060546
7.768546949
7.757037163
7.787700488
7.806113742
7.834219043
7.89114886
7.837303197
7.846214989
7.862090078
5.889378082
7.896076107
7.883904111
7.801636288
7.835046256
7.86885301
7.839132079
7.849306256
7.839243775
7.858450997
7.855981528
7.827561617
7.770130643
7.735767611
7.704836816
7.693779378
7.685831943
7.707173939
7.747378675
7.733685757
5.905705361
7.938374719
7.938938015
7.928249784
7.920266192
7.923226135
7.918231112
7.914153417
7.927193932
7.878158854
7.887584875
7.897892093
7.958742065
7.961847647
7.982301931
7.972410445
7.953611377
8.001551618
7.983505886
7.96455921
5.90629888
7.928203578
7.827678263
7.83886517
7.826840569
7.813321035
7.818814882
7.686065721
7.749297207
7.813227429
7.881835558
7.892281213
7.861160159
7.872407048
7.880224387
7.903239514
7.906846635
7.847362895
7.85330028
7.815552269
5.874594863
7.874559419
7.829119654
7.781042258
7.805757038
7.790432152
7.849433245
7.938800907
7.967351396
7.937029031
7.826191601
7.805246827
7.796511056
7.818190197
7.831072683
7.840101095
7.816953675
7.809200837
7.862379794
7.875015867
9.659478924
9.774803501
9.583565554
9.222870499
8.81783733
8.483084815
8.169666572
7.81793342
7.468046192
7.271087162
9.151761331
9.835626024
10.2378111
10.51152664
10.57059594
10.3866159
10.08398856
9.800064386
9.521226644
9.135120617
8.666854752
9.305361251
9.837866791
10.36673479
10.65387119
11.00081012
11.02880255
11.01031022
10.8847075
10.51941127
8.44487577
8.846921759
9.268961452
9.760583554
10.26063147
10.73492798
11.20749663
11.43322485
11.53992096
11.55520304
8.229892252
8.490246533
8.923432568
9.407437018
9.867132619
10.20452749
10.6033855
10.98675797
11.40259419
11.74747332
8.135152458
8.381111425
8.683272239
8.957909819
9.306985672
9.755683296
10.2820645
10.72508861
11.17978119
11.54358085
8.09922669
8.242777203
8.387698304
8.689236571
8.96270459
9.414133112
9.807693238
10.27732563
10.77315049
11.25911586
8.011334077
8.060194248
8.230532932
8.438146921
8.704639055
8.969413332
9.395663383
9.702249217
10.06763439
10.46235349
7.96865125
8.114273813
8.2117955
8.343941098
8.526417756
8.69969517
8.900535361
9.235482277
9.65398886
10.00930003
8.020237853
8.073613192
8.174296089
8.198736913
8.265128482
8.506860194
8.751645817
8.947787146
9.179215004
9.431631727
8.014286673
7.994837639
8.154950274
8.202888157
8.332251118
8.358737316
8.483299591
8.658772025
8.863121159
9.115195128
7.902078566
7.912939478
7.915629865
7.938824414
7.995256977
8.121451327
8.197738805
8.379376556
8.561652175
8.799883434
7.914770949
7.925277658
7.956696816
7.999284161
7.997090253
8.103397884
8.280076766
8.311623632
8.397015435
8.562030167
7.826766363
7.845581834
7.888241891
7.900323102
7.933668002
7.944103905
7.959455095
8.102186016
8.210207543
8.305534683
7.803381403
7.785641488
7.856490065
7.932378854
7.957546103
8.096772687
8.080746828
8.134601368
8.171796819
8.2915051
7.989135256
8.045011729
7.956521128
7.947377852
7.977929139
7.953349936
7.996737718
8.002783282
8.093164089
8.09463118
7.793522485
7.820599633
7.817717212
7.84929183
7.793032318
7.852130637
7.866574785
7.901438392
7.854653195
8.026111234
7.818099408
7.739504206
7.755002663
7.772775019
7.856727116
7.856647424
7.86226056
7.945368753
7.976664896
8.00507451
7.790163351
7.908815875
7.93797425
7.956783747
7.928113955
7.912020343
7.923484055
7.900802864
7.856635257
7.924475813
7.919896161
7.911493367
7.862174949
7.842581313
7.86407214
7.889315161
7.93716047
7.964018443
7.920357298
7.892215821
7.806129512
7.828477207
7.822604374
7.813073664
7.813096496
7.738705225
7.686502455
7.696492728
7.841229003
7.842269591
7.859064072
7.821224973
7.782185786
7.831786327
)
;

boundaryField
{
    flow
    {
        type            calculated;
        value           nonuniform List<scalar> 
42
(
5.782285283
5.864736606
5.922971191
5.936506287
5.886525948
5.877522836
5.915567526
5.875753462
5.901808961
5.899309261
5.886308315
5.902778313
5.879056542
5.8946929
5.864309679
5.915346661
5.917046642
5.901602708
5.889378082
5.905705361
5.90629888
5.874594863
5.782285283
7.772301407
7.736052686
7.74413098
7.760194691
7.770793163
7.768134392
7.793249095
7.759110072
7.705661336
7.710064482
7.689401182
7.669058353
7.670308743
7.703978873
7.737579615
7.702731418
7.743764118
7.83579907
8.323371865
)
;
    }
    obstacle
    {
        type            calculated;
        value           nonuniform List<scalar> 10(4.102490993e-18 3.611455971e-18 3.356174465e-18 3.05798313e-18 3.109658694e-18 2.888450264e-18 2.757217815e-18 2.623338316e-18 2.568390637e-18 2.526264929e-18);
    }
    frontAndBack
    {
        type            empty;
    }
    procBoundary0to1
    {
        type            processor;
        value           nonuniform List<scalar> 
21
(
7.028648306
8.776623558
10.26319531
11.37544382
11.87786199
11.86332719
11.6524571
10.9610598
10.51276722
9.780532213
9.453251285
9.020776615
8.717958491
8.364332562
8.414541687
8.102371709
8.081711595
8.09724837
7.946180704
7.918345077
7.843934842
)
;
    }
    procBoundary0to2
    {
        type            processor;
        value           nonuniform List<scalar> 
31
(
5.863513901
7.871717426
7.888064089
7.813390929
7.844553402
7.834512991
7.844036815
7.804446375
7.776773876
7.808576209
7.846293134
7.903019729
7.883019321
7.825229357
7.837825401
7.812053909
7.842634109
7.801840667
7.757546204
7.725690196
7.884937236
7.875977879
7.896062771
7.889281834
7.883576071
7.961190865
7.788211706
7.839122531
7.900284626
7.884937236
7.821632023
)
;
    }
}


// ************************************************************************* //
