/*--------------------------------*- C++ -*----------------------------------*\
| =========                 |                                                 |
| \\      /  F ield         | OpenFOAM: The Open Source CFD Toolbox           |
|  \\    /   O peration     | Version:  2406                                  |
|   \\  /    A nd           | Website:  www.openfoam.com                      |
|    \\/     M anipulation  |                                                 |
\*---------------------------------------------------------------------------*/
FoamFile
{
    version     2.0;
    format      ascii;
    arch        "LSB;label=32;scalar=64";
    class       volScalarField;
    location    "0.006";
    object      linearKE;
}
// * * * * * * * * * * * * * * * * * * * * * * * * * * * * * * * * * * * * * //

dimensions      [1 -1 -2 0 0 0 0];

internalField   nonuniform List<scalar> 
654
(
3.804314711
8.542728652
6.164090928
10.36252685
10.70867517
8.234843207
4.309491308
8.759001626
10.00940034
5.498298094
9.876973092
7.887664439
10.54316466
8.615539536
8.912151202
2.077978357
8.341112507
6.77557066
7.720836368
9.64093376
6.358788787
8.72495427
6.548893901
8.978311155
6.92707835
8.93504556
5.945938469
7.347402057
6.206935689
6.47649217
8.239756076
7.349358871
8.062881866
7.432431913
4.503863062
9.748339664
7.172074953
6.530384468
6.480059423
5.765860703
8.211924783
4.779720374
6.480250989
10.62390838
5.145487963
8.989362663
6.522669616
8.289333483
7.423852584
6.523428639
8.413990946
4.293528313
6.219232792
9.566717201
3.996836749
7.69626738
6.603221587
7.798400108
6.718344878
8.750182941
5.267997074
6.926807682
8.778306017
9.079454511
7.723940165
10.75411494
6.827843996
8.646057419
10.94921627
7.965197147
7.89764071
15.61628424
4.103829091
6.487146397
5.766948805
5.273240353
6.998448408
9.191975376
7.356637851
7.46702519
6.713500784
7.403431121
9.715775353
12.35802325
7.82042703
8.479731953
7.978870158
6.562110428
10.84097973
9.46891348
7.909442225
11.32509246
6.66004449
11.38271334
5.881166978
4.705456271
4.711801656
8.586519783
9.589108145
5.404065283
5.379404956
4.464760397
7.192083462
8.305666731
2.808862274
5.662511718
9.557059527
9.704087113
6.574690835
7.648045887
5.436953704
4.962877788
8.808515865
7.506297438
7.636664308
11.32386285
8.887110427
10.69894781
3.340310305
8.598439498
9.996546751
5.222823834
9.396159173
6.542745462
5.803866724
10.03166082
9.495112382
2.621799185
8.603693538
7.223715921
8.45553951
8.842562955
8.63440199
4.101289651
7.876031383
6.448475871
4.916745458
8.838997171
7.061129233
5.884576515
5.474148774
6.141417765
10.28095612
11.89063827
3.750222634
6.289024352
7.331181202
2.747531194
9.050463345
7.443521969
6.776053234
7.744414196
9.14934269
6.043417798
8.574233102
9.182072585
8.706689853
10.15525299
7.954849271
3.883688924
3.616979852
11.83807857
4.465739732
7.519034087
8.459057509
6.034408955
9.014428794
6.328934684
5.754406841
7.651733398
10.45075099
7.762215369
7.360020033
7.769360843
11.12296415
7.726465999
12.01026466
8.722154129
7.580810386
12.58136015
6.203705878
6.928618552
11.63148812
6.132143855
10.17456615
8.967875128
6.140941134
4.883667266
7.768733396
7.623770629
6.478661784
11.53551013
8.664526601
14.46082792
5.277807558
5.62286739
9.405045422
6.927413171
9.969660088
7.350212403
3.941788009
5.642176229
6.043509294
10.55853771
5.743905607
10.9263156
9.620010364
6.12179856
0
9.667040481
9.160861348
5.474918428
3.478161877
7.416475403
12.95222082
7.524744283
8.974969493
6.115933987
3.972944293
8.733832614
7.565746661
13.05834417
5.173894132
4.385939841
4.501400352
7.719344988
13.73378228
12.36541682
8.074785223
8.990102639
8.798532403
10.86657492
11.44644893
2.95634845
3.995988043
15.51847509
12.71346655
9.59278052
7.222537074
10.38194623
8.280076073
2.266930544
9.626552784
11.64532597
6.860688582
7.904947817
7.223767898
9.401861495
5.570537325
6.158959162
11.71816389
9.940555954
11.25356075
2.906175584
6.415280981
9.914551837
4.219896568
10.17072702
7.979460406
6.399366237
7.71480747
7.74170614
6.315708652
10.45997322
14.1612719
5.805248688
6.884818247
6.124302507
7.720745667
7.734496765
9.819111941
9.36005757
8.472845545
7.335138723
3.498825525
10.17301065
5.759894247
8.147114717
4.605472849
9.418766032
6.451762019
9.12146172
7.13081767
8.09729155
5.61811215
10.52388643
5.934244008
4.761616412
8.766430877
4.773354285
12.49565944
12.09958933
6.841560145
4.025825279
4.116766239
5.048409112
5.173790017
12.5039894
9.799547597
7.727771563
6.242123903
6.17364232
6.935749801
6.995415345
9.435909732
5.70160068
7.578114502
13.22465529
6.56877143
8.062997427
10.15268927
6.333364742
6.866412086
9.008692535
6.380295903
5.634720983
3.085848301
9.358096266
5.970150415
7.697797805
8.310226835
8.000761694
10.03353683
8.838216089
6.86591081
9.072008634
10.44815765
6.81192353
9.713556885
9.404625027
7.492764683
10.40271738
10.8143846
6.726361464
7.897051377
9.91641205
8.879221951
10.40119942
8.015030012
11.19300018
4.65291612
4.754092091
8.107670297
11.67104441
7.999042138
8.623122089
1.854573444
1.5746704
9.890944436
6.268017794
5.061457386
6.397022937
9.053318838
11.33036291
9.192551432
11.90093748
5.378384578
5.565059603
4.048766306
8.124503785
6.007673946
7.546896499
9.09604187
4.83385407
2.526238399
9.576238679
8.992972344
8.498251692
8.424367377
9.132273877
10.55684039
9.868921777
8.162248001
7.404940871
8.649337851
5.441881759
3.328407599
8.007871558
7.493857829
6.612383999
4.38993883
10.12878503
6.669846298
9.963015121
5.654860262
11.12576422
8.334474953
8.789547206
8.436788414
6.255430728
11.74671266
7.80375796
5.403617826
7.201010942
9.847484015
6.084280505
6.146605932
5.489991726
7.740121264
9.128306561
6.72707188
7.248994524
5.348542199
3.403476485
11.92877138
4.23451168
8.794667163
8.106287767
9.006118792
3.991465587
7.854963303
3.449368481
12.37912548
4.823329318
8.279059743
7.057320032
6.28204027
7.840868079
11.58708521
5.450781024
5.771504101
6.966655879
7.629057079
4.831503374
11.24618164
9.103350677
10.23818967
9.139283998
9.096249148
8.482049917
6.346910772
7.870058164
7.651173572
5.557246762
8.053146231
5.283494191
7.55987322
7.575634176
6.317505346
5.236453721
12.40456515
14.47371008
11.69369228
9.474822266
6.238364498
7.71969069
9.738659283
9.947135182
7.219539823
10.60348594
8.975612292
9.030505676
5.662609332
10.34785093
13.83721236
9.498536938
8.248038215
10.7297444
10.59808017
7.996950177
6.579293216
8.36264321
10.98126831
12.08055761
11.39525031
6.454253737
10.37590598
10.52669571
9.097413749
12.88150381
7.268291157
10.66846093
14.33334971
5.672703001
7.367136012
15.60342599
7.980014952
14.19294414
14.53159856
14.51855261
10.23796472
10.89236189
5.741355688
10.80961794
8.618012759
7.084413167
11.6360216
5.348388563
14.41823891
6.261917023
7.142505266
9.9037541
12.69592166
9.318186247
10.05957802
10.06047602
7.402596365
10.05413571
8.906130438
15.15200632
9.305462768
4.338010577
7.667156862
8.367370654
7.099846172
14.28687235
9.204628627
11.02123393
8.981347398
11.87641424
7.491666051
4.390934079
3.84431986
6.022561589
6.120878324
5.586281661
6.400032692
8.699112023
13.75852328
12.33429912
4.12177266
7.265393803
7.760870392
5.85054459
4.713153778
11.38661184
10.21143055
8.125503117
10.06222909
19.62947965
9.233544889
9.178807876
13.02994456
8.40661932
11.60941348
9.965053577
7.845421315
10.52069906
8.495654319
12.1714702
4.246638494
10.53113388
11.00977302
9.022859325
7.543579239
6.81097565
12.33885133
8.767744924
9.833051305
8.73947158
8.036030263
9.834712375
6.900509042
5.460314982
4.699616159
6.944504336
9.187657086
9.410552153
10.87550494
8.538198647
15.3097836
9.042001483
5.974659694
3.562466352
7.358814364
12.04192876
10.4878659
12.91105582
9.091115544
4.59493966
7.317876142
6.624486746
11.07540254
8.266719812
9.415231535
3.572192472
5.126749153
8.56304395
8.651185473
8.332827237
10.28747311
10.14489483
10.60192738
6.384737795
7.632979117
5.391392329
8.297857605
5.55256346
9.503428695
7.956351306
8.293897526
7.953659018
5.219410031
8.219025193
7.821725344
10.03740062
7.640931595
8.645140965
5.01232468
6.466771067
7.818895407
3.880809579
5.266204994
10.26556116
9.93950518
8.138400168
2.604444562
11.25049344
8.100395962
6.847145997
9.570966522
4.997295608
7.160453161
3.616224799
8.134358267
8.867149235
3.713109776
3.662076976
7.918014956
8.982845507
8.678750734
8.342959789
7.246434985
12.03431382
9.547559469
7.350925745
4.676512792
8.645319269
9.881163602
7.033128783
3.349968398
10.81713873
7.970031635
8.234446483
7.114854354
10.89689343
7.925530008
4.491791081
9.394143065
4.395674471
7.123985563
10.40191289
9.032368404
8.730980402
11.08210974
7.837574947
6.513601312
4.035996641
7.536344716
6.489615682
12.11259554
13.7478812
6.950234668
8.359175964
)
;

boundaryField
{
    flow
    {
        type            zeroGradient;
    }
    obstacle
    {
        type            calculated;
        value           nonuniform List<scalar> 10(0 0 1.551459879e-18 3.23741385e-18 5.106889074e-18 5.992607132e-18 4.601893472e-18 7.050433678e-19 6.09073091e-18 3.393602444e-18);
    }
    frontAndBack
    {
        type            empty;
    }
    procBoundary0to1
    {
        type            processor;
        value           nonuniform List<scalar> 
21
(
8.57433198
11.66991699
8.701478617
10.1580859
11.1666965
12.6476249
8.89674638
10.02359162
8.717895356
14.50706739
14.65882688
5.8775274
8.268465195
8.898019545
7.504538133
14.15888577
8.206676426
7.711457386
6.579615895
6.599051157
2.828504177
)
;
    }
    procBoundary0to2
    {
        type            processor;
        value           nonuniform List<scalar> 
31
(
4.991579171
9.240124966
10.53459912
5.22040904
8.774866298
11.08871283
11.2263362
6.281636251
5.885545
8.47713041
9.232063474
10.17774817
1.729846449
3.732170179
3.054914985
13.74571168
9.687587505
7.924104601
9.707966283
8.649317515
11.46948632
7.047981146
9.655685767
10.1898464
8.906207168
5.949335389
7.299959151
13.21009569
4.437781469
11.46948632
7.588780641
)
;
    }
}


// ************************************************************************* //
