/*--------------------------------*- C++ -*----------------------------------*\
| =========                 |                                                 |
| \\      /  F ield         | OpenFOAM: The Open Source CFD Toolbox           |
|  \\    /   O peration     | Version:  2406                                  |
|   \\  /    A nd           | Website:  www.openfoam.com                      |
|    \\/     M anipulation  |                                                 |
\*---------------------------------------------------------------------------*/
FoamFile
{
    version     2.0;
    format      ascii;
    arch        "LSB;label=32;scalar=64";
    class       volVectorField;
    location    "0.006";
    object      momentumMean;
}
// * * * * * * * * * * * * * * * * * * * * * * * * * * * * * * * * * * * * * //

dimensions      [1 -2 -1 0 0 0 0];

internalField   nonuniform List<vector> 
654
(
(0.006234811815 -3.313037005e-05 -9.66545551e-06)
(0.00819835874 -3.418213574e-05 -1.60860682e-05)
(0.008207757165 -3.821102297e-05 -9.486125513e-06)
(0.008208902858 -3.519889356e-05 -4.677904078e-06)
(0.00823107984 -3.711447599e-05 -7.566824643e-06)
(0.008236205793 -3.88648077e-05 -2.135586936e-06)
(0.008232155357 -3.993436752e-05 1.232080321e-05)
(0.008263945946 -4.48661592e-05 8.865644128e-07)
(0.008236989872 -3.39186351e-05 9.150224542e-06)
(0.00818889765 -3.505998227e-05 4.722495287e-06)
(0.008192742172 -2.269648612e-05 3.284337242e-06)
(0.008178484107 -1.586564469e-05 -7.051946162e-06)
(0.00815704293 -1.235824364e-05 -8.232145872e-06)
(0.008144746583 -1.449933031e-05 -1.316425454e-05)
(0.008178196251 -9.914344616e-06 -9.625643819e-06)
(0.008201785687 -2.684122805e-05 -8.987956772e-06)
(0.008140844991 -3.94910692e-05 3.462555232e-06)
(0.008121240951 -7.22634904e-05 2.820379316e-06)
(0.008019794242 -0.0001014468466 -7.46103806e-06)
(0.007706487701 8.030255462e-05 -6.381381581e-06)
(0.006320105287 9.124205173e-07 -4.260434204e-06)
(0.008313367031 -6.240351882e-06 -3.369794287e-06)
(0.008341591769 -1.386017935e-06 6.66803421e-07)
(0.008301249709 -1.062353107e-05 -1.366970594e-05)
(0.008318305868 -7.492266723e-06 -1.357712258e-05)
(0.008347057523 -1.978047807e-05 -2.196545198e-05)
(0.008306358368 -2.697202155e-05 -3.485704621e-05)
(0.008278354297 -5.945267165e-06 -2.178328126e-05)
(0.00828079267 -6.426866524e-06 -1.534217405e-05)
(0.008302895882 -2.243077929e-06 -3.783056765e-06)
(0.008321738333 -8.987993339e-06 8.123971379e-07)
(0.008344801543 -1.000428037e-05 7.422869302e-06)
(0.008333899711 -6.442353836e-06 5.911413037e-06)
(0.008347406528 -1.105325124e-05 7.255977388e-06)
(0.008314449201 -7.649121271e-06 -4.951629341e-06)
(0.008353872862 -1.419549335e-05 1.978391855e-08)
(0.008388812166 4.63463974e-07 2.017000192e-05)
(0.008414396793 1.3988518e-05 6.019129783e-06)
(0.008357030463 0.0001090054408 1.302976957e-05)
(0.008183800878 0.0004464221888 7.080434355e-06)
(0.006386382542 -5.956137301e-07 1.406269084e-05)
(0.008442979912 -7.702012889e-06 1.65568044e-05)
(0.008409933334 -2.087662846e-05 7.829933665e-06)
(0.008372819993 -2.11132243e-05 7.981441234e-06)
(0.008320687641 -2.469826352e-05 9.288824544e-06)
(0.008348846952 -1.314076458e-05 9.009722474e-06)
(0.008398779803 -9.470444934e-07 1.587681701e-05)
(0.008377721552 4.722139849e-07 1.798957061e-05)
(0.008367726361 8.306314413e-07 4.621670273e-06)
(0.008336099044 -2.101279346e-06 -4.775751422e-07)
(0.008312779235 -3.674676711e-06 -8.866246761e-06)
(0.008333903108 -1.567332517e-05 -1.481148532e-05)
(0.00833876537 -2.189009581e-05 -1.233758257e-05)
(0.008360328951 -1.42003711e-05 -1.111895344e-05)
(0.008408802981 -1.599624773e-05 -1.607136251e-05)
(0.008369083405 8.053059939e-07 -3.427332955e-06)
(0.008306748862 1.18420535e-05 9.352781333e-07)
(0.008329333215 5.173484682e-05 -2.021390435e-06)
(0.008236133293 0.0001434746671 7.154042564e-06)
(0.008278866287 0.0003732266053 2.12220719e-05)
(0.006407621408 -1.419569772e-05 -3.635245062e-06)
(0.008284422863 -1.184439478e-05 -7.347999298e-06)
(0.008324233998 -5.362727517e-06 -2.35344153e-06)
(0.008318146011 -5.636295499e-06 7.207369805e-06)
(0.008280286268 8.624465679e-06 4.614449651e-06)
(0.008261683894 1.457141162e-07 -4.3428678e-07)
(0.00824879451 -1.196350859e-05 -1.01338151e-05)
(0.00824924186 -1.924052435e-05 -1.581260133e-05)
(0.008260252427 -2.243158416e-05 -1.391319355e-05)
(0.008326162391 -9.246949092e-06 -8.924940711e-06)
(0.008340884994 -7.916615694e-07 -2.016832602e-06)
(0.008344749654 1.524375194e-05 -9.599672618e-06)
(0.008376967404 2.719727097e-05 -1.227913055e-05)
(0.008287890461 2.254216621e-05 8.030052502e-06)
(0.008266840535 1.541464774e-05 1.186450288e-05)
(0.008196194961 -1.001393709e-06 1.325250513e-05)
(0.008192777955 1.753673277e-05 8.075768678e-06)
(0.008200544382 5.393716775e-05 1.833468795e-05)
(0.008228062688 0.0001176857124 -2.698419164e-09)
(0.00833023879 0.0003073366861 -6.514834032e-06)
(0.006353466072 -5.765554403e-06 4.332609328e-06)
(0.008361976042 -1.060724884e-05 1.43520252e-05)
(0.00828763918 -2.970812432e-06 1.41961669e-05)
(0.008292089658 1.995708958e-06 9.225984825e-06)
(0.008312178586 3.995284884e-06 1.165131265e-05)
(0.008316979707 6.872903352e-06 5.725179673e-06)
(0.008287503699 2.331984417e-05 2.487035934e-05)
(0.008255195463 1.378055462e-05 1.993458989e-05)
(0.008210065191 4.861210943e-06 1.397334041e-05)
(0.008204783184 -2.116070662e-06 1.171617172e-05)
(0.008172001546 -1.723079894e-05 2.436145178e-05)
(0.00815758628 -1.839816198e-05 1.906197391e-05)
(0.008225066888 -1.370900007e-05 1.492090848e-05)
(0.008238191061 -4.685866583e-06 2.973896324e-06)
(0.008252203651 1.171285864e-05 3.862638257e-06)
(0.00836958681 2.1828107e-05 -9.51720104e-06)
(0.008371886437 3.267438556e-05 -6.508501306e-06)
(0.00838908266 5.695055856e-05 -1.301398296e-05)
(0.008365611105 0.0001052942418 -1.450494458e-05)
(0.008362090908 0.0002324430855 -4.481309587e-06)
(0.006329985801 1.850465634e-05 -4.226043189e-06)
(0.00826776953 2.01147258e-05 -8.158309562e-06)
(0.008316485519 1.635084884e-05 -1.071936383e-06)
(0.008272187217 1.429550018e-05 -9.02624486e-06)
(0.008260188465 1.216852956e-05 -4.986749088e-06)
(0.008282584639 -4.875768185e-06 5.009024545e-06)
(0.008282502065 -6.398930898e-06 -8.903686186e-06)
(0.008348051238 -6.0140117e-06 -1.324932783e-05)
(0.008361897388 1.251545615e-06 -2.788074979e-06)
(0.008362008807 1.007577784e-05 -1.309422931e-06)
(0.008358339347 1.295015353e-05 -8.969092866e-06)
(0.00836851446 5.240016579e-06 -7.503117642e-06)
(0.008299000397 -9.8589327e-06 -8.634121098e-06)
(0.008314087045 -2.675801125e-05 -9.934018615e-06)
(0.008333903158 -1.617173908e-05 -3.021212635e-06)
(0.008261817696 -1.077723272e-05 -1.774709015e-06)
(0.008256156219 2.055871423e-05 -1.31315953e-05)
(0.008229100181 7.365352232e-05 -2.445881438e-05)
(0.008256581663 9.50539047e-05 -2.64958702e-05)
(0.008298863659 0.0001918092514 -2.447526958e-05)
(0.006383164455 7.891878432e-06 -1.513064103e-05)
(0.008379549476 1.656856531e-05 -1.91813524e-05)
(0.008398712921 1.62986254e-05 -2.500149002e-05)
(0.008358282271 1.147670118e-05 -2.66739874e-05)
(0.008418562337 5.521676977e-06 -3.300219766e-05)
(0.008401411953 1.200867823e-05 -3.189227417e-05)
(0.00839388335 -1.131119524e-06 -2.372009778e-05)
(0.008319497857 -1.291091665e-05 -2.793496647e-05)
(0.008396282679 -8.251504849e-06 -2.70540257e-05)
(0.008420876186 -1.221785359e-05 -1.606569668e-05)
(0.0083807977 -8.027096247e-06 -2.273047194e-05)
(0.008376035668 -1.041657171e-05 -1.661652276e-05)
(0.00838230345 1.189159968e-05 -2.093188035e-06)
(0.008333642913 1.982555463e-05 -1.344489716e-05)
(0.008330455463 1.187892727e-05 -1.155660003e-05)
(0.008274681062 1.323886002e-05 -1.855274324e-05)
(0.008318068978 2.795596465e-05 -2.616834787e-05)
(0.008322473494 3.032284032e-05 -2.979809309e-05)
(0.008393334928 7.734104464e-05 -1.338728291e-05)
(0.008380520533 0.0001425564188 -1.126953049e-05)
(0.006333767099 -1.89248249e-05 -2.704859149e-05)
(0.008299068001 -1.66428159e-05 -3.655325991e-05)
(0.008323531892 -1.370549215e-05 -3.328086173e-05)
(0.008330292496 -8.485109993e-06 -2.727238908e-05)
(0.008308634611 -5.941991042e-07 -1.759852735e-05)
(0.008318185107 4.85131709e-07 -2.584347999e-05)
(0.008389573126 1.81165833e-05 -2.695981042e-05)
(0.008438526551 1.317618947e-05 -1.918566235e-05)
(0.008436177664 1.03495224e-05 -2.070275315e-05)
(0.008397098657 2.203259597e-06 -3.238067225e-05)
(0.00836613371 -4.778601734e-06 -2.653352014e-05)
(0.008315384239 2.121476766e-06 -2.89647343e-05)
(0.008346507918 8.730530228e-06 -2.812982454e-05)
(0.00836963857 8.395718959e-06 -2.262098358e-05)
(0.008342844007 1.922247845e-05 -2.537794814e-05)
(0.008426720228 1.728592128e-05 -1.848910216e-05)
(0.008405072183 1.331350751e-05 -6.857616074e-06)
(0.008376142629 4.197772337e-05 -2.319889485e-05)
(0.008360901878 6.415405964e-05 -1.785911066e-05)
(0.008332338672 8.976674391e-05 -1.883048564e-05)
(0.006367561088 -2.75236135e-06 -1.168028538e-05)
(0.008420699438 2.200057706e-06 -1.440520185e-05)
(0.008403492252 -9.217758078e-07 -1.880221325e-05)
(0.008359959766 -3.179699595e-06 -1.619231354e-05)
(0.008322985947 -1.22164674e-05 -1.79786266e-05)
(0.008311334974 -3.09114415e-06 -1.74918409e-05)
(0.008323997974 -1.369395832e-05 -1.102212526e-05)
(0.008320730386 7.237483586e-07 -1.011695232e-05)
(0.00828390604 7.216125448e-06 -9.137176167e-06)
(0.008280764672 1.877912926e-05 -4.585495173e-06)
(0.008386236436 1.723054213e-05 -1.59035469e-07)
(0.008374764303 1.60048002e-05 -1.757692293e-05)
(0.008320068831 -4.018376241e-06 -1.454993685e-05)
(0.008316092046 -8.347769869e-07 -1.175366006e-05)
(0.008271313473 -9.532019171e-06 -7.622015416e-06)
(0.008272496697 3.798999997e-06 -9.018570051e-06)
(0.008314942371 2.119531627e-05 -9.660672226e-06)
(0.00832257315 3.775906778e-05 -2.205760302e-05)
(0.008318189732 5.80213729e-05 -2.299862193e-05)
(0.008430391186 0.0001024266213 -9.590236995e-06)
(0.006350564967 -1.282614264e-06 2.020941231e-05)
(0.008253259382 -1.627502603e-05 2.019771375e-05)
(0.00830423155 -1.883455634e-05 1.851102505e-05)
(0.008317043009 -1.409227438e-05 1.869465557e-05)
(0.008348182171 -5.179766692e-06 1.263533208e-05)
(0.008351898461 -5.643741208e-06 1.125121799e-05)
(0.008321468184 -5.09359415e-06 1.497823881e-05)
(0.008307256172 -1.576153574e-06 9.18035465e-07)
(0.008332989844 7.949552156e-06 -7.614349476e-06)
(0.008344520836 1.4274982e-05 -1.084309921e-05)
(0.008304289421 1.491516583e-05 -1.291754138e-06)
(0.008311056608 1.924229406e-05 2.421784001e-06)
(0.008345006289 1.093856114e-05 1.444677469e-05)
(0.008350189861 9.633234454e-06 3.782559652e-06)
(0.008389758786 9.715225844e-06 -2.917607867e-06)
(0.008429679765 1.352336013e-05 -3.051518689e-06)
(0.008424988246 1.385027339e-05 3.910178496e-06)
(0.008353302927 3.478382484e-05 7.110775514e-06)
(0.008378972091 5.413760027e-05 5.343679907e-06)
(0.008360029128 7.18025094e-05 -4.794206071e-06)
(0.006368066624 1.390724521e-05 -6.426348712e-06)
(0.008334186832 2.167674626e-05 -9.770915698e-06)
(0.008344828112 8.839682006e-06 -1.43331302e-05)
(0.0083130972 2.728959731e-06 -1.013451818e-05)
(0.008297984249 4.190351598e-06 -7.067680908e-06)
(0.008236627308 -1.098800517e-05 -2.679053112e-06)
(0.008185224335 -5.812189549e-06 3.401742274e-06)
(0.008205066828 -3.95787732e-06 -4.773632105e-06)
(0.008263215608 -6.45060063e-06 -2.146444915e-06)
(0.008275920652 -6.051510481e-06 -3.960552591e-06)
(0.008305645329 -1.220155229e-05 -8.836822113e-06)
(0.008337544998 -1.014285249e-05 -6.537310679e-06)
(0.0083963645 6.762668305e-06 -1.021686189e-05)
(0.008370427461 1.431506407e-05 -1.699743561e-05)
(0.008349110031 2.253976432e-05 -1.853964118e-05)
(0.008228060108 1.482828404e-05 -4.743532618e-06)
(0.008261647739 1.26052842e-05 -4.907518614e-06)
(0.008338075037 -9.204548539e-06 -7.033587264e-06)
(0.008408684184 1.350039801e-05 -6.526647478e-06)
(0.008407358497 5.413556173e-05 1.054484854e-05)
(0.006361483665 -2.196630976e-06 4.7167921e-06)
(0.00834316515 -8.232019184e-06 3.715558153e-06)
(0.008342949019 5.117012643e-06 1.028976524e-05)
(0.008280608685 2.644989076e-06 2.648304037e-06)
(0.008348642247 -4.331903603e-06 2.268659676e-07)
(0.008375711752 6.294651648e-07 -5.8858312e-06)
(0.008418548888 9.284786347e-06 -9.416315757e-06)
(0.008402821872 -1.085466898e-05 -4.983188724e-06)
(0.008422212244 -7.195529663e-06 6.930383253e-07)
(0.008328251637 -6.724312489e-06 -5.871274303e-06)
(0.008307341733 2.798385881e-06 -7.812681697e-06)
(0.008246473795 9.335496963e-06 -1.327602344e-05)
(0.008194349999 2.526129577e-06 -9.521304246e-06)
(0.008282239238 -4.300938539e-07 -3.280452316e-06)
(0.008313584867 -6.246802836e-06 3.220308018e-06)
(0.008401952709 -3.045324068e-06 -1.548633537e-06)
(0.008428581825 -2.225710599e-06 1.814023886e-06)
(0.008352776538 7.440552085e-06 1.26903353e-06)
(0.008326300283 6.9107565e-06 -9.892682537e-06)
(0.008370236477 2.251156901e-05 1.264194375e-05)
(0.006354102957 1.065509285e-05 -1.918798331e-06)
(0.00832195484 8.239447637e-06 -1.18069332e-05)
(0.00834856704 -2.50569834e-07 -6.105578566e-06)
(0.008349004828 4.016093851e-06 -5.277342039e-06)
(0.008307895228 3.593695351e-07 -1.099384209e-05)
(0.008272530642 4.38143305e-06 -1.152143318e-05)
(0.008280830843 -1.030561748e-05 -9.591105804e-06)
(0.008254560883 5.425389499e-08 -1.976879273e-05)
(0.008219328265 7.160470264e-06 -9.753541141e-06)
(0.008293047938 -1.230993743e-06 -7.243656331e-06)
(0.008350415161 -7.226221785e-06 4.019343809e-06)
(0.008362084198 -2.418789964e-05 2.451745562e-06)
(0.00838083688 -3.204258939e-05 2.785733566e-06)
(0.008356304254 -2.497757849e-05 -3.113066534e-07)
(0.008282671159 -1.234107666e-05 3.702795738e-06)
(0.008339855759 -1.50041361e-05 -2.025092553e-07)
(0.00835421448 -6.857156743e-06 -2.968331048e-07)
(0.008427725232 2.20580647e-06 4.082879672e-06)
(0.008447040464 1.442923259e-05 1.355634201e-05)
(0.008399851808 3.305120993e-05 4.873859074e-06)
(0.006369327377 5.477383551e-07 -1.006834849e-05)
(0.008394634636 4.586754186e-09 -1.204257879e-05)
(0.008379044017 1.241998814e-05 -9.553481552e-06)
(0.008398546061 1.273526058e-05 -1.557234471e-05)
(0.008425922449 3.491549808e-06 -2.592846705e-06)
(0.008413695402 1.466798353e-05 -2.764715718e-06)
(0.008387497171 2.005708956e-05 1.106885477e-05)
(0.008454792955 7.110683822e-06 1.603453241e-05)
(0.0084118129 -5.77787997e-06 1.425420894e-05)
(0.008344609648 -1.439930218e-05 2.161761358e-05)
(0.008306426942 -1.012524274e-05 3.993694755e-06)
(0.008320537751 -3.353045811e-06 7.127137076e-06)
(0.008300427095 3.558723956e-06 1.063317123e-05)
(0.008334360547 -8.417460958e-06 1.25280261e-05)
(0.00834092658 -8.669262849e-06 9.849543666e-06)
(0.008255435402 -8.135835646e-06 -5.031976725e-07)
(0.008200519874 -3.026410652e-06 -9.320922338e-06)
(0.008167485214 -2.8783235e-07 -8.476869235e-07)
(0.008135090222 5.356429558e-06 -1.48889302e-05)
(0.008250234135 1.137507391e-05 -8.184866291e-06)
(0.006300746195 9.146951448e-08 1.609674638e-05)
(0.008339621095 1.717900761e-06 1.787265207e-05)
(0.00835550379 -2.044806024e-06 2.099837508e-05)
(0.008312010521 -1.078855781e-05 1.94809978e-05)
(0.008347095551 1.291875156e-06 1.165263866e-05)
(0.008359131822 -4.372716133e-06 -1.625118771e-06)
(0.008388154504 -7.573067497e-06 3.455506324e-07)
(0.008371581756 -6.225980503e-06 -1.613330377e-05)
(0.008407865946 2.444044255e-06 -7.540376678e-06)
(0.008415762199 8.600041958e-06 -7.182623987e-06)
(0.008433615503 7.59404337e-06 -5.186418421e-06)
(0.008425829375 -1.454960613e-05 -2.11330837e-06)
(0.008466945264 -4.037508559e-06 -6.962803422e-06)
(0.008402987355 3.763122974e-06 -1.731602297e-05)
(0.008387482152 1.261919239e-05 -1.877193291e-05)
(0.008338128255 2.299431241e-05 -9.433031579e-06)
(0.008329181468 1.824747796e-05 -1.114830083e-05)
(0.008332461006 1.186322568e-05 -1.027403249e-05)
(0.008301729581 2.165396219e-05 -1.6651085e-06)
(0.008300461498 3.948552667e-06 -1.050736441e-05)
(0.006376510389 -2.031300844e-05 5.247405378e-06)
(0.008362980277 -2.877836706e-05 4.295843237e-06)
(0.008324358686 -1.841721731e-05 4.329165051e-06)
(0.008319139251 -2.460068481e-06 8.548840676e-06)
(0.008266551478 -7.788128729e-06 9.990160493e-06)
(0.008337757816 -8.48830924e-06 1.522940479e-05)
(0.008352794071 3.750559369e-06 1.395203537e-05)
(0.008332383427 -2.509007518e-06 1.550571472e-05)
(0.008337572026 -1.215185376e-05 4.782951342e-06)
(0.008318189423 -4.240008256e-06 1.852184094e-06)
(0.008294639863 2.822856971e-06 2.472831702e-06)
(0.00826239767 2.723597207e-05 -7.159697866e-07)
(0.008165281662 3.091615544e-05 1.342005734e-05)
(0.008228045954 2.282327776e-05 1.678100051e-05)
(0.008282590749 8.064579089e-06 1.955198946e-05)
(0.00836289282 -1.059757453e-06 7.714122658e-06)
(0.00838113518 4.448836722e-06 -4.717536685e-06)
(0.008366022421 1.446398554e-05 -3.179195114e-06)
(0.008395631765 1.869177003e-05 -1.597914019e-05)
(0.008322245615 2.159396612e-05 -1.4743172e-05)
(0.006383940275 2.430897264e-05 9.898332674e-07)
(0.00831222638 2.480868795e-05 5.992769118e-06)
(0.008294785129 -7.549064403e-06 -2.274828501e-06)
(0.008314247029 -9.104417343e-06 -1.190743438e-05)
(0.008286773908 -9.253998516e-06 -7.610464897e-06)
(0.008284683835 -1.017017039e-05 -1.224263881e-05)
(0.008175386056 -6.206784762e-07 -1.30663544e-05)
(0.008240954305 5.230147046e-06 -1.042640434e-05)
(0.00824087871 9.396586115e-06 -9.144642753e-06)
(0.008264515406 8.315279188e-06 -9.231193249e-06)
(0.00831718915 4.266452407e-06 -4.910066456e-06)
(0.008353107448 2.203710119e-06 -8.061433578e-06)
(0.008390350803 -8.419430757e-06 -1.630227589e-05)
(0.008419415711 -2.165744079e-06 -2.091922186e-05)
(0.008363808489 4.616382312e-06 -1.903240541e-05)
(0.008325799902 -1.847034832e-06 -1.16297387e-05)
(0.008335880246 4.511405258e-06 -5.988955101e-06)
(0.008360111617 -4.369525723e-06 4.018836512e-06)
(0.008329251976 1.155553711e-05 8.504287644e-06)
(0.008335036103 1.100416771e-05 1.086344268e-05)
(0.006350407413 -7.502122947e-06 2.320644786e-06)
(0.008339491858 -1.663579557e-05 -1.892334188e-06)
(0.008338866517 8.902474343e-06 1.314476459e-06)
(0.008360163147 2.559979959e-05 2.509434861e-06)
(0.008351183496 2.574215726e-05 9.679088385e-06)
(0.008287129757 5.582969807e-06 2.347975414e-06)
(0.008377859127 -7.097970602e-06 3.671279687e-06)
(0.008365686272 -7.695704865e-06 4.86444905e-06)
(0.008325544713 -1.882936658e-05 7.706022839e-06)
(0.008271186673 -2.460278302e-05 3.544423271e-06)
(0.008239474604 -1.744079371e-05 1.422072497e-06)
(0.008249633414 -1.310143088e-05 5.945628024e-06)
(0.008250212354 -7.443044954e-07 4.982314228e-06)
(0.00827173208 -4.522582248e-07 1.097959807e-05)
(0.00827678307 6.715829241e-06 1.579781365e-05)
(0.008303454576 1.96724725e-05 1.916177523e-05)
(0.008358643378 1.269755861e-05 1.714277556e-05)
(0.00830327916 7.57230229e-06 6.97872675e-06)
(0.008314049629 1.396448328e-05 1.139366371e-05)
(0.008324142756 1.648845649e-05 4.138548166e-06)
(0.006362513532 1.300850713e-05 -6.68757861e-06)
(0.008344355489 7.892310758e-06 -9.492019192e-06)
(0.008374588834 9.65585533e-06 -1.148664786e-05)
(0.008292053837 -1.08121936e-05 -1.421523285e-06)
(0.008320738152 -1.276929815e-05 -1.999536598e-05)
(0.00836009521 9.205610623e-06 -1.559113412e-05)
(0.00832370496 1.712927897e-05 -8.919395141e-06)
(0.008331299644 1.635242317e-05 -1.386951124e-06)
(0.00831952329 2.1980899e-05 -1.133889441e-06)
(0.008324510744 2.126439472e-05 -3.72747604e-07)
(0.008337124295 5.255303403e-06 -6.187484863e-07)
(0.008303336534 4.227944578e-06 -1.57390757e-06)
(0.00823682562 2.191566344e-06 -9.117384016e-07)
(0.008203814194 -6.391687393e-06 -4.170141915e-06)
(0.008172327267 -5.381527533e-06 -1.327443107e-05)
(0.008163946335 -7.472091118e-06 -1.552345173e-05)
(0.008154942856 -2.75502514e-07 -9.543701796e-06)
(0.008183391764 3.666592923e-06 1.24608766e-06)
(0.008221001911 4.292095622e-06 2.184001137e-06)
(0.008210613721 2.908215991e-06 7.668189672e-06)
(0.006352216677 -1.267910729e-06 -1.051201854e-05)
(0.008355935819 4.689602e-06 -1.793551208e-05)
(0.00841208332 -5.072794938e-06 -1.902693961e-05)
(0.008405798593 4.537553556e-06 -1.787306062e-05)
(0.008394649779 1.160672191e-05 -1.260354314e-05)
(0.008408385212 1.094351903e-05 -3.718630434e-06)
(0.008400768093 -7.742133407e-06 -3.90331223e-06)
(0.008401508167 1.129085507e-05 -7.09438207e-06)
(0.008414151444 3.871967598e-06 -1.091606846e-05)
(0.008372075109 1.915530772e-05 -2.382126847e-05)
(0.00837643771 1.800901509e-05 -1.84247523e-05)
(0.00837984141 2.128135604e-05 -1.406765402e-05)
(0.008435725875 2.665413146e-05 -1.324334193e-05)
(0.008437658302 3.205930607e-05 -1.542529733e-05)
(0.008467402599 1.616136766e-05 -7.681311705e-06)
(0.008444605926 1.021847403e-05 -1.093974772e-05)
(0.008436275882 3.943356706e-06 -4.350130651e-06)
(0.008472613927 -7.082542916e-06 -1.070277523e-05)
(0.008461272334 1.428681321e-06 -1.566452577e-05)
(0.008447900691 -1.320692983e-05 -1.754528792e-05)
(0.00635531927 -2.410212051e-05 1.323615683e-06)
(0.008344739962 -1.422831244e-05 2.751730643e-06)
(0.008298593392 1.15000264e-05 1.802005895e-07)
(0.008301309427 5.463529807e-06 -9.146340115e-08)
(0.008294636003 7.278119576e-06 -7.156581871e-06)
(0.008284013088 8.890620884e-06 -4.643425492e-06)
(0.008278702696 1.783035476e-05 -4.241553674e-06)
(0.008142723026 5.74486818e-06 -1.753618824e-05)
(0.008203744583 7.798640236e-06 -2.396220301e-06)
(0.008263302915 2.941684041e-06 -2.313012045e-06)
(0.00833254956 2.501745721e-06 -1.769258697e-06)
(0.008346788227 3.528121668e-06 -1.429554635e-05)
(0.008325594221 -1.018763701e-05 -7.234516534e-06)
(0.008342228004 -2.38543899e-06 4.693116705e-06)
(0.008354760545 1.368521868e-05 9.622859289e-06)
(0.008380372709 8.58574137e-06 1.23449746e-05)
(0.00838123313 1.124710771e-05 3.36621516e-06)
(0.008325941267 5.039737698e-06 3.62887487e-06)
(0.008330101477 1.3919442e-06 4.983001043e-06)
(0.008293553838 4.508015031e-06 -3.25866934e-06)
(0.006334605622 1.080926932e-05 5.504350734e-06)
(0.00829351185 1.136317283e-05 2.611951598e-06)
(0.008295512905 -1.706520553e-05 -5.07792409e-06)
(0.008233886726 -4.230273559e-06 -4.419169294e-06)
(0.008266874423 9.075668444e-07 -4.37843816e-06)
(0.008249514833 9.557997066e-06 -1.728150659e-06)
(0.008327525668 9.498145487e-06 -8.554348087e-06)
(0.008410041423 1.109340202e-05 3.321138597e-06)
(0.00844905918 9.449889868e-06 8.926982227e-06)
(0.008427988732 8.062239463e-06 -6.314115165e-07)
(0.00831560702 1.331103196e-05 1.621121476e-05)
(0.008299854781 -2.613512419e-06 3.891556242e-06)
(0.008287461203 -2.327729929e-06 -2.488538911e-06)
(0.008305167927 -1.057255146e-05 -1.266933505e-05)
(0.008312578245 -1.716972636e-05 -2.340187734e-05)
(0.008316456508 -1.164262978e-05 -1.915324595e-05)
(0.008304019137 -1.74655793e-06 -1.248013433e-05)
(0.008286449813 1.561063821e-05 -1.891910548e-05)
(0.008335706298 1.776635663e-05 -1.714825749e-05)
(0.00834575546 3.267350219e-05 -1.712364303e-05)
(0.007743406066 0.001748382254 -4.532144068e-05)
(0.008035835134 0.002274160256 4.966490173e-06)
(0.00797235236 0.002273459271 7.679275053e-06)
(0.007685771823 0.002183397912 4.146832938e-05)
(0.007328583787 0.00217480756 6.30871805e-05)
(0.007030614696 0.002024087384 1.363965577e-05)
(0.006633419745 0.001888774321 1.471922542e-06)
(0.006291320447 0.00185252229 -7.875165166e-05)
(0.005966801101 0.001675950765 -5.093324303e-05)
(0.005789882463 0.00167851161 -3.705945909e-06)
(0.008453624116 0.001273107626 -7.463778817e-05)
(0.009006333148 0.002088213603 -6.505809655e-05)
(0.009462377792 0.002537021864 3.379356922e-05)
(0.009803792859 0.002853173248 -1.593922349e-06)
(0.00994733416 0.002979731295 -7.255732131e-05)
(0.009814165875 0.003041726745 -8.206712216e-05)
(0.009627683749 0.002978147719 -5.435535327e-05)
(0.00935314352 0.002932550151 -0.0001151813145)
(0.009102383014 0.002790691497 -2.672048583e-05)
(0.008741028494 0.002617247819 -1.39608811e-06)
(0.008439089359 0.0008948991659 2.141083261e-05)
(0.008939526022 0.001516342173 -6.661240854e-05)
(0.00944042738 0.002066515939 -4.998126705e-06)
(0.009933275627 0.002521038512 -7.180291902e-05)
(0.01024197226 0.00287821094 -6.246274109e-05)
(0.0106246232 0.003202531978 -4.729374269e-05)
(0.01077681771 0.003340703128 -8.036597675e-05)
(0.01085771297 0.003430761216 -4.648650562e-05)
(0.01080948655 0.003417003028 -5.099088164e-05)
(0.01052791326 0.0034278455 -3.823319751e-05)
(0.00846347016 0.0006156425385 1.824194031e-05)
(0.008748342359 0.001056034394 1.397473016e-05)
(0.00911838009 0.001507039802 2.1833139e-05)
(0.00952348104 0.001988538277 -4.914753902e-06)
(0.01001641929 0.002441253098 4.010965079e-05)
(0.01056248341 0.002794575691 -3.05311304e-05)
(0.0110246575 0.00317344043 2.883800708e-05)
(0.01135654708 0.003413609532 -4.507977982e-05)
(0.01145738782 0.003609766006 -7.998782353e-06)
(0.01151437701 0.003705688592 -3.034467272e-05)
(0.008419355802 0.0004610736858 -2.033941032e-05)
(0.008587102412 0.0007428954508 -1.207380294e-06)
(0.00894085351 0.001095833023 1.097336535e-05)
(0.009346457964 0.001471600253 -3.024772396e-07)
(0.009784276877 0.001834379005 1.664294001e-05)
(0.01008664954 0.002271959974 3.719794727e-05)
(0.01044933856 0.002669947558 1.469419024e-05)
(0.01086562351 0.003005611156 1.646715029e-05)
(0.01129789304 0.00337043232 -6.712532318e-06)
(0.01171752477 0.003579759961 3.337441945e-05)
(0.008386603758 0.0003226594266 -1.041907287e-05)
(0.008553118172 0.0005245206462 4.699676666e-06)
(0.008784461485 0.0007968051849 5.220593969e-05)
(0.009017218179 0.001099056012 3.058353502e-05)
(0.009330926063 0.001431769436 8.538994241e-06)
(0.009752647978 0.00176733924 -1.805342598e-05)
(0.01021777962 0.002200395844 -2.391772036e-05)
(0.01065817627 0.002514266929 3.281366822e-06)
(0.01106687919 0.002895583482 1.499059432e-08)
(0.01148829415 0.003193127853 -1.626367942e-05)
(0.008447004038 0.0002395031988 -2.855988581e-06)
(0.008512795789 0.000384756335 -6.171950508e-06)
(0.008643168012 0.000539728881 -2.802684496e-05)
(0.008854580872 0.0008104546911 -5.465510119e-06)
(0.009110579383 0.001033338687 3.586359094e-06)
(0.009493984009 0.001362845238 -4.631192788e-05)
(0.009853915754 0.001665861361 -4.077349633e-05)
(0.01027647514 0.002045071963 -2.876620971e-05)
(0.01077768014 0.002390305425 -3.215379104e-05)
(0.01123975157 0.002761939231 -3.1515946e-06)
(0.008387155782 0.0001801068864 -2.116160459e-05)
(0.008394695861 0.000290089657 -2.989425435e-05)
(0.008544893758 0.00038879268 5.47705858e-06)
(0.008689359966 0.0005611697666 -7.081819867e-06)
(0.008909632895 0.0007398260178 1.667384525e-05)
(0.009128824756 0.0009867692951 1.66626581e-05)
(0.009541209001 0.00124723161 -8.289569064e-06)
(0.00980205066 0.001535523773 -1.803242818e-05)
(0.0101335903 0.001859138096 -1.530504355e-05)
(0.01053889979 0.002180929206 2.298798618e-05)
(0.008371779285 0.0001567221363 -2.439428251e-05)
(0.008489618546 0.0002080601254 -3.038155317e-06)
(0.008575402171 0.0002932022879 -9.821638862e-06)
(0.0086646355 0.0003982071998 -2.412287423e-05)
(0.008816916621 0.000535123233 2.08522728e-05)
(0.008931633399 0.0007078304438 4.135292084e-05)
(0.009078548918 0.0009225081746 8.190324942e-06)
(0.009383860671 0.001158179065 -1.592919481e-05)
(0.009756917312 0.001408730266 -2.280098415e-05)
(0.01012146616 0.001703050571 -2.699556806e-05)
(0.008438385289 9.39860059e-05 -1.254642292e-06)
(0.008480502084 0.0001472681397 -1.529419409e-05)
(0.008549294225 0.000203302197 -6.639070662e-06)
(0.00853165469 0.0002934186449 -3.805381927e-06)
(0.008593679624 0.0003909940878 -1.37002999e-05)
(0.008793388709 0.0005417380564 2.189742789e-06)
(0.009015795895 0.0006872223821 -2.488902527e-05)
(0.00917615513 0.0008338800361 5.071339364e-06)
(0.009352337337 0.00106413562 4.486917952e-06)
(0.009588475584 0.001269752878 -1.454435007e-05)
(0.008451708663 7.066142981e-05 -4.598614269e-06)
(0.008415342164 0.0001196373001 5.222466012e-06)
(0.008551466091 0.0001574220282 -1.997955066e-05)
(0.008583934052 0.0002335731347 -3.807616217e-06)
(0.008699896622 0.0002902529756 -5.885318291e-06)
(0.008686445357 0.0003904464619 -1.492672881e-05)
(0.008779451467 0.00052633285 1.421051604e-05)
(0.008955087208 0.0006532080349 1.932177407e-05)
(0.009125310995 0.0008389521675 3.928835096e-05)
(0.00937926395 0.0009894608294 2.647849443e-05)
(0.008342390926 4.190850997e-05 1.455027405e-05)
(0.008339329435 6.360875446e-05 2.124389524e-05)
(0.008329479999 0.0001010024705 1.569014926e-05)
(0.008336768876 0.0001606756431 2.616889604e-05)
(0.008391396371 0.0001948153973 1.788521909e-05)
(0.008491898406 0.0002735977898 1.59087281e-05)
(0.008552066209 0.000363259064 1.259395877e-05)
(0.008747426692 0.0004676868056 -1.449293433e-05)
(0.008900551595 0.0005805443421 -4.169172527e-06)
(0.009110028609 0.0007112338202 -1.007573585e-05)
(0.008372339097 6.558115209e-05 8.510933878e-06)
(0.0083872649 8.772591298e-05 1.268184937e-05)
(0.008404146541 0.0001130336845 1.194210328e-05)
(0.008445595513 0.0001260530127 -7.279657053e-06)
(0.008436058078 0.0001622436397 -1.383887881e-05)
(0.008520142017 0.0002198988747 -2.251221724e-05)
(0.008692565135 0.0002525992385 -1.489999243e-05)
(0.008685618181 0.0003249573927 -2.409967716e-05)
(0.008744505094 0.0004219449447 -2.731026287e-05)
(0.00890092518 0.0005295879559 -2.248054831e-05)
(0.008290801239 2.120136761e-05 -7.38028401e-06)
(0.008309545241 2.633422498e-05 -9.838398047e-06)
(0.008340518468 6.41716165e-05 -1.417625902e-05)
(0.008342828202 9.02542635e-05 -3.048828267e-06)
(0.008373155385 0.0001123720123 -2.05050315e-05)
(0.008374262872 0.00013335802 -1.771492482e-05)
(0.008371753569 0.0001744592527 -1.27982879e-05)
(0.008488807374 0.000238225007 -1.252866311e-05)
(0.008584370387 0.0003019007458 -2.407264489e-05)
(0.008665946992 0.0003844660438 -5.229211256e-06)
(0.008259490062 2.99295286e-05 -1.133344433e-05)
(0.008256196401 3.75731681e-05 -2.261850513e-05)
(0.008304406948 3.970299685e-05 -1.403897761e-05)
(0.008390497721 4.326288589e-05 -8.42121594e-06)
(0.008390486968 7.860432556e-05 1.789460813e-06)
(0.008518398155 0.000105600863 5.438977499e-06)
(0.008494525779 0.0001519857369 7.039075466e-06)
(0.008532525278 0.0001886614676 -4.984045061e-08)