/*--------------------------------*- C++ -*----------------------------------*\
| =========                 |                                                 |
| \\      /  F ield         | OpenFOAM: The Open Source CFD Toolbox           |
|  \\    /   O peration     | Version:  2406                                  |
|   \\  /    A nd           | Website:  www.openfoam.com                      |
|    \\/     M anipulation  |                                                 |
\*---------------------------------------------------------------------------*/
FoamFile
{
    version     2.0;
    format      ascii;
    arch        "LSB;label=32;scalar=64";
    class       volVectorField;
    location    "0.006";
    object      momentum;
}
// * * * * * * * * * * * * * * * * * * * * * * * * * * * * * * * * * * * * * //

dimensions      [1 -2 -1 0 0 0 0];

internalField   nonuniform List<vector> 
654
(
(0.004301607095 -9.503358137e-06 -3.600687052e-05)
(0.008966405055 -0.0005059618004 0.0003528011429)
(0.005938152139 -0.0001637054 -0.0007099268046)
(0.01138563892 9.720103592e-05 -0.0005968450823)
(0.01050444809 2.721147656e-05 9.138870148e-05)
(0.009091013552 2.539677779e-05 0.0005402203839)
(0.004962989018 0.0001715583677 0.0002781188401)
(0.008511911446 -0.0001633223246 -8.346358837e-05)
(0.01108977343 -0.0002448776357 0.0007476949028)
(0.005862427181 -5.131938697e-05 -0.0005227453472)
(0.01106024914 -0.0008738561686 0.0002494702227)
(0.008059045805 0.0002061687763 -0.0005284829614)
(0.0114752676 0.0002385078783 -6.71661859e-05)
(0.009623132621 0.0001691630959 -0.000307248702)
(0.009657684223 0.000584207361 0.0001442348171)
(0.002301212517 9.426036174e-05 0.0001600945129)
(0.008313327875 -0.0002948396805 -0.0004173541887)
(0.00758170316 -0.0003748493793 7.39363853e-05)
(0.008117936965 0.0002672716707 -7.381962701e-05)
(0.009470144604 -0.0003980714553 -0.0003299102957)
(0.006845657216 8.706205656e-05 -0.0002388900722)
(0.009314336499 0.0005428501571 -0.0003903903999)
(0.00704177915 0.0001911709776 0.0003460306095)
(0.009148738576 -0.0001468306104 0.0004408974431)
(0.007333057041 -6.494849878e-05 0.0003776063463)
(0.009596462849 -0.0001338820366 -0.0005912500942)
(0.006152816376 -0.0001896746098 -0.0007930661319)
(0.007901268021 0.0001439932922 2.828396276e-05)
(0.006662487 4.143715422e-05 0.000416037001)
(0.006600612785 -0.0001442309782 0.0002208876099)
(0.009148306843 0.0002414931613 -0.0009232754838)
(0.007771581439 -0.001056795495 0.0003545760046)
(0.008711294654 0.0002938700597 -0.0004540455778)
(0.007386383102 0.0002952992935 -0.0002732463903)
(0.004917087251 0.0001709769896 -0.000181132048)
(0.01090000894 0.0006708867733 4.335885131e-05)
(0.007325514045 -9.147741211e-05 0.0002331317826)
(0.006652708458 -0.0003234315742 -0.0002056610524)
(0.005785776962 0.0004411072881 0.000217225227)
(0.0055605124 0.0003286405331 -0.000978825871)
(0.009608275843 -2.949788658e-05 -4.261124434e-05)
(0.005910858315 -0.0001901838019 -0.0002095774005)
(0.007294498187 -0.0002842726599 0.0002111059017)
(0.01065685556 0.0003806078126 0.0006157450535)
(0.005362590829 -0.000201009522 7.195777926e-06)
(0.009143186141 -0.0003841541705 -0.0003855948948)
(0.006660144599 7.072412472e-05 -0.0006706756991)
(0.008316135391 -0.0001693560447 -0.0001131532986)
(0.007569090339 0.000253780167 -0.0002192295228)
(0.006886222107 -0.0007185603339 -0.0001957822297)
(0.009414562961 0.0003515992219 0.000524172797)
(0.004795873232 -0.0003484785003 -0.0002998831948)
(0.007105667739 -0.0002672430233 -0.0003848706428)
(0.01031425341 0.0009486782114 7.911602685e-05)
(0.004381133399 6.345947118e-05 1.546467448e-05)
(0.008181178397 0.0003256470696 -6.82577162e-05)
(0.006452286213 0.0008999781213 9.24564915e-05)
(0.008404311097 -6.577248135e-05 -0.0005180520577)
(0.006999531058 -0.0008497613795 -7.994820867e-05)
(0.009018954367 0.001263481607 0.0001632974098)
(0.005367489738 4.17416068e-05 -0.0003658095513)
(0.007325955409 0.0003077489563 0.00014816781)
(0.009725292385 -0.0002107466706 -0.0001457045347)
(0.009841107429 0.000356781974 -0.0003433022695)
(0.008246636283 -0.0002846852838 -0.0002990528325)
(0.01148616813 -0.0007205453618 -0.0006073265012)
(0.007451932685 -0.0005767872409 -0.0005829905203)
(0.008868663554 7.886562175e-05 0.0003924492983)
(0.01100994736 0.001125209735 0.001984123613)
(0.007744087621 0.0006007885442 -0.0003647028082)
(0.00890535126 -0.0003284857879 0.0002166571499)
(0.01490358923 -0.0005087866767 -0.0007954402787)
(0.003970655041 0.0003673669871 -0.000251483787)
(0.007060127109 0.000535768854 -0.000345131848)
(0.006095857829 -8.482179466e-05 0.0001764424744)
(0.005935603035 -0.0005761695936 -0.0004445718561)
(0.007237556991 0.000334363448 0.0002464614952)
(0.008724310507 -0.0002675803693 -6.306441149e-05)
(0.007466546098 0.001427707852 -0.00121131536)
(0.006531639169 0.0003575627059 0.0005119311263)
(0.007070419523 -0.000179676334 -0.0001519763716)
(0.007304842007 -0.0005384835036 0.0006616336506)
(0.009946704156 -0.0007911153353 0.000604639592)
(0.01244115372 -0.0009987104271 0.0001558084835)
(0.008333402584 -0.001146822136 0.0004104596374)
(0.009114481272 -0.0002285761855 0.0009437638288)
(0.00946214025 -0.0001608012575 -3.16498261e-05)
(0.006638983082 0.0006380385594 0.0004313892234)
(0.01111016598 0.0001412820293 -0.0002309572523)
(0.009656434882 1.014163472e-05 0.0002757831397)
(0.008411511031 -0.000122905473 -0.0001220222999)
(0.01185125238 0.0002189463359 0.0008995176592)
(0.007108824409 -0.000276901778 -4.64280404e-05)
(0.01138654614 3.641425e-05 -0.0006456181997)
(0.006705171281 0.0005694010536 0.0002868693656)
(0.005101786516 -0.0003246978955 0.0003474952619)
(0.005102827048 -0.000544461629 -0.0004069175593)
(0.009746502197 -0.0002614168405 0.0001796904345)
(0.01095934177 -0.0001045814151 0.0007743915076)
(0.005509926207 0.0009330401204 -0.0007334134557)
(0.006245016104 0.0005267901923 -0.0002427744185)
(0.004558626383 0.0002644156198 0.0003089018793)
(0.00734856795 0.0001448192793 0.0001968918387)
(0.008740497902 0.0003464019288 -0.0003036351243)
(0.003099585679 0.0001797117974 0.0006401575325)
(0.005548955243 0.0003857771063 0.0007429732627)
(0.009882272383 -0.0006857225511 3.843150295e-05)
(0.01081850253 -8.107942412e-05 2.142078235e-07)
(0.007012444848 0.0003143969624 -8.224113616e-05)
(0.008409667312 0.0007085958979 -0.0008623512807)
(0.006084990698 -0.0002567852315 -0.0001516483246)
(0.005760743062 -0.0002902690097 -0.0001769957332)
(0.01027838391 0.0003010327929 0.0002830640178)
(0.00738110015 0.0008366364088 0.0005569953591)
(0.008879584728 -2.108991319e-05 0.000573855174)
(0.0115072521 0.0008342208043 -0.0001389221048)
(0.01022569871 0.0002593492719 0.0003609327775)
(0.01054072884 0.0006554303559 -0.0006220634824)
(0.00355844187 0.0003184215299 0.0001281631825)
(0.008732271864 0.0008161625947 0.0006759117845)
(0.01151613295 0.0001614499774 0.0005283759743)
(0.005475786798 0.0003805091663 0.0003175748893)
(0.009345285751 -0.0007227360166 -0.0005757166343)
(0.00736988216 0.0001456145783 0.0001839444681)
(0.006124757655 0.0001295444333 0.0004314801415)
(0.01057755338 0.0007080684509 -0.0001933769166)
(0.01019701315 -0.000140558249 0.0003910428125)
(0.002749128093 -0.0002145689702 -9.773642811e-05)
(0.00902467066 -0.0004074183012 0.0006329194808)
(0.007789059564 0.0004933105605 -0.0002583543985)
(0.009010010398 0.0003971398886 -0.0001376274451)
(0.008997198423 -0.0008253131334 -0.0008460236675)
(0.009458507955 -0.0006020401423 -0.0004415681591)
(0.00350655863 0.0002989952596 8.846633545e-05)
(0.007747703854 -0.0003154813161 2.452067043e-05)
(0.006833579816 0.0006628948955 -0.0004863487908)
(0.005202567423 3.364515346e-05 -0.0004335540258)
(0.009291137661 -0.0001395454571 0.0008856362466)
(0.007151605478 -0.0004971131394 0.0004717283259)
(0.005698065413 5.536681036e-05 -0.0002150049381)
(0.006115647402 2.584118136e-05 0.0001201287011)
(0.006784393974 0.0003832002205 2.082642038e-05)
(0.01075167484 0.0002153581151 0.0002846550172)
(0.01244224927 0.0004349363449 -0.0004476760136)
(0.004193229092 -0.0004489918729 -0.0002472725457)
(0.007417227727 3.615461552e-05 -0.0001655312683)
(0.008043864946 -9.935877713e-05 4.717483703e-06)
(0.003186771535 -5.22424451e-05 0.0003950250287)
(0.009695000965 -0.0002618549299 0.0008990718237)
(0.007814005804 0.0006368126335 1.408902178e-05)
(0.007547984222 0.001020830208 -0.0008148799722)
(0.008890673164 -0.0002463303771 0.0001362673526)
(0.009910751974 0.0001073697867 2.739398727e-05)
(0.00694912398 0.0005465093183 -5.684287306e-05)
(0.008942268055 0.0005165168423 -0.0003324866154)
(0.01018299737 -0.0007194988196 -0.000526206242)
(0.008881852619 -0.0004778551424 0.0007147956819)
(0.009967609732 0.0004791640602 -0.0002004442005)
(0.008277067096 0.000105019603 -0.0002328494452)
(0.003796001211 -0.0001250241119 0.0002400132872)
(0.0040706915 -0.0002414706956 -0.0002299403084)
(0.01254627755 0.0003678071133 -0.0004317635569)
(0.004772392039 0.0004403861438 0.0005668955151)
(0.007482729864 -5.922377668e-05 -0.000123350964)
(0.009351908882 3.282502041e-05 0.0003002618164)
(0.007208685674 0.0001124571196 0.0004243594952)
(0.01010222939 -0.0007266512787 -0.0002065982982)
(0.006633765945 -0.000542628904 -5.801857395e-05)
(0.006058059258 0.0001401743572 0.0002005683063)
(0.008690504075 -0.0002517629112 0.001242615149)
(0.01042835372 -5.894607496e-05 6.493308844e-05)
(0.008116037628 0.0007731646685 1.006215906e-05)
(0.007596202922 -0.0005841662374 -3.874638864e-05)
(0.008031135178 0.0002607000949 -0.0005668861634)
(0.01192897356 8.799849457e-06 -0.0001985344694)
(0.008382709843 -0.0001898758645 0.0003066070262)
(0.01214778568 0.0001408755385 0.0001222496274)
(0.008963272233 -0.0007786720199 -9.866868294e-05)
(0.008278176349 9.648345598e-05 0.0001566618014)
(0.01223976923 0.00126473909 2.630607263e-05)
(0.0063673706 -0.0005597949597 -0.0005416391944)
(0.006858624034 0.0003404422817 -9.018674889e-05)
(0.01215592515 -8.470730294e-05 -0.0002902889196)
(0.006678143325 0.0004037068635 -0.0002593390686)
(0.01091361142 0.0004501020457 1.920692123e-06)
(0.009530957691 0.001309718968 -9.152541876e-06)
(0.006326349364 0.0003955446672 -0.0003342509565)
(0.005613769545 -0.0006937460405 0.0007678541234)
(0.007761068546 -0.000567018228 0.0007199461415)
(0.00801213044 0.0002913951433 0.0002844180702)
(0.007455487568 -0.00105168586 -0.0003453943122)
(0.01241304599 -0.001031929861 -0.0007893360937)
(0.009241671966 -7.477476511e-05 0.0001469449157)
(0.01457365444 -0.0001481918098 -0.0001510649596)
(0.005916459283 0.0001615543644 -0.0002118928249)
(0.006051785339 0.0001673253502 7.344976523e-05)
(0.009946446173 0.0002075344445 0.0003731275489)
(0.007194038073 0.0008681813772 0.000122031373)
(0.01002214653 0.0005208505803 -0.0003864819795)
(0.007308691774 0.00023510556 -5.000648321e-05)
(0.004824255464 0.0003922270669 -0.0002502740176)
(0.006545403926 0.000348340603 -6.78535205e-05)
(0.006218689528 -3.998525844e-05 9.32007307e-06)
(0.01160031565 6.204207645e-05 -0.0001175746261)
(0.005709108367 -3.055845889e-05 5.694420664e-05)
(0.0126665617 -0.0006802835733 -0.0009411373374)
(0.009994484324 0.0004514168179 0.0004893202326)
(0.00692607043 -0.0002440433524 -0.0001551287455)
(0 0 0)
(0.01046520443 0.0007842568397 0.0005829766939)
(0.01015877336 0.0005387544407 -0.0002062269057)
(0.006041970745 -0.0005419407904 0.0002054890147)
(0.003962978549 0.0004327578845 4.007640103e-05)
(0.007369690778 0.0001743371068 0.0007734455784)
(0.01312394403 0.0005612293065 -0.0005528268079)
(0.007929320054 -0.0005161089054 -5.464264596e-05)
(0.01004295283 -0.0001568327676 0.0003399014303)
(0.00620991664 -0.001047627704 -0.0002752553525)
(0.004119069767 -0.0006241035094 0.0006393555365)
(0.009451918787 -0.0002852555043 0.0004652398749)
(0.007414356851 -5.266161212e-05 -7.147273023e-05)
(0.01339638635 -0.0003723025579 0.0007141301314)
(0.005343656908 -0.0003205114919 -0.0001765216945)
(0.004505580824 -0.0001143928372 3.218171085e-06)
(0.005414047961 0.0004226783094 0.0004776257337)
(0.008114006555 -0.0003317905454 0.0004301005355)
(0.01424425797 0.000361712058 -0.0001489345491)
(0.01257840437 0.0005391295639 0.0007826594481)
(0.008402962036 -5.791196516e-05 0.0004672563271)
(0.009176578424 9.719582008e-05 -0.0007628210186)
(0.009669677646 -0.0001259809418 -0.0007615371531)
(0.01109370198 0.0001288732849 -0.0003203897306)
(0.01196075889 1.485470631e-05 0.0003235281083)
(0.003684277122 -0.0001734535092 -0.0001760669267)
(0.003763417326 0.0001032637753 2.069015655e-05)
(0.01607689093 -0.000769692491 -0.0004984885098)
(0.01338417578 -0.0001064392335 0.0005252119574)
(0.01042895022 -0.0001613615604 -0.0002468116407)
(0.007341402951 -0.0009076534136 0.000315392982)
(0.01071318898 0.0002020756794 0.0002456494421)
(0.008747812194 -0.0002721523053 -0.00024036647)
(0.002517818521 2.020582593e-05 0.0004216206229)
(0.009943259555 -0.001060608226 -6.826889377e-05)
(0.01198800143 0.00073486041 0.0001381629295)
(0.007470049823 0.0004246734786 -0.0005720592886)
(0.008201599896 0.0006933428543 0.0003290505812)
(0.007733197178 -0.0005883966654 -0.0001456240377)
(0.01053472729 0.0001761058412 -6.236162843e-05)
(0.005418547895 -0.0002280599405 0.0005280376868)
(0.006430696781 0.0004890330059 -0.0005587549531)
(0.01230479679 -0.0002515976922 6.867102856e-06)
(0.01049765874 -0.0008417225361 -0.0002403270566)
(0.01212470626 -0.0008042250684 0.0004278191631)
(0.003218040604 -0.0003070675981 -0.0001431909043)
(0.007020560768 -0.0001637101491 0.0002738581251)
(0.0108830427 -0.0008441346077 -0.000684703864)
(0.005111255914 -0.0005465457444 0.0001786179335)
(0.01116770436 0.0001554565381 0.0003659666847)
(0.007809440682 2.424146987e-05 0.0002643055687)
(0.006944486928 0.0005255437055 -0.000195255606)
(0.008000978815 0.0001862621357 -0.0007233024649)
(0.00869350559 0.000314367065 0.0003689991012)
(0.006712336387 0.0006983711398 0.0006930113514)
(0.01030196983 0.0003096985639 -0.0007164836367)
(0.01451913066 0.0001570559171 6.344726773e-05)
(0.00617554355 -7.736615852e-05 -0.0005690688248)
(0.007541066509 0.0003557284851 4.41093637e-06)
(0.006727658543 -0.000541914433 -0.0006909328586)
(0.007982030145 7.553444876e-05 0.000224963845)
(0.008158457516 0.0001647685877 -1.639701112e-06)
(0.01122193936 -0.0001050918728 0.0001318495739)
(0.009773551319 0.0004964439962 -0.0003970319993)
(0.008986345829 0.0008514765106 0.0006113057613)
(0.007766631163 0.000481995927 -4.072006642e-05)
(0.003570930312 0.0003214748302 -6.675867429e-05)
(0.01095362366 0.0005155689762 -0.0009134674382)
(0.006789551221 6.956870475e-05 0.0003825507551)
(0.008594901081 -0.0008658043573 0.0003737759478)
(0.005381956342 -0.0005404816662 -0.0003534699732)
(0.009824194444 -0.0001013951448 0.0007623809015)
(0.006823670004 5.093588511e-05 0.0004345230087)
(0.009169618381 -0.0001829969196 0.0002780538343)
(0.00746740673 -0.0001567721027 -0.0002377199805)
(0.009137082413 -1.500634251e-05 0.0008782197792)
(0.006152936023 -0.0004502755836 0.000732857487)
(0.01152954179 -0.0003549524388 -0.001003422861)
(0.006201351185 -0.0001451196048 -0.0001214658205)
(0.005600290559 -0.0002452796718 0.0005929798328)
(0.008746943578 0.0001385916834 -0.0002661191897)
(0.0047496485 5.669683439e-06 -0.0001732728626)
(0.01382019014 0.0005268062072 -0.0002797298269)
(0.01197000275 0.000224379825 -0.0001044953141)
(0.007537094133 -0.0007783704931 -0.0003858219394)
(0.004233298525 -0.0005869429705 -0.0001015235232)
(0.004603362669 -2.0302856e-05 -0.000114966694)
(0.00529941647 -0.0001244192801 -0.0003002264799)
(0.005846458866 -0.0003745059512 -0.0006547215066)
(0.01337502419 -3.480104733e-05 1.988655463e-05)
(0.01035666895 -0.0001840608471 0.0003541711799)
(0.008099474903 4.010144739e-05 2.857549085e-05)
(0.007251029322 0.0006657219811 0.0002514739903)
(0.007178006426 -0.0001537520069 -0.0008430667303)
(0.007227619709 8.359738178e-05 0.0008849179114)
(0.007677026577 0.0003965166837 0.0003668562742)
(0.009630207443 -0.0007451466946 0.0001184554695)
(0.006099360744 -0.0005397704128 0.000463065237)
(0.007488522999 -0.000117170533 0.0004966120509)
(0.01356424619 0.000939911029 -0.0001064880811)
(0.006527865165 -0.001006910926 -0.0006114008085)
(0.007842580265 0.0006010348191 -0.0002159669259)
(0.01101901246 0.000138287665 0.0007828246332)
(0.006419056302 -2.450410636e-05 -0.00051409231)
(0.007256878173 0.0003579655351 0.0006014165754)
(0.009727605044 -0.000708200591 -0.0003463059549)
(0.006753851178 0.0006901286763 -0.0002792128339)
(0.006859881524 0.000674813447 0.0002339763192)
(0.003745745953 -0.0001311941479 -8.45844165e-05)
(0.01016890993 -0.000603966149 0.0007576057335)
(0.006674429569 -0.0002469944462 -0.0004680772479)
(0.007567229131 -0.0004869886482 -0.0007038030149)
(0.008405754043 0.0004420448075 -0.0003925943416)
(0.008412832279 4.891072779e-06 0.0002317869735)
(0.01017382275 0.0004226388049 -0.000218861357)
(0.009831766433 -0.0009783809692 0.0001515005228)
(0.007008662349 -0.0004291289943 0.0005304943797)
(0.01011076393 0.000356890999 0.0004051890635)
(0.01086967299 0.001188021193 0.0003583445157)
(0.006925753098 0.0002082812213 -0.0006449109134)
(0.01003766786 -0.0006070751055 -4.520177268e-05)
(0.01053389269 -0.0001384503881 0.0007180083919)
(0.007918569191 0.0004598168498 -0.0002927410296)
(0.01079040781 -0.0003475793968 0.001301488051)
(0.01156519474 0.0003610563527 0.0001340022718)
(0.007408288452 -0.0005801505394 -0.0002831698931)
(0.008582266051 -0.000911137944 9.266038133e-05)
(0.01095001041 -0.000853322912 0.0002544696634)
(0.009483404985 -0.001017299451 -0.0004204397701)
(0.01132486321 -6.677104109e-05 -0.0001840877466)
(0.008782560499 -0.0005326225342 8.161468948e-05)
(0.0125227664 7.917953131e-05 0.0008457297016)
(0.005518739613 -0.0002220722934 -3.126538363e-05)
(0.005189162881 0.0001439315376 0.0006633672212)
(0.008514015435 7.602572416e-05 0.0008419415425)
(0.01240158595 -0.0003765740133 -0.0002533515737)
(0.008288987358 9.245760781e-06 -0.0002072090965)
(0.009476190741 -0.0003042991548 0.0003352083505)
(0.001791263897 2.664214029e-05 -0.0003583768067)
(0.001764462404 0.0002392625592 -0.0002182247978)
(0.01022919841 -7.238529834e-05 -0.0004105523851)
(0.006379386502 0.0002667001479 0.0006549386717)
(0.005339647368 -7.748776488e-05 0.0004702037703)
(0.006421440228 -0.0001466539168 -0.0006122815785)
(0.01005014373 0.0002923987046 -0.0003665137719)
(0.011747201 0.0004130873633 -9.995096553e-05)
(0.009698868374 -0.0002310917216 0.0004246171252)
(0.01268055913 -0.0003264331188 0.0002767403764)
(0.005873805277 0.000531794027 0.0001145416507)
(0.005881510905 -0.0004406307349 0.0007127427613)
(0.00424027365 0.0001868598012 0.0001101337538)
(0.009147917001 -0.0003864270209 0.0001828959668)
(0.006708855211 0.0001267540832 0.0001181383652)
(0.008340548644 -0.0004764060613 0.0003709332869)
(0.009145486063 -0.0007746416184 0.0002271710246)
(0.004824445273 -4.737422851e-05 -0.0002970595216)
(0.002680797443 8.771461707e-05 0.0001711448401)
(0.009827571919 -0.0005104289004 0.0001555308947)
(0.009158952493 -0.0002917980347 -0.0006401989587)
(0.009037561313 0.0003368991325 -3.94116146e-05)
(0.009189099543 -0.0001351891625 0.0002068715842)
(0.009597229769 0.0004858112983 -4.445009365e-05)
(0.01110523115 -0.0002450499427 -2.07306554e-05)
(0.01011229251 -0.0008442642485 7.641909641e-05)
(0.009177633975 -0.0002496445619 0.0004333401011)
(0.007702501731 -0.0004563724578 0.0006080727714)
(0.00916908497 -0.000807501274 -0.0001420222433)
(0.005117989592 -3.826453714e-05 -0.0001382510194)
(0.003523823697 -0.0001161523136 0.0001356233999)
(0.008170554804 0.0001347775321 0.0002435680302)
(0.007666412096 -6.157795789e-05 -0.0004767921673)
(0.006904921607 -0.0003897431628 0.0002002237454)
(0.004994586707 -5.098631094e-05 0.000447547079)
(0.01058127524 -0.0006367583293 -0.0003951243746)
(0.007336674734 -0.001013448934 0.000177449327)
(0.01050744649 -0.0004585619161 0.0006619463871)
(0.006043350377 0.0001558522254 0.0002128378645)
(0.01203849481 -0.000172526019 0.000263459095)
(0.009111463407 0.0004823588394 0.0005290966688)
(0.009000575264 -0.0002297510057 0.0003161308202)
(0.008674136365 0.0001832065443 -0.0002903993225)
(0.007170752333 -0.0001725537721 -0.0001317641477)
(0.01241409349 -0.0005793967333 -0.0002870725955)
(0.008926530665 -0.001273411797 0.0001713274851)
(0.005757123649 -0.0003472341595 0.0004032433858)
(0.007068863477 0.0007811486484 -0.0004482295676)
(0.009983777316 -0.0004129645473 0.0003047067517)
(0.006627340592 0.0001833777051 0.0002438826983)
(0.006228922971 -0.0006428341513 4.746221172e-05)
(0.0063192153 -0.0002595028168 0.0003345167419)
(0.007941988983 6.879611957e-05 -0.000618078197)
(0.009603314802 -0.0001340007159 -9.221331474e-06)
(0.007101897559 -0.000257987581 -0.000521298218)
(0.007297083011 0.0001580149733 0.0006728113946)
(0.005873053923 0.0003863003077 0.0001360943865)
(0.004074573169 0.0003751711973 -0.0001381484313)
(0.0124951388 4.552873107e-05 0.0005021850459)
(0.004732917453 -1.246294978e-05 -3.898104199e-05)
(0.009319115309 -0.0001686879632 7.285283558e-05)
(0.009060644816 -0.0007815859266 -0.0006481065271)
(0.009660060519 0.0005776164118 0.0002303813458)
(0.004369995033 0.0006270297677 -2.867253404e-05)
(0.008591244111 -9.991935128e-05 0.0004269993925)
(0.003562804504 -0.0002944429466 5.926250464e-05)
(0.012758588 0.0004991023013 -0.000269605804)
(0.00526171292 0.0001057983049 0.0003247307783)
(0.008794896825 0.0004081577447 0.0001803171963)
(0.007522281139 -0.0006924805065 0.0005225042782)
(0.007327718354 -0.0004627673588 0.0001968891046)
(0.008806582975 0.0002274850149 -0.0002760553556)
(0.01242690388 -5.172279257e-05 -0.0004900941737)
(0.006039499223 -0.00034972016 -0.0001206151375)
(0.006576588658 -0.0006138597953 0.0001020529245)
(0.007944176295 0.0003647780754 -0.0007243224891)
(0.007916753189 7.081703714e-05 -0.00118961667)
(0.005535775072 0.0002259347894 0.0003242661207)
(0.01110507808 0.00057752835 0.0005711577488)
(0.009764571004 0.0003063624022 -0.0006119937147)
(0.0106159728 0.0005538347234 0.0006328330754)
(0.01005062689 0.0002127484341 -0.0003440872786)
(0.009200080885 0.0002621262288 -0.0003580031518)
(0.009064448677 -0.0004215254906 0.0001369641979)
(0.00656528729 -0.0001726511925 0.0002347523149)
(0.007904914533 0.0004382363589 -0.0001520923141)
(0.008021342352 -0.0003082728047 0.0002327895287)
(0.006068267965 -0.0002024273467 0.0002662352806)
(0.008851632788 6.88345976e-05 -0.0007397118809)
(0.005548627928 0.0001763751403 0.0001252098689)
(0.007557753363 -8.453186043e-05 0.0002285069914)
(0.007973435762 -0.0008667076441 0.0002817377435)
(0.006864418116 -4.043354624e-06 -8.696288233e-05)
(0.005318570179 0.0001871578595 -0.0004315831892)
(0.01133623385 0.001406526556 -0.001426569993)
(0.01227394045 0.002278389895 0.001812688867)
(0.007220987578 0.002268760882 0.001329928665)
(0.008914930449 0.0007526011456 0.0001374377878)
(0.006396288237 0.001680484941 0.001331196705)
(0.003337594727 0.002169246963 -0.001413698527)
(0.00628467393 0.001542364333 -0.0003595922108)
(0.009001304408 0.000568036594 0.000906316629)
(0.007217019428 0.001129059431 -0.0004744663217)
(0.00788662154 0.0006384025312 -0.000215727726)
(0.009163747381 -0.0004674351055 0.0002199027645)
(0.007930490459 0.001988280333 -0.0008855250918)
(0.005359905277 0.002538042478 -0.0001862272213)
(0.009770004694 0.002836391532 0.001176327849)
(0.01451473085 0.003794225139 0.0007200484451)
(0.007783618425 0.004317753958 0.001953751804)
(0.008102977428 0.002348101718 -0.0009295053239)
(0.009684617978 0.003274963111 0.002383871616)
(0.009278624611 0.004454986407 0.002314772233)
(0.008992681205 0.0006742164735 -0.00198469572)
(0.006525543304 0.0004450868601 -0.0001476564488)
(0.008132773689 0.001405379208 -0.0001299506811)
(0.008991566625 0.00332546232 0.0002266841759)
(0.01202950907 0.003609474135 -0.0009287362438)
(0.008841559069 0.004231875782 -0.001149469028)
(0.006605613216 0.001465891778 -0.0002503943792)
(0.009803152843 0.004336432031 -4.191158771e-06)
(0.01097353187 0.003902857252 0.001435253076)
(0.007596520636 0.00390139811 0.001216361474)
(0.01139820667 0.0004382286381 0.001357435641)
(0.008133384204 -0.0009218643239 -0.0009063963076)
(0.01067319129 0.001373178874 0.0003073638899)
(0.0134135346 0.002161597673 0.001219380436)
(0.005805863945 0.001511152311 0.0005046239737)
(0.006597073675 0.003191937824 0.0001174767889)
(0.01528729254 0.002534425157 0.00148749423)
(0.007401526683 0.004243781985 0.001081349675)
(0.01379469459 0.003413414152 0.00309308811)
(0.01580067158 0.002780265495 -0.0001436332823)
(0.01436994722 0.007591458063 0.000957317852)
(0.01059816917 -2.90130473e-05 0.001579279733)
(0.01160076968 -0.000584938368 0.0004241797045)
(0.006110511977 0.0007042603662 -0.0009327317226)
(0.01016416951 0.001883359651 -0.001593670913)
(0.008104894682 0.002090883653 0.0003059883614)
(0.007272232141 0.0007562803968 0.0004551854446)
(0.0104317973 0.001701231179 0.0001332071951)
(0.005972595813 0.002798985972 -0.001651921149)
(0.01245465903 0.005558840874 0.0007472018635)
(0.006568098584 0.002567740834 0.001028956892)
(0.007194683937 0.0006613226396 -0.0001048742869)
(0.01056641878 0.0006797393952 -0.0003113731789)
(0.01326952107 0.0008144391247 -0.0007468256636)
(0.009275694244 0.003162677857 -0.0005844844899)
(0.0113335988 0.0004123378761 -0.0003136117082)
(0.01078890948 0.001167384979 0.000606263245)
(0.007124030957 0.001691047875 2.128881394e-05)
(0.01046959695 0.003019529524 -0.0006719156938)
(0.008867702076 0.001947543326 -0.0001187867099)
(0.01459789804 0.006148229603 -0.0001488221115)
(0.009571462504 -0.0009658599197 -0.001571550341)
(0.004647005836 0.001079535861 -0.0003390343341)
(0.0071599106 0.001786275668 -0.0003414052318)
(0.007958616994 0.001045866182 0.0003770252721)
(0.007510582081 0.0008101513191 -0.0004283993071)
(0.01461311937 0.002258173328 -0.001536676014)
(0.009174500763 0.001315968519 -0.001045110613)
(0.01072781084 0.002857321143 -0.0003227356237)
(0.009473159771 0.001237100085 0.000201457379)
(0.01129047969 0.002478666804 -0.0005332585213)
(0.007887682264 0.0004756687155 0.0006723417803)
(0.004754340628 0.0006280802058 -3.579658028e-06)
(0.004124333647 0.0005022674896 -0.0005452346055)
(0.006722076578 0.001479245354 0.0006371956248)
(0.006959213303 0.0009140816169 0.0009757198076)
(0.00591121388 0.0001093076977 0.0004826215079)
(0.005678188526 -7.997187163e-05 -0.0005058581995)
(0.009240417444 0.001472762969 0.0002873665069)
(0.0142662612 0.002630131844 0.0007056786649)
(0.0136512273 0.003437408742 -0.0008185470555)
(0.004772054589 -0.0001715445374 -0.0003874750937)
(0.007405189494 0.001210586335 0.0004227509791)
(0.008592926643 2.515614199e-05 0.0003733098666)
(0.005916402555 -2.655471523e-05 -0.0002392724935)
(0.005210178196 6.733709316e-05 0.0004308908145)
(0.01164407423 0.0007968486549 -0.0004224514638)
(0.01025027231 0.001921405686 -0.0009751989908)
(0.007978682135 0.0004008486241 -0.0004133443271)
(0.01038918308 0.002212376328 -0.001010617796)
(0.02089912179 0.001310914032 1.110674533e-05)
(0.009499607836 -0.0005509983572 -0.000336897727)
(0.009638993303 -0.000470842973 -0.0005000498453)
(0.01395864803 -0.0003864143999 -1.899012039e-05)
(0.008949823505 0.000717111486 -4.271614591e-05)
(0.0111029979 -0.0001463829743 0.0007770004294)
(0.01025560278 0.0008107564429 -0.0004965088746)
(0.007932501917 -0.0001157605229 0.0007033327224)
(0.01033708867 0.0007759769768 0.0002433240075)
(0.009224391577 0.0002598277426 -0.0004839987511)
(0.01155840322 0.003431712468 0.0008354660681)
(0.004781862054 0.0001982710001 0.0006132802546)
(0.01129828239 0.0003632745115 0.0009576623247)
(0.01127379998 -0.0003861229171 -0.0004751834849)
(0.008679400814 0.001866901363 0.000478686454)
(0.007360459809 0.0008514771704 0.000272848254)
(0.007358133353 -0.0007593425988 0.0002031805279)
(0.0137052886 0.0001026651419 -0.0003971106303)
(0.007644678515 0.001931613535 -0.001102123511)
(0.009789434462 0.001851231071 -0.0004374113781)
(0.007697269259 0.002132929332 -0.0006329299272)
(0.008496427165 0.0002682187386 0.0005321557623)
(0.009560103542 -0.0001996530692 3.715672161e-05)
(0.007760802118 -0.0001990212513 -0.0001979915974)
(0.005641025613 0.00015963843 0.0008527327219)
(0.005622747376 -0.0003540857617 0.0001816339032)
(0.007499897144 0.0004265756984 0.0001830559195)
(0.009492761013 0.00147825563 -0.0005262276912)
(0.009269407833 0.0001495890164 0.0009384186156)
(0.01091953898 0.0001069522297 -0.0005151257619)
(0.008658108282 -0.0001654743056 -0.0001654202478)
(0.01562954393 -0.0002213735605 -0.0008394598271)
(0.009539497034 0.0008922454217 -8.4948767e-05)
(0.00606970141 0.0005185376217 -0.0001160130306)
(0.004015781612 -0.0002143709861 0.0001530331824)
(0.007922747189 -0.0004590904754 6.486127422e-06)
(0.01213231744 0.0003377176431 0.0006651089407)
(0.01136528451 -0.0002976855017 0.0002024030429)
(0.0135245821 0.000589009167 0.002045949183)
(0.01063069057 0.0006519621573 0.001086243777)
(0.004925629673 -0.0002478033222 8.479819489e-05)
(0.007543225147 0.000950199217 -0.0007016654268)
(0.007284248316 0.0001943345864 -0.0003062577553)
(0.01230157374 0.0006802969281 -0.0009589371049)
(0.009211223252 -0.0004951031003 -0.0005725145996)
(0.01043799044 -0.0001607745364 9.36811968e-05)
(0.00419281101 0.000410513502 0.0004456493452)
(0.005680750089 0.0003056948188 0.0006390694373)
(0.008996828706 0.001023800751 -0.0004554066368)
(0.009045202679 -0.0007833508888 -0.0002511166142)
(0.008790711677 -0.0006222008319 -0.001024395145)
(0.01155090655 -0.0001559063626 -0.0003085154341)
(0.01066976834 0.0008710512347 0.0005533777372)
(0.01076098974 0.0004610841505 -0.0004747181892)
(0.006960360057 0.0002775636962 2.753153509e-05)
(0.007287583225 0.0006821688671 -0.0008491136665)
(0.006171376503 3.323969548e-05 0.0005792423075)
(0.008380341483 -0.0007270968518 0.0004386707274)
(0.005832284143 2.642717349e-05 -0.0003149778934)
(0.00908543331 0.0003069141037 -0.001079716887)
(0.008887353292 -1.460295627e-05 0.0005883813602)
(0.008044091963 0.0003321303511 0.0005763522611)
(0.007705241016 -0.0001800346775 0.0001774152273)