/*--------------------------------*- C++ -*----------------------------------*\
| =========                 |                                                 |
| \\      /  F ield         | OpenFOAM: The Open Source CFD Toolbox           |
|  \\    /   O peration     | Version:  2406                                  |
|   \\  /    A nd           | Website:  www.openfoam.com                      |
|    \\/     M anipulation  |                                                 |
\*---------------------------------------------------------------------------*/
FoamFile
{
    version     2.0;
    format      ascii;
    arch        "LSB;label=32;scalar=64";
    class       volScalarField;
    location    "0.006";
    object      overallT;
}
// * * * * * * * * * * * * * * * * * * * * * * * * * * * * * * * * * * * * * //

dimensions      [1 2 -2 0 0 0 0];

internalField   nonuniform List<scalar> 
654
(
293.1943554
301.3517276
296.3263191
298.5541824
299.0960546
299.2560445
299.4657023
299.3348947
299.7416859
298.347813
296.6852717
298.799025
298.1474177
302.0286107
308.3695664
316.4161349
339.4241692
398.0459107
551.1644389
976.1111297
293.4095333
301.8810851
299.6461977
299.8649283
300.8146
301.0739027
300.9088965
300.6357205
302.3776838
302.6841965
302.109763
302.3616842
308.0382426
311.4406247
313.4661563
327.342309
357.9132871
421.1529376
578.9586946
855.6941427
295.0937807
305.4265047
299.873862
298.3059212
296.6599358
298.0059349
295.8654999
297.1240628
296.9847495
297.6730124
296.3001078
295.9639297
298.7656608
306.0851027
311.8926726
323.9518109
351.9555827
411.5379557
529.1975777
702.4067038
291.831742
301.7562468
298.1315817
298.3354886
298.0691144
296.7359382
296.3038061
297.1753879
297.7648273
295.9199671
298.5139518
298.6889347
301.0310696
303.6780218
313.9954788
328.0728917
348.1998722
397.1027924
472.7795863
601.8656867
291.9707109
302.6409167
297.435667
297.5967283
298.6643126
300.1910132
301.0440462
301.5850929
301.1629338
300.3776184
300.9933629
301.538521
300.8831643
303.6721757
307.356761
319.681609
339.8761085
380.6157168
432.5346103
511.9350849
293.1541916
302.3304715
299.0597542
299.8546483
298.4344715
296.2459506
296.884314
296.9891788
297.6273621
301.8623155
300.2411068
298.7891851
300.0332247
300.2955034
306.3951673
315.3734858
333.4607738
375.947659
398.3335099
459.5430809
292.0970621
302.2170464
299.253452
299.393303
301.4901723
301.7362155
300.029975
298.1979993
298.818716
299.1703267
300.7827549
300.6672008
301.9420251
304.5684844
306.5222027
310.4612196
329.4931264
340.0254145
368.9878427
413.2230264
292.2936704
302.20095
298.5730858
301.2552129
298.0300915
299.4979589
301.1564298
302.1620853
301.8352975
301.5646895
299.2807635
301.0696148
300.0418704
302.6269173
308.7699374
312.6749813
317.6611055
335.6954045
352.7354476
370.5728615
296.8065139
306.8719152
300.6571374
300.5524775
300.8590579
300.5503214
300.5048518
301.3544494
301.8118542
302.6048323
303.3703011
301.8981225
301.9650009
304.2948347
305.4102983
309.404999
315.5037754
325.0590294
339.2440396
354.6923503
296.1004716
303.6614522
300.2202975
299.3875317
301.0095571
302.2494528
300.7553128
299.8584412
299.9258969
301.5230351
301.9755972
303.2108131
306.6230496
305.2536269
306.9395257
309.7604629
312.3019257
317.1724925
330.4992467
349.8947644
294.2437248
303.1767696
301.1733416
301.3771196
300.7351253
299.9112605
299.2546122
300.8175064
301.3984716
300.980423
300.1466579
298.6021853
300.763302
300.7948055
304.4620753
303.5915617
307.5374866
310.1198163
319.3911366
335.9550508
295.1372724
305.4179588
300.8102033
300.2164589
300.7640683
300.2315035
300.4785974
298.987812
303.0457915
301.237504
301.0543347
301.554711
301.2140939
302.5473504
302.6073256
305.3924046
308.1146274
309.0170019
312.7330047
325.8390615
293.8841664
303.3810581
298.13179
298.7794594
298.2875547
298.310648
300.2296484
302.2170964
301.011144
300.1724733
299.9450468
299.6103514
300.4642101
301.3222234
301.817988
302.4442143
303.9786882
307.8720696
310.5145345
313.9777243
291.8693208
300.247323
297.779483
299.4107067
300.1563705
301.0711158
300.0786282
300.337036
298.9067926
299.3756586
302.0896543
300.8368176
300.0508572
299.4606493
300.3912985
300.464534
302.1245684
305.024198
307.0594074
312.2802211
295.198546
306.8420031
302.3363403
299.8307477
299.505368
298.8532397
296.8572578
296.0792869
297.2915067
297.5807344
297.2776364
297.4093396
297.1793838
297.0560959
297.9186147
299.2060843
301.7059206
302.6783473
303.1837308
306.0343631
294.2338222
301.885184
298.079525
297.2302693
296.5257808
297.2550457
298.9996589
299.0808082
297.7101504
299.2877556
299.4292322
298.9922554
299.3043009
299.5948176
299.0074604
299.9427683
301.3586297
301.008947
303.2229636
308.8582621
295.2226027
304.2327928
298.6426616
299.3358653
300.6631579
299.4235838
298.9152962
298.5814423
300.1846227
299.6639618
299.6443326
299.8854851
299.244433
300.3421736
299.9953174
301.1844659
301.2527341
304.0581702
302.7367459
308.6430709
295.969457
304.2055261
301.8947954
301.1284218
300.9078237
301.6730132
300.7428935
299.6838669
298.9884833
297.3918182
297.0934541
296.3184351
297.8162027
299.7740673
301.7751506
300.1036292
298.0876002
298.7895876
299.778865
302.4101321
289.9603196
300.2378471
297.0237819
298.2662821
298.3855673
298.5854079
299.6423649
299.1387198
300.093291
301.6128661
300.7260185
300.7273533
298.383629
296.9258265
297.205134
299.3566362
300.1586543
299.585511
300.6456382
299.8424912
293.9512464
304.1292524
300.2823008
298.191748
298.7186517
297.9300277
298.0232599
298.1057277
296.829831
294.9430397
295.5729346
297.3197178
300.6764527
300.9849706
301.308168
301.1532776
300.2214937
301.0434886
302.0624283
302.2732153
295.40266
303.6375568
298.5387536
299.3884074
299.6632632
300.3059062
298.964902
299.3595685
300.5910666
301.8699394
301.5988024
302.346881
301.3753811
300.0774569
299.8864178
301.5678821
302.9414761
303.0634686
301.5681897
302.365359
294.9889117
304.3551571
299.7435049
300.7538718
300.4550807
301.1720168
300.7761512
301.8315138
302.0228536
301.1646832
300.7723163
300.5367872
300.4556123
302.171649
302.4185908
299.8429065
298.7529072
301.2528278
301.0083234
300.9818221
1053.066663
990.6966514
965.2855811
936.5110209
912.9508197
897.671068
892.4995526
869.2186217
865.8139787
850.6952676
999.4642474
1010.234561
995.1200527
982.8997593
971.6207641
961.3288964
955.0342755
947.9190633
937.5542078
933.8872841
852.8285867
914.9500996
931.1673984
945.6435455
948.5625384
950.1982891
941.4714836
939.3429713
933.5672512
924.6129824
716.2656369
805.2557356
847.7130499
881.0551261
895.9851639
894.9962441
903.055114
896.9567261
903.5790342
910.6072794
614.3302978
694.3877299
750.3879339
802.7278734
823.5905701
844.5120989
865.4336843
861.5183952
871.6360889
876.0810046
533.1252693
603.6870903
663.7214891
711.5115519
741.5743043
775.9735541
810.5123356
824.9109036
841.0465944
844.088028
458.3811744
527.0688282
559.9636161
629.5044434
656.4229432
702.3356552
732.8164905
764.620877
775.453041
793.523111
414.8530408
467.0090142
490.6098565
552.434075
587.3891597
631.3852541
662.2406894
701.4254166
728.3539195
739.2940156
392.9197107
420.3874193
442.5376535
488.7747376
520.893594
566.0399833
601.115762
634.9245421
666.1651283
686.7602905
366.2312928
382.1365818
407.9961075
443.2681632
456.7656221
508.3195726
536.8048638
567.9211403
601.1384085
623.5148642
345.8121083
368.1070428
385.3689618
404.883648
423.0397352
461.2081475
491.3559752
517.3275918
546.9094234
563.2569094
333.4180583
350.6451194
362.7241149
382.8016907
394.2177113
415.9951752
439.910338
459.3409491
488.983798
508.659387
326.9776819
336.0868996
349.9351286
355.4123454
364.4731906
388.5171
406.400952
419.2237162
443.1057835
466.9540789
322.0955399
325.8847617
335.5549532
342.5097567
353.5934774
358.9640784
379.5095577
394.1296329
416.7071658
431.4962774
315.6327841
316.649238
322.0006065
327.7494176
341.2823073
346.2444732
358.8863457
374.4362296
390.7235558
403.554831
306.8136285
312.9362448
318.2733028
322.6106295
330.8847455
338.7509778
344.653
354.2229976
367.2435453
378.5480503
310.4940318
311.1496801
315.122588
315.3907663
315.7547679
326.458781
335.5031409
340.6482374
345.5329479
358.6214073
307.4781407
309.1445223
308.0039692
310.6455867
313.6067355
315.3616734
321.909167
326.5837425
335.3078538
342.248228
301.3837942
305.7450781
308.435482
310.8334729
311.3855755
311.9178507
317.2697943
324.4087873
324.2598177
333.4394868
303.3927437
304.5628372
304.1271367
304.9099082
307.4584647
309.1650251
311.7154936
317.9063966
323.2639967
325.9879657
302.5428882
301.9549812
304.5423895
303.115786
305.3600922
306.2692273
309.5928469
314.1105212
316.9908496
317.3356319
298.6565614
300.2276242
302.0275607
304.0449019
)
;

boundaryField
{
    flow
    {
        type            calculated;
        value           nonuniform List<scalar> 
42
(
293.1943554
293.4095333
295.0937807
291.831742
291.9707109
293.1541916
292.0970621
292.2936704
296.8065139
296.1004716
294.2437248
295.1372724
293.8841664
291.8693208
295.198546
294.2338222
295.2226027
295.969457
289.9603196
293.9512464
295.40266
294.9889117
293.1943554
301.3517276
296.3263191
298.5541824
299.0960546
299.2560445
299.4657023
299.3348947
299.7416859
298.347813
296.6852717
298.799025
298.1474177
302.0286107
308.3695664
316.4161349
339.4241692
398.0459107
551.1644389
976.1111297
)
;
    }
    obstacle
    {
        type            calculated;
        value           nonuniform List<scalar> 10(931.6490887 881.1902742 831.776632 822.5207661 777.9423902 764.0292723 781.9782979 750.1092169 735.2843903 738.4903708);
    }
    frontAndBack
    {
        type            empty;
    }
    procBoundary0to1
    {
        type            processor;
        value           nonuniform List<scalar> 
21
(
844.3947415
916.8167429
921.5810387
903.8509143
875.0836241
842.6457075
807.9356822
761.8204357
710.0528497
655.5819291
591.8605999
544.9412341
489.6256792
450.3453056
415.3123396
395.9401456
372.143293
357.4921234
342.0909711
335.3848878
322.0934898
)
;
    }
    procBoundary0to2
    {
        type            processor;
        value           nonuniform List<scalar> 
31
(
291.5945077
302.9774768
300.0503194
300.0342576
299.7166166
298.6285685
299.5878734
300.7374301
300.2844547
299.5730947
301.2548151
300.7582763
299.8230074
299.2411794
298.9338099
298.7224508
298.1715903
297.6721411
299.1670227
300.0953669
304.8035427
306.8675452
304.3587555
306.5161451
309.731023
311.7696024
300.6215839
302.7666881
300.9137551
304.8035427
301.2983804
)
;
    }
}


// ************************************************************************* //
