/*--------------------------------*- C++ -*----------------------------------*\
| =========                 |                                                 |
| \\      /  F ield         | OpenFOAM: The Open Source CFD Toolbox           |
|  \\    /   O peration     | Version:  2406                                  |
|   \\  /    A nd           | Website:  www.openfoam.com                      |
|    \\/     M anipulation  |                                                 |
\*---------------------------------------------------------------------------*/
FoamFile
{
    version     2.0;
    format      ascii;
    arch        "LSB;label=32;scalar=64";
    class       volScalarField;
    location    "0.006";
    object      p;
}
// * * * * * * * * * * * * * * * * * * * * * * * * * * * * * * * * * * * * * //

dimensions      [1 -1 -2 0 0 0 0];

internalField   nonuniform List<scalar> 
654
(
0.3036255684
0.4084940503
0.3988447967
0.4045899278
0.4078401158
0.4071008898
0.4083638741
0.4111425501
0.411227103
0.4066430282
0.4027584838
0.4045071398
0.4031689482
0.409825704
0.4246500267
0.4449350454
0.494763531
0.6403727016
1.022366596
2.530227523
0.305468719
0.4143273093
0.4139295814
0.4121210571
0.4138224101
0.4160614336
0.4147439133
0.4131196979
0.4148579004
0.413648607
0.4137641668
0.4172270111
0.4293741046
0.4403232862
0.4464602214
0.4800712681
0.5524133967
0.7090438827
1.131472061
2.05726038
0.3134368264
0.4307725504
0.418029406
0.415423125
0.4094918851
0.4121969613
0.410859002
0.4120528176
0.4134377027
0.4137515619
0.4105522393
0.4103428484
0.4163716262
0.4334965243
0.4460908813
0.4725484598
0.5358204536
0.6817049588
0.9764650051
1.493288252
0.3097754341
0.4161847705
0.4102294349
0.4113492573
0.4056801546
0.4046974269
0.4024178845
0.4042681237
0.4060843197
0.4090752569
0.4151206612
0.4136565752
0.4193583492
0.4209053736
0.4436751048
0.4699501177
0.5170867686
0.6384769643
0.8241636297
1.183926634
0.3096358791
0.4212197394
0.4082534758
0.406212816
0.4113378766
0.4147678782
0.4153711369
0.4136575021
0.4098981436
0.4066943745
0.4033066693
0.4055923884
0.4072049281
0.4132227772
0.4230378802
0.4594886112
0.509020561
0.60776154
0.7289506336
0.9344615926
0.3078214461
0.4149031754
0.4125343798
0.4140718665
0.4106808877
0.4062787477
0.4072104141
0.4114492645
0.413563374
0.420735689
0.4174104348
0.4142507229
0.4142728931
0.4141215681
0.4318438213
0.4456465717
0.4856534678
0.5798123502
0.6399270137
0.7951697219
0.310160734
0.4208057982
0.4161826677
0.4167276763
0.4238129148
0.4235369749
0.419559589
0.4138942068
0.4174110363
0.4203259355
0.4204377623
0.42308947
0.4236179636
0.4263081377
0.4290569837
0.4357619818
0.4843007725
0.5097694518
0.5849645939
0.6907145588
0.3055963657
0.4143069491
0.4112371204
0.4168354844
0.4098344637
0.4133784583
0.4194104541
0.4253698412
0.4240400473
0.4217030253
0.4177734431
0.4163610255
0.4170353616
0.4230656752
0.4373943766
0.4491243474
0.4564932095
0.4937891966
0.532192932
0.5749059164
0.3151265615
0.4310623908
0.4162862191
0.4150064398
0.4152837593
0.4150476292
0.417502407
0.417561571
0.4145149453
0.4147929079
0.423185876
0.4191671848
0.4162707793
0.4230867652
0.4222959446
0.4301622901
0.4470261708
0.4691367139
0.5017812631
0.5440682436
0.3122974523
0.4146715052
0.4127125504
0.4100621866
0.4142508708
0.4155819528
0.4102416197
0.4089816535
0.4136857121
0.4178215429
0.4171727463
0.420286302
0.4273641161
0.4233445083
0.431070879
0.4392459563
0.4449537585
0.4489930165
0.4816251028
0.5254036419
0.3116612597
0.4196933131
0.4162742438
0.4155470228
0.4127455472
0.4076994532
0.4047560976
0.4099519924
0.4135479167
0.4146568955
0.4150844492
0.4134675929
0.4212903482
0.4216448612
0.428900019
0.4193744642
0.4281952607
0.4353289902
0.4629452681
0.4991596535
0.3124913611
0.4239284767
0.4180873264
0.4120059111
0.4150747642
0.4155215074
0.4193763026
0.4159212445
0.42647737
0.4168837032
0.4145002655
0.4107224188
0.4070975409
0.4140448444
0.4170652845
0.431375372
0.4411423489
0.4382689057
0.444880148
0.4754865215
0.3134818267
0.4247634552
0.4152297586
0.4170043517
0.4149733589
0.4132770571
0.4147767422
0.4160243409
0.4113065464
0.4138449784
0.4184481972
0.418331924
0.4213826691
0.4220941215
0.4189062596
0.425038301
0.4251822039
0.4367430782
0.445306618
0.4496044507
0.3109939395
0.4216593086
0.4167860442
0.4199288069
0.4199719262
0.4219559236
0.4187920938
0.421987783
0.4181163344
0.4151758893
0.4182840163
0.4163931065
0.413084269
0.4121600774
0.4149859901
0.4096936958
0.4125788728
0.4184216404
0.4211846159
0.4388484141
0.3109449047
0.4264965714
0.4185306013
0.4116370126
0.4156330096
0.4134564033
0.4141748113
0.4098930916
0.4164813035
0.4167525371
0.4147762675
0.4157559805
0.4171189108
0.4139359629
0.4148439163
0.4162354906
0.4220497189
0.4229273983
0.420896252
0.4254388666
0.3113874553
0.4197112354
0.4115872288
0.4123111524
0.4104178394
0.4149210653
0.4181637128
0.4148223937
0.4146066695
0.4154755825
0.4163015622
0.4115459946
0.4060062027
0.4105705017
0.4122988868
0.4175566357
0.4199556118
0.4205501976
0.4269338648
0.4317796307
0.3167298347
0.4230432184
0.4118175576
0.4142785416
0.4137891344
0.4121654073
0.4057869989
0.4088863351
0.4115023033
0.4100343051
0.4127033195
0.4164611115
0.4182056827
0.4214764572
0.4174226336
0.4213474562
0.4211817038
0.4273809374
0.4223508858
0.4342764107
0.3100753639
0.4184411931
0.415651778
0.4162354842
0.4158670474
0.413316576
0.4167948467
0.4134985106
0.4092125688
0.4064385954
0.4055912362
0.4039294298
0.408499919
0.4121104435
0.4160810558
0.4150605632
0.412835319
0.4123669615
0.4131274353
0.4211641315
0.3077699322
0.4183060398
0.4125205112
0.4101103893
0.4132884659
0.4160389324
0.4178617109
0.4179321188
0.4188624431
0.4210437746
0.4181441301
0.4167421518
0.4099845093
0.4062598315
0.4050896581
0.4088690048
0.408742182
0.4072169316
0.4118903525
0.4075273218
0.3118678818
0.4244530308
0.4199490925
0.4165866748
0.4145014083
0.4140592976
0.4146210925
0.4148598909
0.4126003848
0.4093239554
0.4089789782
0.4101656007
0.4192125627
0.4192244266
0.4208139587
0.4187270948
0.4159722461
0.4196252085
0.4236907869
0.4256838121
0.3111852962
0.4198454437
0.4076650091
0.4114483989
0.4131629762
0.4133717294
0.4097865106
0.401606002
0.4065720945
0.4112418545
0.4156315999
0.4192580546
0.4165056872
0.4156759083
0.4160505364
0.4196434108
0.4221984035
0.4193865306
0.4173296654
0.4164611975
0.3106577435
0.418851256
0.4104617358
0.4085867706
0.4097461607
0.4093981255
0.4131038092
0.4185667627
0.4232858838
0.421290916
0.4139204209
0.4144405104
0.4150727368
0.4178657207
0.4197017919
0.4148595299
0.4136493098
0.4188708886
0.4196879184
0.419814589
4.621793665
4.766510111
4.734765481
4.673633843
4.549806118
4.453011955
4.382949437
4.258995911
4.101620463
4.024643633
3.016217193
3.55127826
3.787156619
3.960626865
4.076394184
4.107992664
4.074870485
4.075684565
4.06270214
3.972703685
2.106156098
2.591101939
2.897861197
3.179003126
3.378797276
3.536996146
3.606883626
3.668282597
3.717198945
3.692286128
1.566538815
1.960492132
2.255207236
2.545090057
2.786603848
2.948357512
3.146552853
3.207593092
3.316286789
3.424822296
1.225495511
1.505488541
1.767630777
2.064601882
2.249253881
2.423988703
2.623110971
2.728732997
2.907488034
3.056765765
0.9885979329
1.21007568
1.423325691
1.612248076
1.779150328
1.997898559
2.237082851
2.404846615
2.586634877
2.689839947
0.7968618262
0.9781314299
1.096504566
1.324848361
1.442870812
1.659349656
1.82725075
2.033319134
2.187074424
2.364390485
0.6855143567
0.8166858804
0.8874005067
1.071805479
1.188772088
1.352517368
1.512187089
1.680342411
1.85565352
1.974875087
0.6306142542
0.7044035875
0.7672688433
0.8914017584
0.9871161772
1.120749175
1.247039353
1.392667023
1.54797872
1.670538751
0.5678964665
0.6093336136
0.6748705817
0.7595667718
0.7973340113
0.9485137172
1.045325952
1.150243326
1.276271782
1.373661916
0.5231641965
0.5703153106
0.6237088822
0.672928651
0.7235423142
0.8139718864
0.9019230492
0.9976038745
1.092196691
1.162500055
0.4931202029
0.5298742959
0.555024744
0.6065483855
0.6358935886
0.6990569574
0.7608116396
0.8251645543
0.9213101338
0.9861500173
0.4785286338
0.5023561612
0.5355325179
0.5469584142
0.5692155892
0.6322129228
0.6828745582
0.7145018516
0.7767497716
0.8546801805
0.4618574972
0.4727917482
0.4952313334
0.5104941948
0.5377813725
0.5515666233
0.5949396715
0.6354205131
0.6965844721
0.7419324395
0.444314062
0.447001364
0.4623045998
0.478986684
0.5067599757
0.5261104813
0.5525184687
0.5909879335
0.6280274086
0.6656714146
0.4348572527
0.4496845288
0.457623091
0.467452172
0.4868363142
0.5008147685
0.5183176897
0.5398151231
0.5768894149
0.6021335405
0.4331355617
0.4371275564
0.442684831
0.4449648746
0.4468590225
0.4693518702
0.4908221055
0.5007812213
0.5060683983
0.5479551036
0.4291628007
0.4269682115
0.4245946545
0.4341029126
0.4449806751
0.4482767413
0.4636809759
0.47483832
0.4968479073
0.5125892452
0.4155587066
0.4309459822
0.4363203438
0.4426337618
0.4411538535
0.4416209502
0.4546156305
0.4662324071
0.4666170734
0.49034799
0.4239079463
0.4267211362
0.4243932795
0.4252880312
0.4318996831
0.4362594859
0.4430234526
0.4579059907
0.4661170893
0.4669777626
0.4153320036
0.4164131523
0.4191525813
0.416081232
0.4215988836
0.4210703515
0.4230002994
0.4351229738
0.4497970085
0.4514897461
0.4127006488
0.4149831564
0.4175628313
0.4210485665
)
;

boundaryField
{
    flow
    {
        type            calculated;
        value           nonuniform List<scalar> 
42
(
0.3036255684
0.305468719
0.3134368264
0.3097754341
0.3096358791
0.3078214461
0.310160734
0.3055963657
0.3151265615
0.3122974523
0.3116612597
0.3124913611
0.3134818267
0.3109939395
0.3109449047
0.3113874553
0.3167298347
0.3100753639
0.3077699322
0.3118678818
0.3111852962
0.3106577435
0.3036255684
0.4084940503
0.3988447967
0.4045899278
0.4078401158
0.4071008898
0.4083638741
0.4111425501
0.411227103
0.4066430282
0.4027584838
0.4045071398
0.4031689482
0.409825704
0.4246500267
0.4449350454
0.494763531
0.6403727016
1.022366596
2.530227523
)
;
    }
    obstacle
    {
        type            calculated;
        value           nonuniform List<scalar> 10(3.64865671 3.654934474 3.600724879 3.501460793 3.598686541 3.454543413 3.406840405 3.481712681 3.344536488 3.327984204);
    }
    frontAndBack
    {
        type            empty;
    }
    procBoundary0to1
    {
        type            processor;
        value           nonuniform List<scalar> 
21
(
3.934884988
3.86682484
3.636749601
3.408404307
3.100477619
2.80426201
2.491575637
2.141835306
1.827251694
1.526818824
1.287746775
1.099711678
0.9202333546
0.7878547148
0.7088622394
0.6368519192
0.5833912506
0.5509668522
0.5126492151
0.4903194612
0.461852442
)
;
    }
    procBoundary0to2
    {
        type            processor;
        value           nonuniform List<scalar> 
31
(
0.3035724679
0.416046267
0.4144399326
0.4132224929
0.4140939432
0.4116485233
0.4150494985
0.4159265955
0.4119007197
0.4115048439
0.417377524
0.4173443673
0.4146913188
0.4124328954
0.411991048
0.4106363191
0.4128445813
0.4085351756
0.4081289179
0.4094889694
0.4222481572
0.4269366741
0.4222928663
0.4277078381
0.435598781
0.4458699115
0.4142268098
0.4201801046
0.4190883061
0.4222481572
0.4175166332
)
;
    }
}


// ************************************************************************* //
