/*--------------------------------*- C++ -*----------------------------------*\
| =========                 |                                                 |
| \\      /  F ield         | OpenFOAM: The Open Source CFD Toolbox           |
|  \\    /   O peration     | Version:  2406                                  |
|   \\  /    A nd           | Website:  www.openfoam.com                      |
|    \\/     M anipulation  |                                                 |
\*---------------------------------------------------------------------------*/
FoamFile
{
    version     2.0;
    format      ascii;
    arch        "LSB;label=32;scalar=64";
    class       volScalarField;
    location    "0.006";
    object      rhoMMean;
}
// * * * * * * * * * * * * * * * * * * * * * * * * * * * * * * * * * * * * * //

dimensions      [1 -3 0 0 0 0 0];

internalField   nonuniform List<scalar> 
654
(
3.64888178e-06
4.694039166e-06
4.719168699e-06
4.72082272e-06
4.738947381e-06
4.737098966e-06
4.735468481e-06
4.758202516e-06
4.749837368e-06
4.725349615e-06
4.72292725e-06
4.72196097e-06
4.70942085e-06
4.701057368e-06
4.732067963e-06
4.757312952e-06
4.760729022e-06
4.861992517e-06
5.103530901e-06
6.558750084e-06
3.694025906e-06
4.757306287e-06
4.806856854e-06
4.784746062e-06
4.791567647e-06
4.812203262e-06
4.789333011e-06
4.769596402e-06
4.765649566e-06
4.772156093e-06
4.782690269e-06
4.797406081e-06
4.800266182e-06
4.821062658e-06
4.805008994e-06
4.848555266e-06
4.91832947e-06
5.056878619e-06
5.370673973e-06
6.242450442e-06
3.739909843e-06
4.843056883e-06
4.844643074e-06
4.822610109e-06
4.791966086e-06
4.811465118e-06
4.837384309e-06
4.821954444e-06
4.826104214e-06
4.810057215e-06
4.802170208e-06
4.815223668e-06
4.81570181e-06
4.842096366e-06
4.87682455e-06
4.870088776e-06
4.881041039e-06
4.991048474e-06
5.185656384e-06
5.711038283e-06
3.751736465e-06
4.760671397e-06
4.808513652e-06
4.803943573e-06
4.773234498e-06
4.755231403e-06
4.747069744e-06
4.750919105e-06
4.756038487e-06
4.795095285e-06
4.803812356e-06
4.804246759e-06
4.826790843e-06
4.784989402e-06
4.792267259e-06
4.77373673e-06
4.812129878e-06
4.899185903e-06
5.061967801e-06
5.435033592e-06
3.722431405e-06
4.791384361e-06
4.759926588e-06
4.767257071e-06
4.781626514e-06
4.79020626e-06
4.778094433e-06
4.756418598e-06
4.726677469e-06
4.721814202e-06
4.697607766e-06
4.699618709e-06
4.73696886e-06
4.750463388e-06
4.765846182e-06
4.854044346e-06
4.900731479e-06
4.980691267e-06
5.074507713e-06
5.246652351e-06
3.699282614e-06
4.73213135e-06
4.789521296e-06
4.7709589e-06
4.762542793e-06
4.777992862e-06
4.771628104e-06
4.807344437e-06
4.818891409e-06
4.821431453e-06
4.820898464e-06
4.817201078e-06
4.777894276e-06
4.78564229e-06
4.807731769e-06
4.783098914e-06
4.809333719e-06
4.869277248e-06
4.935945233e-06
5.076916748e-06
3.737856827e-06
4.802291774e-06
4.837291277e-06
4.814697345e-06
4.852185377e-06
4.842916225e-06
4.833578687e-06
4.802197631e-06
4.848935724e-06
4.863734015e-06
4.84247849e-06
4.848870116e-06
4.85067146e-06
4.823966497e-06
4.827286202e-06
4.802846632e-06
4.860236023e-06
4.879806772e-06
4.968868741e-06
5.049964558e-06
3.702698683e-06
4.7550016e-06
4.801733584e-06
4.807475654e-06
4.793915517e-06
4.793641421e-06
4.839468844e-06
4.869446996e-06
4.870205899e-06
4.843573765e-06
4.828565874e-06
4.790915314e-06
4.815104879e-06
4.828817546e-06
4.825734864e-06
4.873764848e-06
4.862213433e-06
4.879483382e-06
4.901807106e-06
4.922783537e-06
3.734121256e-06
4.83288817e-06
4.840169915e-06
4.81435042e-06
4.797840484e-06
4.79009358e-06
4.800796949e-06
4.791156225e-06
4.767876773e-06
4.769376042e-06
4.834164301e-06
4.824818987e-06
4.796227425e-06
4.790881017e-06
4.76643867e-06
4.776705969e-06
4.814388396e-06
4.835459525e-06
4.860979166e-06
4.94841065e-06
3.713045685e-06
4.720974486e-06
4.780025674e-06
4.785301475e-06
4.808404305e-06
4.813455302e-06
4.793973142e-06
4.793217571e-06
4.805151319e-06
4.808036066e-06
4.789011288e-06
4.787176203e-06
4.807464893e-06
4.811590016e-06
4.83748345e-06
4.862516619e-06
4.86850925e-06
4.82587941e-06
4.872343406e-06
4.89311968e-06
3.741823311e-06
4.795414231e-06
4.821725752e-06
4.799641272e-06
4.78790435e-06
4.742899215e-06
4.718109943e-06
4.722554568e-06
4.757516997e-06
4.772638678e-06
4.783552756e-06
4.807756415e-06
4.846474063e-06
4.832249722e-06
4.822392179e-06
4.752049024e-06
4.770500962e-06
4.81391324e-06
4.875564525e-06
4.895942359e-06
3.723610061e-06
4.784150242e-06
4.816397326e-06
4.789808375e-06
4.823173506e-06
4.84198202e-06
4.870481106e-06
4.859994557e-06
4.880720982e-06
4.81819867e-06
4.802702641e-06
4.763162703e-06
4.727233994e-06
4.775308827e-06
4.797312494e-06
4.855330127e-06
4.875777457e-06
4.842136564e-06
4.828050104e-06
4.870520749e-06
3.732296377e-06
4.785667492e-06
4.815867115e-06
4.813793896e-06
4.792163466e-06
4.769229274e-06
4.772412208e-06
4.757194163e-06
4.734623211e-06
4.77404547e-06
4.810542576e-06
4.821584538e-06
4.833048476e-06
4.825770619e-06
4.778866665e-06
4.817420675e-06
4.817932349e-06
4.860308296e-06
4.875247246e-06
4.855805492e-06
3.736820495e-06
4.815226445e-06
4.82775025e-06
4.842533337e-06
4.854080309e-06
4.847828786e-06
4.827007663e-06
4.860966947e-06
4.836739197e-06
4.802754711e-06
4.783297752e-06
4.791600625e-06
4.778135742e-06
4.793651418e-06
4.797919422e-06
4.753767333e-06
4.728144108e-06
4.719200566e-06
4.704231416e-06
4.778453021e-06
3.677329906e-06
4.765261124e-06
4.803209317e-06
4.775677621e-06
4.798903684e-06
4.809625589e-06
4.831256018e-06
4.823757454e-06
4.846887152e-06
4.851381625e-06
4.85820932e-06
4.850364386e-06
4.874458698e-06
4.835936e-06
4.83219432e-06
4.805373345e-06
4.804848688e-06
4.808309607e-06
4.786137649e-06
4.790892126e-06
3.731492624e-06
4.79028131e-06
4.792056897e-06
4.792613976e-06
4.769346397e-06
4.805961181e-06
4.815895094e-06
4.798492261e-06
4.800773968e-06
4.793605458e-06
4.781910052e-06
4.758435651e-06
4.700259378e-06
4.736619158e-06
4.769954644e-06
4.809959184e-06
4.82665074e-06
4.814450325e-06
4.84399817e-06
4.805958057e-06
3.74454664e-06
4.76579078e-06
4.77855737e-06
4.790920313e-06
4.774072338e-06
4.7720221e-06
4.709031852e-06
4.743357709e-06
4.751587197e-06
4.758706415e-06
4.791076731e-06
4.809777009e-06
4.838899338e-06
4.852252097e-06
4.821235392e-06
4.812065936e-06
4.819517985e-06
4.832042345e-06
4.813341512e-06
4.821828226e-06
3.708986725e-06
4.770540257e-06
4.796940367e-06
4.813188079e-06
4.801589593e-06
4.764189593e-06
4.818399382e-06
4.808603906e-06
4.782778302e-06
4.758107818e-06
4.745725227e-06
4.75079976e-06
4.763668268e-06
4.771695378e-06
4.769250032e-06
4.780342954e-06
4.803931145e-06
4.775378323e-06
4.782641531e-06
4.791725176e-06
3.729168845e-06
4.789660844e-06
4.826756546e-06
4.783869481e-06
4.797931849e-06
4.823568058e-06
4.803187447e-06
4.805241018e-06
4.799294903e-06
4.794453505e-06
4.807713787e-06
4.786248663e-06
4.741009283e-06
4.722078092e-06
4.705173605e-06
4.706626913e-06
4.701387631e-06
4.718477071e-06
4.739777446e-06
4.732554644e-06
3.710140179e-06
4.781218979e-06
4.840839674e-06
4.837341681e-06
4.827725048e-06
4.841122101e-06
4.836217317e-06
4.840019051e-06
4.843680682e-06
4.824539337e-06
4.822948147e-06
4.821215744e-06
4.854236171e-06
4.854441327e-06
4.876645151e-06
4.854880728e-06
4.854990075e-06
4.868708852e-06
4.871643447e-06
4.870815048e-06
3.712704314e-06
4.770535814e-06
4.771692046e-06
4.771164611e-06
4.773149242e-06
4.770086207e-06
4.756799612e-06
4.680088366e-06
4.71335991e-06
4.744214087e-06
4.782838148e-06
4.795904591e-06
4.789374528e-06
4.800235981e-06
4.809872817e-06
4.827677422e-06
4.828812339e-06
4.801788431e-06
4.800586794e-06
4.782672843e-06
3.709584211e-06
4.746052505e-06
4.769983178e-06
4.72903145e-06
4.751767707e-06
4.741597882e-06
4.795987625e-06
4.837191025e-06
4.867884341e-06
4.861749385e-06
4.798527114e-06
4.794792654e-06
4.786936403e-06
4.795739842e-06
4.797584369e-06
4.791199408e-06
4.791015566e-06
4.781148928e-06
4.803405933e-06
4.806774931e-06
1.155557788e-05
1.328484901e-05
1.384835136e-05
1.442764987e-05
1.466085062e-05
1.483911113e-05
1.49098744e-05
1.504741963e-05
1.459929616e-05
1.472308343e-05
7.897477324e-06
9.479311297e-06
1.053024043e-05
1.140498688e-05
1.209979883e-05
1.249538609e-05
1.278609306e-05
1.303315236e-05
1.32240243e-05
1.310671615e-05
6.538171138e-06
7.586573322e-06
8.503998061e-06
9.380710841e-06
1.01318095e-05
1.081073185e-05
1.132927601e-05
1.177059644e-05
1.210451218e-05
1.230566002e-05
5.907208993e-06
6.573525626e-06
7.255718291e-06
7.963303087e-06
8.739909187e-06
9.45573774e-06
1.014344769e-05
1.061834969e-05
1.098944582e-05
1.139877064e-05
5.561831924e-06
5.960370617e-06
6.468431747e-06
7.093051166e-06
7.630791198e-06
8.137547498e-06
8.721128561e-06
9.218308702e-06
9.870408843e-06
1.047957115e-05
5.294395234e-06
5.591760423e-06
5.940822898e-06
6.309244389e-06
6.71231734e-06
7.26737299e-06
7.886109649e-06
8.423807609e-06
8.963238795e-06
9.467347395e-06
5.171634584e-06
5.358638453e-06
5.561107609e-06
5.898305985e-06
6.183107682e-06
6.642150271e-06
7.066576837e-06
7.595393524e-06
8.132956357e-06
8.68459061e-06
5.039140635e-06
5.161247743e-06
5.302349329e-06
5.550151431e-06
5.773994017e-06
6.073608901e-06
6.495394443e-06
6.853382041e-06
7.286108967e-06
7.721650571e-06
4.991780021e-06
5.109117976e-06
5.213476144e-06
5.368688008e-06
5.537017527e-06
5.718885263e-06
5.922576048e-06
6.254719231e-06
6.627264106e-06
7.019744175e-06
4.967304368e-06
5.024073208e-06
5.10555065e-06
5.161584374e-06
5.234337187e-06
5.478274138e-06
5.690518836e-06
5.877336076e-06
6.097795467e-06
6.345786573e-06
4.940590257e-06
4.960688194e-06
5.066410325e-06
5.125359291e-06
5.227896689e-06
5.296255252e-06
5.424368433e-06
5.628073082e-06
5.811675162e-06
6.033438867e-06
4.858530052e-06
4.885337301e-06
4.898332353e-06
4.945810115e-06
5.002814776e-06
5.103125698e-06
5.191648166e-06
5.372472229e-06
5.540413398e-06
5.702941708e-06
4.870129887e-06
4.904948846e-06
4.937695199e-06
4.969045203e-06
4.98326548e-06
5.076232378e-06
5.211353851e-06
5.217368017e-06
5.299108842e-06
5.460668253e-06
4.817639523e-06
4.837830587e-06
4.868070159e-06
4.878417501e-06
4.919518658e-06
4.928256416e-06
4.960832414e-06
5.043796436e-06
5.148620503e-06
5.230799842e-06
4.779393137e-06
4.790257655e-06
4.813948685e-06
4.879635567e-06
4.891099101e-06
4.965667188e-06
4.976587474e-06
5.024722696e-06
5.060607968e-06
5.159216618e-06
4.880324064e-06
4.912976682e-06
4.8646289e-06
4.853660478e-06
4.88912202e-06
4.890513383e-06
4.927265612e-06
4.955417374e-06
5.043735881e-06
5.062994727e-06
4.784913773e-06
4.794750363e-06
4.792470781e-06
4.81639295e-06
4.785521576e-06
4.830893814e-06
4.860758326e-06
4.877729754e-06
4.841824415e-06
4.952302545e-06
4.777666472e-06
4.738642315e-06
4.749232058e-06
4.771471781e-06
4.83789806e-06
4.836592485e-06
4.844040586e-06
4.889004229e-06
4.915673679e-06
4.944170635e-06
4.77014079e-06
4.842898265e-06
4.862610749e-06
4.879037861e-06
4.832434622e-06
4.820819084e-06
4.840833863e-06
4.833231974e-06
4.831483708e-06
4.880187644e-06
4.834040454e-06
4.830939464e-06
4.801069535e-06
4.790062211e-06
4.811677315e-06
4.830724761e-06
4.860956877e-06
4.883055231e-06
4.854596428e-06
4.834466677e-06
4.772563144e-06
4.781826061e-06
4.771281214e-06
4.767815441e-06
4.761348399e-06
4.72664208e-06
4.703142685e-06
4.721822644e-06
4.804866508e-06
4.811079583e-06
4.797489237e-06
4.773301058e-06
4.767777093e-06
4.784338402e-06
)
;

boundaryField
{
    flow
    {
        type            calculated;
        value           nonuniform List<scalar> 
42
(
3.64888178e-06
3.694025906e-06
3.739909843e-06
3.751736465e-06
3.722431405e-06
3.699282614e-06
3.737856827e-06
3.702698683e-06
3.734121256e-06
3.713045685e-06
3.741823311e-06
3.723610061e-06
3.732296377e-06
3.736820495e-06
3.677329906e-06
3.731492624e-06
3.74454664e-06
3.708986725e-06
3.729168845e-06
3.710140179e-06
3.712704314e-06
3.709584211e-06
3.64888178e-06
4.694039166e-06
4.719168699e-06
4.72082272e-06
4.738947381e-06
4.737098966e-06
4.735468481e-06
4.758202516e-06
4.749837368e-06
4.725349615e-06
4.72292725e-06
4.72196097e-06
4.70942085e-06
4.701057368e-06
4.732067963e-06
4.757312952e-06
4.760729022e-06
4.861992517e-06
5.103530901e-06
6.558750084e-06
)
;
    }
    obstacle
    {
        type            calculated;
        value           nonuniform List<scalar> 10(6.670531057e-24 6.80241963e-24 6.913438446e-24 6.584466617e-24 7.31176819e-24 7.074248917e-24 6.83328426e-24 6.844173323e-24 6.876890176e-24 6.605148778e-24);
    }
    frontAndBack
    {
        type            empty;
    }
    procBoundary0to1
    {
        type            processor;
        value           nonuniform List<scalar> 
21
(
1.463471641e-05
1.310515009e-05
1.234462883e-05
1.155370397e-05
1.075104512e-05
1.001964698e-05
9.139891029e-06
8.229154768e-06
7.466192868e-06
6.719621016e-06
6.340558663e-06
5.918723105e-06
5.571648691e-06
5.305598765e-06
5.260337583e-06
5.076454253e-06
5.002743406e-06
5.009463218e-06
4.922217025e-06
4.857508119e-06
4.810726887e-06
)
;
    }
    procBoundary0to2
    {
        type            processor;
        value           nonuniform List<scalar> 
31
(
3.705048776e-06
4.781890404e-06
4.842597834e-06
4.807575906e-06
4.815437711e-06
4.801971162e-06
4.803634069e-06
4.777554016e-06
4.74762849e-06
4.760926401e-06
4.782393748e-06
4.806973421e-06
4.788808354e-06
4.768837499e-06
4.781385395e-06
4.763581346e-06
4.77826918e-06
4.742828609e-06
4.71455266e-06
4.702891898e-06
4.805845023e-06
4.806670258e-06
4.817560434e-06
4.816756124e-06
4.816304342e-06
4.862344872e-06
4.744744305e-06
4.769652347e-06
4.798859848e-06
4.805845023e-06
4.766672774e-06
)
;
    }
}


// ************************************************************************* //
