/*--------------------------------*- C++ -*----------------------------------*\
| =========                 |                                                 |
| \\      /  F ield         | OpenFOAM: The Open Source CFD Toolbox           |
|  \\    /   O peration     | Version:  2406                                  |
|   \\  /    A nd           | Website:  www.openfoam.com                      |
|    \\/     M anipulation  |                                                 |
\*---------------------------------------------------------------------------*/
FoamFile
{
    version     2.0;
    format      ascii;
    arch        "LSB;label=32;scalar=64";
    class       volScalarField;
    location    "0.006";
    object      rhoM;
}
// * * * * * * * * * * * * * * * * * * * * * * * * * * * * * * * * * * * * * //

dimensions      [1 -3 0 0 0 0 0];

internalField   nonuniform List<scalar> 
654
(
2.490195221e-06
4.980390442e-06
3.043386799e-06
7.055275419e-06
5.395700685e-06
5.464641352e-06
3.112327466e-06
4.358258196e-06
6.986334752e-06
3.458697042e-06
6.708905843e-06
4.496139531e-06
6.986334752e-06
5.948892263e-06
5.602522687e-06
1.521693399e-06
4.427198864e-06
4.496139531e-06
4.496139531e-06
6.571024508e-06
3.942947953e-06
5.395700685e-06
4.01188862e-06
4.980390442e-06
4.080829287e-06
5.395700685e-06
3.458697042e-06
4.496139531e-06
3.942947953e-06
3.596578377e-06
5.53358202e-06
4.496139531e-06
5.118271776e-06
4.01188862e-06
2.974446132e-06
6.502083841e-06
4.01188862e-06
3.596578377e-06
5.395700685e-06
4.911449774e-06
6.01783293e-06
3.942947953e-06
4.496139531e-06
5.948892263e-06
2.974446132e-06
5.049331109e-06
3.52763771e-06
4.565080198e-06
4.080829287e-06
4.01188862e-06
6.086773598e-06
3.043386799e-06
4.427198864e-06
6.01783293e-06
2.559135888e-06
4.565080198e-06
3.458697042e-06
4.911449774e-06
3.942947953e-06
6.086773598e-06
2.974446132e-06
4.080829287e-06
6.01783293e-06
5.879951596e-06
4.911449774e-06
6.639965176e-06
4.427198864e-06
4.911449774e-06
6.364202506e-06
3.942947953e-06
5.671463354e-06
7.816955239e-06
2.00594431e-06
4.427198864e-06
3.458697042e-06
3.596578377e-06
4.01188862e-06
4.980390442e-06
4.911449774e-06
5.049331109e-06
4.01188862e-06
3.942947953e-06
5.464641352e-06
6.986334752e-06
4.842509107e-06
5.464641352e-06
6.086773598e-06
3.874007286e-06
6.086773598e-06
5.464641352e-06
4.980390442e-06
6.917394084e-06
4.01188862e-06
6.01783293e-06
4.080829287e-06
2.905505464e-06
2.974446132e-06
5.948892263e-06
6.639965176e-06
3.458697042e-06
3.942947953e-06
2.559135888e-06
4.01188862e-06
5.118271776e-06
1.937003643e-06
2.905505464e-06
5.53358202e-06
6.433143174e-06
3.942947953e-06
5.049331109e-06
3.596578377e-06
3.52763771e-06
6.433143174e-06
3.942947953e-06
5.53358202e-06
6.364202506e-06
6.295261839e-06
5.53358202e-06
2.074884977e-06
5.811010928e-06
7.055275419e-06
3.043386799e-06
5.049331109e-06
4.565080198e-06
3.389756375e-06
6.086773598e-06
5.879951596e-06
1.521693399e-06
5.118271776e-06
4.565080198e-06
5.187212443e-06
4.842509107e-06
5.602522687e-06
3.043386799e-06
4.01188862e-06
3.874007286e-06
2.974446132e-06
5.118271776e-06
4.01188862e-06
2.974446132e-06
3.52763771e-06
4.01188862e-06
6.155714265e-06
7.055275419e-06
2.490195221e-06
4.565080198e-06
4.565080198e-06
2.143825645e-06
5.811010928e-06
4.427198864e-06
4.496139531e-06
5.464641352e-06
5.879951596e-06
4.565080198e-06
4.980390442e-06
5.948892263e-06
4.911449774e-06
6.155714265e-06
4.565080198e-06
1.937003643e-06
2.490195221e-06
7.401644995e-06
2.974446132e-06
3.942947953e-06
5.53358202e-06
4.565080198e-06
6.155714265e-06
3.874007286e-06
3.389756375e-06
5.395700685e-06
5.948892263e-06
4.634020865e-06
5.464641352e-06
4.496139531e-06
6.917394084e-06
4.911449774e-06
6.708905843e-06
4.980390442e-06
5.049331109e-06
6.433143174e-06
3.52763771e-06
3.52763771e-06
6.986334752e-06
4.01188862e-06
6.433143174e-06
5.464641352e-06
3.52763771e-06
3.458697042e-06
4.080829287e-06
4.496139531e-06
4.634020865e-06
7.332704328e-06
5.464641352e-06
7.885895906e-06
3.458697042e-06
3.458697042e-06
5.53358202e-06
4.080829287e-06
5.811010928e-06
3.942947953e-06
3.458697042e-06
4.01188862e-06
3.458697042e-06
6.848453417e-06
2.974446132e-06
7.885895906e-06
5.671463354e-06
4.080829287e-06
1.041399808e-281
6.155714265e-06
5.948892263e-06
3.665519044e-06
2.421254554e-06
3.942947953e-06
7.332704328e-06
4.427198864e-06
6.086773598e-06
3.458697042e-06
2.421254554e-06
5.464641352e-06
4.01188862e-06
7.470585662e-06
2.974446132e-06
2.421254554e-06
3.458697042e-06
4.634020865e-06
7.954836573e-06
7.055275419e-06
4.980390442e-06
5.049331109e-06
5.811010928e-06
6.502083841e-06
6.708905843e-06
2.421254554e-06
1.937003643e-06
8.992279062e-06
7.53952633e-06
6.155714265e-06
4.080829287e-06
6.01783293e-06
4.980390442e-06
1.452752732e-06
5.948892263e-06
6.571024508e-06
4.634020865e-06
4.496139531e-06
4.427198864e-06
6.433143174e-06
2.974446132e-06
3.52763771e-06
6.986334752e-06
6.01783293e-06
7.055275419e-06
1.937003643e-06
4.080829287e-06
6.364202506e-06
3.458697042e-06
6.502083841e-06
4.01188862e-06
4.565080198e-06
4.496139531e-06
5.118271776e-06
3.942947953e-06
5.602522687e-06
7.954836573e-06
3.596578377e-06
4.496139531e-06
4.01188862e-06
4.496139531e-06
4.842509107e-06
7.055275419e-06
5.53358202e-06
5.118271776e-06
4.496139531e-06
1.937003643e-06
6.433143174e-06
4.358258196e-06
5.049331109e-06
3.389756375e-06
5.395700685e-06
4.01188862e-06
4.911449774e-06
4.01188862e-06
5.53358202e-06
3.52763771e-06
6.986334752e-06
3.52763771e-06
3.52763771e-06
4.842509107e-06
2.490195221e-06
8.370146817e-06
6.433143174e-06
4.496139531e-06
2.490195221e-06
2.905505464e-06
2.974446132e-06
3.52763771e-06
7.608466997e-06
5.948892263e-06
4.496139531e-06
4.565080198e-06
4.496139531e-06
4.080829287e-06
4.427198864e-06
5.326760018e-06
3.596578377e-06
4.01188862e-06
7.470585662e-06
3.52763771e-06
4.149769955e-06
6.433143174e-06
3.458697042e-06
4.080829287e-06
5.464641352e-06
4.01188862e-06
4.427198864e-06
2.490195221e-06
6.01783293e-06
4.01188862e-06
4.01188862e-06
4.496139531e-06
4.980390442e-06
5.948892263e-06
6.01783293e-06
3.942947953e-06
6.01783293e-06
6.295261839e-06
3.874007286e-06
5.464641352e-06
6.364202506e-06
4.427198864e-06
6.086773598e-06
6.571024508e-06
4.496139531e-06
5.049331109e-06
6.502083841e-06
5.602522687e-06
6.571024508e-06
5.118271776e-06
7.677407664e-06
3.52763771e-06
3.043386799e-06
4.980390442e-06
7.055275419e-06
4.565080198e-06
5.464641352e-06
9.685018214e-07
1.037442489e-06
5.602522687e-06
3.458697042e-06
3.043386799e-06
3.458697042e-06
5.879951596e-06
6.502083841e-06
5.464641352e-06
7.332704328e-06
3.52763771e-06
3.389756375e-06
2.421254554e-06
5.53358202e-06
4.01188862e-06
5.049331109e-06
4.980390442e-06
2.490195221e-06
1.521693399e-06
5.395700685e-06
5.118271776e-06
4.980390442e-06
5.395700685e-06
5.602522687e-06
6.295261839e-06
5.602522687e-06
5.464641352e-06
4.496139531e-06
5.326760018e-06
2.559135888e-06
1.937003643e-06
4.496139531e-06
4.149769955e-06
3.874007286e-06
3.043386799e-06
5.948892263e-06
4.496139531e-06
5.948892263e-06
3.52763771e-06
6.986334752e-06
5.464641352e-06
4.980390442e-06
4.980390442e-06
4.427198864e-06
6.848453417e-06
5.53358202e-06
3.458697042e-06
3.596578377e-06
5.464641352e-06
3.874007286e-06
3.458697042e-06
3.942947953e-06
4.427198864e-06
5.395700685e-06
3.942947953e-06
4.01188862e-06
3.52763771e-06
2.559135888e-06
6.986334752e-06
2.905505464e-06
5.53358202e-06
5.53358202e-06
5.53358202e-06
2.559135888e-06
5.049331109e-06
1.937003643e-06
7.055275419e-06
3.043386799e-06
4.911449774e-06
4.496139531e-06
4.496139531e-06
5.464641352e-06
7.193156754e-06
3.458697042e-06
4.01188862e-06
4.911449774e-06
4.496139531e-06
3.458697042e-06
5.948892263e-06
5.602522687e-06
5.948892263e-06
5.879951596e-06
4.911449774e-06
5.256153111e-06
3.596578377e-06
4.496139531e-06
4.496139531e-06
3.596578377e-06
5.118271776e-06
3.043386799e-06
4.080829287e-06
4.496139531e-06
4.080829287e-06
2.905505464e-06
1.089885559e-05
1.712415787e-05
1.801599099e-05
1.318197857e-05
1.298829679e-05
1.617065404e-05
1.483775086e-05
1.793370307e-05
1.490575422e-05
1.516164583e-05
7.497078274e-06
7.548628983e-06
6.896071082e-06
1.24722421e-05
1.484450453e-05
1.070938208e-05
1.425887829e-05
1.042529022e-05
1.519848778e-05
1.18337404e-05
4.928867033e-06
6.709331212e-06
9.149129516e-06
1.07719474e-05
9.919472697e-06
7.258973119e-06
1.092992505e-05
1.18837289e-05
8.590757232e-06
1.057700679e-05
5.969988558e-06
6.500348597e-06
9.219272707e-06
5.598723923e-06
5.780288462e-06
1.250535196e-05
1.056747585e-05
1.261207019e-05
1.343678006e-05
1.346083516e-05
6.108358855e-06
7.128980096e-06
4.574564761e-06
7.157754194e-06
6.566136083e-06
5.031485709e-06
7.382804872e-06
6.342364356e-06
1.152870556e-05
7.396533168e-06
5.900803409e-06
7.128980096e-06
9.149129516e-06
7.228386407e-06
8.207240316e-06
8.553525694e-06
6.876073407e-06
8.82153449e-06
6.388180376e-06
1.168630861e-05
5.414835221e-06
3.005519418e-06
4.574564761e-06
6.590989291e-06
5.280672474e-06
1.020623351e-05
7.745254081e-06
7.363095823e-06
7.269918634e-06
8.579550872e-06
5.414835221e-06
2.725192281e-06
2.603774365e-06
4.606458563e-06
5.709160336e-06
3.593671038e-06
5.283737926e-06
6.269705837e-06
1.057378391e-05
1.028036154e-05
2.91580913e-06
4.47344869e-06
5.207548727e-06
3.188692748e-06
3.068824107e-06
7.187342076e-06
6.659650041e-06
4.665950118e-06
7.416285416e-06
1.375748042e-05
5.414835225e-06
5.521729082e-06
8.304020694e-06
5.598723927e-06
6.708392332e-06
6.109413895e-06
4.632724224e-06
5.686681584e-06
5.947311254e-06
7.470249063e-06
2.984994279e-06
7.618289854e-06
6.192943924e-06
5.102591246e-06
3.99692797e-06
4.743230267e-06
8.324126654e-06
4.37355994e-06
5.874127863e-06
5.251645445e-06
4.859681884e-06
4.962758451e-06
5.137405545e-06
3.118060524e-06
3.710696354e-06
4.599968182e-06
5.934751649e-06
5.75934014e-06
6.388180412e-06
5.399077268e-06
8.607384946e-06
5.661050839e-06
3.659312761e-06
2.551295623e-06
4.638800201e-06
6.684193496e-06
6.803932279e-06
7.946120008e-06
6.607730525e-06
2.957544273e-06
4.373713681e-06
4.543109536e-06
7.600893483e-06
5.598723907e-06
6.20877634e-06
2.587373891e-06
3.691402415e-06
5.759340096e-06
5.140525152e-06
4.955000155e-06
6.872739823e-06
6.011038852e-06
5.77038951e-06
4.180958123e-06
4.496544001e-06
3.736933144e-06
4.704865354e-06
3.207511456e-06
5.360075361e-06
5.399077245e-06
4.164486096e-06
4.053799817e-06
3.026328797e-06
4.677090805e-06
5.78028847e-06
6.324307053e-06
5.139455687e-06
5.176315808e-06
2.643445966e-06
3.254189527e-06
4.998052174e-06
2.446548777e-06
2.603774346e-06
6.23612103e-06
6.137648213e-06
5.821158439e-06
1.520194369e-06
7.290437344e-06
5.28689197e-06
4.289775436e-06
5.900803402e-06
3.984138943e-06
4.081867187e-06
3.047428293e-06
5.067288058e-06
5.389640914e-06
2.099066934e-06
2.697145701e-06
5.213708579e-06
4.881284291e-06
4.512084017e-06
5.591389966e-06
4.011723974e-06
7.228386437e-06
6.066520087e-06
4.671599213e-06
2.099066949e-06
5.248974363e-06
6.388180354e-06
4.289775467e-06
2.013057899e-06
7.059319242e-06
5.63010314e-06
5.66935613e-06
3.497311977e-06
6.181044964e-06
4.849147601e-06
3.134852914e-06
5.87412788e-06
3.254189527e-06
4.512083987e-06
6.500348567e-06
5.982514369e-06
4.535826359e-06
6.708392337e-06
4.168450643e-06
3.691402441e-06
2.6244872e-06
4.331970323e-06
4.363491336e-06
7.218665519e-06
7.687950696e-06
5.067262357e-06
5.173223487e-06
)
;

boundaryField
{
    flow
    {
        type            zeroGradient;
    }
    obstacle
    {
        type            calculated;
        value           nonuniform List<scalar> 10(1e-300 1e-300 3.837337446e-24 6.525168428e-24 2.292644919e-23 6.015403989e-24 1.172124248e-23 3.173850292e-24 2.519543389e-23 1.610305262e-23);
    }
    frontAndBack
    {
        type            empty;
    }
    procBoundary0to1
    {
        type            processor;
        value           nonuniform List<scalar> 
21
(
1.93712258e-05
1.616744025e-05
1.035571355e-05
1.005868869e-05
1.206899066e-05
8.790948894e-06
6.481827337e-06
7.525003785e-06
5.438650893e-06
1.013294491e-05
9.164024674e-06
4.76855025e-06
3.725373774e-06
5.811726664e-06
4.246962027e-06
9.834125301e-06
5.512907089e-06
4.246962027e-06
4.39547446e-06
3.873886206e-06
2.234865338e-06
)
;
    }
    procBoundary0to2
    {
        type            processor;
        value           nonuniform List<scalar> 
31
(
2.974446132e-06
5.671463354e-06
6.01783293e-06
3.389756375e-06
5.049331109e-06
6.01783293e-06
6.155714265e-06
4.427198864e-06
3.942947953e-06
5.464641352e-06
6.01783293e-06
5.53358202e-06
1.452752732e-06
2.490195221e-06
2.00594431e-06
8.576968818e-06
5.602522687e-06
4.496139531e-06
5.326760018e-06
4.427198864e-06
6.63726421e-06
4.528337126e-06
6.369341925e-06
6.269705828e-06
5.28689197e-06
3.254189527e-06
4.442898838e-06
8.527248519e-06
3.166615147e-06
6.63726421e-06
4.677090773e-06
)
;
    }
}


// ************************************************************************* //
