/*--------------------------------*- C++ -*----------------------------------*\
| =========                 |                                                 |
| \\      /  F ield         | OpenFOAM: The Open Source CFD Toolbox           |
|  \\    /   O peration     | Version:  2406                                  |
|   \\  /    A nd           | Website:  www.openfoam.com                      |
|    \\/     M anipulation  |                                                 |
\*---------------------------------------------------------------------------*/
FoamFile
{
    version     2.0;
    format      ascii;
    arch        "LSB;label=32;scalar=64";
    class       volScalarField;
    location    "0.006";
    object      rhoN;
}
// * * * * * * * * * * * * * * * * * * * * * * * * * * * * * * * * * * * * * //

dimensions      [0 -3 0 0 0 0 0];

internalField   nonuniform List<scalar> 
654
(
5.20699904e+19
1.041399808e+20
6.248398848e+19
1.457959731e+20
1.145539789e+20
1.145539789e+20
6.248398848e+19
9.372598272e+19
1.457959731e+20
7.289798656e+19
1.35381975e+20
9.372598272e+19
1.457959731e+20
1.24967977e+20
1.145539789e+20
3.124199424e+19
9.372598272e+19
9.372598272e+19
9.372598272e+19
1.35381975e+20
8.331198464e+19
1.145539789e+20
8.331198464e+19
1.041399808e+20
8.331198464e+19
1.145539789e+20
7.289798656e+19
9.372598272e+19
8.331198464e+19
7.289798656e+19
1.145539789e+20
9.372598272e+19
1.041399808e+20
8.331198464e+19
6.248398848e+19
1.35381975e+20
8.331198464e+19
7.289798656e+19
1.145539789e+20
1.041399808e+20
1.24967977e+20
8.331198464e+19
9.372598272e+19
1.24967977e+20
6.248398848e+19
1.041399808e+20
7.289798656e+19
9.372598272e+19
8.331198464e+19
8.331198464e+19
1.24967977e+20
6.248398848e+19
9.372598272e+19
1.24967977e+20
5.20699904e+19
9.372598272e+19
7.289798656e+19
1.041399808e+20
8.331198464e+19
1.24967977e+20
6.248398848e+19
8.331198464e+19
1.24967977e+20
1.24967977e+20
1.041399808e+20
1.35381975e+20
9.372598272e+19
1.041399808e+20
1.35381975e+20
8.331198464e+19
1.145539789e+20
1.666239693e+20
4.165599232e+19
9.372598272e+19
7.289798656e+19
7.289798656e+19
8.331198464e+19
1.041399808e+20
1.041399808e+20
1.041399808e+20
8.331198464e+19
8.331198464e+19
1.145539789e+20
1.457959731e+20
1.041399808e+20
1.145539789e+20
1.24967977e+20
8.331198464e+19
1.24967977e+20
1.145539789e+20
1.041399808e+20
1.457959731e+20
8.331198464e+19
1.24967977e+20
8.331198464e+19
6.248398848e+19
6.248398848e+19
1.24967977e+20
1.35381975e+20
7.289798656e+19
8.331198464e+19
5.20699904e+19
8.331198464e+19
1.041399808e+20
4.165599232e+19
6.248398848e+19
1.145539789e+20
1.35381975e+20
8.331198464e+19
1.041399808e+20
7.289798656e+19
7.289798656e+19
1.35381975e+20
8.331198464e+19
1.145539789e+20
1.35381975e+20
1.35381975e+20
1.145539789e+20
4.165599232e+19
1.24967977e+20
1.457959731e+20
6.248398848e+19
1.041399808e+20
9.372598272e+19
7.289798656e+19
1.24967977e+20
1.24967977e+20
3.124199424e+19
1.041399808e+20
9.372598272e+19
1.041399808e+20
1.041399808e+20
1.145539789e+20
6.248398848e+19
8.331198464e+19
8.331198464e+19
6.248398848e+19
1.041399808e+20
8.331198464e+19
6.248398848e+19
7.289798656e+19
8.331198464e+19
1.24967977e+20
1.457959731e+20
5.20699904e+19
9.372598272e+19
9.372598272e+19
4.165599232e+19
1.24967977e+20
9.372598272e+19
9.372598272e+19
1.145539789e+20
1.24967977e+20
9.372598272e+19
1.041399808e+20
1.24967977e+20
1.041399808e+20
1.24967977e+20
9.372598272e+19
4.165599232e+19
5.20699904e+19
1.562099712e+20
6.248398848e+19
8.331198464e+19
1.145539789e+20
9.372598272e+19
1.24967977e+20
8.331198464e+19
7.289798656e+19
1.145539789e+20
1.24967977e+20
9.372598272e+19
1.145539789e+20
9.372598272e+19
1.457959731e+20
1.041399808e+20
1.35381975e+20
1.041399808e+20
1.041399808e+20
1.35381975e+20
7.289798656e+19
7.289798656e+19
1.457959731e+20
8.331198464e+19
1.35381975e+20
1.145539789e+20
7.289798656e+19
7.289798656e+19
8.331198464e+19
9.372598272e+19
9.372598272e+19
1.562099712e+20
1.145539789e+20
1.666239693e+20
7.289798656e+19
7.289798656e+19
1.145539789e+20
8.331198464e+19
1.24967977e+20
8.331198464e+19
7.289798656e+19
8.331198464e+19
7.289798656e+19
1.457959731e+20
6.248398848e+19
1.666239693e+20
1.145539789e+20
8.331198464e+19
1.041399808e-281
1.24967977e+20
1.24967977e+20
7.289798656e+19
5.20699904e+19
8.331198464e+19
1.562099712e+20
9.372598272e+19
1.24967977e+20
7.289798656e+19
5.20699904e+19
1.145539789e+20
8.331198464e+19
1.562099712e+20
6.248398848e+19
5.20699904e+19
7.289798656e+19
9.372598272e+19
1.666239693e+20
1.457959731e+20
1.041399808e+20
1.041399808e+20
1.24967977e+20
1.35381975e+20
1.35381975e+20
5.20699904e+19
4.165599232e+19
1.874519654e+20
1.562099712e+20
1.24967977e+20
8.331198464e+19
1.24967977e+20
1.041399808e+20
3.124199424e+19
1.24967977e+20
1.35381975e+20
9.372598272e+19
9.372598272e+19
9.372598272e+19
1.35381975e+20
6.248398848e+19
7.289798656e+19
1.457959731e+20
1.24967977e+20
1.457959731e+20
4.165599232e+19
8.331198464e+19
1.35381975e+20
7.289798656e+19
1.35381975e+20
8.331198464e+19
9.372598272e+19
9.372598272e+19
1.041399808e+20
8.331198464e+19
1.145539789e+20
1.666239693e+20
7.289798656e+19
9.372598272e+19
8.331198464e+19
9.372598272e+19
1.041399808e+20
1.457959731e+20
1.145539789e+20
1.041399808e+20
9.372598272e+19
4.165599232e+19
1.35381975e+20
9.372598272e+19
1.041399808e+20
7.289798656e+19
1.145539789e+20
8.331198464e+19
1.041399808e+20
8.331198464e+19
1.145539789e+20
7.289798656e+19
1.457959731e+20
7.289798656e+19
7.289798656e+19
1.041399808e+20
5.20699904e+19
1.770379674e+20
1.35381975e+20
9.372598272e+19
5.20699904e+19
6.248398848e+19
6.248398848e+19
7.289798656e+19
1.562099712e+20
1.24967977e+20
9.372598272e+19
9.372598272e+19
9.372598272e+19
8.331198464e+19
9.372598272e+19
1.145539789e+20
7.289798656e+19
8.331198464e+19
1.562099712e+20
7.289798656e+19
8.331198464e+19
1.35381975e+20
7.289798656e+19
8.331198464e+19
1.145539789e+20
8.331198464e+19
9.372598272e+19
5.20699904e+19
1.24967977e+20
8.331198464e+19
8.331198464e+19
9.372598272e+19
1.041399808e+20
1.24967977e+20
1.24967977e+20
8.331198464e+19
1.24967977e+20
1.35381975e+20
8.331198464e+19
1.145539789e+20
1.35381975e+20
9.372598272e+19
1.24967977e+20
1.35381975e+20
9.372598272e+19
1.041399808e+20
1.35381975e+20
1.145539789e+20
1.35381975e+20
1.041399808e+20
1.562099712e+20
7.289798656e+19
6.248398848e+19
1.041399808e+20
1.457959731e+20
9.372598272e+19
1.145539789e+20
2.082799616e+19
2.082799616e+19
1.145539789e+20
7.289798656e+19
6.248398848e+19
7.289798656e+19
1.24967977e+20
1.35381975e+20
1.145539789e+20
1.562099712e+20
7.289798656e+19
7.289798656e+19
5.20699904e+19
1.145539789e+20
8.331198464e+19
1.041399808e+20
1.041399808e+20
5.20699904e+19
3.124199424e+19
1.145539789e+20
1.041399808e+20
1.041399808e+20
1.145539789e+20
1.145539789e+20
1.35381975e+20
1.145539789e+20
1.145539789e+20
9.372598272e+19
1.145539789e+20
5.20699904e+19
4.165599232e+19
9.372598272e+19
8.331198464e+19
8.331198464e+19
6.248398848e+19
1.24967977e+20
9.372598272e+19
1.24967977e+20
7.289798656e+19
1.457959731e+20
1.145539789e+20
1.041399808e+20
1.041399808e+20
9.372598272e+19
1.457959731e+20
1.145539789e+20
7.289798656e+19
7.289798656e+19
1.145539789e+20
8.331198464e+19
7.289798656e+19
8.331198464e+19
9.372598272e+19
1.145539789e+20
8.331198464e+19
8.331198464e+19
7.289798656e+19
5.20699904e+19
1.457959731e+20
6.248398848e+19
1.145539789e+20
1.145539789e+20
1.145539789e+20
5.20699904e+19
1.041399808e+20
4.165599232e+19
1.457959731e+20
6.248398848e+19
1.041399808e+20
9.372598272e+19
9.372598272e+19
1.145539789e+20
1.457959731e+20
7.289798656e+19
8.331198464e+19
1.041399808e+20
9.372598272e+19
7.289798656e+19
1.24967977e+20
1.145539789e+20
1.24967977e+20
1.24967977e+20
1.041399808e+20
1.041399808e+20
7.289798656e+19
9.372598272e+19
9.372598272e+19
7.289798656e+19
1.041399808e+20
6.248398848e+19
8.331198464e+19
9.372598272e+19
8.331198464e+19
6.248398848e+19
2.299204332e+20
3.577748765e+20
3.70847655e+20
2.7740752e+20
2.686107506e+20
3.354323804e+20
3.051286182e+20
3.731706433e+20
3.095369997e+20
3.117893059e+20
1.567639318e+20
1.578418573e+20
1.377434148e+20
2.560684801e+20
3.115884708e+20
2.272283869e+20
2.942311678e+20
2.195121433e+20
3.095369997e+20
2.449773118e+20
1.045092878e+20
1.367962763e+20
1.907216511e+20
2.240599201e+20
2.041441707e+20
1.514855911e+20
2.288464637e+20
2.524389648e+20
1.768782856e+20
2.227066471e+20
1.254111454e+20
1.367962764e+20
1.907216512e+20
1.1736472e+20
1.181887302e+20
2.596895848e+20
2.179490132e+20
2.63414572e+20
2.763723212e+20
2.783833088e+20
1.254111454e+20
1.473190668e+20
9.536082561e+19
1.493732801e+20
1.396775905e+20
1.082039937e+20
1.525643092e+20
1.31707286e+20
2.432076428e+20
1.558946531e+20
1.254111454e+20
1.473190668e+20
1.907216511e+20
1.493732799e+20
1.719108803e+20
1.839467891e+20
1.416668584e+20
1.865853215e+20
1.326587141e+20
2.44977312e+20
1.149602166e+20
6.31367429e+19
9.536082561e+19
1.387037601e+20
1.074443004e+20
2.164079875e+20
1.634617599e+20
1.536585003e+20
1.547684999e+20
1.781653177e+20
1.149602166e+20
5.261395245e+19
5.297823645e+19
9.602567996e+19
1.181887302e+20
7.574279557e+19
1.089745066e+20
1.31707286e+20
2.210978569e+20
2.115713147e+20
6.27055727e+19
9.470511435e+19
1.059564728e+20
6.401712002e+19
6.446658021e+19
1.514855911e+20
1.416668585e+20
9.878046449e+19
1.547684999e+20
2.895186412e+20
1.149602167e+20
1.157506954e+20
1.695303566e+20
1.1736472e+20
1.396775904e+20
1.298447925e+20
9.807705592e+19
1.207316788e+20
1.216038213e+20
1.55894653e+20
6.27055727e+19
1.578418572e+20
1.271477674e+20
1.066952e+20
8.595544022e+19
9.73835943e+19
1.743592104e+20
8.780485726e+19
1.216038213e+20
1.113533235e+20
1.045092878e+20
1.052279049e+20
1.059564729e+20
6.401711998e+19
7.52110102e+19
9.738359437e+19
1.198719577e+20
1.207316796e+20
1.326587148e+20
1.11353324e+20
1.776657893e+20
1.157506956e+20
7.416953128e+19
5.334760002e+19
9.669986985e+19
1.406651916e+20
1.416668583e+20
1.646341061e+20
1.326587136e+20
5.567666177e+19
9.405835873e+19
9.470511377e+19
1.589347082e+20
1.173647196e+20
1.289331604e+20
5.410199672e+19
7.628215418e+19
1.207316786e+20
1.10548928e+20
1.002179905e+20
1.463130037e+20
1.262734861e+20
1.165521201e+20
8.535616032e+19
9.669987098e+19
7.574279594e+19
9.807705606e+19
6.585364336e+19
1.105489288e+20
1.113533235e+20
8.360743015e+19
8.418232409e+19
6.357388413e+19
9.602568036e+19
1.181887304e+20
1.29844793e+20
1.089745067e+20
1.097560707e+20
5.5274464e+19
6.681199412e+19
1.045092877e+20
5.26139522e+19
5.297823606e+19
1.280342396e+20
1.289331604e+20
1.190243928e+20
3.269235202e+19
1.536585012e+20
1.105489288e+20
8.908265883e+19
1.254111452e+20
8.418232409e+19
8.476517884e+19
6.40171198e+19
1.074442996e+20
1.082039934e+20
4.358980239e+19
5.487803575e+19
1.105489288e+20
1.002179912e+20
9.405835955e+19
1.157506956e+20
8.476517826e+19
1.493732806e+20
1.289331604e+20
9.73835941e+19
4.358980269e+19
1.097560715e+20
1.326587136e+20
8.908265946e+19
4.180371508e+19
1.473190672e+20
1.165521201e+20
1.173647196e+20
7.521101025e+19
1.29844793e+20
9.807705606e+19
6.58536429e+19
1.216038217e+20
6.681199412e+19
9.405835892e+19
1.367962757e+20
1.271477674e+20
9.602568036e+19
1.396775905e+20
8.656319476e+19
7.628215471e+19
5.487803613e+19
8.843914303e+19
8.908265883e+19
1.463130028e+20
1.578418566e+20
1.059564728e+20
1.066952004e+20
)
;

boundaryField
{
    flow
    {
        type            zeroGradient;
    }
    obstacle
    {
        type            calculated;
        value           nonuniform List<scalar> 10(1e-300 1e-300 82.52338593 140.3262028 475.2436236 123.8997424 244.1306486 68.25484498 541.837288 310.9419739);
    }
    frontAndBack
    {
        type            empty;
    }
    procBoundary0to1
    {
        type            processor;
        value           nonuniform List<scalar> 
21
(
4.03810238e+20
3.365085319e+20
2.131220701e+20
2.131220701e+20
2.467729232e+20
1.794712172e+20
1.346034127e+20
1.570373148e+20
1.121695106e+20
2.131220701e+20
1.906881679e+20
1.009525599e+20
7.851865717e+19
1.233864613e+20
8.973560883e+19
2.019051184e+20
1.121695102e+20
8.973560883e+19
8.973560883e+19
7.851865717e+19
4.486780442e+19
)
;
    }
    procBoundary0to2
    {
        type            processor;
        value           nonuniform List<scalar> 
31
(
6.248398848e+19
1.145539789e+20
1.24967977e+20
7.289798656e+19
1.041399808e+20
1.24967977e+20
1.24967977e+20
9.372598272e+19
8.331198464e+19
1.145539789e+20
1.24967977e+20
1.145539789e+20
3.124199424e+19
5.20699904e+19
4.165599232e+19
1.770379674e+20
1.145539789e+20
9.372598272e+19
1.145539789e+20
9.372598272e+19
1.396775905e+20
9.73835941e+19
1.307694072e+20
1.317072858e+20
1.105489288e+20
6.681199412e+19
9.405835892e+19
1.788874387e+20
6.35738837e+19
1.396775905e+20
9.60256797e+19
)
;
    }
}


// ************************************************************************* //
