/*--------------------------------*- C++ -*----------------------------------*\
| =========                 |                                                 |
| \\      /  F ield         | OpenFOAM: The Open Source CFD Toolbox           |
|  \\    /   O peration     | Version:  2406                                  |
|   \\  /    A nd           | Website:  www.openfoam.com                      |
|    \\/     M anipulation  |                                                 |
\*---------------------------------------------------------------------------*/
FoamFile
{
    version     2.0;
    format      ascii;
    arch        "LSB;label=32;scalar=64";
    class       volScalarField;
    location    "0.006";
    object      rhoNMean;
}
// * * * * * * * * * * * * * * * * * * * * * * * * * * * * * * * * * * * * * //

dimensions      [0 -3 0 0 0 0 0];

internalField   nonuniform List<scalar> 
654
(
7.606037064e+19
9.785339729e+19
9.836021186e+19
9.835674053e+19
9.874552979e+19
9.86830458e+19
9.868998847e+19
9.916208971e+19
9.901629374e+19
9.849906517e+19
9.844005251e+19
9.843310985e+19
9.819011656e+19
9.805473459e+19
9.86934598e+19
9.920374571e+19
9.929747169e+19
1.01387214e+20
1.063720477e+20
1.366559541e+20
7.69906878e+19
9.916208971e+19
1.002000182e+20
9.974527361e+19
9.986677025e+19
1.002937442e+20
9.983205692e+19
9.942243967e+19
9.931482835e+19
9.947798099e+19
9.967931829e+19
1.000195089e+20
1.000854642e+20
1.005124381e+20
1.001410055e+20
1.009949534e+20
1.024702698e+20
1.053514759e+20
1.119608934e+20
1.30050008e+20
7.794877563e+19
1.009567687e+20
1.0096024e+20
1.005610368e+20
9.991536891e+19
1.002763875e+20
1.008352721e+20
1.004846675e+20
1.005679795e+20
1.002382028e+20
1.000646362e+20
1.003562282e+20
1.003284575e+20
1.008422147e+20
1.015920226e+20
1.014323413e+20
1.016614493e+20
1.039664142e+20
1.080591154e+20
1.190250554e+20
7.818482625e+19
9.92245737e+19
1.002139035e+20
1.000889355e+20
9.946756699e+19
9.912043372e+19
9.895380975e+19
9.902670774e+19
9.913779039e+19
9.993966824e+19
1.001305915e+20
1.001167062e+20
1.005506228e+20
9.968626095e+19
9.97869296e+19
9.9446739e+19
1.002659735e+20
1.020328819e+20
1.054174312e+20
1.132036305e+20
7.757734303e+19
9.987024158e+19
9.916556105e+19
9.930788569e+19
9.963766229e+19
9.983205692e+19
9.953699365e+19
9.907183506e+19
9.846782318e+19
9.837756853e+19
9.789505328e+19
9.796795127e+19
9.873164446e+19
9.905100707e+19
9.9394669e+19
1.01262246e+20
1.022133912e+20
1.038657455e+20
1.058027492e+20
1.093921072e+20
7.709829912e+19
9.865874647e+19
9.985982759e+19
9.946409566e+19
9.928705769e+19
9.962030563e+19
9.948145232e+19
1.002312602e+20
1.004430115e+20
1.005193808e+20
1.004916101e+20
1.003631708e+20
9.957864964e+19
9.974527361e+19
1.002104322e+20
9.964807629e+19
1.001687762e+20
1.01387214e+20
1.02838231e+20
1.057784498e+20
7.790017697e+19
1.001062922e+20
1.008283294e+20
1.003701135e+20
1.011338067e+20
1.009394121e+20
1.007484888e+20
1.000924069e+20
1.01074794e+20
1.01355972e+20
1.009324694e+20
1.01095622e+20
1.011511633e+20
1.005645081e+20
1.006304634e+20
1.001271202e+20
1.0132473e+20
1.017031052e+20
1.035116696e+20
1.052265079e+20
7.71920251e+19
9.912043372e+19
1.000646362e+20
1.001896042e+20
9.989106958e+19
9.990148358e+19
1.007936161e+20
1.014427553e+20
1.014462266e+20
1.008838707e+20
1.005853361e+20
9.981122893e+19
1.003319288e+20
1.005783935e+20
1.005575655e+20
1.015711946e+20
1.013316726e+20
1.016926912e+20
1.021856205e+20
1.025882951e+20
7.782033632e+19
1.007415461e+20
1.008665141e+20
1.003562282e+20
1.000056236e+20
9.984594226e+19
1.000993495e+20
9.988065558e+19
9.9446739e+19
9.948145232e+19
1.008179154e+20
1.005783935e+20
9.99778529e+19
9.988412691e+19
9.936342701e+19
9.962030563e+19
1.004499541e+20
1.008699854e+20
1.013733286e+20
1.031888356e+20
7.73725344e+19
9.844352385e+19
9.968626095e+19
9.976957294e+19
1.002486168e+20
1.003631708e+20
9.996396757e+19
9.998132423e+19
1.001687762e+20
1.002451455e+20
9.983205692e+19
9.985288492e+19
1.002659735e+20
1.003388715e+20
1.008803994e+20
1.013594433e+20
1.01470526e+20
1.005992214e+20
1.015920226e+20
1.020363532e+20
7.798696029e+19
9.992231157e+19
1.004916101e+20
1.000576935e+20
9.98077576e+19
9.88843831e+19
9.834979786e+19
9.840881052e+19
9.918638904e+19
9.947798099e+19
9.975568761e+19
1.002208462e+20
1.010574374e+20
1.007727881e+20
1.004916101e+20
9.905100707e+19
9.947450966e+19
1.003527568e+20
1.016163219e+20
1.020120539e+20
7.761899902e+19
9.975568761e+19
1.003666422e+20
9.97869296e+19
1.004916101e+20
1.008456861e+20
1.014427553e+20
1.01251832e+20
1.016718633e+20
1.004221835e+20
1.000889355e+20
9.928358636e+19
9.849906517e+19
9.950575165e+19
1.000090949e+20
1.012553033e+20
1.016545066e+20
1.009498261e+20
1.006651768e+20
1.015468953e+20
7.776132366e+19
9.975915894e+19
1.003562282e+20
1.003249862e+20
9.985635625e+19
9.9425911e+19
9.949880899e+19
9.917944638e+19
9.872123046e+19
9.950922298e+19
1.002555595e+20
1.004707821e+20
1.007380748e+20
1.006374061e+20
9.962377696e+19
1.004430115e+20
1.004811961e+20
1.01345558e+20
1.016440926e+20
1.01210176e+20
7.788629164e+19
1.003735848e+20
1.006582341e+20
1.009880107e+20
1.01199762e+20
1.010504947e+20
1.006131068e+20
1.012969593e+20
1.008248581e+20
1.001271202e+20
9.974180227e+19
9.992925424e+19
9.965154762e+19
9.996396757e+19
1.000681075e+20
9.916208971e+19
9.858584849e+19
9.841575319e+19
9.807209125e+19
9.962377696e+19
7.662619787e+19
9.932871368e+19
1.000958782e+20
9.951269432e+19
1.000438082e+20
1.002694448e+20
1.007380748e+20
1.005506228e+20
1.01053966e+20
1.01137278e+20
1.012969593e+20
1.010990934e+20
1.015989653e+20
1.008318007e+20
1.007137754e+20
1.001201775e+20
1.001444769e+20
1.002312602e+20
9.982511426e+19
9.995355357e+19
7.776479499e+19
9.987024158e+19
9.990842624e+19
9.994313957e+19
9.943979633e+19
1.002034895e+20
1.003874702e+20
1.000576935e+20
1.000993495e+20
9.996396757e+19
9.968626095e+19
9.918291771e+19
9.79505946e+19
9.870040247e+19
9.936342701e+19
1.002000182e+20
1.005367375e+20
1.002625022e+20
1.008075014e+20
1.000403369e+20
7.805985827e+19
9.933565635e+19
9.955782164e+19
9.984247092e+19
9.953352231e+19
9.950228032e+19
9.820053056e+19
9.887744043e+19
9.903712174e+19
9.915167572e+19
9.981470026e+19
1.002104322e+20
1.008248581e+20
1.011199214e+20
1.004430115e+20
1.002972155e+20
1.004811961e+20
1.007693168e+20
1.003701135e+20
1.005575655e+20
7.728227975e+19
9.943285366e+19
9.998132423e+19
1.002729162e+20
1.000264516e+20
9.923845903e+19
1.003839988e+20
1.002034895e+20
9.965501896e+19
9.914473305e+19
9.888091177e+19
9.899893708e+19
9.928358636e+19
9.947103832e+19
9.941202567e+19
9.965849029e+19
1.001548909e+20
9.950922298e+19
9.966196162e+19
9.984594226e+19
7.774743833e+19
9.987024158e+19
1.006235208e+20
9.972444561e+19
1.000021522e+20
1.005159095e+20
1.001028209e+20
1.001548909e+20
1.000472796e+20
9.995008224e+19
1.002416742e+20
9.980081493e+19
9.884966977e+19
9.844699518e+19
9.807209125e+19
9.810680458e+19
9.796447994e+19
9.834632653e+19
9.876288645e+19
9.857543449e+19
7.731005041e+19
9.967584695e+19
1.008873421e+20
1.008561001e+20
1.006443488e+20
1.009289981e+20
1.008665141e+20
1.009289981e+20
1.009775967e+20
1.005540941e+20
1.005193808e+20
1.004638395e+20
1.0116852e+20
1.01158106e+20
1.016197933e+20
1.011754627e+20
1.011407493e+20
1.014253986e+20
1.015260673e+20
1.015191246e+20
7.73933624e+19
9.9405083e+19
9.945021033e+19
9.945715299e+19
9.950922298e+19
9.946756699e+19
9.915514705e+19
9.755486268e+19
9.824912922e+19
9.891562509e+19
9.974180227e+19
9.997091023e+19
9.980428626e+19
1.000403369e+20
1.002347315e+20
1.006339348e+20
1.006894761e+20
1.001201775e+20
1.000785215e+20
9.971403161e+19
7.728227975e+19
9.891562509e+19
9.939814034e+19
9.853030716e+19
9.901629374e+19
9.879412845e+19
9.991536891e+19
1.007762594e+20
1.014427553e+20
1.01303902e+20
9.99882669e+19
9.991536891e+19
9.979040093e+19
9.99466109e+19
9.998479556e+19
9.986329892e+19
9.986329892e+19
9.966890429e+19
1.001757189e+20
1.002625022e+20
2.406918572e+20
2.766722226e+20
2.883534771e+20
3.003718835e+20
3.052098607e+20
3.090594603e+20
3.107299078e+20
3.134011453e+20
3.038031953e+20
3.065556997e+20
1.64556841e+20
1.976565889e+20
2.194570467e+20
2.376600016e+20
2.520822358e+20
2.603784837e+20
2.662755743e+20
2.714487164e+20
2.753847508e+20
2.729307078e+20
1.362905623e+20
1.581470182e+20
1.771239037e+20
1.954051458e+20
2.11081491e+20
2.252374332e+20
2.360714734e+20
2.453048201e+20
2.52353724e+20
2.564355688e+20
1.230701373e+20
1.370032246e+20
1.511857593e+20
1.659288185e+20
1.820751111e+20
1.971981717e+20
2.112943033e+20
2.212133624e+20
2.289026113e+20
2.374720978e+20
1.159774403e+20
1.242320644e+20
1.34822548e+20
1.477301741e+20
1.589996571e+20
1.695159834e+20
1.816314426e+20
1.920987351e+20
2.056394319e+20
2.182042612e+20
1.102747169e+20
1.164697527e+20
1.237677559e+20
1.31537399e+20
1.399068048e+20
1.516046154e+20
1.644388977e+20
1.75723129e+20
1.869566627e+20
1.974331545e+20
1.07804814e+20
1.117415121e+20
1.159799552e+20
1.230017832e+20
1.289868826e+20
1.386021024e+20
1.473952851e+20
1.584036211e+20
1.696225909e+20
1.810493687e+20
1.050388016e+20
1.075639644e+20
1.105726432e+20
1.157393964e+20
1.204880383e+20
1.26627527e+20
1.354153544e+20
1.428219175e+20
1.518242134e+20
1.609983469e+20
1.040807997e+20
1.065467612e+20
1.086618948e+20
1.118556912e+20
1.154417378e+20
1.192732622e+20
1.235807229e+20
1.305292375e+20
1.382598599e+20
1.465112796e+20
1.036035407e+20
1.047298262e+20
1.064791915e+20
1.076732394e+20
1.09177735e+20
1.141840678e+20
1.18600588e+20
1.225389955e+20
1.27212337e+20
1.32243207e+20
1.029730013e+20
1.034635836e+20
1.055997527e+20
1.068481298e+20
1.089341946e+20
1.104257823e+20
1.130537855e+20
1.172670454e+20
1.211284609e+20
1.258626616e+20
1.013461401e+20
1.018606119e+20
1.021455718e+20
1.031564758e+20
1.042854379e+20
1.06469123e+20
1.082879676e+20
1.120426572e+20
1.155162609e+20
1.1892535e+20
1.014889694e+20
1.02235925e+20
1.029543732e+20
1.035797002e+20
1.039093824e+20
1.058235057e+20
1.086584803e+20
1.088487539e+20
1.105194483e+20
1.138958911e+20
1.004682617e+20
1.008574386e+20
1.015168959e+20
1.017729945e+20
1.026236327e+20
1.027757598e+20
1.034022762e+20
1.051243653e+20
1.073245843e+20
1.089963441e+20
9.968444291e+19
9.987531234e+19
1.003831624e+20
1.017338736e+20
1.019324084e+20
1.034935136e+20
1.037292005e+20
1.047402198e+20
1.055115826e+20
1.075821576e+20
1.016387659e+20
1.023411529e+20
1.013438351e+20
1.011079284e+20
1.018751041e+20
1.019209489e+20
1.026685153e+20
1.032950967e+20
1.051099207e+20
1.054441738e+20
9.974018053e+19
9.99454636e+19
9.98569112e+19
1.003895134e+20
9.97118922e+19
1.005864323e+20
1.012082569e+20
1.015316839e+20
1.008501028e+20
1.031688543e+20
9.95590311e+19
9.873534337e+19
9.893509123e+19
9.936523945e+19
1.007648457e+20
1.008353015e+20
1.01026632e+20
1.019121709e+20
1.024198976e+20
1.030240949e+20
9.93674314e+19
1.008925154e+20
1.012979199e+20
1.016769695e+20
1.007003798e+20
1.004457671e+20
1.008232136e+20
1.007341224e+20
1.007137584e+20
1.018103444e+20
1.007817898e+20
1.007451964e+20
1.001147393e+20
9.989515894e+19
1.003314877e+20
1.007234914e+20
1.01397146e+20
1.01817049e+20
1.01240709e+20
1.007821814e+20
9.951722738e+19
9.971396221e+19
9.952491493e+19
9.946837882e+19
9.933225568e+19
9.861711963e+19
9.813154331e+19
9.846583097e+19
1.002383987e+20
1.003553269e+20
1.000711266e+20
9.954910516e+19
9.939776716e+19
9.973156032e+19
)
;

boundaryField
{
    flow
    {
        type            calculated;
        value           nonuniform List<scalar> 
42
(
7.606037064e+19
7.69906878e+19
7.794877563e+19
7.818482625e+19
7.757734303e+19
7.709829912e+19
7.790017697e+19
7.71920251e+19
7.782033632e+19
7.73725344e+19
7.798696029e+19
7.761899902e+19
7.776132366e+19
7.788629164e+19
7.662619787e+19
7.776479499e+19
7.805985827e+19
7.728227975e+19
7.774743833e+19
7.731005041e+19
7.73933624e+19
7.728227975e+19
7.606037064e+19
9.785339729e+19
9.836021186e+19
9.835674053e+19
9.874552979e+19
9.86830458e+19
9.868998847e+19
9.916208971e+19
9.901629374e+19
9.849906517e+19
9.844005251e+19
9.843310985e+19
9.819011656e+19
9.805473459e+19
9.86934598e+19
9.920374571e+19
9.929747169e+19
1.01387214e+20
1.063720477e+20
1.366559541e+20
)
;
    }
    obstacle
    {
        type            calculated;
        value           nonuniform List<scalar> 10(138.9215019 141.6739397 144.1639047 137.012132 152.1803222 147.3663374 142.5984741 142.3915253 143.2511731 137.4622379);
    }
    frontAndBack
    {
        type            empty;
    }
    procBoundary0to1
    {
        type            processor;
        value           nonuniform List<scalar> 
21
(
3.047869941e+20
2.72998155e+20
2.572869454e+20
2.409064578e+20
2.23897821e+20
2.088970188e+20
1.905311306e+20
1.716043952e+20
1.557997113e+20
1.400212e+20
1.32229158e+20
1.234986316e+20
1.162225685e+20
1.105617473e+20
1.096980428e+20
1.056748956e+20
1.042877326e+20
1.043625131e+20
1.026911874e+20
1.012554169e+20
1.003281497e+20
)
;
    }
    procBoundary0to2
    {
        type            processor;
        value           nonuniform List<scalar> 
31
(
7.723020976e+19
9.970708895e+19
1.0096024e+20
1.002416742e+20
1.004013555e+20
1.001132349e+20
1.001653049e+20
9.96064203e+19
9.899893708e+19
9.923845903e+19
9.969320362e+19
1.002104322e+20
9.985635625e+19
9.941896833e+19
9.971056028e+19
9.931482835e+19
9.962377696e+19
9.88739691e+19
9.823524389e+19
9.803043526e+19
1.001846471e+20
1.002113251e+20
1.003982124e+20
1.003902201e+20
1.003710574e+20
1.013278126e+20
9.890062258e+19
9.938424878e+19
1.000405698e+20
1.001846471e+20
9.9390135e+19
)
;
    }
}


// ************************************************************************* //
