/*--------------------------------*- C++ -*----------------------------------*\
| =========                 |                                                 |
| \\      /  F ield         | OpenFOAM: The Open Source CFD Toolbox           |
|  \\    /   O peration     | Version:  2406                                  |
|   \\  /    A nd           | Website:  www.openfoam.com                      |
|    \\/     M anipulation  |                                                 |
\*---------------------------------------------------------------------------*/
FoamFile
{
    version     2.0;
    format      ascii;
    arch        "LSB;label=32;scalar=64";
    class       volScalarField;
    location    "0.006";
    object      translationalT;
}
// * * * * * * * * * * * * * * * * * * * * * * * * * * * * * * * * * * * * * //

dimensions      [1 2 -2 0 0 0 0];

internalField   nonuniform List<scalar> 
654
(
289.1320971
302.3613182
293.6979248
297.9389903
299.1499261
298.7967773
299.7026754
300.3054111
300.8094438
299.0182014
296.3393086
297.6469167
297.3963971
302.7241217
311.6442976
324.8515525
360.8908677
457.4735863
696.1383098
1341.057562
287.3723285
302.6316126
299.2092853
299.2601449
300.1299968
300.4692405
300.9029216
300.9593844
302.5531448
301.1764477
300.6520853
302.1371315
310.728611
317.2986676
322.9142609
344.2884427
390.4655522
487.4711221
731.9710119
1145.764288
291.2440933
309.0501668
299.8975109
299.2108437
296.8447732
297.7299392
295.1187041
297.0089191
297.760275
298.9666722
297.169482
296.1549128
300.589215
311.3577264
318.038826
337.4320299
381.7503061
474.9192689
654.5030553
908.7023665
286.97291
303.796905
296.4935448
297.6741003
295.4055638
295.7220119
294.5514447
295.6879055
296.6834961
296.4706538
300.2783152
299.2607649
302.0764939
305.8197763
322.0385063
342.2769229
373.530658
453.2329573
566.2620002
757.4968625
289.0898078
305.4843861
298.1847443
296.2690524
299.0140361
300.9203085
302.2513146
302.4176265
301.5074288
299.4252932
298.3946687
299.8625106
298.7260233
302.163331
308.2709269
328.6575387
360.6981633
423.8159274
499.019559
618.7167463
289.1814825
304.5983653
299.2166377
301.5267095
299.5906492
295.387857
296.4784709
297.323682
298.2213606
303.1628288
300.8499195
298.9546438
301.3260562
300.7128084
312.1261661
323.9202162
351.1644381
414.2100913
450.7048681
544.4763739
288.3797588
304.4645561
298.9632602
300.7213982
303.5248374
303.9113799
301.6279022
299.505373
299.1144991
300.3677133
301.7082737
303.1211714
303.3331597
307.0402365
308.8175017
315.2201815
346.191268
363.0412686
409.3140662
475.4335822
286.7425567
302.7439178
297.6652185
301.3411383
297.1653822
299.7038392
301.38569
303.7120766
302.7522499
302.7620119
300.8309815
302.1391961
301.0579658
304.6628493
315.0466367
320.2671843
326.291314
351.6966615
377.2208756
405.8965579
293.2974655
309.9188018
298.9244404
299.5207458
300.7716705
301.0813956
302.095413
302.7997703
301.9020415
301.9990718
304.0253897
301.8554242
301.5702688
306.7957684
307.8270297
312.7525566
322.3291696
336.8634299
358.5148392
381.888929
292.3465825
305.093844
299.867067
297.6925819
299.2963658
299.91536
297.2436845
296.2793237
299.1262706
301.8866309
302.6650763
304.8604045
308.717239
305.591395
309.4983192
313.8773362
317.6079546
323.2669973
343.3728164
372.9533849
289.452451
304.2187518
300.0310062
300.8057199
299.5259823
298.6268294
298.0823979
301.7278664
301.9883299
301.9105799
301.380535
298.813224
301.9462436
303.0539438
309.1310745
306.6616654
311.7787072
314.1989176
329.9761726
354.4087093
291.5992353
307.8019216
301.7129915
299.0516411
299.1664774
298.436945
299.4327181
297.5257899
303.8166785
300.6780055
299.9543367
299.6314219
299.3524198
301.3808125
302.0514658
308.5701919
314.317468
314.449919
320.0959422
339.1469874
291.9880831
308.3974431
299.6819207
301.056412
300.9961248
301.0635096
301.9346231
303.8179747
301.7668051
301.2248227
302.3079991
301.576591
302.9698597
303.7849623
304.5581669
306.495953
306.4832083
312.1315833
317.3170507
321.7531626
289.2060022
304.2696675
299.902623
301.1773123
300.5779871
302.4440513
301.481257
301.7309579
300.3626434
300.3286763
303.7459254
301.8055955
300.2417007
298.6337176
300.3683379
299.2471436
303.1159636
307.9398685
311.0594978
319.0567472
293.9155548
310.9976702
302.8498939
299.6072618
300.9097221
298.6603122
297.7874831
295.2583827
298.5097701
298.4581167
296.5745586
297.8568875
297.3630466
297.3391114
298.3405264
301.1160464
305.2481327
305.6180728
305.3877732
308.2870819
290.0243644
304.3903623
298.3844422
298.8054378
298.9388823
299.9155898
301.7055061
300.2811762
300.000122
301.035992
302.4747571
300.5369689
300.221641
301.2903505
300.539807
301.831104
302.5485
303.8055514
306.7497073
312.6103896
293.8851342
308.4579547
299.6028055
300.5339373
301.1106469
300.0232478
299.2958514
299.5172116
300.9474467
299.5273867
299.4745065
301.0079192
300.4268286
301.8929703
301.0042803
304.2761433
303.599536
307.1872854
304.7792506
312.8008266
290.6054401
304.8041887
301.1113741
300.657373
301.1314042
301.6610329
300.728267
298.8873307
297.4172756
296.9215349
297.0930572
295.5230549
298.0100573
300.0774577
303.148499
301.6571128
298.5527568
300.1490205
300.2416987
305.5183925
286.7190197
303.3712616
296.9357177
297.8623033
299.3369581
299.7889144
302.3449123
302.2386421
303.2372436
305.1128492
302.1301706
302.4473231
300.4060175
298.8944299
299.1728113
301.8571459
302.2019237
299.9052631
302.0676719
299.43629
292.1804118
308.4296402
301.4924003
299.171078
298.2998391
297.1412746
297.7287558
297.7158041
295.9518105
294.8382379
294.6914825
295.7099008
300.1271573
300.1665493
299.9357498
299.759025
297.8890854
299.6617073
302.2649982
303.7076097
291.2270798
305.9125223
296.9026906
299.6372181
300.7284147
301.0063652
299.3358946
298.1725611
299.7265812
301.1263859
301.8198162
303.7555146
302.2651973
300.9512224
300.6382658
302.0315818
303.7028786
303.3955942
302.0332661
302.5064719
291.1512515
306.6982691
299.0961488
300.3522342
299.726146
300.1450037
299.4630932
300.8312219
302.2241408
301.2120376
299.8363034
300.4320813
301.2671949
302.8203633
304.034777
300.8926402
300.0148821
304.3945673
303.4452911
303.2741476
1390.802805
1247.818334
1189.295246
1126.968583
1079.718972
1043.585946
1021.644514
984.2899405
977.8664288
950.8991053
1327.587248
1301.337094
1249.914017
1207.047153
1171.251969
1142.722999
1108.406037
1087.499773
1068.541755
1054.265936
1119.286267
1186.697136
1184.995789
1178.34201
1159.386889
1137.392656
1106.636582
1083.111348
1066.89699
1042.877956
921.9447116
1036.455636
1080.418404
1110.958245
1108.513666
1082.913238
1078.608021
1050.229747
1049.343644
1044.58036
765.3403451
877.7284082
949.6103224
1012.24004
1024.610243
1035.705639
1046.024928
1028.852081
1024.06599
1014.647842
649.3220474
752.516076
832.9389565
887.7670461
921.0648516
954.5032539
985.3576995
991.2309559
1002.098899
986.7854953
535.3789238
634.0143283
684.7687149
780.1375247
810.2113153
867.1305645
897.9061789
929.73
933.8911764
945.8855498
472.6973846
549.9265021
581.2840195
670.7352983
714.6132573
773.6261267
808.8239785
852.1564434
885.2628771
888.4533252
438.843394
478.8480345
511.4305799
577.2072845
619.3295706
680.5839966
730.8795835
772.7800359
810.9335652
825.8513744
397.0187075
421.4064286
459.0628569
510.9455033
528.9597327
601.6646669
638.3829705
679.8792848
726.6584684
752.3551322
367.9857883
399.2490732
427.7947303
456.1613625
481.07868
533.8943478
577.8309228
616.1671586
653.0870317
668.9789823
352.4211679
376.7757771
393.5584163
425.8781483
441.6489275
475.559967
508.8776164
533.4252471
577.6690874
600.5994789
341.5116239
355.8972278
376.7536345
382.468842
396.7696323
432.7106926
455.1910441
475.4406378
509.0481093
543.5155566
332.9626446
339.5301586
353.3346164
363.3077461
379.5550498
388.7081843
416.7342863
437.7984777
470.1007857
493.0248751
322.8338572
324.1657301
333.5675109
341.0156121
360.0861551
368.1969826
385.7999542
408.6782601
431.116717
448.1630637
309.8872709
318.2541267
327.0596729
334.8639321
346.1236724
355.9017075
365.6580613
378.5138224
397.5257489
413.6058128
314.5358084
316.7827328
321.0945359
321.036035
324.5936175
337.9679761
351.2566636
357.2422769
363.4538521
384.6916604
312.21791
313.2126574
310.842624
316.4277907
319.8515866
321.9956524
332.4296909
337.4707289
351.3625988
360.3687179
302.9038023
309.3714899
311.9761097
315.3104367
317.3038719
318.4449974
326.5880053
335.2295182
335.5739386
348.8421026
304.6533049
306.7864753
307.0342895
308.3579297
311.7898954
313.7115544
316.4589544
325.740848
333.4696016
335.6053293
302.2828667
302.4717836
305.0399582
302.9768805
307.4153558
309.2564398
312.2111784
320.0684498
325.0115877
325.8546058
298.7051878
301.9322559
304.2717328
305.7848623
)
;

boundaryField
{
    flow
    {
        type            calculated;
        value           nonuniform List<scalar> 
42
(
289.1320971
287.3723285
291.2440933
286.97291
289.0898078
289.1814825
288.3797588
286.7425567
293.2974655
292.3465825
289.452451
291.5992353
291.9880831
289.2060022
293.9155548
290.0243644
293.8851342
290.6054401
286.7190197
292.1804118
291.2270798
291.1512515
289.1320971
302.3613182
293.6979248
297.9389903
299.1499261
298.7967773
299.7026754
300.3054111
300.8094438
299.0182014
296.3393086
297.6469167
297.3963971
302.7241217
311.6442976
324.8515525
360.8908677
457.4735863
696.1383098
1341.057562
)
;
    }
    obstacle
    {
        type            calculated;
        value           nonuniform List<scalar> 10(1200.187569 1088.372566 998.7501968 978.8371496 892.7566279 870.1658409 881.3250379 830.8084831 806.4334921 829.1267689);
    }
    frontAndBack
    {
        type            empty;
    }
    procBoundary0to1
    {
        type            processor;
        value           nonuniform List<scalar> 
21
(
935.0869907
1025.914553
1023.792755
1024.752688
1002.986613
972.3055151
947.1625842
904.0117367
849.4701594
789.7872403
705.3743146
644.9604657
573.4874312
516.1282703
468.0361153
436.4987831
405.175418
382.3819164
361.5792704
350.7335151
333.42399
)
;
    }
    procBoundary0to2
    {
        type            processor;
        value           nonuniform List<scalar> 
31
(
284.7026893
302.22612
297.3223951
298.5740401
298.7278443
297.8183615
300.1227928
302.4445489
301.355014
300.3387318
303.2354063
301.6463148
300.7915503
300.4695369
299.2698911
299.4743733
300.1511341
299.270487
300.9168055
302.5503637
305.269203
308.5766503
304.6520942
308.5831484
314.3363161
318.7101547
303.3580901
306.2205472
303.4211074
305.269203
304.2614314
)
;
    }
}


// ************************************************************************* //
