/*--------------------------------*- C++ -*----------------------------------*\
| =========                 |                                                 |
| \\      /  F ield         | OpenFOAM: The Open Source CFD Toolbox           |
|  \\    /   O peration     | Version:  2406                                  |
|   \\  /    A nd           | Website:  www.openfoam.com                      |
|    \\/     M anipulation  |                                                 |
\*---------------------------------------------------------------------------*/
FoamFile
{
    version     2.0;
    format      ascii;
    arch        "LSB;label=32;scalar=64";
    class       volVectorField;
    location    "0.006";
    object      UMean;
}
// * * * * * * * * * * * * * * * * * * * * * * * * * * * * * * * * * * * * * //

dimensions      [0 1 -1 0 0 0 0];

internalField   nonuniform List<vector> 
654
(
(1708.691098 -9.079595353 -2.648881519)
(1746.546727 -7.282030363 -3.426913929)
(1739.237923 -8.096981779 -2.010126384)
(1738.87124 -7.456093068 -0.9909086521)
(1736.90045 -7.831797444 -1.596731096)
(1738.660276 -8.204347846 -0.4508216846)
(1738.403579 -8.433034173 2.601812949)
(1736.778945 -9.429224385 0.1863233878)
(1734.162506 -7.14100978 1.926429019)
(1732.971805 -7.419553075 0.9993959541)
(1734.67465 -4.805597233 0.6954028864)
(1732.010103 -3.359969468 -1.493435928)
(1732.069227 -2.624153593 -1.748016611)
(1732.535033 -3.084270022 -2.800275239)
(1728.249956 -2.095139946 -2.03413051)
(1724.037449 -5.642098453 -1.889292729)
(1709.999656 -8.295172655 0.7273161772)
(1670.352417 -14.8629374 0.5800871363)
(1571.420728 -19.8777765 -1.461936492)
(1174.993345 12.24357592 -0.9729569658)
(1710.899016 0.2469989493 -1.153330895)
(1747.494596 -1.311740616 -0.7083408306)
(1735.352648 -0.2883418369 0.1387192174)
(1734.940497 -2.220291512 -2.856934468)
(1736.030143 -1.563635803 -2.833545006)
(1734.560464 -4.110482661 -4.564531211)
(1734.345544 -5.631686392 -7.27805858)
(1735.650902 -1.246492714 -4.567112062)
(1737.599997 -1.348581434 -3.219324845)
(1739.862595 -0.4700344844 -0.7927353362)
(1739.970156 -1.879275645 0.1698619589)
(1739.440314 -2.085352001 1.547267247)
(1736.13283 -1.342082625 1.231476092)
(1731.445351 -2.292700183 1.505057682)
(1730.371204 -1.591905714 -1.030514063)
(1722.961254 -2.927777982 0.004080373939)
(1705.622248 0.09423199011 4.10098633)
(1663.950715 2.766235667 1.190285596)
(1556.048739 20.29641743 2.4260958)
(1310.991726 71.51393398 1.134239578)
(1707.63008 -0.1592588472 3.760168408)
(1743.31628 -1.590320551 3.418668167)
(1735.924237 -4.309219098 1.616204444)
(1736.159425 -4.377966252 1.655004459)
(1736.382831 -5.154098145 1.938416169)
(1735.198479 -2.731135789 1.872552799)
(1736.223394 -0.1957761536 3.282107849)
(1737.412008 0.09792999714 3.730763286)
(1733.84701 0.1721122057 0.9576399657)
(1733.05611 -0.4368512167 -0.09928679034)
(1731.046355 -0.7652116756 -1.846299981)
(1730.740601 -3.254952676 -3.075970368)
(1731.578428 -4.545567122 -2.561949027)
(1726.592847 -2.932690725 -2.296309821)
(1724.237338 -3.280053972 -3.295456367)
(1718.466293 0.1653575594 -0.7037516384)
(1701.839586 2.426132746 0.1916144785)
(1668.854401 10.36552682 -0.4050031662)
(1588.252804 27.66760011 1.37958284)
(1449.625423 65.35179539 3.715974373)
(1707.908183 -3.783767292 -0.9689500038)
(1740.179519 -2.487967303 -1.543479624)
(1731.144924 -1.115256794 -0.4894322239)
(1731.524504 -1.173264301 1.500302761)
(1734.732763 1.806838881 0.9667343294)
(1737.388403 0.03064290754 -0.09132821165)
(1737.660274 -2.520188082 -2.134751677)
(1736.346521 -4.049853075 -3.328324685)
(1736.792595 -4.716442943 -2.925374466)
(1736.391437 -1.928418215 -1.861264518)
(1736.305329 -0.1647986038 -0.4198400046)
(1736.952757 3.172974392 -1.998163937)
(1735.514895 5.634648746 -2.543953311)
(1732.060359 4.711016957 1.678175609)
(1725.037459 3.216566795 2.475759851)
(1716.934851 -0.209771457 2.776128195)
(1702.526358 3.644276695 1.678210872)
(1673.858585 11.00941438 3.74239482)
(1625.467212 23.24900455 -0.0005330771096)
(1532.693156 56.54733883 -1.198674106)
(1706.805413 -1.54886787 1.163919185)
(1745.210864 -2.213817144 2.995381735)
(1741.127521 -0.6241298846 2.982434002)
(1739.383787 0.4186283492 1.935281586)
(1738.357976 0.8355493413 2.436683965)
(1736.246678 1.434782341 1.195184375)
(1734.478842 4.880574148 5.205079073)
(1735.590611 2.89725438 4.191092411)
(1736.963278 1.028462588 2.956271186)
(1737.633637 -0.4481478034 2.481286053)
(1739.60917 -3.667994391 5.185927177)
(1735.797473 -3.914820143 4.056068183)
(1736.356546 -2.894044794 3.149885279)
(1734.186833 -0.9864019992 0.6260223649)
(1731.529583 2.457666109 0.8104831984)
(1724.250174 4.496890726 -1.960674514)
(1708.293236 6.667246654 -1.328067317)
(1684.320953 11.43426796 -2.612886899)
(1648.556191 20.74964662 -2.85839443)
(1593.7955 44.3031232 -0.8541274106)
(1711.138742 5.002228341 -1.142395332)
(1747.155546 4.250669373 -1.724024326)
(1736.391803 3.413879556 -0.2238086682)
(1733.862603 2.996357857 -1.891914194)
(1734.40719 2.555048865 -1.047077014)
(1733.48619 -1.020463681 1.048353292)
(1735.781139 -1.341037222 -1.865963984)
(1736.520307 -1.251004953 -2.756059608)
(1735.232583 0.2597165009 -0.5785718628)
(1734.341531 2.089789711 -0.2715838529)
(1733.772119 2.686253118 -1.860460852)
(1737.215101 1.087772026 -1.557567874)
(1736.95773 -2.063447228 -1.807097562)
(1737.298056 -5.591310346 -2.075796312)
(1733.437629 -3.36369412 -0.6284070701)
(1727.293925 -2.253190434 -0.3710374899)
(1716.694391 4.274753101 -2.730439612)
(1690.004443 15.12617141 -5.023089288)
(1672.745801 19.25748772 -5.3679425)
(1634.626698 37.78065722 -4.820892441)
(1707.70705 2.111337806 -4.047945582)
(1744.906364 3.450137161 -3.994208036)
(1736.242959 3.369370266 -5.168489675)
(1735.993287 2.383680709 -5.540117164)
(1735.004268 1.137977333 -6.801512121)
(1734.783664 2.479637821 -6.585345005)
(1736.577367 -0.2340128499 -4.907357326)
(1732.435542 -2.68854338 -5.81712137)
(1731.572278 -1.701714627 -5.579373958)
(1731.360341 -2.512031611 -3.303161035)
(1730.683516 -1.657642107 -4.693974788)
(1727.420093 -2.148247213 -3.426885515)
(1728.070746 2.451536818 -0.4315254192)
(1727.549915 4.109803548 -2.787104174)
(1725.701588 2.460787857 -2.394015923)
(1722.870143 2.756461124 -3.862863978)
(1711.453711 5.751976761 -5.384172238)
(1705.492427 6.213942835 -6.106408406)
(1689.184272 15.56512129 -2.694231545)
(1659.520663 28.22919195 -2.231605859)
(1710.581292 -5.111089645 -7.305101981)
(1745.334429 -3.500065257 -7.687328624)
(1733.443088 -2.854280004 -6.931009634)
(1732.778925 -1.764982416 -5.672912572)
(1733.162502 -0.1239485974 -3.671013243)
(1735.253928 0.1012031703 -5.391200075)
(1733.573125 3.743506545 -5.570820123)
(1732.953774 2.705890317 -3.940008458)
(1732.201439 2.125068757 -4.250898952)
(1733.657639 0.454883048 -6.685285251)
(1732.633235 -0.989652385 -5.495114042)
(1735.656695 0.4428124119 -6.045762114)
(1733.401063 1.813154739 -5.841996227)
(1733.268754 1.738669742 -4.684580308)
(1728.823535 3.983326684 -5.258877427)
(1728.996062 3.546728621 -3.793597505)
(1728.651426 2.738157775 -1.410389768)
(1716.604397 8.602903234 -4.754375215)
(1705.677457 13.08783847 -3.643372795)
(1692.607162 18.23495655 -3.825170354)
(1705.236828 -0.737084085 -3.127987705)
(1742.374155 0.4552262807 -2.980661116)
(1736.197778 -0.1904428613 -3.884618429)
(1736.466821 -0.660462849 -3.363343365)
(1734.735862 -2.546242927 -3.747233086)
(1735.109103 -0.6453202005 -3.651669974)
(1733.878367 -2.852434391 -2.295894907)
(1736.685258 0.1510592276 -2.111588905)
(1737.441304 1.513488245 -1.91640359)
(1736.23648 3.937439426 -0.9614455083)
(1734.785149 3.564326957 -0.03289823414)
(1735.767564 3.317181483 -3.643022252)
(1734.711075 -0.8378202044 -3.033621129)
(1735.81686 -0.1742428968 -2.453340005)
(1735.323592 -1.999819956 -1.599100701)
(1731.841305 0.7953179496 -1.888031231)
(1727.102528 4.402494051 -2.006625023)
(1721.154548 7.808785822 -4.561635332)
(1711.216907 11.93614927 -4.731273503)
(1703.656342 20.69889274 -1.938043884)
(1710.338495 -0.3454345496 5.442812726)
(1748.210969 -3.447386991 4.278293349)
(1737.277604 -3.94026259 3.872578582)
(1738.039505 -2.944908372 3.906682926)
(1736.164774 -1.077231939 2.627759913)
(1735.114993 -1.172492701 2.337451433)
(1735.818691 -1.062499518 3.124389389)
(1733.127288 -0.3288299666 0.1915280188)
(1734.178445 1.654381231 -1.584622205)
(1735.53624 2.968983969 -2.255203385)
(1734.030037 3.114456186 -0.2697329491)
(1736.108356 4.019549991 0.5058898812)
(1735.843418 2.275328346 3.005071282)
(1735.432535 2.002089626 0.7861350695)
(1734.322995 2.008322291 -0.6031251366)
(1733.604309 2.781144249 -0.6275595393)
(1730.506776 2.844869482 0.803157249)
(1730.93901 7.207769172 1.473467302)
(1719.700643 11.11120374 1.096737127)
(1708.527417 14.67417805 -0.9797851646)
(1701.861925 3.71670281 -1.717437778)
(1737.949306 4.520307365 -2.037554052)
(1730.67249 1.833302527 -2.97261415)
(1732.024693 0.5685757697 -2.111515759)
(1733.11404 0.8751953449 -1.476153321)
(1736.622883 -2.316727526 -0.5648555852)
(1734.852395 -1.231889384 0.7209968218)
(1737.421286 -0.8380797433 -1.010815658)
(1736.875688 -1.355875477 -0.4511691532)
(1734.034611 -1.267959066 -0.8298454708)
(1736.292198 -2.55073016 -1.847334515)
(1734.186235 -2.109685186 -1.35974249)
(1732.468675 1.395379036 -2.108102047)
(1732.20093 2.962401551 -3.517499423)
(1731.321245 4.673979942 -3.844490555)
(1731.476268 3.120397952 -0.9982078457)
(1731.819741 2.642339724 -1.028721858)
(1732.078378 -1.912071963 -1.461095561)
(1724.658578 2.768991762 -1.338644467)
(1717.209452 11.0572302 2.15379344)
(1708.418326 -0.5899197122 1.266725576)
(1743.91788 -1.720685758 0.7766391031)
(1732.197004 1.062414975 2.136402906)
(1728.797487 0.5522118775 0.5529039639)
(1730.943794 -0.8981438461 0.04703665902)
(1729.810585 0.1300015494 -1.215583035)
(1728.484046 1.906338644 -1.933344069)
(1728.97763 -2.233473485 -1.025348622)
(1725.60822 -1.474275971 0.1419950716)
(1728.499011 -1.395607145 -1.218562103)
(1729.722274 0.5826689867 -1.626726092)
(1731.302143 1.95993661 -2.787228627)
(1733.434395 0.5343779429 -2.014138555)
(1734.388191 -0.09006618619 -0.6869612908)
(1732.96713 -1.302146325 0.6712733477)
(1730.459616 -0.627212566 -0.3189553535)
(1728.664177 -0.4564832212 0.3720481303)
(1725.018786 1.536625824 0.2620813175)
(1724.567911 1.431376301 -2.049001631)
(1718.550625 4.622004539 2.595604127)
(1702.464734 2.854835676 -0.5141066351)
(1738.93294 1.72169246 -2.467144494)
(1733.554278 -0.05203005566 -1.267804618)
(1734.391835 0.8342886999 -1.096295802)
(1733.641869 0.07499108442 -2.294129191)
(1734.56342 0.918687863 -2.415785134)
(1735.145767 -2.159414785 -2.009697693)
(1735.174264 0.01140459967 -4.155557258)
(1736.004725 1.512363275 -2.060045902)
(1737.111217 -0.2578512817 -1.517299401)
(1735.85724 -1.502163565 0.8355281645)
(1734.302102 -5.016587274 0.5084937414)
(1734.06845 -6.629891994 0.5763926391)
(1731.599969 -5.175873547 -0.06450921066)
(1733.18733 -2.582427492 0.7748271707)
(1731.18694 -3.114558 -0.04203686349)
(1733.983351 -1.423257166 -0.06161006076)
(1733.989846 0.4538408544 0.8400454094)
(1732.638375 2.959692475 2.780647077)
(1729.857554 6.806534979 1.003717938)
(1704.477746 0.1465787173 -2.694362361)
(1743.351996 0.0009525521257 -2.500937168)
(1735.600141 2.572624411 -1.978868222)
(1734.329013 2.629875665 -3.21574342)
(1735.843232 0.7193020276 -0.5341581803)
(1735.55952 3.025681018 -0.5702997858)
(1737.618367 4.1551808 2.293109011)
(1739.323276 1.462812626 3.298630208)
(1739.149571 -1.194581667 2.947069992)
(1737.463217 -2.998133997 4.501086332)
(1736.548167 -2.116791232 0.8349249748)
(1736.483986 -0.6997757271 1.487423021)
(1737.168541 0.7447933983 2.225380734)
(1738.624656 -1.75596017 2.613462057)
(1738.446574 -1.806879626 2.052878091)
(1736.609056 -1.711450114 -0.1058523981)
(1734.405654 -0.6400842664 -1.971370188)
(1730.69254 -0.06099176035 -0.1796251106)
(1729.313357 1.138640744 -3.165008028)
(1726.549178 2.380492987 -1.712869469)
(1713.402484 0.02487389405 4.377291891)
(1750.086906 0.3605050628 3.750613368)
(1739.566869 -0.4257166176 4.371738497)
(1740.488194 -2.25906325 4.079211234)
(1739.375512 0.269202143 2.428187651)
(1738.00053 -0.9091593623 -0.3378888317)
(1736.226454 -1.567515252 0.07152397453)
(1735.489779 -1.290691035 -3.344551198)
(1734.693976 0.5042502906 -1.555715337)
(1734.714531 1.772699537 -1.480531639)
(1735.951448 1.563136306 -1.067557629)
(1737.153893 -2.99969342 -0.4357009499)
(1737.002155 -0.8282988553 -1.428425976)
(1737.613433 0.7781581423 -3.580697299)
(1735.750178 2.611482808 -3.884763665)
(1735.167625 4.785125059 -1.963017419)
(1733.495061 3.797721666 -2.320218919)
(1732.929384 2.467234153 -2.136724405)
(1734.536319 4.52430828 -0.3479023426)
(1732.550281 0.8241789971 -2.193195784)
(1708.836391 -5.443668389 1.406248359)
(1745.822372 -6.007657003 0.8967830821)
(1737.115995 -3.843280183 0.9034043511)
(1735.82502 -0.5133041162 1.783753233)
(1733.267159 -1.632955143 2.094660287)
(1734.878311 -1.766204287 3.168857221)
(1734.421932 0.7787875973 2.897080418)
(1736.458657 -0.5228741408 3.231372247)
(1736.714138 -2.531228057 0.9962875514)
(1735.267847 -0.8845133988 0.3863864289)
(1734.587178 0.5903199643 0.5171221698)
(1736.368478 5.723723945 -0.1504632697)
(1737.1981 6.577542419 2.855173781)
(1737.113684 4.818474317 3.542822412)
(1736.408701 1.690703516 4.098988549)
(1738.66191 -0.2203256644 1.603781313)
(1736.428764 0.9217233567 -0.9773934223)
(1737.690049 3.004285966 -0.6603443591)
(1733.202918 3.858748366 -3.298750253)
(1731.651737 4.493165747 -3.067686364)
(1704.863335 6.491833317 0.2643399489)
(1744.144207 5.205576387 1.257455351)
(1735.834581 -1.579778962 -0.4760492183)
(1735.417516 -1.900348315 -2.485416914)
(1735.787253 -1.93838674 -1.594124336)
(1736.095027 -2.13120773 -2.565503377)
(1736.107615 -0.1318059626 -2.774743262)
(1737.367243 1.102625475 -2.198106273)
(1734.342309 1.977567858 -1.924544867)
(1736.714705 1.747382264 -1.93985349)
(1735.974942 0.8904997033 -1.024835696)
(1736.693288 0.4581730328 -1.676051419)
(1733.937868 -1.73994749 -3.369004965)
(1735.156283 -0.446337914 -4.311239697)
(1734.785342 0.9575102514 -3.947620033)
(1730.192398 -0.3838340656 -2.416787063)
(1729.608702 0.9360698046 -1.242646074)
(1730.140388 -0.9042813393 0.8317055658)
(1730.451071 2.400730778 1.766815761)
(1728.604943 2.282156724 2.25297173)
(1712.167738 -2.022688002 0.6256816101)
(1748.123149 -3.487193205 -0.396670835)
(1738.371937 1.855865127 0.2740239316)
(1736.928416 5.318678425 0.5213664665)
(1739.253915 5.361173996 2.015809181)
(1739.46263 1.171861383 0.4928383658)
(1738.722439 -1.473097192 0.7619293038)
(1739.73287 -1.600403155 1.011613588)
(1740.733981 -3.93690976 1.611202183)
(1738.335277 -5.17070734 0.7449228572)
(1736.188719 -3.675053416 0.2996533573)
(1736.472558 -2.757731654 1.251500447)
(1731.903208 -0.1562460804 1.045898654)
(1733.499611 -0.09477935807 2.300984703)
(1735.447505 1.408152056 3.312431418)
(1736.999763 4.115284759 4.008451991)
(1739.95903 2.643159992 3.568489022)
(1738.768868 1.585696834 1.461397669)
(1738.38026 2.919826458 2.382295147)
(1737.191189 3.441027164 0.8636864624)
(1706.147884 3.488312723 -1.793316122)
(1742.15999 1.647780713 -1.981772719)
(1735.034438 2.000485261 -2.379786043)
(1733.336135 -2.260135574 -0.2971492619)
(1734.234335 -2.661417159 -4.167496873)
(1733.176584 1.90846496 -3.232282397)
(1732.954429 3.566231624 -1.856974195)
(1733.794333 3.403039121 -0.2886329986)
(1733.48866 4.580026742 -0.2362616726)
(1736.279377 4.435207203 -0.0777455874)
(1734.114106 1.093098224 -0.1286991102)
(1734.831832 0.8833524699 -0.3288394901)
(1737.35699 0.4622573409 -0.1923089256)
(1737.331326 -1.353575114 -0.8831158303)
(1736.881134 -1.143746859 -2.821241506)
(1734.564155 -1.587568179 -3.298211653)
(1734.582106 -0.05860025501 -2.029975519)
(1734.329031 0.77707126 0.2640868316)
(1734.470026 0.9055479231 0.4607813684)
(1734.922117 0.6145129237 1.620306631)
(1712.123092 -0.341742001 -2.833321123)
(1747.658046 0.9808381546 -3.751242551)
(1737.732271 -1.047916329 -3.930503981)
(1737.689654 0.9380262662 -3.694810456)
(1738.841731 2.404180395 -2.610658854)
(1736.866998 2.260533571 -0.7681339896)
(1737.053474 -1.600865491 -0.8071002552)
(1735.841962 2.332812114 -1.46577565)
(1737.139997 0.7993853957 -2.253672193)
(1735.310778 3.970391033 -4.937521865)
(1736.787843 3.734026272 -3.820226081)
(1738.117905 4.41410573 -2.917864448)
(1737.807057 5.49090125 -2.728203051)
(1738.131689 6.604118561 -3.177563862)
(1736.317148 3.314033964 -1.575122131)
(1739.405435 2.104783743 -2.253350459)
(1737.65049 0.8122275525 -0.8960122645)
(1740.217825 -1.454706603 -2.198277933)
(1736.841464 0.2932647549 -3.215449969)
(1734.391597 -2.711441452 -3.60212567)
(1711.776304 -6.491796402 0.3565098568)
(1749.224885 -2.982539696 0.5768179404)
(1739.130127 2.410052093 0.0377645053)
(1739.891641 1.145114506 -0.0191700368)
(1737.770093 1.524804528 -1.499341736)
(1736.658989 1.863828136 -0.9734468708)
(1740.39341 3.748393082 -0.8916822276)
(1739.865231 1.227512758 -3.74697802)
(1740.530055 1.654581951 -0.5083889935)
(1741.764339 0.620057187 -0.4875437749)
(1742.176779 0.5230671922 -0.369918162)
(1740.39914 0.7356530142 -2.980782058)
(1738.34687 -2.127133083 -1.510534725)
(1737.878729 -0.4969420252 0.9776845813)
(1737.002383 2.84523504 2.000647347)
(1735.901548 1.778441395 2.557124994)
(1735.671743 2.329166454 0.6971103708)
(1733.925055 1.049554301 0.7557340191)
(1735.225678 0.2899529286 1.037998323)
(1734.083453 0.9425723187 -0.6813489961)
(1707.632247 2.913876249 1.483818784)
(1747.45472 2.394236647 0.5503419094)
(1739.107371 -3.577623839 -1.064558071)
(1741.135963 -0.8945327608 -0.9344766134)
(1739.747171 0.1909956253 -0.9214335444)
(1739.81747 2.015775547 -0.3644658829)
(1736.352618 1.980435779 -1.783646822)
(1738.620902 2.293356199 0.6865841311)
(1735.673773 1.941272472 1.833852574)
(1733.530066 1.658300094 -0.1298733165)
(1732.949887 2.773982859 3.378373068)
(1731.014327 -0.5450730839 0.8116213824)
(1731.266201 -0.4862671515 -0.5198604497)
(1731.78033 -2.204571518 -2.641789477)
(1732.659106 -3.578827392 -4.877845919)
(1735.777579 -2.430003176 -3.99758898)
(1733.248206 -0.3645485817 -2.604903733)
(1733.150324 3.265039103 -3.957020741)
(1735.37411 3.698699815 -3.570020466)
(1736.248437 6.797385495 -3.562397508)
(670.1011533 151.3020181 -3.922040173)
(604.887201 171.1845015 0.3738461889)
(575.6896365 164.1682257 0.5545263009)
(532.7112797 151.3342736 2.87422621)
(499.8743917 148.3411581 4.30310506)
(473.7894766 136.4021986 0.9191693256)
(444.901115 126.6794254 0.09872132407)
(418.0996211 123.11229 -5.233565195)
(408.7047099 114.7966824 -3.488746477)
(393.252031 114.0054404 -0.2517099034)
(1070.420815 161.2043407 -9.450839188)
(950.1041653 220.2917003 -6.863167008)
(898.5908589 240.9272495 3.209192558)
(859.6057993 250.1689199 -0.139756614)
(822.1074001 246.262879 -5.996572531)
(785.4231798 243.427992 -6.56779403)
(752.9808912 232.9208543 -4.251130741)
(717.6424598 225.0069722 -8.837563724)
(688.3217097 211.0319396 -2.020601689)
(666.9121687 199.6875334 -0.106517002)
(1290.741582 136.8730104 3.274743375)
(1178.335151 199.8718141 -8.780302479)
(1110.116361 243.0052223 -0.5877384577)
(1058.904362 268.7470656 -7.654315354)
(1010.872961 284.0766934 -6.165013378)
(982.7848247 296.2363718 -4.374703153)
(951.2362219 294.8734875 -7.093655119)
(922.4437371 291.4687657 -3.949375535)
(893.0129848 282.2916759 -4.212551559)
(855.5342212 278.5584435 -3.106960331)
(1432.735861 104.2188518 3.088081078)
(1330.844794 160.6496201 2.125910958)
(1256.716389 207.7037368 3.009094087)
(1195.920956 249.7127455 -0.6171752913)
(1146.055305 279.3224788 4.58925258)
(1117.044878 295.5428511 -3.228846997)
(1086.874782 312.8561931 2.843018267)
(1069.520916 321.4821165 -4.24546009)
(1042.581037 328.4757089 -0.7278603931)
(1010.142004 325.0954607 -2.662100474)
(1513.773864 82.89960793 -3.656962418)
(1440.699407 124.6391371 -0.2025679897)
(1382.228933 169.4124737 1.696449121)
(1317.692167 207.4706947 -0.04264416434)
(1282.210013 240.391718 2.181024166)
(1239.51959 279.1946805 4.571149634)
(1198.163574 306.1470243 1.684895496)
(1178.70033 326.0480044 1.786352662)
(1144.622601 341.46836 -0.6800662896)
(1118.130179 341.5941271 3.184712329)
(1584.053209 60.94358513 -1.967943912)
(1529.593102 93.80241758 0.8404645961)
(1478.660723 134.1237062 8.787661336)
(1429.207306 174.1977238 4.847416446)
(1390.119923 213.3047893 1.272138043)
(1341.977079 243.188184 -2.484174956)
(1295.667962 279.0217156 -3.032892189)
(1265.244503 298.4715518 0.3895348723)
(1234.696457 323.0510253 0.001672452856)
(1213.464942 337.277985 -1.717870777)
(1633.333504 46.31092837 -0.5522409858)
(1588.611709 71.80113725 -1.151775878)
(1554.217005 97.05420555 -5.039795474)
(1501.207447 137.4046537 -0.9266237005)
(1473.462836 167.1228677 0.5800253333)
(1429.353993 205.1813317 -6.972430011)
(1394.439766 235.7380949 -5.769907733)
(1352.987848 269.2516137 -3.787323148)
(1325.186029 293.9036336 -3.953518207)
(1294.217779 318.027568 -0.3628950104)
(1664.402006 35.7415876 -4.199447114)
(1626.485741 56.20533472 -5.792059563)
(1611.529763 73.32460687 1.032949404)
(1565.607727 101.1089109 -1.275968765)
(1543.06237 128.1307212 2.887748965)
(1503.031378 162.4683629 2.743452595)
(1468.919106 192.0178399 -1.276222581)
(1430.250145 224.0534328 -2.631172183)
(1390.809601 255.1619945 -2.10057846)
(1364.850649 282.4433955 2.977081904)
(1677.113024 31.39604221 -4.886890528)
(1661.660307 40.72329635 -0.5946535842)
(1644.853057 56.23930749 -1.883894467)
(1613.920475 74.17216259 -4.493253137)
(1592.358445 96.64467024 3.765975581)
(1561.778736 123.770702 7.230940811)
(1532.87165 155.7613051 1.382899076)
(1500.284877 185.1688336 -2.546748178)
(1472.239095 212.5658859 -3.440482194)
(1441.856841 242.6086377 -3.84566266)
(1698.785632 18.92092752 -0.2525801117)
(1687.97343 29.31249876 -3.044182172)
(1674.509727 39.81983746 -1.300363294)
(1652.913926 56.84662375 -0.7372507454)
(1641.78946 74.69791757 -2.617389636)
(1605.138496 98.88845333 0.3997139854)
(1584.353932 120.7662081 -4.373770826)
(1561.277935 141.8806114 0.8628635999)
(1533.724342 174.5115305 0.7358262467)
(1510.998751 200.0938519 -2.291969624)
(1710.667799 14.30222425 -0.9307823618)
(1696.406191 24.11707719 1.052770464)
(1687.874756 31.07170919 -3.943531884)
(1674.796549 45.57205094 -0.7428974246)
(1664.129408 55.52002896 -1.1257526)
(1640.110785 73.72123196 -2.818355254)
(1618.520492 97.03117634 2.619754948)
(1591.14622 116.062465 3.433106462)
(1570.168796 144.356342 6.760245517)
(1554.546943 163.9961639 4.388623969)
(1717.060682 8.625759133 2.994789348)
(1707.012008 13.02034037 4.348501226)
(1700.47261 20.61976674 3.20316143)
(1685.622513 32.4872244 5.291124291)
(1677.33501 38.94115732 3.575031236)
(1664.058248 53.61376654 3.117447824)
(1647.27384 69.96989249 2.425811297)
(1628.193934 87.052438 -2.697628524)
(1606.477885 104.7835785 -0.7525020657)
(1597.426219 124.7134999 -1.766761151)
(1719.120289 13.46599652 1.747578417)
(1709.959709 17.88518408 2.585521229)
(1702.03834 22.89199311 2.418558213)
(1699.641514 25.36765264 -1.465001173)
(1692.877514 32.55769542 -2.777070351)
(1678.438137 43.31930816 -4.434827951)
(1668.005164 48.47094359 -2.859140418)
(1664.750915 62.28377827 -4.619125405)
(1650.184088 79.62564221 -5.153746353)
(1630.006579 96.9822614 -4.116812681)
(1720.926026 4.40077916 -1.53192948)
(1717.618071 5.443395444 -2.033638398)
(1713.311065 13.18214701 -2.912090122)
(1710.150515 18.50072559 -0.6249625552)
(1702.027366 22.84207463 -4.16809711)
(1699.234408 27.05987853 -3.59456232)
(1687.570325 35.16733447 -2.579867012)
(1683.019424 47.23128897 -2.483974774)
(1667.314649 58.6372108 -4.675552389)
(1656.715465 73.50043117 -0.9996963014)
(1728.146195 6.262202699 -2.371314517)
(1723.539107 7.843663288 -4.721772139)
(1725.071764 8.247490666 -2.916312268)
(1719.492697 8.866007572 -1.725787884)
(1715.46043 16.07089203 0.3658606739)
(1715.458937 21.26619828 1.095316559)
(1706.897713 30.54015181 1.414438207)
(1698.108691 37.54664268 -0.009919045015)
(1689.573309 51.04433252 2.038556036)
(1680.357654 59.69752887 2.641437132)
(1733.982083 1.980141659 -2.83386686)
(1732.166038 3.395859793 -2.115481096)
(1728.839906 7.235248463 -4.305953505)
(1727.936491 10.23898677 0.8014442259)
(1721.813417 13.2227657 -0.3910974671)
(1716.100559 18.5768131 0.2977044757)
(1711.674646 22.37265285 -1.009991176)
(1703.625064 27.77632727 -0.08531102033)
(1692.637599 32.22477732 1.249107471)
(1684.980361 40.28188563 0.2225227369)
(1727.986559 4.825940539 3.909767382)
(1728.762479 1.058590166 5.122121599)
(1727.823191 2.16356613 3.054650207)
(1726.911293 4.394454312 2.883481588)
(1725.319737 7.474922675 2.200608096)
(1720.211999 13.55151002 4.043170889)
(1712.793944 12.37090888 4.801269982)
(1712.121262 20.54919592 4.421157663)
(1711.747026 28.95105991 4.985321684)
(1705.302728 36.89823096 2.646009808)
(1732.992668 4.939652739 0.6620484483)
(1730.940359 9.155785264 -0.6375924196)
(1731.342056 6.117547744 1.059291252)
(1727.729971 5.691842718 0.4124366565)
(1723.95851 4.975765317 0.04181078663)
(1723.581386 5.087232439 -4.88784426)
(1720.103531 14.19128774 -5.884310215)
(1720.073194 16.18335764 -4.069779177)
(1715.178817 17.82652169 -4.654059266)
(1710.718425 24.37000498 -3.022056861)
(1733.453557 2.851054901 0.3742901335)
(1731.814837 1.867231282 -2.894435022)
(1730.804675 4.004195284 -3.521082236)
(1728.993057 4.131484774 -4.62215576)
(1734.147366 6.375443004 -5.540581126)
(1734.222945 9.348828427 -0.6777113889)
(1729.664289 10.42541531 -4.209495815)
(1726.206943 12.93229944 -4.116203991)
(1721.106183 17.91979871 -1.785331876)
(1716.335758 19.1868601 -1.642068745)
(1735.978974 -3.473058825 -2.678949122)
(1735.030325 -3.228568499 -3.212728016)
(1734.931508 -1.454414324 0.5406723735)
(1734.398512 5.159156132 0.6335829528)
(1731.878933 7.598474471 0.1874193292)
(1730.702509 6.917541885 -0.2164172918)
(1729.782014 10.71227554 0.4498732323)
(1726.364914 15.50859139 -0.1075427225)
(1724.738016 16.2911715 -0.8947609583)
(1724.798041 16.32400949 -1.953810844)
(1734.985409 1.817028222 0.03282464675)
(1735.795551 5.38772358 0.2270440169)
(1736.507115 5.564274342 -1.457040962)
(1736.547982 4.182715375 -0.5116910033)
(1736.72855 4.387683961 0.5759835005)
(1734.132178 6.037936283 0.4365642481)
(1731.710418 5.019889615 0.7415169791)
(1727.266197 7.468639249 -2.851243055)
(1727.103998 11.87725447 1.402536372)
(1725.795811 12.43729257 5.488981039)
(1737.302619 4.546126283 -3.136790336)
(1736.722132 6.744505393 -2.697310014)
(1732.537676 6.75258964 -4.395737262)
(1734.884141 8.042098381 -4.703499873)
)
;

boundaryField
{
    flow
    {
        type            calculated;
        value           nonuniform List<vector> 
42
(
(1708.691098 -9.079595353 -2.648881519)
(1710.899016 0.2469989493 -1.153330895)
(1707.63008 -0.1592588472 3.760168408)
(1707.908183 -3.783767292 -0.9689500038)
(1706.805413 -1.54886787 1.163919185)
(1711.138742 5.002228341 -1.142395332)
(1707.70705 2.111337806 -4.047945582)
(1710.581292 -5.111089645 -7.305101981)
(1705.236828 -0.737084085 -3.127987705)
(1710.338495 -0.3454345496 5.442812726)
(1701.861925 3.71670281 -1.717437778)
(1708.418326 -0.5899197122 1.266725576)
(1702.464734 2.854835676 -0.5141066351)
(1704.477746 0.1465787173 -2.694362361)
(1713.402484 0.02487389405 4.377291891)
(1708.836391 -5.443668389 1.406248359)
(1704.863335 6.491833317 0.2643399489)
(1712.167738 -2.022688002 0.6256816101)
(1706.147884 3.488312723 -1.793316122)
(1712.123092 -0.341742001 -2.833321123)
(1711.776304 -6.491796402 0.3565098568)
(1707.632247 2.913876249 1.483818784)
(1708.691098 -9.079595353 -2.648881519)
(1746.546727 -7.282030363 -3.426913929)
(1739.237923 -8.096981779 -2.010126384)
(1738.87124 -7.456093068 -0.9909086521)
(1736.90045 -7.831797444 -1.596731096)
(1738.660276 -8.204347846 -0.4508216846)
(1738.403579 -8.433034173 2.601812949)
(1736.778945 -9.429224385 0.1863233878)
(1734.162506 -7.14100978 1.926429019)
(1732.971805 -7.419553075 0.9993959541)
(1734.67465 -4.805597233 0.6954028864)
(1732.010103 -3.359969468 -1.493435928)
(1732.069227 -2.624153593 -1.748016611)
(1732.535033 -3.084270022 -2.800275239)
(1728.249956 -2.095139946 -2.03413051)
(1724.037449 -5.642098453 -1.889292729)
(1709.999656 -8.295172655 0.7273161772)
(1670.352417 -14.8629374 0.5800871363)
(1571.420728 -19.8777765 -1.461936492)
(1174.993345 12.24357592 -0.9729569658)
)
;
    }
    obstacle
    {
        type            calculated;
        value           nonuniform List<vector> 10((426.2451203 114.2120357 -3.547300007) (338.6529746 90.74179109 -4.191994127) (317.8467185 85.16677152 2.025795643) (281.9425535 75.54627951 3.934735304) (274.8625574 73.64920025 -0.7456040178) (247.1934867 66.23529526 17.80482538) (204.825357 54.88278882 16.01461346) (217.404309 58.25330913 2.211882786) (217.2369906 58.20847631 -24.30146602) (216.4764237 58.00468274 2.621404337));
    }
    frontAndBack
    {
        type            empty;
    }
    procBoundary0to1
    {
        type            processor;
        value           nonuniform List<vector> 
21
(
(378.1030301 104.6926655 1.435579707)
(643.4500538 200.3172575 -8.750504835)
(840.3196409 269.6821342 -10.40183752)
(992.453562 314.899149 0.8866243926)
(1106.968636 345.071171 0.9153897037)
(1185.9291 349.2192032 -1.462967589)
(1271.982746 337.709611 -0.8590051092)
(1336.818913 309.9080943 -2.773751208)
(1416.652808 273.824202 1.843238163)
(1475.203881 230.555109 0.8456468864)
(1528.766641 188.1961052 -0.140581776)
(1571.163683 149.1712557 1.791503557)
(1619.003246 112.7676028 -4.60318818)
(1642.922236 91.32139788 -1.782139599)
(1670.474101 66.98181647 -1.337994326)
(1677.149433 54.24501944 3.01486871)
(1696.766746 45.241925 2.208507609)
(1703.430484 33.82290046 -2.412934931)
(1707.536799 23.82303181 0.4584637635)
(1719.60085 19.35498503 -5.1533697)
(1724.168795 14.09115135 6.916616139)
)
;
    }
    procBoundary0to2
    {
        type            processor;
        value           nonuniform List<vector> 
31
(
(1708.608636 0.1236672256 -0.3224817758)
(1741.059917 0.5050162614 -0.03518237772)