/*--------------------------------*- C++ -*----------------------------------*\
| =========                 |                                                 |
| \\      /  F ield         | OpenFOAM: The Open Source CFD Toolbox           |
|  \\    /   O peration     | Version:  2406                                  |
|   \\  /    A nd           | Website:  www.openfoam.com                      |
|    \\/     M anipulation  |                                                 |
\*---------------------------------------------------------------------------*/
FoamFile
{
    version     2.0;
    format      ascii;
    arch        "LSB;label=32;scalar=64";
    class       volScalarField;
    location    "0.011";
    object      dsmcRhoNMean;
}
// * * * * * * * * * * * * * * * * * * * * * * * * * * * * * * * * * * * * * //

dimensions      [0 -3 0 0 0 0 0];

internalField   nonuniform List<scalar> 
546
(
27.29945455
27.18545455
26.67763636
26.57236364
25.92981818
25.74363636
25.89181818
25.55236364
25.488
25.01345455
24.69909091
24.67363636
24.15381818
24.29054545
24.23236364
23.40454545
22.57072727
22.98672727
22.74090909
22.24309091
21.79036364
21.85836364
21.28581818
20.83854545
19.99763636
19.31381818
18.38618182
17.61254545
16.01963636
13.20418182
24.61109091
24.368
23.97272727
23.88963636
23.52963636
23.67054545
23.38945455
23.13618182
22.83763636
22.58618182
22.58327273
22.59763636
22.36272727
22.20363636
21.95218182
21.47654545
21.10472727
21.18509091
20.82672727
20.37981818
20.14927273
19.86381818
19.71090909
19.07909091
18.53618182
18.05236364
17.14109091
16.01181818
14.47509091
12.21090909
22.996
23.02854545
22.85890909
22.76272727
22.36527273
22.21345455
22.10345455
21.77418182
21.92145455
21.55218182
21.42254545
21.504
21.19890909
20.95254545
20.72436364
20.19109091
20.21781818
20.15163636
19.62927273
19.43618182
18.956
18.69472727
18.946
18.06290909
17.44036364
16.84745455
16.34345455
15.37709091
14.11981818
12.27109091
21.50909091
21.64872727
22.05290909
21.94163636
21.89909091
21.70981818
21.80945455
21.42836364
21.19890909
20.99181818
20.82036364
20.62272727
20.55509091
20.29236364
19.976
19.74854545
19.55490909
19.36545455
19.19727273
18.85509091
18.49072727
18.29254545
17.98727273
17.63218182
17.20272727
16.67563636
16.02327273
14.96963636
14.16072727
12.81836364
20.20181818
20.41090909
20.98363636
21.37163636
21.41636364
21.17454545
21.126
21.01072727
20.97563636
20.71454545
20.448
20.50563636
20.37290909
20.18054545
19.94309091
19.64818182
19.19854545
19.06963636
18.85327273
18.59
18.28109091
17.88236364
17.54854545
17.24236364
16.80581818
16.50490909
16.15254545
14.97981818
14.09763636
12.86890909
18.77036364
19.37581818
19.95509091
20.25818182
20.44472727
20.43127273
20.552
20.64436364
20.64436364
20.51436364
20.55890909
20.39345455
20.02072727
19.97909091
19.67545455
19.52945455
19.10963636
19.10327273
18.84745455
18.54272727
18.23672727
17.75727273
17.45618182
17.19981818
16.82854545
16.374
15.76709091
15.14818182
14.36145455
13.15636364
16.96272727
17.81618182
18.42872727
18.94127273
19.58490909
19.88745455
20.05909091
20.196
20.14927273
20.23036364
20.21581818
20.28563636
20.124
19.886
19.75290909
19.52127273
19.23636364
19.11818182
18.81890909
18.546
18.34872727
17.94836364
17.5
17.19218182
16.95018182
16.31109091
15.86890909
15.25545455
14.49563636
13.59818182
15.29236364
16.15563636
16.94090909
17.71018182
18.16563636
18.75072727
19.32527273
19.634
19.71218182
19.868
19.94745455
20.08254545
19.82236364
19.824
19.82072727
19.70254545
19.56636364
19.192
18.91236364
18.81145455
18.56272727
18.11872727
17.77963636
17.34418182
17.03527273
16.576
16.17436364
15.49218182
14.96418182
14.20890909
14.01363636
14.69509091
15.47781818
16.24363636
16.94109091
17.50981818
18.138
18.53654545
18.94145455
19.15527273
19.34072727
19.75672727
19.82145455
19.73363636
19.62381818
19.68418182
19.50563636
19.304
19.06072727
18.876
18.58509091
18.31818182
17.96145455
17.59581818
17.22454545
16.97581818
16.42472727
15.79836364
15.17818182
14.52072727
12.61963636
13.20854545
13.87545455
14.59654545
15.48218182
16.10672727
16.78490909
17.43636364
17.97454545
18.45490909
18.80945455
19.15036364
19.21127273
19.36436364
19.45381818
19.44036364
19.37254545
19.40181818
19.00127273
18.84872727
18.78018182
18.52563636
18.21963636
17.74636364
17.54072727
17.16454545
16.65836364
16.16181818
15.49054545
14.70727273
11.80745455
12.33181818
12.876
13.53454545
14.11036364
14.79563636
15.50036364
16.15018182
16.90036364
17.55909091
18.02018182
18.33581818
18.73163636
19.078
19.12581818
19.10290909
19.228
19.24145455
19.14509091
18.92709091
18.86054545
18.63236364
18.34309091
18.15418182
17.57818182
17.26418182
16.90072727
16.51709091
15.98327273
15.26345455
11.08781818
11.54309091
11.94981818
12.45036364
13.03636364
13.61763636
14.28272727
14.92981818
15.622
16.23363636
16.85654545
17.362
17.82781818
18.32745455
18.61527273
18.78181818
18.82672727
18.94890909
19.06890909
18.93254545
18.81727273
18.72618182
18.45781818
18.25363636
17.90327273
17.54327273
17.14163636
16.67963636
16.36418182
15.91090909
10.46090909
10.73509091
11.15036364
11.48818182
11.884
12.44545455
13.03090909
13.52909091
14.15163636
14.73036364
15.35
16.21272727
16.86272727
17.34727273
17.82127273
18.11309091
18.42472727
18.68654545
18.72072727
18.81272727
18.68545455
18.76218182
18.56545455
18.408
18.11290909
17.854
17.50181818
17.15272727
16.63181818
16.12018182
9.969636364
10.17763636
10.40254545
10.82545455
11.20145455
11.57927273
12.00509091
12.49654545
13.05927273
13.75854545
14.44527273
14.902
15.50945455
16.21709091
16.79363636
17.25309091
17.69490909
18.08
18.29236364
18.48163636
18.54436364
18.436
18.59636364
18.49854545
18.24854545
18.01672727
17.86781818
17.43272727
16.954
16.38909091
9.756909091
9.915454545
10.08472727
10.19
10.52218182
10.85181818
11.17963636
11.59563636
12.14
12.64727273
13.21509091
13.73145455
14.42618182
15.05654545
15.68509091
16.33090909
16.80127273
17.18036364
17.69672727
18.02672727
18.28090909
18.50509091
18.542
18.47018182
18.39818182
18.08890909
18.02145455
17.79309091
17.32527273
16.82254545
9.467818182
9.500909091
9.664545455
9.767272727
9.957636364
10.19872727
10.572
10.93090909
11.28745455
11.65236364
12.16854545
12.78036364
13.25909091
13.89418182
14.53709091
15.12127273
15.67854545
16.17963636
16.612
17.11072727
17.48854545
17.79545455
17.98036364
18.13127273
18.18854545
18.13036364
17.92090909
17.71309091
17.45163636
9.421090909
9.401636364
9.417090909
9.590181818
9.670727273
9.881636364
10.07436364
10.32709091
10.58109091
10.96727273
11.32490909
11.68672727
12.13145455
12.58418182
13.22436364
13.82290909
14.59145455
15.26818182
15.91981818
16.21309091
16.71
17.23763636
17.52090909
17.82
17.78054545
9.229272727
9.283090909
9.351272727
9.393818182
9.464909091
9.524
9.588181818
9.716
9.972181818
10.24654545
10.492
10.86145455
11.27581818
11.79127273
12.31654545
12.87109091
13.38436364
13.98836364
14.50836364
9.189818182
9.188909091
9.196181818
9.210909091
9.227272727
9.307636364
9.421636364
9.473272727
9.612181818
9.714727273
10.05945455
10.30636364
10.62672727
10.95727273
9.116727273
9.098727273
9.069090909
9.045090909
9.101272727
9.063636364
9.120181818
9.220909091
9.031454545
)
;

boundaryField
{
    flow
    {
        type            calculated;
        value           nonuniform List<scalar> 
15
(
13.20418182
12.21090909
12.27109091
12.81836364
12.86890909
13.15636364
13.59818182
14.20890909
14.52072727
14.70727273
15.26345455
15.91090909
16.12018182
16.38909091
16.82254545
)
;
    }
    obstacle
    {
        type            calculated;
        value           nonuniform List<scalar> 
30
(
27.29945455
27.18545455
26.67763636
26.57236364
25.92981818
25.74363636
25.89181818
25.55236364
25.488
25.01345455
24.69909091
24.67363636
24.15381818
24.29054545
24.23236364
23.40454545
22.57072727
22.98672727
22.74090909
22.24309091
21.79036364
21.85836364
21.28581818
20.83854545
19.99763636
19.31381818
18.38618182
17.61254545
16.01963636
13.20418182
)
;
    }
    frontAndBack
    {
        type            empty;
    }
    procBoundary1to0
    {
        type            processor;
        value           nonuniform List<scalar> 
21
(
27.54472727
24.51
22.95690909
21.40854545
19.72490909
17.79763636
16.16436364
14.56290909
13.25909091
12.04872727
11.35436364
10.772
10.27072727
9.895272727
9.596727273
9.459090909
9.377636364
9.212545455
9.200545455
9.140909091
9.147818182
)
;
    }
    procBoundary1to3
    {
        type            processor;
        value           nonuniform List<scalar> 
36
(
17.11618182
17.79618182
17.89836364
17.72890909
17.11618182
17.49272727
15.16018182
15.67
16.31945455
16.68945455
17.12654545
17.79618182
17.52218182
11.37309091
11.93981818
12.35654545
12.902
15.16018182
13.53963636
9.317272727
9.433454545
9.473454545
9.691818182
9.909818182
11.37309091
10.19963636
9.028545455
8.994545455
8.965818182
8.986
9.022909091
9.007090909
9.317272727
9.029454545
9.028545455
9.054
)
;
    }
}


// ************************************************************************* //
