/*--------------------------------*- C++ -*----------------------------------*\
| =========                 |                                                 |
| \\      /  F ield         | OpenFOAM: The Open Source CFD Toolbox           |
|  \\    /   O peration     | Version:  2406                                  |
|   \\  /    A nd           | Website:  www.openfoam.com                      |
|    \\/     M anipulation  |                                                 |
\*---------------------------------------------------------------------------*/
FoamFile
{
    version     2.0;
    format      ascii;
    arch        "LSB;label=32;scalar=64";
    class       volVectorField;
    location    "0.011";
    object      fD;
}
// * * * * * * * * * * * * * * * * * * * * * * * * * * * * * * * * * * * * * //

dimensions      [1 -1 -2 0 0 0 0];

internalField   uniform (0 0 0);

boundaryField
{
    flow
    {
        type            zeroGradient;
    }
    obstacle
    {
        type            calculated;
        value           nonuniform List<vector> 
30
(
(0 0 0)
(7.993665753 -7.5821125 -2.574432449)
(0 0 0)
(1.558046864 -1.561132094 -0.06564360546)
(0 0 0)
(1.34840046 -4.945631413 0.2710757504)
(4.114284149 -4.577136674 -2.859653468)
(2.791846743 -3.610147146 -0.889262734)
(3.650666707 -2.617614846 0.5896345261)
(0 0 0)
(1.731302014 -3.755197277 0.4272682581)
(2.543357244 -2.426261075 0.200641126)
(0 0 0)
(1.084225074 -2.339574523 2.140019693)
(2.913367839 -4.725149257 4.372041861)
(-0.4985544515 -1.72612958 0.3102947485)
(5.684021346 -2.823841519 0.6395436073)
(1.576895791 -5.364507602 -3.690744243)
(0 0 0)
(2.245898959 -3.550486968 1.886927964)
(3.381835696 -1.471360573 1.479497481)
(3.392845896 -4.117829159 1.468543901)
(0 0 0)
(2.276739243 -4.202996968 0.03587776812)
(2.24679174 -2.981520747 -0.3899125519)
(2.129745437 -3.425778475 0.1778890265)
(1.834687839 -3.156107341 0.3517137189)
(2.57677345 -2.582214843 2.137310908)
(0 0 0)
(1.913573192 -1.548412271 0.5334368636)
)
;
    }
    frontAndBack
    {
        type            empty;
    }
    procBoundary1to0
    {
        type            processor;
        value           uniform (0 0 0);
    }
    procBoundary1to3
    {
        type            processor;
        value           uniform (0 0 0);
    }
}


// ************************************************************************* //
