/*--------------------------------*- C++ -*----------------------------------*\
| =========                 |                                                 |
| \\      /  F ield         | OpenFOAM: The Open Source CFD Toolbox           |
|  \\    /   O peration     | Version:  2406                                  |
|   \\  /    A nd           | Website:  www.openfoam.com                      |
|    \\/     M anipulation  |                                                 |
\*---------------------------------------------------------------------------*/
FoamFile
{
    version     2.0;
    format      ascii;
    arch        "LSB;label=32;scalar=64";
    class       volVectorField;
    location    "0.011";
    object      fDMean;
}
// * * * * * * * * * * * * * * * * * * * * * * * * * * * * * * * * * * * * * //

dimensions      [1 -1 -2 0 0 0 0];

internalField   uniform (0 0 0);

boundaryField
{
    flow
    {
        type            calculated;
        value           uniform (0 0 0);
    }
    obstacle
    {
        type            calculated;
        value           nonuniform List<vector> 
30
(
(2.340835263 -2.736969279 0.007285868565)
(2.36920242 -2.788301605 -0.02108622548)
(2.208947387 -2.696518747 -0.008444559767)
(2.209533956 -2.721884256 0.01760723065)
(2.067528354 -2.611005307 -0.006277459162)
(2.086647777 -2.629792243 -0.004694252661)
(2.026942948 -2.662735745 -0.01248201078)
(2.013623503 -2.67395995 0.01918944695)
(1.976916301 -2.663902429 0.01163536789)
(1.881686556 -2.58895521 0.03985573793)
(1.847417943 -2.583405256 -0.0153558568)
(1.897373483 -2.614697486 -0.03184015239)
(1.813308841 -2.583788306 -0.0417354458)
(1.798289755 -2.608783629 -0.002595615889)
(1.855716664 -2.654994805 -0.0337331459)
(1.785175075 -2.549732473 0.008324143149)
(1.701434277 -2.487453422 -0.02259601294)
(1.66374529 -2.511714853 0.03541674463)
(1.675685969 -2.527283117 -0.01483948445)
(1.67842773 -2.47396173 0.005133438461)
(1.642684617 -2.459053472 0.01340341493)
(1.587478852 -2.431017916 0.01527667924)
(1.585203012 -2.384130971 -0.0155141443)
(1.620360862 -2.417584745 -0.007589145016)
(1.587997662 -2.32337453 0.006502012016)
(1.551856178 -2.252437668 -0.00103446129)
(1.54330593 -2.156164805 0.02161759047)
(1.546272082 -2.040373484 0.01089890079)
(1.502739543 -1.880157832 -0.0008693164635)
(1.513531479 -1.656256398 0.01347354471)
)
;
    }
    frontAndBack
    {
        type            empty;
    }
    procBoundary1to0
    {
        type            processor;
        value           uniform (0 0 0);
    }
    procBoundary1to3
    {
        type            processor;
        value           uniform (0 0 0);
    }
}


// ************************************************************************* //
