/*--------------------------------*- C++ -*----------------------------------*\
| =========                 |                                                 |
| \\      /  F ield         | OpenFOAM: The Open Source CFD Toolbox           |
|  \\    /   O peration     | Version:  2406                                  |
|   \\  /    A nd           | Website:  www.openfoam.com                      |
|    \\/     M anipulation  |                                                 |
\*---------------------------------------------------------------------------*/
FoamFile
{
    version     2.0;
    format      ascii;
    arch        "LSB;label=32;scalar=64";
    class       volScalarField;
    location    "0.011";
    object      iDof;
}
// * * * * * * * * * * * * * * * * * * * * * * * * * * * * * * * * * * * * * //

dimensions      [0 -3 0 0 0 0 0];

internalField   nonuniform List<scalar> 
546
(
6.730170633e+20
6.101878545e+20
5.464239032e+20
7.799020279e+20
5.777876042e+20
6.98620474e+20
6.570449336e+20
7.094157204e+20
5.957828546e+20
5.284032045e+20
6.778323746e+20
8.296441934e+20
5.903376641e+20
7.439004912e+20
5.749820323e+20
7.057425303e+20
5.337019978e+20
6.919337557e+20
4.134970396e+20
4.430818658e+20
5.783248621e+20
6.363654446e+20
4.012041038e+20
5.936202624e+20
5.444546535e+20
5.768077062e+20
4.434521452e+20
2.517212728e+20
2.822697313e+20
3.133868972e+20
5.159797489e+20
6.77986505e+20
4.553532527e+20
6.422722583e+20
8.551256541e+20
6.520457763e+20
6.335790431e+20
3.547078602e+20
5.719515404e+20
4.083115668e+20
7.020406737e+20
5.124272959e+20
6.887272742e+20
3.967469283e+20
5.499828131e+20
3.528712651e+20
4.828732361e+20
6.406794029e+20
4.910277341e+20
5.212727837e+20
4.468873938e+20
8.219720333e+20
4.814449249e+20
3.507756096e+20
1.905591287e+20
4.120055048e+20
4.988836637e+20
6.432876976e+20
4.234045969e+20
2.848971793e+20
4.935458465e+20
4.293914531e+20
4.781209153e+20
5.046424887e+20
6.240106129e+20
6.753331249e+20
5.631813712e+20
4.492966229e+20
3.57469713e+20
4.803665495e+20
4.841659815e+20
6.832363946e+20
4.427532477e+20
3.223568793e+20
4.499859384e+20
5.797170784e+20
6.353595212e+20
4.35661994e+20
5.944019944e+20
4.430818662e+20
4.994623805e+20
5.568197641e+20
4.546979847e+20
5.126720448e+20
4.355637228e+20
5.768077062e+20
5.820309405e+20
3.076593334e+20
6.209934088e+20
3.133868975e+20
5.384136507e+20
4.293914528e+20
7.057975416e+20
3.211361294e+20
4.622300833e+20
5.588963792e+20
6.335790431e+20
3.783550509e+20
5.004575978e+20
4.323298946e+20
7.020406737e+20
3.41618197e+20
6.149350663e+20
5.455270269e+20
4.499859384e+20
3.780763555e+20
3.558013319e+20
6.150522268e+20
4.134970393e+20
5.473364229e+20
4.468873938e+20
3.977284032e+20
5.616857453e+20
7.015512186e+20
6.533455842e+20
4.39472538e+20
5.265994228e+20
7.271947893e+20
5.080855167e+20
2.564074607e+20
4.935458465e+20
4.971901033e+20
5.236562402e+20
6.193339629e+20
4.391185792e+20
6.287584271e+20
6.101131526e+20
6.384741484e+20
5.24288912e+20
3.602749119e+20
7.020406737e+20
4.636246967e+20
5.411428587e+20
3.967469286e+20
3.249898444e+20
5.041018073e+20
5.591163791e+20
4.356619947e+20
3.359663447e+20
3.909545875e+20
6.046123553e+20
6.628806709e+20
4.546979843e+20
5.126720448e+20
4.355637236e+20
4.394725373e+20
3.325891077e+20
3.915664257e+20
3.66950651e+20
3.418766161e+20
4.486780429e+20
2.711946022e+20
4.55353253e+20
4.817041941e+20
5.777876046e+20
6.520457763e+20
6.101131526e+20
4.492966229e+20
4.766262837e+20
4.083115668e+20
3.14707888e+20
4.880259958e+20
3.197662342e+20
5.70323709e+20
5.249835943e+20
6.553323496e+20
5.337019978e+20
8.200696357e+20
3.359663447e+20
5.212727842e+20
6.571873439e+20
5.037893116e+20
5.616857486e+20
4.856893056e+20
4.083409873e+20
5.768077062e+20
3.325891106e+20
4.754735161e+20
3.104967035e+20
5.982840727e+20
3.365085317e+20
5.197896534e+20
5.236562402e+20
3.440744238e+20
3.928955708e+20
3.958849356e+20
5.397154812e+20
6.148269577e+20
5.719515404e+20
5.764398594e+20
4.599576831e+20
7.564402946e+20
3.6896104e+20
3.471535626e+20
4.49985938e+20
7.057425297e+20
5.082876169e+20
3.587804656e+20
5.944019964e+20
6.255273452e+20
4.468873968e+20
6.363654484e+20
5.616857467e+20
5.396547877e+20
5.716773932e+20
4.669395758e+20
4.157363883e+20
5.593806071e+20
3.104967063e+20
2.564074644e+20
4.935458465e+20
3.615928026e+20
4.098179277e+20
3.899510142e+20
4.622300833e+20
4.424596336e+20
5.162495907e+20
2.837662882e+20
5.481202266e+20
3.362565847e+20
4.357493833e+20
5.612298951e+20
4.181558451e+20
4.711369778e+20
6.749789091e+20
5.041018086e+20
4.066300929e+20
4.356619918e+20
3.618099079e+20
5.994636988e+20
4.731748836e+20
5.833349845e+20
4.279510415e+20
6.745684789e+20
4.900091856e+20
3.845384674e+20
4.988836571e+20
5.034425419e+20
3.951776227e+20
5.413046372e+20
1.570373149e+20
3.163937023e+20
3.415149392e+20
2.523212443e+20
3.466725627e+20
3.02735539e+20
2.581247953e+20
2.837662882e+20
6.434454829e+20
4.563482217e+20
3.873327846e+20
4.636246967e+20
4.181558457e+20
4.959336616e+20
5.249835952e+20
5.545119845e+20
5.591163777e+20
3.075261144e+20
2.842792145e+20
4.170182253e+20
4.731748876e+20
2.916674972e+20
3.477102242e+20
3.237928699e+20
2.450045928e+20
3.845384708e+20
5.820309436e+20
5.034425464e+20
5.080855149e+20
3.133868981e+20
3.365085317e+20
1.807964012e+20
2.732119516e+20
3.211361291e+20
2.542265458e+20
6.287584266e+20
2.346589045e+20
4.020022422e+20
2.144818275e+20
5.764398572e+20
5.567908813e+20
4.63624696e+20
5.411428562e+20
2.975601965e+20
3.999874995e+20
5.041018082e+20
6.607739063e+20
6.150522288e+20
6.460891238e+20
5.212727859e+20
4.205999001e+20
5.03789309e+20
5.349388064e+20
4.856893048e+20
6.805683193e+20
5.768077062e+20
5.543151795e+20
3.076593339e+20
3.104967035e+20
3.988560485e+20
4.262441401e+20
2.033959509e+20
2.959796129e+20
4.587658978e+20
4.622300833e+20
5.356090313e+20
3.050565777e+20
4.020022434e+20
3.098070848e+20
4.083115661e+20
2.662912886e+20
3.41618197e+20
7.133246797e+20
3.719502456e+20
4.249867216e+20
5.54511989e+20
5.337019926e+20
4.356619918e+20
4.910277341e+20
4.952091425e+20
3.943124063e+20
4.242436323e+20
4.814449258e+20
4.587065656e+20
4.900091856e+20
6.042747398e+20
4.98883666e+20
4.475044857e+20
5.080855195e+20
3.703663375e+20
2.243390219e+20
1.129977513e+20
2.504442902e+20
2.293829499e+20
2.773380498e+20
2.794481886e+20
3.989201353e+20
2.364719043e+20
3.336383965e+20
4.323298969e+20
3.873327894e+20
5.856311995e+20
2.95168833e+20
5.455270269e+20
4.749851556e+20
7.813578026e+20
3.558013342e+20
5.637978764e+20
7.494633836e+20
4.691455034e+20
5.520373642e+20
2.386370391e+20
5.081918574e+20
5.396547831e+20
3.538955291e+20
4.394725419e+20
3.603048699e+20
6.992257589e+20
4.798585418e+20
5.128149195e+20
1.346034123e+20
3.615928003e+20
2.959796136e+20
3.899510148e+20
1.848920332e+20
3.725975875e+20
1.642612346e+20
2.601190987e+20
5.48120227e+20
3.122382565e+20
2.904995875e+20
2.44012996e+20
5.903376613e+20
4.711369778e+20
5.499828118e+20
4.536916237e+20
4.828732353e+20
4.356619954e+20
4.393406042e+20
5.212727859e+20
5.783248675e+20
5.037893133e+20
6.419265677e+20
5.936202614e+20
2.722273253e+20
4.669395676e+20
6.097466974e+20
4.195354554e+20
5.64539461e+20
4.843252017e+20
3.140746287e+20
3.615928029e+20
2.276766258e+20
2.293829482e+20
1.61780529e+20
4.191722829e+20
3.754542449e+20
3.074134779e+20
3.098070848e+20
3.602749113e+20
4.841659792e+20
3.41618197e+20
4.673506485e+20
3.967469255e+20
3.999874995e+20
3.780763561e+20
5.591163777e+20
5.125435198e+20
5.944019939e+20
4.952091425e+20
3.680249095e+20
6.36365443e+20
4.012041048e+20
5.126720439e+20
5.989001157e+20
4.120055044e+20
3.880206256e+20
3.076593312e+20
3.104967035e+20
6.267737962e+20
1.570373155e+20
1.129977517e+20
2.049089647e+20
2.752595399e+20
1.386690259e+20
2.561608414e+20
2.581247953e+20
2.364719079e+20
4.289636559e+20
3.122382565e+20
2.420829915e+20
3.416181997e+20
4.181558467e+20
2.975601965e+20
5.749820351e+20
4.788967178e+20
4.066300929e+20
4.612891716e+20
6.719326943e+20
4.952091466e+20
5.257498751e+20
5.037893133e+20
4.279510451e+20
5.126720439e+20
4.355637243e+20
4.12005508e+20
4.98883666e+20
4.195354554e+20
3.951776263e+20
4.273457701e+20
1.794712164e+20
2.485950502e+20
3.187472762e+20
3.211361299e+20
1.61780529e+20
2.328734922e+20
2.815906879e+20
2.128247171e+20
2.621444584e+20
2.40183276e+20
4.599576803e+20
2.44012996e+20
2.951688306e+20
3.471535626e+20
5.499828118e+20
3.780763561e+20
4.066300962e+20
4.356619954e+20
3.359663444e+20
2.345727537e+20
6.834748434e+20
3.181827242e+20
4.814449258e+20
5.666375222e+20
4.900091856e+20
7.965439682e+20
4.988836615e+20
3.91566425e+20
3.951776227e+20
6.730170614e+19
2.033959516e+20
1.366059765e+20
1.376297699e+20
3.004495539e+20
2.794481886e+20
7.039767093e+19
2.837662852e+20
1.429878842e+20
1.441099656e+20
4.115410887e+20
2.928155997e+20
2.95168833e+20
3.471535626e+20
2.249929685e+20
4.284865335e+20
4.320444737e+20
1.793902334e+20
4.134970393e+20
4.170182253e+20
4.468873901e+20
6.09850211e+20
5.88432682e+20
6.745684847e+20
3.538955291e+20
2.467729243e+20
1.581968513e+20
1.366059745e+20
3.440744223e+20
1.61780529e+20
2.561608414e+20
1.642612346e+20
2.128247171e+20
1.668191995e+20
2.161649468e+20
2.178746906e+20
2.928155975e+20
3.689610412e+20
2.231701474e+20
4.499859405e+20
3.276661779e+20
2.541438081e+20
2.818989359e+20
4.393406042e+20
1.794712177e+20
1.581968513e+20
1.138383137e+20
2.064446549e+20
4.62230083e+19
2.561608395e+20
2.815906837e+20
2.601190967e+20
2.383131422e+20
2.401832742e+20
1.69458094e+20
1.220064989e+20
2.459740255e+20
2.975601965e+20
2.692068246e+20
2.485950502e+20
1.821413007e+20
1.835063599e+20
2.773380518e+20
1.862987938e+20
7.039767146e+19
3.074134802e+20
2.916407287e+20
)
;

boundaryField
{
    flow
    {
        type            zeroGradient;
    }
    obstacle
    {
        type            calculated;
        value           nonuniform List<scalar> 
30
(
1e-300
1074.91168
1e-300
111.5526283
1e-300
801.5886155
179.8744191
214.0549553
61.44710882
1e-300
278.7687755
117.6155763
1e-300
85.08653249
491.9358543
139.3904939
276.351613
797.1446345
1e-300
262.340246
155.3701698
210.545545
1e-300
210.5212041
73.43888325
223.1277712
329.0390022
74.45526987
1e-300
122.5028217
)
;
    }
    frontAndBack
    {
        type            empty;
    }
    procBoundary1to0
    {
        type            processor;
        value           nonuniform List<scalar> 
21
(
5.790372824e+20
4.676839589e+20
5.34495953e+20
5.122252883e+20
3.563306356e+20
2.44977312e+20
3.117893059e+20
3.117893059e+20
3.117893059e+20
2.449773118e+20
3.117893059e+20
2.22706648e+20
2.227066471e+20
2.004359809e+20
2.004359824e+20
2.004359824e+20
1.336239882e+20
2.672479765e+20
2.449773135e+20
6.681199412e+19
2.895186412e+20
)
;
    }
    procBoundary1to3
    {
        type            processor;
        value           nonuniform List<scalar> 
36
(
5.982840782e+20
4.394725419e+20
6.097467028e+20
2.796903036e+20
5.982840782e+20
3.104967035e+20
4.430818643e+20
6.046123564e+20
4.507588593e+20
5.081918661e+20
4.856893048e+20
4.394725419e+20
4.900091856e+20
1.74994531e+20
4.032814433e+20
2.033150464e+20
1.793902334e+20
4.430818643e+20
5.68558429e+20
2.14481828e+20
1.681282919e+20
1.936663917e+20
1.220064989e+20
1.721818192e+20
1.74994531e+20
3.471535626e+20
1.355973021e+20
1.138383137e+20
3.211361299e+20
9.24460166e+19
1.397240953e+20
3.050565786e+20
2.14481828e+20
3.074134802e+20
1.355973021e+20
1.346034123e+20
)
;
    }
}


// ************************************************************************* //
