/*--------------------------------*- C++ -*----------------------------------*\
| =========                 |                                                 |
| \\      /  F ield         | OpenFOAM: The Open Source CFD Toolbox           |
|  \\    /   O peration     | Version:  2406                                  |
|   \\  /    A nd           | Website:  www.openfoam.com                      |
|    \\/     M anipulation  |                                                 |
\*---------------------------------------------------------------------------*/
FoamFile
{
    version     2.0;
    format      ascii;
    arch        "LSB;label=32;scalar=64";
    class       volScalarField;
    location    "0.011";
    object      iDofMean;
}
// * * * * * * * * * * * * * * * * * * * * * * * * * * * * * * * * * * * * * //

dimensions      [0 -3 0 0 0 0 0];

internalField   nonuniform List<scalar> 
546
(
6.12433291e+20
6.143790438e+20
6.073874246e+20
6.095247143e+20
5.992771009e+20
5.99501048e+20
6.075745699e+20
6.042416153e+20
6.074125359e+20
6.007813426e+20
5.9792298e+20
6.020687982e+20
5.941211918e+20
6.023249565e+20
6.057901605e+20
5.899136832e+20
5.736210589e+20
5.890849086e+20
5.877061617e+20
5.797358954e+20
5.728140475e+20
5.795794706e+20
5.693305071e+20
5.622810373e+20
5.443903089e+20
5.304932935e+20
5.095869855e+20
4.926058176e+20
4.521858451e+20
3.761834155e+20
5.521228047e+20
5.507058384e+20
5.458029669e+20
5.479875249e+20
5.438052888e+20
5.512242566e+20
5.488543789e+20
5.471057031e+20
5.442508874e+20
5.424823109e+20
5.467026207e+20
5.514116998e+20
5.500650071e+20
5.505765328e+20
5.487873959e+20
5.41318269e+20
5.363635766e+20
5.429140557e+20
5.38236879e+20
5.311722278e+20
5.29673881e+20
5.266936458e+20
5.272065082e+20
5.148061342e+20
5.046055225e+20
4.958448795e+20
4.750783463e+20
4.478350284e+20
4.085880021e+20
3.478853557e+20
5.15890013e+20
5.204347682e+20
5.204439303e+20
5.221381518e+20
5.168950942e+20
5.172924715e+20
5.186772433e+20
5.148982294e+20
5.22417071e+20
5.176473607e+20
5.186033873e+20
5.24725551e+20
5.214381027e+20
5.195536281e+20
5.18092901e+20
5.08918271e+20
5.138233312e+20
5.164295341e+20
5.072903851e+20
5.065776301e+20
4.983057308e+20
4.956949347e+20
5.067475304e+20
4.873867652e+20
4.74774357e+20
4.627496005e+20
4.529712486e+20
4.300823217e+20
3.985597284e+20
3.49599919e+20
4.8253284e+20
4.892514977e+20
5.020931943e+20
5.033037267e+20
5.061209308e+20
5.055641156e+20
5.117782719e+20
5.067206009e+20
5.051978629e+20
5.041883634e+20
5.040255901e+20
5.032213506e+20
5.056018476e+20
5.031833092e+20
4.993843947e+20
4.977638728e+20
4.969759071e+20
4.962819142e+20
4.961259647e+20
4.914322863e+20
4.860748777e+20
4.85030993e+20
4.811045089e+20
4.757645631e+20
4.683052458e+20
4.580302648e+20
4.440971669e+20
4.186862139e+20
3.997144685e+20
3.651915633e+20
4.532056116e+20
4.612773636e+20
4.777483532e+20
4.902288979e+20
4.949643774e+20
4.930990331e+20
4.957404024e+20
4.968446742e+20
4.998769804e+20
4.975287358e+20
4.950112998e+20
5.00364181e+20
5.011206485e+20
5.004105892e+20
4.985616931e+20
4.952341983e+20
4.879191463e+20
4.887009303e+20
4.872357787e+20
4.845230521e+20
4.805640623e+20
4.741549282e+20
4.693698968e+20
4.652462012e+20
4.575002966e+20
4.533408922e+20
4.476800566e+20
4.189709902e+20
3.979336031e+20
3.666315911e+20
4.21092501e+20
4.378847753e+20
4.54330778e+20
4.646881498e+20
4.725083999e+20
4.757901816e+20
4.822709813e+20
4.881812034e+20
4.919823159e+20
4.927207034e+20
4.976962199e+20
4.976267981e+20
4.924578897e+20
4.954151839e+20
4.918709927e+20
4.922416666e+20
4.856595764e+20
4.895629346e+20
4.870854162e+20
4.832909536e+20
4.793978543e+20
4.70838116e+20
4.668994549e+20
4.640982083e+20
4.58118991e+20
4.497452086e+20
4.369968952e+20
4.236799571e+20
4.053803904e+20
3.748210866e+20
3.805401632e+20
4.026376945e+20
4.19579045e+20
4.344805e+20
4.52636708e+20
4.631260977e+20
4.707044305e+20
4.77578663e+20
4.801836489e+20
4.858994988e+20
4.893905733e+20
4.949958951e+20
4.949981313e+20
4.931068389e+20
4.938072959e+20
4.920354428e+20
4.888802716e+20
4.899450125e+20
4.863477015e+20
4.83376256e+20
4.823420568e+20
4.759049364e+20
4.680714556e+20
4.638921615e+20
4.614302741e+20
4.480172864e+20
4.398188634e+20
4.266802713e+20
4.091679407e+20
3.87408369e+20
3.430673889e+20
3.651101145e+20
3.857049032e+20
4.062413743e+20
4.198351805e+20
4.366547325e+20
4.534847334e+20
4.642889418e+20
4.697671985e+20
4.771961303e+20
4.828939454e+20
4.900402121e+20
4.875786598e+20
4.915694446e+20
4.95502699e+20
4.966044398e+20
4.972670164e+20
4.918367616e+20
4.88762896e+20
4.902949618e+20
4.879675731e+20
4.804221587e+20
4.755508687e+20
4.679935338e+20
4.637466731e+20
4.552935454e+20
4.482847601e+20
4.333012997e+20
4.223935569e+20
4.048078095e+20
3.143805466e+20
3.321024442e+20
3.523937424e+20
3.726013218e+20
3.915340934e+20
4.077572496e+20
4.256243216e+20
4.383372249e+20
4.513997543e+20
4.600776129e+20
4.682061094e+20
4.820898258e+20
4.875562993e+20
4.893287269e+20
4.905801248e+20
4.961415783e+20
4.957236704e+20
4.947070093e+20
4.925971433e+20
4.919772512e+20
4.885554612e+20
4.857107494e+20
4.804139528e+20
4.747833722e+20
4.688991939e+20
4.662753688e+20
4.552237863e+20
4.418649121e+20
4.284341291e+20
4.136914253e+20
2.831076869e+20
2.985071854e+20
3.15911668e+20
3.348198647e+20
3.578165096e+20
3.750829814e+20
3.938728379e+20
4.123210163e+20
4.283570397e+20
4.432560484e+20
4.553449032e+20
4.672937641e+20
4.725474088e+20
4.801719874e+20
4.863302556e+20
4.89996123e+20
4.923412514e+20
4.972138131e+20
4.910606259e+20
4.912664288e+20
4.936839123e+20
4.912114496e+20
4.873195265e+20
4.788455009e+20
4.775065312e+20
4.714591472e+20
4.616991914e+20
4.520303833e+20
4.372512091e+20
4.190060489e+20
2.648872795e+20
2.786935428e+20
2.931564228e+20
3.104593948e+20
3.26111728e+20
3.445511504e+20
3.637298372e+20
3.819064307e+20
4.027578762e+20
4.217399947e+20
4.362379488e+20
4.474177963e+20
4.607496037e+20
4.73071119e+20
4.781305157e+20
4.814905507e+20
4.886677101e+20
4.931041419e+20
4.947774004e+20
4.933088663e+20
4.957964708e+20
4.940413517e+20
4.906215578e+20
4.898495526e+20
4.785261421e+20
4.741958625e+20
4.684164877e+20
4.61967017e+20
4.511594126e+20
4.348515198e+20
2.487430286e+20
2.608686632e+20
2.720694303e+20
2.855901138e+20
3.012899723e+20
3.171186512e+20
3.351569115e+20
3.530482536e+20
3.722927879e+20
3.899047964e+20
4.080682981e+20
4.236553702e+20
4.385180239e+20
4.544600813e+20
4.653672744e+20
4.733974253e+20
4.784696201e+20
4.856070321e+20
4.928085907e+20
4.934510316e+20
4.946589351e+20
4.965289536e+20
4.936901529e+20
4.925331086e+20
4.873760134e+20
4.818616662e+20
4.750934661e+20
4.665132558e+20
4.619113192e+20
4.532973091e+20
2.346790099e+20
2.42608224e+20
2.53867717e+20
2.635193034e+20
2.746571153e+20
2.898216462e+20
3.057818879e+20
3.199249939e+20
3.372520929e+20
3.537986968e+20
3.71597389e+20
3.956116155e+20
4.147792909e+20
4.301548234e+20
4.455178947e+20
4.565420902e+20
4.682530351e+20
4.788833929e+20
4.838103312e+20
4.903281378e+20
4.911937738e+20
4.974835102e+20
4.965691047e+20
4.966982624e+20
4.930828796e+20
4.903964141e+20
4.850761743e+20
4.797451498e+20
4.694658836e+20
4.592594301e+20
2.236578456e+20
2.300100037e+20
2.368416449e+20
2.483174679e+20
2.588824632e+20
2.696505657e+20
2.817101464e+20
2.955081923e+20
3.112196318e+20
3.304572495e+20
3.496954807e+20
3.636281694e+20
3.814922968e+20
4.021300599e+20
4.198277885e+20
4.348657162e+20
4.49705158e+20
4.633393419e+20
4.727398878e+20
4.816986998e+20
4.874848392e+20
4.888347211e+20
4.973958284e+20
4.991414267e+20
4.96775272e+20
4.948660539e+20
4.952201421e+20
4.875764739e+20
4.785601011e+20
4.669205784e+20
2.188855444e+20
2.240848142e+20
2.296056695e+20
2.337412259e+20
2.431834505e+20
2.527100797e+20
2.623401226e+20
2.742042254e+20
2.893121546e+20
3.037663373e+20
3.19914874e+20
3.350653415e+20
3.548466043e+20
3.733523853e+20
3.921150214e+20
4.116220401e+20
4.269939431e+20
4.402842061e+20
4.573465245e+20
4.698421173e+20
4.805592836e+20
4.906666864e+20
4.959417674e+20
4.983760981e+20
5.008487871e+20
4.968486786e+20
4.99478295e+20
4.976554998e+20
4.890400108e+20
4.792695762e+20
2.124001057e+20
2.147162702e+20
2.200391099e+20
2.240445831e+20
2.301359541e+20
2.375013236e+20
2.480813961e+20
2.584852928e+20
2.689948781e+20
2.798702872e+20
2.945797863e+20
3.11857482e+20
3.261391966e+20
3.445296226e+20
3.634159152e+20
3.811330462e+20
3.984605279e+20
4.146383919e+20
4.29313301e+20
4.459678237e+20
4.597300333e+20
4.718505171e+20
4.809197131e+20
4.892314025e+20
4.951419081e+20
4.979873033e+20
4.96691597e+20
4.954179773e+20
4.926068693e+20
2.113518306e+20
2.124727528e+20
2.144051499e+20
2.199824195e+20
2.235050535e+20
2.301171152e+20
2.36403912e+20
2.442066853e+20
2.521613003e+20
2.634155493e+20
2.741567892e+20
2.851713379e+20
2.984022734e+20
3.120459679e+20
3.305987589e+20
3.484076705e+20
3.708327823e+20
3.912803857e+20
4.114248552e+20
4.225721498e+20
4.392640169e+20
4.570598337e+20
4.686307058e+20
4.808324159e+20
4.840350416e+20
2.070486018e+20
2.097936788e+20
2.129066206e+20
2.154781709e+20
2.187482857e+20
2.21788714e+20
2.249952262e+20
2.297561057e+20
2.376501984e+20
2.461048837e+20
2.539934727e+20
2.650336085e+20
2.773558411e+20
2.923844525e+20
3.079040161e+20
3.244170126e+20
3.401553143e+20
3.584822567e+20
3.74947838e+20
2.061634824e+20
2.076652121e+20
2.093755662e+20
2.112825498e+20
2.132561519e+20
2.167501768e+20
2.210870854e+20
2.240162859e+20
2.290709252e+20
2.333315004e+20
2.435222849e+20
2.514886688e+20
2.613898886e+20
2.717040188e+20
2.045237666e+20
2.056271421e+20
2.064820018e+20
2.074789635e+20
2.10344104e+20
2.110680652e+20
2.140131878e+20
2.180485965e+20
2.026107681e+20
)
;

boundaryField
{
    flow
    {
        type            calculated;
        value           nonuniform List<scalar> 
15
(
3.761834155e+20
3.478853557e+20
3.49599919e+20
3.651915633e+20
3.666315911e+20
3.748210866e+20
3.87408369e+20
4.048078095e+20
4.136914253e+20
4.190060489e+20
4.348515198e+20
4.532973091e+20
4.592594301e+20
4.669205784e+20
4.792695762e+20
)
;
    }
    obstacle
    {
        type            calculated;
        value           nonuniform List<scalar> 
30
(
269.8635444
274.7516602
267.323049
274.4485315
262.7439723
259.0331094
268.4316817
261.4592216
274.1461789
259.066704
257.2997378
270.0066625
256.3957013
258.8979642
268.5064161
249.5662845
246.1198903
252.9917587
254.1912724
258.773155
243.8277812
245.450715
246.8890828
246.6134428
243.3429066
220.2231703
218.0727927
219.2609079
197.7045884
174.344182
)
;
    }
    frontAndBack
    {
        type            empty;
    }
    procBoundary1to0
    {
        type            processor;
        value           nonuniform List<scalar> 
21
(
6.134393855e+20
5.45853992e+20
5.112656251e+20
4.767825377e+20
4.392868371e+20
3.963651923e+20
3.599911228e+20
3.243256655e+20
2.95288768e+20
2.683331652e+20
2.528692255e+20
2.398996013e+20
2.287359234e+20
2.203742995e+20
2.137254954e+20
2.106602421e+20
2.088461952e+20
2.051695109e+20
2.049022644e+20
2.035741215e+20
2.037279915e+20
)
;
    }
    procBoundary1to3
    {
        type            processor;
        value           nonuniform List<scalar> 
36
(
4.876351934e+20
4.888083287e+20
4.96066737e+20
4.958603966e+20
4.876351934e+20
4.937667413e+20
3.951295073e+20
4.119250271e+20
4.327140421e+20
4.463918447e+20
4.621211086e+20
4.888083287e+20
4.77001669e+20
2.843183871e+20
3.009441943e+20
3.140339516e+20
3.306418273e+20
3.951295073e+20
3.499124718e+20
2.22042854e+20
2.265758e+20
2.293362198e+20
2.364929609e+20
2.43755789e+20
2.843183871e+20
2.5291715e+20
2.040410675e+20
2.047847775e+20
2.056605823e+20
2.076799763e+20
2.10119635e+20
2.113594105e+20
2.22042854e+20
2.135212344e+20
2.040410675e+20
2.031165491e+20
)
;
    }
}


// ************************************************************************* //
