/*--------------------------------*- C++ -*----------------------------------*\
| =========                 |                                                 |
| \\      /  F ield         | OpenFOAM: The Open Source CFD Toolbox           |
|  \\    /   O peration     | Version:  2406                                  |
|   \\  /    A nd           | Website:  www.openfoam.com                      |
|    \\/     M anipulation  |                                                 |
\*---------------------------------------------------------------------------*/
FoamFile
{
    version     2.0;
    format      ascii;
    arch        "LSB;label=32;scalar=64";
    class       volScalarField;
    location    "0.011";
    object      internalEMean;
}
// * * * * * * * * * * * * * * * * * * * * * * * * * * * * * * * * * * * * * //

dimensions      [1 -1 -2 0 0 0 0];

internalField   nonuniform List<scalar> 
546
(
2.988213165
3.000836531
2.930496824
2.952289833
2.908033414
2.914260998
2.99536757
2.916603513
2.89728416
2.877371499
2.857707699
2.885303374
2.838363196
2.912275487
2.915916135
2.843623627
2.718691086
2.794208167
2.779144468
2.74888848
2.710972159
2.690043632
2.624597471
2.600747071
2.486970085
2.428612914
2.338538781
2.278813081
2.064540654
1.711761582
2.881637993
2.911837551
2.904170671
2.914881125
2.902080365
2.959664867
2.951797623
2.914612931
2.909529814
2.896386475
2.908332792
2.951344551
2.928774287
2.944708256
2.942533473
2.861002794
2.824079173
2.833346261
2.798007852
2.776914025
2.756338988
2.687120837
2.686536782
2.592591783
2.568578513
2.475787438
2.35721503
2.247313963
2.02141239
1.753277659
2.736629871
2.799011782
2.841439358
2.87906175
2.877943413
2.892984081
2.882271382
2.882325261
2.900478185
2.897287125
2.908875602
2.903078148
2.897097865
2.917582221
2.892580116
2.851208826
2.893359711
2.855041467
2.774628088
2.785722928
2.718744879
2.691122418
2.720360457
2.630952904
2.551924797
2.45322565
2.360520896
2.255913559
2.090459969
1.85886333
2.439263214
2.515164908
2.687369172
2.694769366
2.745365156
2.79016334
2.840355314
2.809344771
2.840276121
2.84903708
2.875908209
2.896035995
2.88692953
2.883969592
2.825602988
2.832668481
2.83042584
2.77404874
2.79512347
2.76479491
2.757855542
2.734099928
2.694067964
2.630434456
2.621713804
2.542703702
2.492861084
2.262576668
2.110405974
1.912216264
2.156046053
2.269422507
2.414770089
2.534381491
2.590992182
2.629846115
2.676401025
2.723326704
2.78032985
2.78008006
2.774988688
2.823364096
2.846381109
2.846833422
2.84762405
2.805154981
2.790958272
2.776924311
2.774100376
2.774653637
2.746170261
2.709465652
2.669112955
2.644818676
2.604188626
2.539655196
2.514561976
2.313057303
2.167191139
1.975256478
1.8935496
2.029003725
2.173888111
2.294143353
2.366620497
2.454314081
2.531198223
2.595527506
2.633379518
2.693767647
2.744831428
2.758039424
2.742664906
2.785476465
2.792462206
2.787170321
2.761781101
2.786021357
2.770822318
2.746892127
2.722590666
2.676848268
2.698956815
2.678537062
2.606477212
2.53501784
2.462638716
2.365605883
2.243879334
2.064541909
1.580324051
1.719223157
1.877525999
2.001890433
2.17500316
2.266288189
2.340655818
2.409252404
2.482370228
2.533373508
2.605253462
2.678740831
2.708240745
2.722424359
2.737788607
2.74173534
2.744651683
2.783647897
2.772314242
2.756328392
2.735923111
2.683303851
2.664942246
2.6506564
2.61385328
2.536561742
2.454981395
2.400234926
2.30422326
2.136771161
1.3080608
1.451045513
1.588709122
1.737331178
1.861179689
2.000159558
2.151349284
2.218269309
2.302540767
2.392363361
2.437372169
2.506085335
2.549893036
2.620610728
2.672236101
2.674955162
2.726026581
2.721981702
2.724344812
2.753802628
2.751115779
2.696874622
2.652270873
2.644783506
2.623030761
2.578078287
2.518672049
2.427663823
2.371282442
2.248103602
1.091921016
1.225542887
1.347283192
1.47618692
1.613271678
1.729469637
1.86051507
1.981725839
2.089626442
2.202031935
2.281684169
2.381916743
2.447479255
2.504955772
2.546700708
2.59298764
2.648818151
2.661405861
2.659812509
2.708357814
2.717218511
2.713092727
2.690925646
2.650781774
2.608038765
2.600223416
2.565275903
2.468661673
2.371849521
2.291920849
0.8950253924
0.9918926209
1.113823371
1.218511971
1.372251283
1.499182471
1.620775635
1.762529111
1.880856389
1.978472021
2.097772944
2.201394159
2.258235034
2.340843127
2.425359061
2.496877819
2.545403429
2.605517271
2.616940149
2.630763633
2.666113851
2.679181633
2.695851257
2.665683696
2.656026028
2.597666079
2.543815589
2.490934244
2.400284938
2.275106154
0.7898638128
0.8650899583
0.9461181537
1.045245886
1.131304532
1.243393778
1.367297817
1.503605675
1.637098944
1.778686835
1.895516795
2.004284844
2.11648971
2.212252004
2.285574387
2.3371476
2.419012151
2.484858254
2.524726517
2.547820254
2.594064073
2.623363574
2.620793996
2.662008575
2.606062592
2.578278699
2.529420459
2.498772639
2.456394369
2.352445315
0.6960293326
0.7543645119
0.8145139542
0.8912523504
0.9681429586
1.060608493
1.175521848
1.280476827
1.39819132
1.523195533
1.664956322
1.795778919
1.905639527
2.029626541
2.12242318
2.210218964
2.268119319
2.363653235
2.439020993
2.478802179
2.519136602
2.554464692
2.557553159
2.559619785
2.568244399
2.554511837
2.520972163
2.500548339
2.476653417
2.427221753
0.6069289394
0.6508164223
0.7173749362
0.7739255152
0.8324125169
0.9105170442
0.9844261229
1.085386033
1.196159678
1.304060166
1.408024967
1.569374684
1.698491485
1.819557428
1.947100504
2.030707438
2.131124598
2.226544905
2.284364721
2.362648847
2.402938767
2.473263009
2.504511029
2.538519077
2.520401528
2.522007599
2.518242403
2.482648673
2.444838688
2.416212442
0.5496078886
0.5843516513
0.6216999287
0.6849397694
0.7409522907
0.8047654186
0.8642030496
0.9366861118
1.020878413
1.128947569
1.245445403
1.33771868
1.457655856
1.598984206
1.718312455
1.828355556
1.945259271
2.054290212
2.136697475
2.220887244
2.261710001
2.333258104
2.410567179
2.454467534
2.485381252
2.495603501
2.511169395
2.501366151
2.465995168
2.40194175
0.51500301
0.539065756
0.5710241356
0.5920908435
0.6403382685
0.6944272164
0.7468651844
0.8099424757
0.8912645553
0.970631201
1.071285527
1.16001663
1.264139462
1.381824027
1.494873507
1.622120085
1.744144049
1.841119271
1.983917347
2.080235859
2.171322525
2.256613045
2.326270902
2.362623697
2.400972996
2.413935208
2.457070642
2.479304559
2.441897758
2.409853095
0.4877623756
0.5039068324
0.5323354009
0.5574491869
0.5885401572
0.6263806528
0.6722714332
0.7266674139
0.7786010041
0.8428245461
0.9084695749
1.001936609
1.091478874
1.184016979
1.311806469
1.415020096
1.547898156
1.648865739
1.75207019
1.857423795
1.968425878
2.069799895
2.134202828
2.224003184
2.299550223
2.344053074
2.359130406
2.388488999
2.389653046
0.4740379173
0.479391193
0.4929676047
0.5197717646
0.5437108951
0.575319555
0.610745497
0.6334217648
0.6709995538
0.7310751794
0.7848106784
0.8448736639
0.9306965783
1.015318671
1.115660189
1.22804669
1.343829645
1.462902783
1.585607988
1.675546345
1.774520716
1.898593608
2.016705335
2.093981234
2.145932664
0.4602329671
0.4705987013
0.4824961914
0.4976303403
0.5114872736
0.5251330246
0.5503131062
0.5837940777
0.6118772758
0.652573299
0.7042898753
0.7544542768
0.8159039985
0.8929924455
0.9675662447
1.051394264
1.151017449
1.265666381
1.365278982
0.4470295904
0.4553516622
0.4671038002
0.4794638584
0.4896529011
0.5035355774
0.5227612375
0.5381073583
0.5701167058
0.5904969792
0.629597014
0.6733379402
0.7195733691
0.7819478593
0.443313323
0.450244002
0.4504652614
0.4570106634
0.471475036
0.4797549179
0.4927934273
0.5093434857
0.4299333307
)
;

boundaryField
{
    flow
    {
        type            calculated;
        value           nonuniform List<scalar> 
15
(
1.711761582
1.753277659
1.85886333
1.912216264
1.975256478
2.064541909
2.136771161
2.248103602
2.291920849
2.275106154
2.352445315
2.427221753
2.416212442
2.40194175
2.409853095
)
;
    }
    obstacle
    {
        type            calculated;
        value           nonuniform List<scalar> 
30
(
1.189086423e-18
1.168791749e-18
1.161971716e-18
1.191482842e-18
1.149370975e-18
1.145615852e-18
1.166128561e-18
1.16307888e-18
1.216591132e-18
1.107722485e-18
1.137991409e-18
1.144107771e-18
1.10285102e-18
1.102791366e-18
1.183009587e-18
1.078059493e-18
1.05799137e-18
1.101854497e-18
1.079862098e-18
1.034815065e-18
1.061381618e-18
1.04676762e-18
1.037482825e-18
1.079716436e-18
1.02128127e-18
9.422408504e-19
9.358577368e-19
9.251581541e-19
8.497970032e-19
7.467649218e-19
)
;
    }
    frontAndBack
    {
        type            empty;
    }
    procBoundary1to0
    {
        type            processor;
        value           nonuniform List<scalar> 
21
(
2.986169009
2.848592944
2.652268564
2.360128087
2.046573891
1.720464682
1.417114861
1.159929798
0.9717922877
0.8157160066
0.721409432
0.6367698368
0.5672789509
0.5226212055
0.5011820926
0.4764298775
0.4613215694
0.4516581976
0.44421141
0.4391364314
0.4321541938
)
;
    }
    procBoundary1to3
    {
        type            processor;
        value           nonuniform List<scalar> 
36
(
2.370959772
2.209171363
2.270668154
2.320934711
2.370959772
2.329974949
1.468964649
1.585433567
1.718911581
1.821350125
1.947130067
2.209171363
2.052982506
0.8463792074
0.9193687726
1.006299675
1.088388212
1.468964649
1.209115655
0.5307327721
0.5498086705
0.5711858735
0.5985741418
0.6346999054
0.8463792074
0.6802047666
0.4333585456
0.4403897838
0.4430128015
0.4527449796
0.4620592587
0.4706214024
0.5307327721
0.4817365491
0.4333585456
0.4272358838
)
;
    }
}


// ************************************************************************* //
