/*--------------------------------*- C++ -*----------------------------------*\
| =========                 |                                                 |
| \\      /  F ield         | OpenFOAM: The Open Source CFD Toolbox           |
|  \\    /   O peration     | Version:  2406                                  |
|   \\  /    A nd           | Website:  www.openfoam.com                      |
|    \\/     M anipulation  |                                                 |
\*---------------------------------------------------------------------------*/
FoamFile
{
    version     2.0;
    format      ascii;
    arch        "LSB;label=32;scalar=64";
    class       volScalarField;
    location    "0.011";
    object      internalT;
}
// * * * * * * * * * * * * * * * * * * * * * * * * * * * * * * * * * * * * * //

dimensions      [1 2 -2 0 0 0 0];

internalField   nonuniform List<scalar> 
546
(
706.8042999
707.5421922
698.9109706
701.6395635
702.9397581
704.1819616
714.1623219
699.2189025
690.9613255
693.7865862
692.3392579
694.2114321
692.052946
700.4029961
697.2671618
698.2807063
686.5642329
687.1115662
685.0105774
686.8680705
685.5794574
672.3458505
667.7972843
670.0251106
661.7692365
663.1698915
664.7718899
670.1246071
661.3827663
659.1587602
756.0493328
765.9384295
770.7839122
770.5424592
773.0585828
777.7868839
779.0688566
771.7134045
774.4084167
773.4234362
770.6183439
775.3366891
771.2910355
774.766753
776.7185583
765.6177544
762.717987
755.9881109
753.0466412
757.3096179
753.8248829
739.0528841
738.1734599
729.5193665
737.3730225
723.2924316
718.7541477
726.9291571
716.6642026
730.0640275
768.4318212
779.0849637
790.8804538
798.7519852
806.5406085
810.1329278
804.9781164
810.9012839
804.264023
810.7816872
812.5240011
801.4435035
804.8349023
813.4654655
808.7683611
811.5726112
815.7085375
800.8436709
792.3089208
796.5963445
790.349118
786.4395959
777.64469
781.9621652
778.6226194
767.9586609
754.889893
759.8314433
759.7922158
770.2337336
732.2817135
744.6988783
775.3350098
775.6000957
785.7641631
799.4656084
803.9651552
803.1245059
814.414423
818.5621931
826.5494327
833.6644743
827.1302971
830.253755
819.6389206
824.3635406
825.016898
809.714725
816.122665
814.9775287
821.8919686
816.5659972
811.1767956
800.906452
810.9660185
804.1702053
813.1421501
782.8184297
764.8258133
758.5123744
689.1426884
712.6882739
732.1886416
748.892495
758.295637
772.5784396
782.0657578
794.0091445
805.7115384
809.441621
812.0681972
817.3857708
822.8054294
824.1038878
827.3897645
820.5265378
828.6132648
823.1278105
824.7634332
829.546493
827.79456
827.7701846
823.7551051
823.492154
824.56986
811.5144562
813.6563062
799.7400346
788.9200625
780.4408795
651.3967339
671.2269684
693.1247826
715.1635194
725.5468927
747.2416345
760.2937575
770.1777723
775.3724381
791.9645097
798.909773
802.8660772
806.7705718
814.4727877
822.3988434
820.2222283
823.7656816
824.3702496
824.0431411
823.3402315
822.6832665
823.5662483
837.3730263
836.0536871
824.179931
816.5088065
816.3356258
808.8181169
801.8315868
797.8956297
601.5781418
618.5349156
648.2142409
667.4464276
696.0757742
708.8629522
720.3369121
730.7751724
748.8685376
755.2646744
771.1534049
783.9267758
792.5562711
799.7627909
803.1354725
807.1895689
813.2632048
823.0256267
825.7374595
826.0228163
821.6656952
816.7629757
824.7494653
827.7187606
820.5811188
820.1571306
808.5758235
814.8873701
815.773055
798.9790902
552.325243
575.7097292
596.6719583
619.5050618
642.1786679
663.5488012
687.2182016
692.1055453
710.0207448
726.2340844
731.1668387
740.8163084
757.5715765
772.2608758
781.2233237
780.2832911
794.1212747
801.6976556
807.4399681
813.620304
816.7032869
813.1751989
807.9180203
818.6469982
819.3490888
820.2590037
813.8868774
811.6054472
813.2281419
804.4773807
503.1320213
534.5678552
553.8307973
573.9094293
596.8762839
614.4091138
633.2178568
654.9099921
670.5848465
693.3282727
705.9352221
715.7230592
727.1778569
741.5590649
751.9939699
757.0790373
774.0319464
779.3085547
782.1778867
797.457262
805.6698111
809.157978
811.3952928
808.7697022
805.7140828
807.8199776
816.310783
809.3166157
801.9540245
802.5451868
457.9626858
481.3447821
510.7366906
527.1873516
555.5455446
578.9932951
596.091962
619.2232089
636.0571317
646.5790683
667.3664939
682.4238911
692.2614584
706.1905283
722.4223146
738.160915
748.9223615
759.0968154
771.9782697
775.7309886
782.3050155
790.0963845
801.3615694
806.416867
805.7483206
798.1520904
798.1286649
798.2538734
795.2033103
786.5526002
431.9540127
449.6563831
467.5115669
487.7082011
502.5271236
522.7588379
544.5410075
570.3262794
588.8128572
610.9435735
629.4345712
648.922132
665.4226651
677.4146123
692.4609648
703.1448019
717.0852762
729.9773213
739.1811536
748.1630629
757.9205215
769.2040836
773.8070043
787.2145867
788.906569
787.6231973
782.2314123
783.5418017
788.7047729
783.655061
405.3433225
418.8955388
433.675792
452.068157
465.4801999
484.484306
508.0762847
525.3927243
544.0369249
565.904931
591.0393368
614.0257039
629.5057516
646.94415
660.6668851
676.325571
686.685581
705.091037
716.941412
727.686313
737.7211902
745.2495534
750.4410853
752.8118165
763.3410127
767.9482232
768.6619635
776.4574554
776.6995066
775.6623526
374.6364221
388.5969459
409.3408812
425.4349154
439.0299478
455.0966717
466.3562166
491.4535274
513.7843877
533.9342727
548.8884602
574.6507882
593.1884792
612.755712
633.0960661
644.3367989
659.2871927
673.516253
683.9694514
698.0053651
708.657274
720.1749488
730.6167953
740.3450708
740.450804
744.9815262
752.0279589
749.637099
754.3841769
762.120129
355.9714919
368.0221423
380.249934
399.5687458
414.6044998
432.3290004
444.3853197
459.1673025
475.1748371
494.8856799
515.918466
532.9097553
553.4974535
576.0020563
592.8944093
609.0485084
626.6081273
642.2572535
654.7374572
667.8784555
672.0819058
691.4282757
702.0426536
712.3280959
724.7353524
730.5237184
734.5546421
743.1576021
746.4524235
745.1880033
340.8309969
348.4782816
360.2618343
366.9436916
381.4361404
398.0618594
412.4049756
427.884378
446.2583488
462.872097
485.0842833
501.5117425
516.0606361
536.1424665
552.2520846
570.8615328
591.7074459
605.7525005
628.3832354
641.3676223
654.5212703
666.2188554
679.4789413
686.7264079
694.4277183
703.7977407
712.6026298
721.6846521
723.3183487
728.3784802
332.6595281
339.9630296
350.4546825
360.4269334
370.4571878
382.0486762
392.5516963
407.2360779
419.2927443
436.2413015
446.7389744
465.4043902
484.7956737
497.8262125
522.8922729
537.8143675
562.7344141
576.0526529
591.1852025
603.3285507
620.2440231
635.4338167
642.8497955
658.5177379
672.7591477
681.8605573
688.0365887
698.3897905
702.7175258
324.9028089
326.8384973
333.0654363
342.2717913
352.3928491
362.1651135
374.2415585
375.7351555
385.4696544
402.0379319
414.6792427
429.172907
451.80641
471.3355486
488.8516841
510.5914866
524.9434197
541.5939279
558.2795227
574.3835221
585.1966662
601.7351144
623.3875212
630.8490383
642.2227491
321.9969966
324.9411582
328.285062
334.5414764
338.7166712
342.9859158
354.3096254
368.0772893
372.9688331
384.1098698
401.6754488
412.3617495
426.1359199
442.4252531
455.2099576
469.4705793
490.1748736
511.4438701
527.4690101
314.102164
317.6358949
323.1720552
328.7294741
332.6083609
336.5248188
342.5203675
347.9651395
360.528993
366.5985179
374.5159757
387.847559
398.7793828
416.896387
313.9882523
317.1859158
316.0279556
319.0793233
324.6943696
329.2632834
333.5575453
338.3793554
307.3866421
)
;

boundaryField
{
    flow
    {
        type            calculated;
        value           nonuniform List<scalar> 
15
(
659.1587602
730.0640275
770.2337336
758.5123744
780.4408795
797.8956297
798.9790902
804.4773807
802.5451868
786.5526002
783.655061
775.6623526
762.120129
745.1880033
728.3784802
)
;
    }
    obstacle
    {
        type            calculated;
        value           nonuniform List<scalar> 
30
(
638.2864113
616.2305289
629.6591943
628.8879593
633.6856355
640.6637245
629.3019225
644.3941724
642.8488154
619.3922541
640.6871865
613.8169165
623.0924774
617.0368769
638.234086
625.7533933
622.7042225
630.9054411
615.3951391
579.2818484
630.5721324
617.7779123
608.7310127
634.2191698
607.9572955
619.7910734
621.6626109
611.2250873
622.6512223
620.472944
)
;
    }
    frontAndBack
    {
        type            empty;
    }
    procBoundary1to0
    {
        type            processor;
        value           nonuniform List<scalar> 
21
(
705.1623658
755.9625859
751.4797848
717.0701282
674.8785699
628.7770056
570.2426017
518.0799509
476.730479
440.3632104
413.2684356
384.502666
359.2598556
343.536179
339.6922285
327.6142686
319.9805582
318.8918884
314.0431683
312.4807709
307.2800938
)
;
    }
    procBoundary1to3
    {
        type            processor;
        value           nonuniform List<scalar> 
36
(
704.328954
654.6922593
663.0708874
678.0315436
704.328954
683.558702
538.5403895
557.5403051
575.4385426
591.0491358
610.3592841
654.6922593
623.4645265
431.2274888
442.5376011
464.1914392
476.8397322
538.5403895
500.558477
346.2465885
351.5154845
360.787271
366.6453076
377.1897596
431.2274888
389.5899902
307.6636417
311.520021
312.0409657
315.7951211
318.5498741
322.5495818
346.2465885
326.82474
307.6636417
304.6974441
)
;
    }
}


// ************************************************************************* //
