/*--------------------------------*- C++ -*----------------------------------*\
| =========                 |                                                 |
| \\      /  F ield         | OpenFOAM: The Open Source CFD Toolbox           |
|  \\    /   O peration     | Version:  2406                                  |
|   \\  /    A nd           | Website:  www.openfoam.com                      |
|    \\/     M anipulation  |                                                 |
\*---------------------------------------------------------------------------*/
FoamFile
{
    version     2.0;
    format      ascii;
    arch        "LSB;label=32;scalar=64";
    class       volScalarField;
    location    "0.011";
    object      internalE;
}
// * * * * * * * * * * * * * * * * * * * * * * * * * * * * * * * * * * * * * //

dimensions      [1 -1 -2 0 0 0 0];

internalField   nonuniform List<scalar> 
546
(
2.581787115
3.06892098
3.141349829
3.429805801
3.986927156
2.834783802
2.589321849
6.007904574
2.286709824
1.734407877
4.89956972
2.878566541
5.473534679
3.522121507
2.812553409
5.852232173
2.575325101
2.415370561
1.757327742
1.761815988
2.715560763
3.042746395
1.447609309
3.385196604
2.846977235
2.532327843
2.178697341
1.213954744
0.796900062
1.594097904
2.785688182
4.194436512
1.689335629
4.389002412
3.245262025
3.715789187
2.772487295
2.162591577
2.897716834
1.903866673
3.388673494
2.810273428
3.199446904
2.11594133
2.955791799
1.791054353
2.763098016
3.704516966
2.383561902
2.412287869
2.910118733
5.219300972
2.98999476
1.308243012
1.324912433
2.2782959
2.926835532
3.568599867
2.005295904
2.599500486
1.882593283
1.52897702
1.79732341
1.897250223
3.565910339
3.62453868
3.252274415
3.287909358
2.281296717
2.80228424
3.157022453
3.249091965
2.397069857
0.9952330587
2.117050473
2.983463221
2.596510421
1.995136069
2.742819221
1.994329534
1.469287387
2.597618119
2.525232525
2.045725152
4.094718638
2.212171155
3.867848733
1.401125794
3.583658517
1.406064706
2.788611562
1.97356703
2.981080905
1.865112931
3.064849519
3.063886549
4.860194714
2.435299135
2.579920554
1.456469283
5.614770707
1.596433121
2.288052691
2.851226659
1.816575083
1.882215783
1.394713782
2.649314985
1.406097207
4.114209197
1.824486409
2.892224233
4.696862187
3.354077395
3.082653436
3.384579867
2.767071552
3.775485903
2.331633455
1.523573923
2.286202679
1.337527705
3.652417615
3.34003905
2.569483552
3.434806392
3.331099311
5.159633525
3.525816051
1.608233348
3.367223954
3.004565101
2.601752463
1.537483909
1.983290078
3.257817557
3.390885496
2.483682108
1.826815816
2.871143054
3.649754854
3.352429171
2.911379152
3.511075338
2.339683472
1.509906351
1.657722985
2.16515497
2.064471106
2.037004508
1.703600067
0.8818431936
3.169297218
1.447259893
2.245724485
2.964249683
3.497529241
1.50934026
3.050054659
2.194801565
2.23925671
2.630562309
2.235685038
3.957354325
3.300287517
3.546130674
3.031318258
4.062755539
1.394487214
2.468882569
3.547069173
2.576142749
3.712867458
3.100565558
1.61538596
3.663905634
1.74470227
2.393515214
1.581200832
2.679449836
2.174208615
2.650164087
3.224457945
1.804801336
1.070933013
1.705089323
2.183906499
4.201181195
2.347543304
3.279761904
2.619274918
3.351589996
2.593559708
1.402593864
2.253625567
5.325822282
3.169908626
2.989727441
3.945009754
2.533707564
2.119858541
2.852330476
2.650863521
3.763498611
3.304215038
2.238589772
1.968054292
3.619874891
1.735433714
1.126317985
1.355108917
0.8078223019
2.397636451
1.249021602
1.876453884
2.245581349
1.941916045
0.8360168147
3.310600471
1.597649189
2.20225731
2.031294993
2.475291447
2.236346991
4.011053995
2.522170073
2.058098564
1.655934577
3.485886601
4.201356164
3.356394853
5.622459253
2.177044512
4.752179917
3.584094381
2.635113447
2.429020033
3.358166856
1.797953986
4.330838915
1.13302678
1.079163392
2.168960887
1.122992117
1.147889977
1.488342051
1.677242454
1.050025526
4.505043065
1.841889429
1.298187863
2.35751758
2.369376757
2.415014874
3.536206664
2.14951828
3.906173765
1.359214072
1.276493782
3.106824383
2.336461533
1.906745571
0.9086267047
1.617428041
2.240127132
2.526036748
2.539604829
1.823402291
3.759019371
1.508754944
1.360842652
0.7794082056
0.8037309736
1.469724639
0.781520057
3.7433061
1.141493954
1.743426026
1.054530511
2.873605177
3.17866859
3.358167426
3.040695495
1.775172042
1.915392031
2.442299318
3.17176166
2.978397895
4.257316199
2.025279662
3.121378012
3.613709686
3.376234507
2.335038182
4.040616459
2.983395069
2.921376912
0.7396287679
2.13523977
2.281111454
1.53063821
0.6531344041
1.276806819
1.916803981
3.112234021
1.846326072
1.20574978
2.094496616
1.090574504
1.747529777
1.60088064
1.429527335
3.308866231
1.101981517
2.361737515
4.329401068
2.89714056
1.909806712
3.006682651
2.125120035
2.513221813
1.818959946
3.866818583
1.437516258
3.299165807
3.885997478
2.280587096
1.625346586
2.249055591
2.817575041
0.4068353125
0.3809303232
1.396515716
0.3823086651
0.6001234666
0.578292956
1.021443112
0.8178814099
1.155549785
2.30580972
1.294636908
2.401042325
0.9107630366
2.217996702
1.762169576
4.386275959
1.580440202
2.44135217
4.142425074
1.820782876
2.31590335
1.123073509
3.3781755
2.089343522
1.216403224
1.287579854
2.086455313
2.69456902
1.857086425
4.41535256
0.2092644657
0.6369911242
0.7735267518
1.407744554
0.715331219
1.59101636
0.6358142776
0.6609265824
1.652764864
1.288283299
1.336547017
1.228158256
3.357797109
1.75666017
2.792190155
2.124611398
1.731385686
2.036970491
1.765628669
2.079023791
2.729444431
2.973872232
2.848719875
2.610008146
0.8815325956
2.312527069
3.036989255
2.383405287
3.494787609
3.153058213
0.9078901566
1.706763473
0.4435160833
0.9238794918
0.3865501887
1.234873917
1.136897148
0.7459524548
0.8043493655
0.8413068413
1.747061326
1.212312418
1.566479596
1.815942441
1.73501326
1.008132066
2.004568184
2.105058321
2.35024097
1.579659609
1.78069199
2.144073025
1.039053221
1.746332412
2.714718147
3.025292876
2.354078181
1.200449696
3.827204074
2.073320179
0.7427244971
0.2698666698
0.2742011838
0.8079741806
0.4297557716
0.5075385023
0.9768146242
0.6591277668
0.5687203011
0.9415792891
0.764757833
1.613298397
1.248045417
1.118362914
2.365488691
2.013593856
0.8875352054
1.630879605
3.565088379
2.567193531
2.82938268
3.15589223
1.460155525
2.982567504
3.136422915
1.310591663
1.851546065
1.728640617
2.112722697
1.488228783
0.3083094918
0.3983050814
0.6729403311
0.5607776159
0.2836065013
0.4520389665
0.5712138039
0.5030710134
0.62569342
0.7076876446
1.40912852
2.10029324
0.8086434427
1.000152792
2.237192138
1.099776848
1.112456015
1.592164919
0.9963614467
1.162384488
2.078713578
1.406536505
2.178064128
2.36696267
3.1713884
3.20260286
1.937201138
1.322817125
1.581969431
0.06154903858
0.3139655153
0.3547779517
0.1765106285
0.4841600861
0.7827225344
0.3224165779
1.308509524
0.2569908619
0.5521167518
1.5272508
0.4455533066
0.8220520706
0.9908400181
0.8538327144
1.244070452
2.229201491
0.4555031329
1.347413733
1.56556392
1.625256438
2.866400579
1.850464846
3.151143532
1.033447459
0.5247438866
0.5642960179
0.2444099696
0.5607324761
0.4339192834
0.7471594945
0.367232929
0.3914417514
0.3556466774
0.3863276193
0.2659482812
1.190108942
0.8533999602
0.6833460824
1.697687292
0.7592851137
0.6875475485
1.017355258
1.477847851
0.5473218021
0.428071373
0.2631917648
0.5580965604
0.02925643311
0.5248446418
0.5672169122
0.5444347626
0.5386770067
0.4798602098
0.5625997589
0.2523809215
0.599235036
1.242138499
0.5523848932
0.5144918972
0.4614730991
0.4704181796
0.4889516031
0.4737203328
0.1599574415
0.3673248542
0.7239917085
)
;

boundaryField
{
    flow
    {
        type            zeroGradient;
    }
    obstacle
    {
        type            calculated;
        value           nonuniform List<scalar> 
30
(
0
5.167459052e-18
0
3.88829595e-19
0
3.427848594e-18
2.907224558e-19
1.304528671e-18
1.069895052e-19
0
1.206294877e-18
2.668302446e-19
0
5.190477663e-19
1.796423751e-18
1.387241749e-18
2.321239157e-18
2.161106923e-18
0
2.175344946e-18
2.884730165e-18
1.163263565e-18
0
3.113097396e-18
1.404880326e-19
6.037879178e-19
1.76164508e-18
2.959316354e-19
0
7.058661931e-19
)
;
    }
    frontAndBack
    {
        type            empty;
    }
    procBoundary1to0
    {
        type            processor;
        value           nonuniform List<scalar> 
21
(
3.00651478
2.685587669
3.536968886
2.018915035
1.181399092
1.618729956
2.118867666
1.108952107
0.7357066874
0.1643308997
0.6127798678
1.04959761
0.6631580007
0.2168431141
0.3922117584
0.4455492271
0.167785193
0.5252270457
0.7278870151
0.1492432831
0.3564221867
)
;
    }
    procBoundary1to3
    {
        type            processor;
        value           nonuniform List<scalar> 
36
(
3.95152394
2.434552719
2.262026747
1.091350009
3.95152394
1.22042784
1.172309124
2.224333376
1.674618599
2.329987157
2.216305521
2.434552719
3.482335809
0.5105186222
0.7547891433
0.5970345718
0.2199081234
1.172309124
1.769559793
0.6145523122
0.3645541301
0.23979088
0.1117331536
0.7421708908
0.5105186222
0.7409925666
0.3157441964
0.2278686709
0.7860533029
0.09705672619
0.2759362159
0.5104383625
0.6145523122
1.213739794
0.3157441964
0.1907774664
)
;
    }
}


// ************************************************************************* //
