/*--------------------------------*- C++ -*----------------------------------*\
| =========                 |                                                 |
| \\      /  F ield         | OpenFOAM: The Open Source CFD Toolbox           |
|  \\    /   O peration     | Version:  2406                                  |
|   \\  /    A nd           | Website:  www.openfoam.com                      |
|    \\/     M anipulation  |                                                 |
\*---------------------------------------------------------------------------*/
FoamFile
{
    version     2.0;
    format      ascii;
    arch        "LSB;label=32;scalar=64";
    class       volScalarField;
    location    "0.011";
    object      linearKEMean;
}
// * * * * * * * * * * * * * * * * * * * * * * * * * * * * * * * * * * * * * //

dimensions      [1 -1 -2 0 0 0 0];

internalField   nonuniform List<scalar> 
546
(
6.996236913
6.791731727
6.585065944
6.418364132
6.218113186
6.096600232
6.06717723
5.934809324
5.84887375
5.732501654
5.616458977
5.58784347
5.458887536
5.515249868
5.426327255
5.227964256
5.09665909
5.131837565
5.09361299
5.001397244
4.962577045
4.922991693
4.849530589
4.850251603
4.685267613
4.569053665
4.420417836
4.261427304
4.003989894
3.58197861
8.783618956
8.494352138
8.18891784
7.957083546
7.726690387
7.567476743
7.325369008
7.173403362
7.015983493
6.888339952
6.731704303
6.64024749
6.540017387
6.468334457
6.338808859
6.139207413
6.018259477
5.964111727
5.863156007
5.756198539
5.658585176
5.586785962
5.540767898
5.400011865
5.294352515
5.187280206
5.011268854
4.784662755
4.509168817
4.130416622
10.28785766
10.08605519
9.795450995
9.555201222
9.197005662
8.84367002
8.659220667
8.4243944
8.26904604
8.070385486
7.866320195
7.777779806
7.548337884
7.367253071
7.241793485
7.046578961
6.951463377
6.865760719
6.656584004
6.568671395
6.393884075
6.325514292
6.276759897
6.044038218
5.879316566
5.702281418
5.573524855
5.377233744
5.166494386
4.83524599
11.37829425
11.25455668
11.15426472
10.8770012
10.66496218
10.44962529
10.1690839
9.859796149
9.533076507
9.32432552
9.099966128
8.859646522
8.676180547
8.47810471
8.262551054
8.087464664
7.940718273
7.755084863
7.58364155
7.426050765
7.271932516
7.069634411
6.957338153
6.834156188
6.688435261
6.522082441
6.271319211
6.058604791
5.87610526
5.609432518
11.91062632
11.86685418
11.99407493
11.96788389
11.76273576
11.51998166
11.30951185
11.06879537
10.84188266
10.52718889
10.25708197
10.11401893
9.928672673
9.667673947
9.418025959
9.160701834
8.875801558
8.690965005
8.502837183
8.310798795
8.135060319
7.928407908
7.789210159
7.64927123
7.472302962
7.316965889
7.195111817
6.806984436
6.529007455
6.215372511
11.99358184
12.21467403
12.42010274
12.47416147
12.38262438
12.21446882
12.15521615
11.99687585
11.81962116
11.64626019
11.52678011
11.26974113
10.92378575
10.73864359
10.43948772
10.20388282
9.906798981
9.787930257
9.601746348
9.339039705
9.030451415
8.858106318
8.633739674
8.42500006
8.28864219
8.094439108
7.832497366
7.602123513
7.344694927
6.987886735
11.60712814
12.04359154
12.26727754
12.43041805
12.67701074
12.83366024
12.81667779
12.75903619
12.67680214
12.54437571
12.33382111
12.13001348
11.9930861
11.72088443
11.45439703
11.25786671
10.98750043
10.73976443
10.50894901
10.26524528
10.10037913
9.843851272
9.581584843
9.397940008
9.199502887
8.857734454
8.677021553
8.449260421
8.13190685
7.804110607
10.97052872
11.43554874
11.94679042
12.40526599
12.59954452
12.86350296
13.13549187
13.23566956
13.2090154
13.16986814
13.07056448
13.00400357
12.74766983
12.60367364
12.50135162
12.3224072
12.08374795
11.76986191
11.56960212
11.38432215
11.15011021
10.89168437
10.54648547
10.25962531
10.00864732
9.725585153
9.544847026
9.235755205
9.03275699
8.693214238
10.51820354
10.95914229
11.42986639
11.84661508
12.32848875
12.56818824
12.88845782
13.13193489
13.36274747
13.44780428
13.52304968
13.62134969
13.55012245
13.42036266
13.26531444
13.14851834
12.96415241
12.72963129
12.43695404
12.22665135
11.88998895
11.72344201
11.41293524
11.20033603
10.93743079
10.75625737
10.41868342
10.14484001
9.799607786
9.534796921
9.838831749
10.19979435
10.67022356
11.13048849
11.67761658
12.12143339
12.53347391
12.94821686
13.24334968
13.51819909
13.72752133
13.90174799
13.90649746
13.87935726
13.83696528
13.78442461
13.70352172
13.52397388
13.25187399
13.05634626
12.85152257
12.60962028
12.40778259
12.10693739
11.8745731
11.58466903
11.24063068
10.96014914
10.5529543
10.15618743
9.458020524
9.806885889
10.18694601
10.67980832
11.05612317
11.53083998
12.01484517
12.42322352
12.92533763
13.33584249
13.63628262
13.8377247
14.09590244
14.23588875
14.20728385
14.19058743
14.23405364
14.14994321
13.98913444
13.81665651
13.63680078
13.44240886
13.18935095
12.93024231
12.5757
12.4005304
12.06654074
11.75582603
11.45630438
11.05265803
9.083336812
9.396084646
9.706213551
10.07550808
10.54789553
10.95535674
11.42189627
11.86191277
12.39482586
12.80358251
13.27790269
13.56387003
13.88940778
14.22891609
14.45124508
14.50703805
14.53650565
14.5487175
14.57237322
14.40160755
14.26922014
14.13714864
13.93597417
13.71135494
13.41616383
13.16745393
12.88758255
12.550945
12.26423243
11.99496076
8.754306038
8.998026235
9.32205495
9.530331216
9.850066456
10.25054579
10.65852093
11.0694988
11.5573626
11.97187723
12.45447524
13.05755546
13.50923941
13.869885
14.21076575
14.47957552
14.63227753
14.78951247
14.86911876
14.89177886
14.83048417
14.79027322
14.61860217
14.46728917
14.21508389
13.95794415
13.69025159
13.42973258
13.09672316
12.78980324
8.453315949
8.629396793
8.811327444
9.17244805
9.503079828
9.799095094
10.10887967
10.48253173
10.88866875
11.41003597
11.94455083
12.34462437
12.80955953
13.3036679
13.72079116
14.13537836
14.51418418
14.77374176
14.99667745
15.11911074
15.15585061
15.05044706
15.08225104
14.93252028
14.80428394
14.63668592
14.51759697
14.18535986
13.84460066
13.46377433
8.383843227
8.540821424
8.67407232
8.765834953
9.050661306
9.310420321
9.574827783
9.923771143
10.34528285
10.72590522
11.1721143
11.58681358
12.13140985
12.6623443
13.15816194
13.70151528
14.0894649
14.41048992
14.78052366
15.05559902
15.27583918
15.45024557
15.51014193
15.46670506
15.3778986
15.1493263
15.05345722
14.85996117
14.54505472
14.22423819
8.132681596
8.194855523
8.368172035
8.461986541
8.649710822
8.857609615
9.17059545
9.478069179
9.778728016
10.11340928
10.55599718
11.05821525
11.48063034
12.0172988
12.4767485
12.91581797
13.38255954
13.81015385
14.20196913
14.61769
14.97442958
15.19769607
15.38399092
15.4525032
15.59224288
15.55828497
15.37859458
15.26436868
15.04976017
8.175731847
8.196124299
8.249801028
8.398641334
8.505675007
8.701147761
8.897327524
9.14282149
9.37243197
9.706289427
10.00710605
10.32442626
10.69458862
11.11385041
11.62865071
12.15354536
12.78707722
13.31110143
13.90740626
14.20019364
14.63678265
15.03022971
15.31076128
15.59528805
15.64945313
8.00949242
8.08745044
8.184228435
8.27664895
8.360093187
8.46931649
8.57802461
8.709785227
8.960281668
9.222791121
9.449389794
9.766727331
10.14880091
10.60258544
11.0494629
11.52258945
12.00149169
12.52304038
12.96866022
8.00031
8.040225169
8.119429334
8.177538
8.236491135
8.324374038
8.453212952
8.53567819
8.671993381
8.790593071
9.130118223
9.37902812
9.669038991
9.942099786
7.998189983
8.038304808
8.048444835
8.048691578
8.152303737
8.147258277
8.229606823
8.349831549
7.925274226
)
;

boundaryField
{
    flow
    {
        type            calculated;
        value           nonuniform List<scalar> 
15
(
3.58197861
4.130416622
4.83524599
5.609432518
6.215372511
6.987886735
7.804110607
8.693214238
9.534796921
10.15618743
11.05265803
11.99496076
12.78980324
13.46377433
14.22423819
)
;
    }
    obstacle
    {
        type            calculated;
        value           nonuniform List<scalar> 
30
(
2.345997213e-18
2.395250223e-18
2.267033842e-18
2.337712484e-18
2.155180655e-18
2.158815257e-18
2.164693207e-18
2.119016756e-18
2.117349623e-18
2.0277516e-18
2.034276276e-18
2.058923577e-18
1.986212568e-18
1.998126912e-18
2.023008156e-18
1.919562616e-18
1.874868088e-18
1.875564406e-18
1.880341859e-18
1.932285898e-18
1.838303995e-18
1.822550691e-18
1.792414407e-18
1.859206228e-18
1.780638387e-18
1.687120093e-18
1.671628303e-18
1.660237574e-18
1.523017608e-18
1.399320761e-18
)
;
    }
    frontAndBack
    {
        type            empty;
    }
    procBoundary1to0
    {
        type            processor;
        value           nonuniform List<scalar> 
21
(
7.203893965
9.054830949
10.50177777
11.58513635
11.76065102
11.6050298
11.1941935
10.51458471
10.0303371
9.49906322
9.133688271
8.850429142
8.577339438
8.398053519
8.225428034
8.094219682
8.120601807
7.944837508
7.977949119
7.955833713
7.961493499
)
;
    }
    procBoundary1to3
    {
        type            processor;
        value           nonuniform List<scalar> 
36
(
14.81180444
15.66352366
15.75426004
15.59921814
14.81180444
15.50287044
13.49528608
13.98232819
14.57921735
14.92801868
15.31678679
15.66352366
15.59449158
10.34093504
10.85399054
11.24121841
11.75435241
13.49528608
12.25336643
8.478349377
8.630079958
8.700955056
8.944668789
9.216406991
10.34093504
9.477278187
7.974038966
7.983638821
8.01198108
8.086445232
8.173620832
8.215666074
8.478349377
8.265250909
7.974038966
7.955224591
)
;
    }
}


// ************************************************************************* //
