/*--------------------------------*- C++ -*----------------------------------*\
| =========                 |                                                 |
| \\      /  F ield         | OpenFOAM: The Open Source CFD Toolbox           |
|  \\    /   O peration     | Version:  2406                                  |
|   \\  /    A nd           | Website:  www.openfoam.com                      |
|    \\/     M anipulation  |                                                 |
\*---------------------------------------------------------------------------*/
FoamFile
{
    version     2.0;
    format      ascii;
    arch        "LSB;label=32;scalar=64";
    class       volScalarField;
    location    "0.011";
    object      linearKE;
}
// * * * * * * * * * * * * * * * * * * * * * * * * * * * * * * * * * * * * * //

dimensions      [1 -1 -2 0 0 0 0];

internalField   nonuniform List<scalar> 
546
(
6.189357052
6.869572535
6.933831071
11.27496695
5.589444132
8.15683242
6.231437782
7.24706136
6.724005493
5.720587949
10.38002914
10.0866308
7.245225799
4.340238129
6.311983332
6.999366916
6.173857625
4.48736805
3.326712906
3.988467199
5.168677919
5.723901534
2.832498054
4.411904492
5.037146553
5.017335404
2.727577123
2.487592569
3.123760448
2.95577138
6.654634188
15.41271168
9.0747243
7.465609096
10.33363862
11.02711299
7.447077751
3.597710343
10.05621818
7.147555324
8.733113767
7.845774367
5.992169661
4.746200193
7.562633505
3.220408772
5.199593344
9.748063164
4.411537121
5.200894053
5.516497705
7.200231173
5.716457442
3.707208942
1.118342716
3.4682311
4.08260998
6.115525847
5.486892108
4.034015932
13.08247938
9.089353816
6.16540091
8.166692537
12.87562159
10.30491718
9.560856085
8.008923244
5.095401867
7.580684289
6.030376887
8.538241195
6.07963532
3.27964432
5.014668991
5.622174418
6.920030246
5.585474479
10.79430409
8.069553435
5.398538762
4.760886326
4.087450356
4.248458668
4.670853432
7.3666323
5.413888143
2.951527241
9.872325741
3.202762294
11.21801072
11.38294124
16.30328149
6.610756168
11.59155138
12.5525208
13.73440556
8.514778956
11.24839116
6.601068975
11.45769347
6.590013063
10.5963631
8.460701734
8.719753642
5.281801645
5.295602395
12.30048617
8.540242001
6.499992485
4.413573659
5.667630309
6.704506643
8.004181631
6.740956984
7.729512075
6.707932626
10.83746859
6.309069817
3.745353479
13.225025
11.87646452
12.70036437
14.9901365
9.115851477
13.76958095
12.70808672
11.48298846
10.07459214
8.512195839
13.87878868
7.650563514
10.62030462
10.39245614
8.779991975
12.14052137
12.13853451
6.397575949
6.58323299
9.594543299
11.68884733
9.822405203
5.660158855
4.7735587
9.20524521
6.102056096
4.244460053
6.810505105
5.95479195
5.549930926
12.81777463
6.179679395
13.40696622
10.09848075
15.10758781
14.55032944
15.20137591
11.75714662
12.5229575
11.37010078
5.740699487
12.01992942
6.148445405
8.426222727
11.12856016
13.62968768
13.51356295
19.31132438
5.692896193
9.649829273
12.41515343
9.981220964
10.23924182
5.672565797
6.366124802
8.422261446
6.958815672
7.282848392
6.402434146
9.361421615
9.942614311
18.24466291
18.2881281
9.861744641
13.65331757
10.77180631
14.4285345
16.34028695
12.76119085
16.04250412
11.84060689
18.08991954
7.910291572
8.692911846
10.28907719
22.06622292
10.5882791
6.932144332
12.49855201
9.228826454
7.042494884
15.993467
11.92449029
11.64660369
10.61545868
7.842733891
8.017106765
11.9367822
6.01935047
6.748715205
14.45483332
11.9455691
12.99688775
12.07278296
13.80727224
12.42659249
15.98672044
8.753104518
16.70849407
10.41311862
12.58905959
12.57725361
12.48847722
10.0810827
20.13691918
13.62159221
10.18829514
10.33289085
9.16129263
12.47649807
7.325645755
14.10828962
10.64912847
16.56649611
10.84552379
7.092247391
13.00713532
10.11389206
7.798800324
10.78399035
4.609304207
10.74388456
11.61600638
6.649225145
11.93983638
7.722450369
7.871677873
5.824727254
20.81539925
10.39502108
13.94293145
16.47468713
11.6276869
10.23611408
14.25341933
15.3113469
16.06875945
8.454603033
12.01015288
7.028821223
10.00547194
5.140816768
10.06444676
6.027752918
6.818160219
10.3303778
13.26714479
11.8403635
10.985531
6.43949943
10.43136977
6.28514745
8.467510524
8.18707265
9.155524401
21.10706577
6.181544898
11.70618948
8.632921303
18.29375984
19.17099123
13.94861408
14.52336094
7.267527422
13.16142788
16.16416744
15.70070484
14.70942469
19.46731849
13.76325873
12.34145226
13.53669458
15.54183467
14.32314615
16.7148894
14.19457572
10.61122108
5.570669262
8.098141836
7.013070211
14.50442022
8.109265512
7.953483629
13.96011645
17.07295072
17.08492562
10.36194438
13.21511831
12.22773316
11.92149485
8.516995315
7.708359812
22.86841913
8.604716542
12.02541162
19.1994178
18.44640242
11.25879718
15.04174845
15.50400083
11.83496506
9.072444483
16.4072581
11.06516259
14.02150086
17.92314496
14.22245464
12.86713585
10.45189818
8.737374752
8.111221927
3.474297754
9.119842007
9.710616455
11.19843572
9.669060519
12.24225435
6.476007416
10.55227229
15.36203069
12.8050488
20.76962967
9.326607359
19.82293087
12.49799808
21.47022676
11.19218225
18.82354779
20.94138755
11.59313183
15.58535474
8.114111502
13.94865739
14.6350383
10.46620858
14.013508
12.24311749
19.39426943
17.08012845
10.01669002
4.68120065
14.11614317
9.858517961
13.48971885
4.272783919
11.85882742
4.835833459
7.769256493
16.11127646
10.36028679
8.516663799
9.214463152
20.47529367
15.70245518
17.00031177
14.02557745
12.89840194
14.00304075
12.54507807
12.21225729
19.37783022
15.33661
19.10424409
19.23620949
7.076294033
12.22336237
15.13346074
12.74876666
14.54579178
11.84107806
11.3676828
12.5728234
8.995293485
8.094159646
5.52258652
16.85085096
11.95761389
11.32652633
12.69880951
15.94564668
16.55884985
10.25963027
18.66453053
9.370245818
14.0131627
11.60130783
20.0587062
14.46434033
18.03026932
16.20917784
12.78782168
20.17860786
14.86250879
17.13063023
19.2578815
14.03456706
12.03201857
9.619246694
9.491018442
21.16829248
5.040806653
4.726149652
7.81241789
10.47637959
5.281639444
11.80285831
8.073825537
7.269023257
14.68773245
11.12457618
7.252661931
10.63651139
13.41171001
11.66790765
21.65534197
13.3213551
12.85460353
14.96697336
24.85527175
13.62432899
19.6230056
15.75065201
16.69317528
14.21532474
13.78823387
9.805746128
15.96532072
12.4357202
12.18301632
14.84587458
6.954656007
8.687939162
12.03971374
11.42474258
4.618228158
6.6969683
9.168298096
6.214869576
8.075630275
8.173798139
15.24427302
8.703163342
9.996073251
14.60185753
18.40865657
10.81226451
11.27945711
13.08802249
10.77607976
8.515635124
22.67765181
9.862291595
16.26910563
16.66051441
14.73583954
21.09900836
13.07567547
15.1888551
11.77548367
3.323663654
6.946568019
4.875756702
5.586058849
12.93953981
9.082566855
2.07043788
11.34484893
4.748744342
6.869961692
13.11755871
12.63408095
11.88009717
11.53977688
9.254512104
15.78328269
13.56111018
5.816076965
15.10808309
13.87037099
14.06789369
20.57794079
17.32518588
18.99169093
10.62160719
10.89218029
6.589015259
5.294742762
13.53286821
6.190686598
9.383129035
6.014857248
9.191198266
7.063597172
7.491883915
9.005571316
11.12556491
14.41316752
5.941023012
16.15333074
10.80552369
9.62724734
12.12582448
17.15683589
6.294476904
6.549563266
5.457297959
7.13068405
1.138693005
10.20825567
10.50091925
11.69704526
11.40387611
9.694670156
5.11642863
4.016670087
8.043354981
9.626994499
11.64821781
9.490310753
6.041603534
6.662518647
10.42219425
8.673542221
2.586708614
13.50060563
11.98082794
)
;

boundaryField
{
    flow
    {
        type            zeroGradient;
    }
    obstacle
    {
        type            calculated;
        value           nonuniform List<scalar> 
30
(
0
1.0367186e-17
0
1.573587503e-18
0
4.246606004e-18
2.460400075e-18
1.650554712e-18
1.321130586e-18
0
4.182478689e-18
9.734828821e-19
0
1.446888003e-18
4.036898524e-18
4.72299846e-19
3.726001484e-18
3.210842246e-18
0
1.655196083e-18
2.115308842e-18
2.957893908e-18
0
1.56932379e-18
1.423760518e-18
1.782205318e-18
1.657169866e-18
1.522634686e-18
0
1.452193133e-18
)
;
    }
    frontAndBack
    {
        type            empty;
    }
    procBoundary1to0
    {
        type            processor;
        value           nonuniform List<scalar> 
21
(
6.36115951
10.14873934
10.68511733
14.24445856
11.0074164
6.773390882
8.599063084
11.76067523
10.83520755
10.13770286
10.25102407
7.472789254
9.872916824
8.321838579
8.039066845
7.873493673
4.833001589
12.00988438
9.284069938
2.502432578
11.33186926
)
;
    }
    procBoundary1to3
    {
        type            processor;
        value           nonuniform List<scalar> 
36
(
17.38153968
15.7906771
22.22589275
8.030680255
17.38153968
9.794875762
14.88880161
17.18134248
14.76105651
16.60000002
15.09958118
15.7906771
14.11614326
6.972684619
17.93099375
8.34748478
5.862424114
14.88880161
19.69551243
8.218440665
6.473060527
6.587479255
4.56728969
6.903519418
6.972684619
11.85662838
4.283388854
3.317199596
11.7850244
3.081744218
4.595360127
12.85945499
8.218440665
11.93232707
4.283388854
5.723283694
)
;
    }
}


// ************************************************************************* //
