/*--------------------------------*- C++ -*----------------------------------*\
| =========                 |                                                 |
| \\      /  F ield         | OpenFOAM: The Open Source CFD Toolbox           |
|  \\    /   O peration     | Version:  2406                                  |
|   \\  /    A nd           | Website:  www.openfoam.com                      |
|    \\/     M anipulation  |                                                 |
\*---------------------------------------------------------------------------*/
FoamFile
{
    version     2.0;
    format      ascii;
    arch        "LSB;label=32;scalar=64";
    class       volVectorField;
    location    "0.011";
    object      momentum;
}
// * * * * * * * * * * * * * * * * * * * * * * * * * * * * * * * * * * * * * //

dimensions      [1 -2 -1 0 0 0 0];

internalField   nonuniform List<vector> 
546
(
(0.005916181295 -0.001535721678 -0.0002850749419)
(0.005585355298 -0.0002595101395 0.001004679033)
(0.007027849493 0.001172098322 -0.0005358642472)
(0.01075692432 -0.002398160205 -0.000252776848)
(0.003768316373 0.00143352087 0.001477884425)
(0.007496384757 0.0009793133711 0.002260993669)
(0.004698736297 0.001187195517 0.0003455470403)
(0.007764556364 -0.002494302843 0.0006870377688)
(0.0004843026039 0.001158815154 0.002807169767)
(0.005611076035 -0.0007420307275 0.000256918408)
(0.009486305289 0.0008323803484 -7.751747828e-05)
(0.006608011382 0.001270703545 0.001897728121)
(0.004021791297 0.0008839822731 -0.002759422725)
(0.00442770506 0.001194506458 -7.353726489e-05)
(0.00648704404 0.002845001042 -0.0006331450338)
(0.005110988775 0.000138505984 0.001105724674)
(0.00591613815 0.001228905737 0.001052079822)
(0.003192172387 0.002756827419 0.002726549717)
(0.001650306136 0.000341546796 0.0003784025)
(0.002176933861 0.002396950154 -0.0003245801541)
(0.003124196697 -0.0002343383179 -0.0009601187182)
(0.00403844724 0.000990238342 0.0003536262128)
(0.001365182691 0.0004295521512 0.001840925726)
(0.003753535245 -0.0005261241229 -0.0007651980419)
(0.002747498494 0.001208883096 -0.0002405485124)
(0.005728085961 0.002455578476 -0.0004749973031)
(0.002402357768 0.001734512834 0.001481027576)
(0.001701849272 0.001637333318 -0.0004258461601)
(0.00341852601 -0.0001564360615 -0.001001400334)
(0.001995639273 0.0008271229599 0.0003641222888)
(0.00504853319 0.002151675472 0.0009602399959)
(0.01516249882 0.001776090775 -0.0008088272108)
(0.006195106221 0.002516321977 0.0002991140905)
(0.007608256271 0.005154133305 -0.001050747594)
(0.00742402398 0.005577485046 -0.000928534837)
(0.01033323436 7.876185642e-05 0.001303351456)
(0.006235245988 0.002406039302 0.001861472637)
(0.003033618268 0.001784240403 8.761669196e-05)
(0.009103751227 0.001137852223 -0.001304222263)
(0.007449210788 0.00108649307 0.0001650387024)
(0.00883778932 0.0006410656901 0.0009910664122)
(0.006775411946 0.002169195732 -0.001010402032)
(0.005321186592 0.0007619391967 -0.001832155413)
(0.004806630726 0.0009868674026 -0.0004670389508)
(0.006268133201 0.00340220166 0.003065256621)
(0.002809609085 0.002213703354 0.001095830235)
(0.006106005158 0.003309169689 -0.001347270565)
(0.008684959146 0.001803865974 0.0003347112411)
(0.003610184866 0.0007363386033 -0.001287561092)
(0.005283955625 -0.0001483600604 0.001519840502)
(0.00449852326 -0.0003217231879 0.0009082380059)
(0.006648459973 0.00185287271 -0.0009791238544)
(0.004934544835 0.0003846020571 -0.001654661755)
(0.00386539875 0.0006131197252 0.0006405416358)
(0.001370984328 0.0003860999565 -0.0001686697199)
(0.001283552514 0.001503146232 -0.0008545273942)
(0.002608627846 0.001608371311 0.0001884394198)
(0.006075158906 -0.0005917545021 -0.0006022830107)
(0.006991776598 0.001625448188 0.001081434533)
(0.005351876078 -0.001006386749 -0.001057457855)
(0.01106598488 0.005745189383 -0.001103162964)
(0.008160482953 0.003250522494 -0.001921570671)
(0.007880891343 0.002369311931 -0.001351736901)
(0.008346383258 0.002953883895 -0.0005191353189)
(0.01399664243 0.002875608418 -0.00336886722)
(0.01329877531 0.003902512137 0.001666392107)
(0.009626538241 0.002586713865 0.002314697818)
(0.008715260502 0.003155153097 5.178438752e-05)
(0.005734797122 0.003138536821 2.174634916e-05)
(0.008519899474 0.003634060098 -0.001364502346)
(0.005320943604 0.002526927127 0.0005700301606)
(0.007262313714 0.003403316041 0.000303992392)
(0.005519310969 0.002334725243 0.0002108342248)
(0.004346269165 0.001387161569 0.0002850748398)
(0.004526987672 0.0009509513941 0.0009633425386)
(0.005613376153 0.002748770598 0.0006324326739)
(0.006221625678 0.0007648879547 -0.002072265883)
(0.005177080158 -0.0003199263042 -0.000763488732)
(0.009259141392 0.0002039695291 -0.002017166277)
(0.005947129071 0.003105581123 -0.002566747375)
(0.006663165588 0.0004643467166 -0.001847877813)
(0.004444435077 0.002308001617 -8.245126746e-05)
(0.005413299775 0.0004286840969 0.001341990706)
(0.004032531877 0.001076736298 0.002267509953)
(0.00365909945 0.002945687349 0.0006740651608)
(0.007744253852 0.001560904061 0.0002729753627)
(0.004726475308 -0.0003141082778 -0.0002191947484)
(0.004127281657 0.0007194298281 -0.0001083748086)
(0.01174514238 0.001298995071 0.0002904277859)
(0.004393008286 0.002385335722 0.0009826462831)
(0.01271317199 0.004356162455 0.001192028471)
(0.0113230728 0.003023229815 -0.0003295761717)
(0.01684171899 0.004235522141 -0.001935232585)
(0.007509356265 0.00341635245 0.0004571770532)
(0.01185760731 0.003632383232 0.0006475573403)
(0.01340313928 0.004033151502 -0.001550006716)
(0.01422716862 0.004052555808 0.0004462624163)
(0.007851103449 0.003543500314 0.0002659551495)
(0.01134915619 0.000922092321 0.002973337218)
(0.008224420798 0.002969915061 9.972262793e-05)
(0.01146361182 0.00244320764 0.001698747148)
(0.007862288355 0.002013936907 -0.0008056792187)
(0.01206711314 0.004371768825 -0.0001507832671)
(0.01066826174 0.002789718773 -0.0002905961712)
(0.008045357338 0.001689234608 0.001557337267)
(0.005211042136 0.002135548987 0.0008601599582)
(0.0055809064 -3.076627789e-05 0.0003817145773)
(0.01189078984 0.00376894006 -0.001741551397)
(0.009290278676 0.0008048620907 0.0004779423476)
(0.00761742563 0.003375004388 0.001075233212)
(0.005068784642 0.001656321791 -0.003635468968)
(0.005921721611 0.003389259071 0.0007454032424)
(0.006430293063 0.003451572183 0.0003836164905)
(0.007776486116 0.001262155214 2.305825559e-05)
(0.007163783308 0.0006454508976 0.0006369833628)
(0.007250960943 0.002166069495 0.001054506145)
(0.00795062813 0.002431419955 0.000977218356)
(0.009430230972 0.004307162085 -0.003094140357)
(0.006737605433 0.002760172107 -0.0003013951424)
(0.004970784477 0.001290170598 0.0005054243002)
(0.01389588563 0.003583561294 -0.001049846174)
(0.01113994477 0.003453955767 -0.0002369308029)
(0.01320503059 0.003154531281 4.14245014e-05)
(0.01611955733 0.005977669073 -0.001178700485)
(0.007089291854 0.005109246973 0.001507285069)
(0.01446373299 0.005598712163 -0.002610726034)
(0.01101044647 0.003937413687 -0.0002610163727)
(0.01393166606 0.005170373588 -0.0002291800282)
(0.01069208625 0.001539730233 0.001291667749)
(0.008308595279 0.003034214149 -0.0002335276081)
(0.01353189376 0.00723536469 0.0004524821871)
(0.007704975081 0.004210049411 -0.0002182919106)
(0.01253261776 0.003834902876 -0.0002389599125)
(0.01128673219 0.003054781483 -0.003377480856)
(0.008613349154 0.0009891005434 0.0004677302031)
(0.01395990293 -0.001151502099 -0.001058637414)
(0.01096216712 0.001808629273 -0.000289954856)
(0.006402371644 0.001335783484 0.0001358127906)
(0.006460942993 0.002173954734 -0.002370302638)
(0.008869306992 0.003580654819 -0.000712078256)
(0.01203769532 0.001920256221 -0.001531742658)
(0.008339868665 0.004947355744 0.0004900282819)
(0.00675077685 0.001583173083 0.0004703616998)
(0.007112731404 0.0008865364526 -0.001132608521)
(0.009953676874 0.001425215758 0.0008851869664)
(0.006679262235 0.003371341467 -0.001951101853)
(0.005819470646 0.0004555750933 -0.002128045257)
(0.007977910949 0.002253253254 0.0006313424882)
(0.007614014749 0.0008568220594 -0.0001409282912)
(0.00672872272 0.0003937450068 -0.0008015815909)
(0.01255285371 0.004213642425 0.001646887348)
(0.006903536971 0.002435408031 -0.0001765993088)
(0.01372430209 0.003399269005 -0.001529363882)
(0.0117282781 0.001986473625 -5.539098067e-05)
(0.01461971122 0.004798096747 0.0002030010754)
(0.01622216624 0.002388306133 -3.693766872e-05)
(0.01430307152 0.005973395397 0.0006964028196)
(0.01270977548 0.002092030697 -5.745118421e-05)
(0.01203142632 0.003771323488 -0.0009404775028)
(0.01306498892 -0.0002225945677 -0.000232666081)
(0.00695191466 0.002409389984 -0.0006947612608)
(0.01248080909 0.003514942523 0.002359330299)
(0.007261863639 0.002983549441 6.051893915e-05)
(0.01025578048 0.004807164944 -0.001815174481)
(0.01021042344 0.006013338787 -0.0007939684427)
(0.01624133438 0.002876482011 0.0005587239519)
(0.0139545383 0.005721066617 -0.001098609861)
(0.01872418529 0.009833092636 -0.0009717863717)
(0.006563486609 0.002179738212 -0.001545149601)
(0.01136271549 0.003808214884 -0.001838759609)
(0.01253491967 0.005746006563 -4.639323288e-05)
(0.0101666577 0.004200652548 -0.002661359588)
(0.01003634915 0.002614633309 -0.002918757689)
(0.007310480982 0.00253412896 0.0004837874054)
(0.00668351011 0.003801888175 0.0001174724556)
(0.008835249525 0.00370375751 -0.001050258175)
(0.007152866991 0.002222982781 -0.002577655618)
(0.009153791872 0.003569383071 -0.0001116728584)
(0.006470434392 0.002689669322 -0.001281297319)
(0.01161452694 0.003850601531 0.0001506116215)
(0.00924674597 0.004645728552 0.0004175683231)
(0.01858178545 0.001689166006 0.000877572809)
(0.01642457004 0.005593578568 -0.0001757129735)
(0.01058060247 0.002779726632 0.0001935602565)
(0.01110447048 0.005949742642 -0.0009040088465)
(0.01235927317 0.001109374817 -0.0007941194606)
(0.01597111507 0.003258877678 0.0001111134131)
(0.01618663321 0.00745538294 -0.0001522905648)
(0.01212229358 0.006595205133 -0.0007001484092)
(0.01718078377 0.005781045543 -0.001678804666)
(0.0117681246 0.00327578385 -0.002217125037)
(0.01857530855 0.006137334501 0.001406416978)
(0.008499298806 0.002113045101 0.001835829346)
(0.007364881127 0.003689606464 -0.0008050186711)
(0.01154907242 0.003632188163 0.000782249912)
(0.02229004615 0.007445753387 0.001743151656)
(0.009953741365 0.005404168482 -0.001176053311)
(0.006490169724 0.00474610761 -0.001501941327)
(0.01284974795 0.003211651213 -0.00352885934)
(0.01294763158 0.0008576629378 -0.001394451504)
(0.007729762357 0.005257427356 -0.001788531333)
(0.01585129936 0.005362978835 -7.514244267e-05)
(0.01286297128 0.004339070954 0.001556322903)
(0.01384916174 0.002212332251 -0.00227950161)
(0.01108248439 0.00429515918 0.0001584218008)
(0.008097897578 0.001791918798 3.798844906e-05)
(0.008884347275 0.002741554527 0.00211772582)
(0.01285527086 0.002716651017 -0.0005758111389)
(0.006428088139 0.002798915631 0.00173709479)
(0.007112823326 0.002596886291 -0.0007165573809)
(0.0157463571 0.00317313587 0.0003640809852)
(0.01153917995 0.002746514055 -0.001076091847)
(0.01262850282 0.003609010616 0.000264172666)
(0.01153650554 0.00428916851 0.001120741701)
(0.01313543379 0.00368747393 -0.0001828024639)
(0.01301088252 0.003614152386 0.00134717503)
(0.01615213888 0.00510775765 -0.001244128798)
(0.00795917435 0.002077069362 -0.0006819798159)
(0.01650070957 0.004383188448 -9.291132026e-05)
(0.01087632857 0.002716614626 0.001030080597)
(0.01118425063 0.006062608942 0.0004080802712)
(0.01394992211 0.004682328193 -0.0007701254981)
(0.0113354875 0.005657563278 -0.0002278645379)
(0.009998079708 0.003939886381 0.001284425027)
(0.02092291191 0.006563082966 -0.0007627553466)
(0.0138198748 0.00342837688 -0.0003382027388)
(0.01092096153 0.001941786581 -0.001126769858)
(0.01079890234 0.002196809825 -0.001577596791)
(0.009374294027 0.003371064587 0.000483642926)
(0.01256704806 0.004978219643 -0.0002123601443)
(0.008914398175 0.003777548816 9.745343222e-05)
(0.01522619662 0.005085548259 0.001791082357)
(0.01186210812 0.002971198719 0.0004375057436)
(0.01846321044 0.00255899797 0.0007947236964)
(0.0107080348 0.005590946447 -0.0007853296099)
(0.008903586404 0.003797154882 0.00125069177)
(0.01365062379 0.003079472666 -0.001575490178)
(0.01186356042 0.005498424452 0.0004946730836)
(0.008646637287 0.002928087291 -0.000229651679)
(0.01383399479 0.002967605867 -0.0007074815007)
(0.004069486572 0.00188210174 -0.001711995027)
(0.01055609627 0.002456551995 0.0001230481537)
(0.00995684806 0.004322174204 -2.180699869e-05)
(0.007163939079 -0.0004417304254 0.0008757509569)
(0.01167548577 0.003948348889 0.001520772423)
(0.008019623889 0.004133272427 -0.0003845840239)
(0.007526847034 0.003129804228 -0.0002525085356)
(0.007354566565 0.003050064275 -0.0002759284084)
(0.02169879564 0.005299459027 0.002004752452)
(0.01166751145 0.003554244172 0.001239963366)
(0.013249155 0.004008505609 0.001849654136)
(0.01407015243 0.008244298628 0.0004574976623)
(0.01145343944 0.002441686317 0.001189470143)
(0.01244065171 0.003794373929 0.0003881725893)
(0.01376340576 0.006283437148 0.0002363276755)
(0.01583116019 0.005317031438 -0.001046826936)
(0.01510554924 0.005402552542 0.0003766336795)
(0.00854120243 0.002335450471 0.001407542847)
(0.009344628961 0.004938496928 0.001221109004)
(0.00796582433 0.002701386986 -2.046903909e-05)
(0.01014183391 0.005889390802 0.00302889285)
(0.005661408572 8.695196332e-05 -0.000553228919)
(0.009194072925 0.003005255192 0.001272539264)
(0.006984072178 0.00325262751 0.0001760698132)
(0.007138805912 0.001635071021 -0.0002809119929)
(0.01003895647 0.002738612513 -0.001881014067)
(0.01306495756 0.007730161692 0.0002838345691)
(0.01342424117 0.003924995734 -0.002028370651)
(0.01223769681 0.004838132217 -0.0003352377474)
(0.007786623365 0.0006010710569 0.0007947499158)
(0.01121728124 0.001345090479 0.000106085747)
(0.006586960854 0.001924854969 -0.0002476500582)
(0.009121902385 0.002628500457 0.0008335695719)
(0.009717145833 0.001356946795 0.0001029704018)
(0.009028787423 0.002168868093 0.0009847931665)
(0.02085903054 0.004345078358 -0.001476223171)
(0.006145950981 0.003389539638 -0.0009368930782)
(0.01221502211 0.004423825016 -0.0008409583968)
(0.008461524784 0.002262072805 0.0007273513948)
(0.01890570223 0.00434157581 -0.001264210865)
(0.01873826916 0.005754861683 -0.0008188272052)
(0.01298223853 0.005681840628 -0.00145917378)
(0.0152326294 0.005675659989 0.001543114574)
(0.007024566751 0.002381724715 -0.001608128286)
(0.01255606044 0.004690793707 -0.001282412794)
(0.01551558402 0.005757434501 -0.001225012373)
(0.01565069413 0.007747269789 -2.197349211e-05)
(0.0155322779 0.005394786162 0.001506211549)
(0.02054204306 0.004003526939 -0.0008778838477)
(0.01301146061 0.006679564378 -0.002071717806)
(0.01354681951 0.002834451314 0.002945753931)
(0.01469974408 0.003557621159 0.00071670655)
(0.0151823811 0.004321434648 -0.0008657485713)
(0.01292171974 0.006300420059 0.001257905561)
(0.01928312193 0.00467806636 -0.0001049453949)
(0.01441902657 0.003225095609 -0.001113788096)
(0.01202191974 0.004556269734 0.0002444108906)
(0.006607804847 0.002461206276 9.558511184e-05)
(0.008497742713 0.002149692986 0.001371546164)
(0.009948064628 0.001841499178 0.000937948139)
(0.01529849024 0.00246760434 -0.0007342665731)
(0.007982889396 0.001401676889 5.482564901e-05)
(0.00713672844 0.001547375796 0.000432660584)
(0.01432398293 0.003961331603 -0.0003459677825)
(0.01649029664 0.003803072887 0.0006312812207)
(0.01676239444 0.006623594467 -0.001119747753)
(0.01086200368 0.00124503712 -0.0003009483896)
(0.01355874912 0.003605743696 -0.0002778719323)
(0.01124448588 0.003968248593 0.000251501385)
(0.01158294929 0.005429951298 -0.0004887337561)
(0.008565625127 0.003037540017 0.0008527556255)
(0.007579410361 0.003747367401 0.0006383495222)
(0.02189627463 0.007046657262 -0.002350867719)
(0.009134325554 0.004209067407 0.0001824906574)
(0.01336814077 0.002668026833 -0.001247486885)
(0.01918230453 0.003808684983 -0.0003285816402)
(0.01833110815 0.003837241649 0.001527124598)
(0.01134884785 0.003947523859 -0.002047389316)
(0.01479941131 0.005218235708 -0.0008156899122)
(0.0147628829 0.00660514887 -0.00252744981)
(0.01176597145 0.000111082245 -0.001254403493)
(0.009862768264 0.002438801632 -0.000555873505)
(0.0150161451 0.006393127225 0.001080103934)
(0.01194383464 0.004275252908 -0.0003723339109)
(0.01579934843 0.004804794991 -0.00195211317)
(0.01755570676 0.008279044964 -0.001555541115)
(0.01365736621 0.00704040887 6.532560113e-05)
(0.01342792185 0.001844245265 -0.0008886703256)
(0.01316483757 0.003179961067 -0.001149545517)
(0.00979504091 0.00252098483 -0.001422884307)
(0.008358254605 0.001881379511 -0.0005241555259)
(0.004155288945 0.0003558959041 7.662290042e-05)
(0.009301942312 0.0008707428517 -8.410417512e-05)
(0.008687475663 0.001803139383 -0.001460651765)
(0.01089657599 0.001797260651 -0.000147882309)
(0.009778333277 0.002328449646 -3.756246078e-05)
(0.01379731252 0.000822065881 0.001348583881)
(0.007056167845 0.001300527464 -0.001130145619)
(0.01055603389 0.003270147825 -0.001461380195)
(0.01599419083 0.00454599854 -0.001060847459)
(0.01263195428 0.003867101862 0.001950363613)
(0.02206674574 0.003971533214 0.0007383819438)
(0.009863746801 0.002818580811 -8.604393896e-05)
(0.01971659876 0.003935665432 0.0002102825909)
(0.01345822175 0.002617438039 0.001642287202)
(0.02323665633 0.008332916532 0.002324615624)
(0.01199515204 0.002677614824 0.0004654497073)
(0.01905113329 0.005898561583 0.001606391767)
(0.02338314184 0.005522923734 -0.0004162930475)
(0.01288428407 0.004042567866 -0.000102264438)
(0.01510256711 0.005365143592 -0.0009801340458)
(0.008078789847 0.001286455671 -0.0001697767176)
(0.01572073788 0.00378230841 0.0003023011673)
(0.01516849566 0.006482882295 0.002035934899)
(0.01111541683 0.002183092732 4.962077467e-05)
(0.01403621346 0.004098661341 -5.782502877e-05)
(0.01148834485 0.004478515336 0.0003449274592)
(0.02077089207 0.006569261771 0.001787329269)
(0.01684386112 0.003682519704 -0.0005381567294)
(0.01275698689 0.004000196529 -0.0009655341277)
(0.004865082406 -0.0001467248114 -0.0005917292765)
(0.0145375995 0.001630414827 9.864402936e-05)
(0.01062041608 0.0014680386 -0.0004095968088)
(0.0140704519 0.0006918498199 0.0006405505414)
(0.004414030727 0.002786547216 -0.00116561054)
(0.01207311902 0.002664711367 0.001053273849)
(0.005268156565 0.0008264534534 0.0001350890434)
(0.008583415007 -0.0004341476749 0.0005602264894)
(0.01736647994 0.004274557984 -2.84758563e-05)
(0.01075341056 0.001808426413 0.0008227231254)
(0.008739255974 0.003089461326 -0.0006687030076)
(0.009047287734 0.003248548062 0.0005950155585)
(0.01984193679 0.005319144112 0.0007112686741)
(0.01443844607 0.004944446927 0.001883051512)
(0.01651348662 0.005198902561 0.0001074035805)
(0.01481340599 0.005203678642 0.001169208288)
(0.01456708762 0.003983925082 -0.0005251476734)
(0.01388367899 0.005139246681 0.0007963251923)
(0.01348331732 0.004829570894 0.0005129352898)
(0.014237771 0.004351346189 0.0008837415604)
(0.0187600736 0.005956348639 0.0004701221088)
(0.01565609716 0.002957655366 -0.0009355287833)
(0.02007004044 0.00616702136 0.002661839016)
(0.01991448192 0.006231573588 0.0004716124176)
(0.008095025695 0.00192548175 0.0005177622534)
(0.0115637015 0.006883346371 0.0004561790816)
(0.01754444825 0.004706066599 -0.0003696705046)
(0.01230731434 0.003525232338 0.002303234298)
(0.01721454092 0.004995458325 0.002039182575)
(0.0127286134 0.005542997391 -0.00203757848)
(0.01105343836 0.003052737172 -0.0007838408298)
(0.01399212783 -0.0002441235045 0.000672152977)
(0.009514723403 0.0002232081802 -0.0008127291105)
(0.008756818723 0.001444162258 -0.000162847998)
(0.006004967079 0.0001125843408 -0.0001639680171)
(0.01562522631 0.004727904359 3.448720087e-05)
(0.01174749205 0.003722846418 -8.044612681e-05)
(0.01144205698 0.001063206816 -0.001329932141)
(0.01249933014 0.001425988662 0.001017629683)
(0.01500787794 0.003138877194 -0.000361749595)
(0.01630719756 0.005945119903 0.001769811795)
(0.01091834714 0.001496475406 0.0006893024687)
(0.01758755372 0.004980623806 -0.0001267732885)
(0.01173358759 0.004016043962 -0.0004955667898)
(0.01217975553 0.003876578987 0.001782873746)
(0.0108656068 0.004201200179 -0.001382285551)
(0.02003979794 0.006587661568 -0.0005156672987)
(0.01532460113 0.005140175424 -0.000169293232)
(0.01847029638 0.006641052456 -1.021463872e-05)
(0.01631324945 0.00543557867 0.0004885257204)
(0.01125366173 0.005827573618 -0.001867981479)
(0.01965727286 0.005980183316 -0.001457222661)
(0.01387444863 0.0054972973 -0.0007481937235)
(0.01646926571 0.006193970899 -0.001427969319)
(0.02012618434 0.006782344644 0.000829363095)
(0.01486599978 0.004309995397 -0.0008688817834)
(0.01230883642 0.004622819232 0.0008162523372)
(0.009222643495 0.004199099895 -0.001088207971)
(0.009579661413 0.004189868701 -0.0002654621508)
(0.02123658257 0.003812002875 -0.000470998127)
(0.005241918555 0.0009284938614 0.0006197027234)
(0.004842071959 -8.963420266e-05 0.0001912448445)
(0.007857697022 0.001564816113 -0.0001280760975)
(0.0110388186 -4.439031395e-06 -0.001304768155)
(0.005577581402 5.008509652e-05 -0.0006219694444)
(0.01083483986 0.002498257523 -0.0009299322142)
(0.008651666961 0.001471186163 -0.0005202989901)
(0.007376077776 0.001593301092 -0.001178159844)
(0.01511696766 0.003345911291 -0.0008388131313)
(0.01130255952 0.002691102537 -0.001245316207)
(0.008456568441 0.0006715673854 0.0003322502347)
(0.0103289282 0.003260364247 -0.002152681282)
(0.01401971208 0.004564641599 -0.0003446393741)
(0.01190602026 0.001192308085 0.0004114110659)
(0.02084333985 0.007412388825 -0.001560851645)
(0.01436064911 0.003514919332 0.0008145565845)
(0.01253432313 0.00563883937 0.0007808561872)
(0.01507153593 0.005231104122 0.0004249524408)
(0.02438559909 0.004213943233 0.002034809559)
(0.0150952003 0.004987825324 0.0002261204779)
(0.01859025072 0.005502148673 0.001901466882)
(0.01680538605 0.004942752251 0.0006018612202)
(0.01621559247 0.005397819312 0.001175750883)
(0.01562386424 0.003466079246 -0.001293843871)
(0.01388173047 0.005631986527 -0.0005497284837)
(0.01192952182 0.002797475543 0.00039996473)
(0.01654190471 0.004060255426 -0.003438785365)
(0.01382510977 0.002510678819 0.000194483143)
(0.01329524778 0.004277497776 -0.00116692321)
(0.01299467127 0.00541367555 -0.0004372978792)
(0.007459891772 0.0001715060374 0.0005721552615)
(0.009549031047 -0.000159714575 0.001069067091)
(0.01277424037 0.001108330519 -0.0001067342333)
(0.01254351688 0.0002610669905 -0.0006605596396)
(0.005630385685 -0.0001153625442 0.0005394735564)
(0.007467564465 0.001634196988 -0.0001591237805)
(0.01004781608 0.0004351092175 0.0008884516053)
(0.007061230665 0.001302275733 -0.0006946273926)
(0.008570486487 0.001016572625 0.0008863593562)
(0.008202241522 0.002847393098 0.001711327204)
(0.01546117385 0.003701966688 0.0004554256456)
(0.008919066009 0.00200260268 -0.001145748102)
(0.01053083471 0.00143834216 0.0003217919114)
(0.01382780947 0.003060147358 -0.000551345944)
(0.01916341422 0.004078080835 -0.001211117798)
(0.01088708899 0.004091112216 0.001264726519)
(0.01322706809 0.003061950434 0.0002641957992)
(0.01352256925 0.001694575568 0.0007455035617)
(0.009457077634 0.00549055173 0.0003464517357)
(0.008279560401 0.003148416107 -0.0002247021659)
(0.02221152441 0.007953701387 0.003314298765)
(0.01049088879 0.00483027309 0.0005981926737)
(0.01590096953 0.00525548463 -0.001430527575)
(0.01745998517 0.004051145201 -0.002358744337)
(0.0139557376 0.005783476673 0.0007461267294)
(0.02365292431 0.005315026657 -0.00433287841)
(0.01408296393 0.004659392269 0.001539283612)
(0.01336374066 0.006166417018 -0.002604408286)
(0.0125142258 0.004279087418 0.0004059428203)
(0.002994374147 0.0004161916702 -0.0002128477885)
(0.007822563131 0.0002972560735 1.244438407e-05)
(0.00473251211 0.001726665183 0.0008439807442)
(0.005870557226 -0.0006208223099 0.0003614745144)
(0.01297802 -9.630936792e-05 0.0005145894856)
(0.01032932754 3.087554402e-05 -0.0008644697211)
(0.002008506618 0.0005643584315 -2.551333762e-06)
(0.01098155895 0.001614318356 0.0009138912427)
(0.005163212557 0.0004985164166 -0.0001946731096)
(0.00633597692 0.001526087339 -0.0005101405931)
(0.01427592985 0.0008178419599 -0.001194864542)
(0.01260306005 0.00142028141 -0.000594449809)
(0.011846244 0.001176027421 -0.0004233351791)
(0.01234313875 0.002153575128 -0.000303468174)
(0.008538162568 0.002949934394 0.0003764444436)
(0.01571953473 0.004173712993 -0.001811955084)
(0.01326532304 0.006143937721 0.001951526503)
(0.006313476862 0.00048010842 -0.00112935898)
(0.01588754434 0.003008175815 0.0005036373812)
(0.01335487528 0.004959340306 0.00112158066)
(0.01426573085 0.004905436369 0.000928228293)
(0.02070669202 0.007851595655 0.0007883585787)
(0.01874975633 0.006048617814 0.002966017761)
(0.02093539959 0.00544069375 -7.420300511e-05)
(0.01069298898 0.005526714693 -7.872082252e-05)
(0.01088432243 -0.0006878049011 -0.0001843413141)
(0.006823882298 9.258590678e-05 -0.0006484373914)
(0.005815778251 -0.0002333104895 -0.0002255283368)
(0.0133972391 0.002604503672 0.0001274195003)
(0.006786876267 0.0002140674183 -0.0001793702702)
(0.009402481556 0.001696634029 -0.0001686979869)
(0.00644506574 8.944655643e-05 0.0004290529481)
(0.00956628892 -0.0008660884002 0.0001525192647)
(0.00688798451 7.052134934e-05 0.000645191114)
(0.007972233268 0.0002048817826 0.001149920035)
(0.008954978246 0.0006430515668 0.0005040890861)
(0.01161289017 -0.0001735926782 0.001054295692)
(0.0138763045 0.002618702707 0.0008377062408)
(0.006827867358 0.001494917497 0.0004316364137)
(0.01683378981 0.003804095611 -0.000888210864)
(0.01186587451 0.001973447267 -0.001497401682)
(0.009336851781 0.002278744818 7.205821968e-05)
(0.01208405456 0.001547474317 -0.0008008105874)
(0.01701343592 0.004989697972 -0.0006175343421)
(0.006894438316 -8.670184505e-05 0.0003352804824)
(0.00670552234 0.0001945825839 0.0004066686335)
(0.005234954783 -0.000313949979 0.000132026481)
(0.00761816118 0.0007290334746 0.0003399516512)
(0.001486673938 -0.0002623107869 9.263919492e-05)
(0.01059347262 0.0003630412257 9.542534839e-06)
(0.0106517329 0.001006290614 -0.0007779438697)
(0.01123290611 -0.0002680436357 -0.0004825709533)
(0.01064561217 0.00237346661 0.0008436726454)
(0.01027276756 0.0004871704118 0.000186134867)
(0.005200204574 0.0009296011035 -0.0005224408464)
(0.004377394654 0.0002544218839 -0.00012720643)
(0.009267677669 -7.986727882e-06 0.0001835062669)
(0.01032618867 0.002017024846 -0.0006066959836)
(0.01162797005 0.0006449585504 0.0001352236996)
(0.009911961093 0.0006148351387 0.000406326745)
(0.006813874584 0.0007252753212 -0.0007866610305)
(0.007464953799 0.0005588786647 -0.0005301584808)
(0.01143458815 -0.0001686733538 0.0004289375213)
(0.008383691282 0.0004039945358 0.000972116986)
(0.002915355894 0.0001391273023 0.0002008106018)
(0.01306991812 -0.0008481449834 8.622904383e-05)
(0.0125094979 -0.0004076559352 0.0002085118897)
)
;

boundaryField
{
    flow
    {
        type            zeroGradient;
    }
    obstacle
    {
        type            calculated;
        value           nonuniform List<vector> 
30
(
(0 0 0)
(6.495548007e-21 1.740476846e-21 -6.965101278e-22)
(0 0 0)
(2.247648994e-21 6.02255734e-22 -3.238632123e-22)
(0 0 0)
(8.569594206e-22 2.296215851e-22 2.905088491e-21)
(7.618938542e-22 2.041488433e-22 1.201398199e-22)
(1.216741445e-21 3.260248866e-22 -1.521779878e-21)
(3.383658789e-22 9.066486415e-23 -5.242631772e-22)
(0 0 0)
(3.519422275e-21 9.430263535e-22 -4.644201126e-21)
(-2.629351804e-22 -7.045326937e-23 -8.562911539e-22)
(0 0 0)
(-8.598597058e-22 -2.303987131e-22 1.197770794e-21)
(3.308872811e-21 8.866097992e-22 -2.869845248e-21)
(2.326679394e-23 6.234318628e-24 -5.091282036e-22)
(2.516420395e-21 6.742728139e-22 -1.673682172e-21)
(2.340794451e-21 6.27213984e-22 3.634477047e-21)
(0 0 0)
(2.266908816e-21 6.074163876e-22 1.474722463e-22)
(-1.022553855e-22 -2.739924802e-23 -2.309972201e-21)
(1.308490222e-21 3.506088971e-22 -6.49218031e-22)
(0 0 0)
(1.388713346e-21 3.721046202e-22 -8.740298906e-22)
(1.410700285e-21 3.77996001e-22 4.954031588e-22)
(1.958765063e-21 5.248495178e-22 1.5000366e-21)
(9.500266246e-24 2.545588661e-24 2.674427829e-21)
(6.762692321e-22 1.812057949e-22 -9.305154926e-22)
(0 0 0)
(-1.75595564e-22 -4.705068942e-23 2.146856309e-21)
)
;
    }
    frontAndBack
    {
        type            empty;
    }
    procBoundary1to0
    {
        type            processor;
        value           nonuniform List<vector> 
21
(
(0.005927870631 0.001343138559 0.002066193372)
(0.01030196854 0.002941930058 -0.001756148202)
(0.01219918692 0.0007649030827 -0.001947042522)
(0.0148554104 0.004518505346 0.001870772847)
(0.01050019934 0.004084009886 -0.0002843730643)
(0.006735013725 0.002581415272 -0.001481505623)
(0.008442578546 0.004317204604 -0.002280088681)
(0.009839883234 0.00477019023 0.0005166440234)
(0.01125059655 0.0003268371401 -0.000984881368)
(0.01055344766 0.0003438739243 -0.0002600865093)
(0.01021176739 0.002354673416 0.0003042067938)
(0.008163947062 8.871978462e-05 0.0002501804452)
(0.009378627455 0.001220639813 0.00118705899)
(0.008794418417 0.0003003163033 0.0002794655407)
(0.008297256369 -0.0002414326575 -0.0002004244173)
(0.008470236222 -0.0005626336207 -0.0003766199987)
(0.005372086771 -0.0004935218344 -0.0002824359449)
(0.01207009149 0.0002196244735 -0.001110505766)
(0.009549857935 0.0004960680968 -0.0004287146432)
(0.002769156955 -0.0002079863786 -0.0001313685983)
(0.01195535794 0.0005730189854 0.0002005502423)
)
;
    }
    procBoundary1to3
    {
        type            processor;
        value           nonuniform List<vector> 
36
(
(0.01913434338 0.004392186579 0.001158916015)
(0.01446072761 0.006639847943 0.001554901989)
(0.02070890505 0.00750771332 0.0008919119449)
(0.009212595515 0.001451353331 0.000156382493)
(0.01913434338 0.004392186579 0.001158916015)
(0.009226251301 0.003155712911 -0.002268607498)
(0.01613229967 0.001334492478 0.0006289565082)
(0.01977227509 0.0033781619 -0.001813586092)
(0.01567529174 0.003064011615 -0.0006343780842)