/*--------------------------------*- C++ -*----------------------------------*\
| =========                 |                                                 |
| \\      /  F ield         | OpenFOAM: The Open Source CFD Toolbox           |
|  \\    /   O peration     | Version:  2406                                  |
|   \\  /    A nd           | Website:  www.openfoam.com                      |
|    \\/     M anipulation  |                                                 |
\*---------------------------------------------------------------------------*/
FoamFile
{
    version     2.0;
    format      ascii;
    arch        "LSB;label=32;scalar=64";
    class       volVectorField;
    location    "0.011";
    object      momentumMean;
}
// * * * * * * * * * * * * * * * * * * * * * * * * * * * * * * * * * * * * * //

dimensions      [1 -2 -1 0 0 0 0];

internalField   nonuniform List<vector> 
546
(
(0.005471959148 0.001529977497 -2.539510324e-05)
(0.005191336177 0.001509010163 9.237525103e-06)
(0.005006509195 0.001390334146 3.126785573e-05)
(0.004824358074 0.001344944336 1.626567919e-05)
(0.004654588182 0.001303554572 -6.898453033e-05)
(0.004484918714 0.001254798073 -6.226191999e-05)
(0.004414527381 0.001204908285 -2.26029507e-05)
(0.004312010815 0.001200792385 -4.253575294e-05)
(0.004160665914 0.001185708955 5.137131959e-05)
(0.00401496899 0.001092465183 -1.474330252e-05)
(0.00390849763 0.001092887777 4.112320739e-05)
(0.003856516139 0.001040617679 -5.57193397e-05)
(0.003690143049 0.001045897745 -9.551911921e-06)
(0.003652105447 0.0009791917131 1.887797209e-06)
(0.003535461612 0.0009905286244 -1.535855247e-05)
(0.003429151066 0.0009701107321 -6.883880091e-05)
(0.003340048099 0.0009008897682 -0.0001014937469)
(0.003332882155 0.0009016776152 1.56654554e-05)
(0.003239662243 0.0008982350736 8.202815031e-06)
(0.003171751736 0.000855889781 6.103401056e-05)
(0.00316596011 0.0008249516489 -6.371813822e-06)
(0.003183801935 0.0008772781382 6.677274616e-05)
(0.003092279925 0.0008607257103 9.581032094e-05)
(0.003140556127 0.0007976957872 8.689544823e-05)
(0.003134557287 0.0008212952688 4.688752872e-05)
(0.003120390456 0.0008515305586 5.581625435e-05)
(0.003096029727 0.0008162839251 3.289731494e-05)
(0.003172857182 0.0008042359415 8.709660821e-05)
(0.003278938188 0.0008241920068 6.936837215e-05)
(0.003592736168 0.0006807133162 3.433070418e-06)
(0.008424526607 0.002612632583 -7.809715599e-05)
(0.008152269918 0.00248444752 -3.847655423e-05)
(0.007841423059 0.002353198746 3.112840384e-05)
(0.007536650555 0.002302409315 3.55059977e-05)
(0.007328752316 0.00214775349 3.321595912e-05)
(0.007186263908 0.002055971543 -4.456467405e-06)
(0.006906055195 0.001992333176 5.540888865e-06)
(0.0067048565 0.001934695074 -6.64360131e-05)
(0.006519069496 0.001944833353 -7.908508614e-05)
(0.006427856645 0.001821162261 -4.309515524e-05)
(0.006289679232 0.001823433946 -3.627628534e-05)
(0.006071900156 0.001770349856 -3.913874603e-05)
(0.005917808825 0.00172455996 -3.161519576e-05)
(0.005768068853 0.001621753719 6.042334712e-05)
(0.005591854151 0.001609071797 6.304716438e-05)
(0.005495662452 0.001595160313 3.960662833e-05)
(0.005350681716 0.001510157492 -3.067603393e-05)
(0.005194035908 0.00145030919 -8.880080376e-06)
(0.005125503633 0.001454670271 3.461455353e-05)
(0.005034418243 0.001384535383 5.666555524e-05)
(0.004950847454 0.001341707692 7.024695055e-05)
(0.004820478285 0.00132693769 0.000140478912)
(0.004805139432 0.00131686421 4.302027212e-05)
(0.004733560713 0.001218905963 7.092034566e-05)
(0.004678253578 0.001271041483 -1.181708838e-05)
(0.00465050325 0.001241261985 2.499076349e-05)
(0.004661473473 0.001241260833 9.546706953e-05)
(0.004632066198 0.001120579416 8.773025835e-05)
(0.004736610303 0.001108476387 1.423133428e-05)
(0.004998015085 0.0007444182072 3.935010788e-05)
(0.01033040384 0.003307943502 -6.94888408e-05)
(0.01016894867 0.003227609566 -6.241235636e-05)
(0.009887338746 0.00318053387 -6.001304288e-05)
(0.009635841137 0.003019233211 -5.896315734e-05)
(0.00931060997 0.002834228901 5.059513401e-06)
(0.008994468705 0.002774016428 -4.441065407e-05)
(0.008758807497 0.002711123506 -6.734849315e-05)
(0.00852737422 0.00256117225 -8.85142821e-05)
(0.00840658372 0.00251117692 -2.664820374e-05)
(0.008160143442 0.002422219305 -1.801995278e-05)
(0.00794896735 0.00238849028 -4.438350744e-05)
(0.00778134744 0.002369544057 1.113265616e-05)
(0.00755479555 0.002253799582 8.203331563e-05)
(0.007317443558 0.002194929901 4.063672086e-05)
(0.007163589406 0.002170865121 3.732728727e-05)
(0.007028955494 0.002049441199 7.71404472e-05)
(0.006923015874 0.002000236536 -2.032089783e-05)
(0.006797459524 0.001960166932 -3.233515653e-05)
(0.006601761983 0.00194147568 2.618040327e-05)
(0.006479552576 0.001816618946 4.671556847e-05)
(0.006307534493 0.001797360914 -5.781511752e-06)
(0.00625125887 0.00170141194 2.156391843e-05)
(0.006175131321 0.001739629969 4.726352669e-05)
(0.005976081704 0.001653805351 2.571115692e-05)
(0.005863484482 0.001609254081 4.923906353e-06)
(0.005759042947 0.00156278533 5.934553985e-05)
(0.00574865299 0.001511086997 3.681556329e-05)
(0.005844488312 0.001404708436 3.738518699e-05)
(0.005887527414 0.001285200582 7.669058671e-06)
(0.005971486209 0.0008726600216 1.575563431e-05)
(0.0114544442 0.003675594058 8.59576129e-06)
(0.01141124092 0.003673298637 -5.37325196e-07)
(0.01132872483 0.003728694097 -1.626553722e-05)
(0.01111832889 0.003642540859 -2.842981434e-05)
(0.01094601683 0.003507778287 -2.115831004e-05)
(0.01077943677 0.003365951165 -1.418174881e-05)
(0.01055067613 0.003333990226 3.140911971e-06)
(0.01026998937 0.003214268683 1.37748337e-05)
(0.009915066376 0.003122420449 -2.630836751e-05)
(0.009687989932 0.003015677651 -4.474581795e-06)
(0.00947583536 0.002917064881 -1.178415599e-05)
(0.009171195182 0.002899966046 2.895706804e-06)
(0.009013651061 0.002801810636 -3.128743125e-05)
(0.008828956364 0.002740463018 -3.354227225e-05)
(0.008603531378 0.002602397368 1.802401567e-05)
(0.008462583178 0.002500135683 3.599227212e-05)
(0.008309003728 0.00247748689 7.910019074e-05)
(0.008074188291 0.00243647759 1.666052072e-05)
(0.007902573907 0.002375755962 -2.179094553e-05)
(0.007717707344 0.002269102863 -9.559989793e-06)
(0.007595269315 0.00217251426 7.323624537e-05)
(0.007373234395 0.002090929878 5.79307936e-05)
(0.007236391417 0.002098312124 -9.319820045e-06)
(0.007151506352 0.00205210539 5.616726283e-05)
(0.007085900544 0.001975183692 -2.336544957e-06)
(0.006991661103 0.001912392787 9.650294551e-06)
(0.006857652455 0.001779353434 1.695564653e-05)
(0.006848092059 0.001603157878 1.159873051e-05)
(0.006892620056 0.001487381386 -2.394013266e-06)
(0.006893408064 0.001147502361 7.016444988e-06)
(0.0119369562 0.003765897015 2.865273772e-05)
(0.0119703938 0.003813085528 3.960867335e-05)
(0.01211523378 0.003933991598 3.477825403e-05)
(0.0121688247 0.003967302608 2.134755296e-05)
(0.01205931987 0.003866996724 2.637857552e-05)
(0.01187259716 0.003819928194 -2.74903702e-06)
(0.01167897933 0.003843591839 5.387249799e-05)
(0.01150273813 0.003748602405 9.758983845e-07)
(0.01129649522 0.003652563633 -4.8063012e-05)
(0.01102298946 0.003513898447 -1.891100376e-05)
(0.01073113588 0.00347635587 -4.259998132e-05)
(0.01059295438 0.003373177645 1.959130477e-05)
(0.01044027328 0.00329458106 7.178026534e-06)
(0.01018049015 0.003205152748 1.58639102e-05)
(0.009995368212 0.003132648431 7.157837268e-06)
(0.009689326546 0.003008091211 -4.551757142e-06)
(0.00938684569 0.00289142003 4.450989912e-05)
(0.009173385298 0.002865184808 7.899767067e-05)
(0.009003987383 0.002742873892 2.357703868e-05)
(0.008840310856 0.00269251734 2.381908337e-05)
(0.008728513883 0.002567664853 3.275154954e-05)
(0.008448528244 0.002521539023 -5.106901462e-06)
(0.008327874593 0.002421315224 2.608547067e-05)
(0.008228499473 0.002384126995 3.383550144e-05)
(0.008080191085 0.002283265139 0.0001100117221)
(0.008013288319 0.002216040922 2.113635982e-05)
(0.007997093961 0.002113566668 1.756358174e-05)
(0.007794154909 0.001898566481 5.905824524e-06)
(0.007670517854 0.001652856489 1.163702109e-05)
(0.007553247953 0.001417041169 -1.85210338e-05)
(0.01197299323 0.003557649523 -1.329740984e-06)
(0.01224907581 0.003753502499 1.287853864e-05)
(0.01250183644 0.003877089364 4.542027852e-05)
(0.0125672332 0.004043047294 4.187794765e-05)
(0.01255558311 0.004105279827 1.63308629e-05)
(0.01249070162 0.004118321734 4.296935682e-05)
(0.0124554327 0.004081934186 2.324205714e-05)
(0.01236115961 0.004031684129 1.937909315e-05)
(0.01223975227 0.003998468241 -2.537357452e-06)
(0.01212724866 0.00398496448 3.169702576e-05)
(0.01202457811 0.003926867857 -2.353222846e-05)
(0.01175616983 0.003851647764 -4.663707124e-06)
(0.01144895584 0.003704665229 2.044479423e-05)
(0.01127309459 0.003668028893 2.707579458e-05)
(0.01104175936 0.003549845326 -1.147098589e-05)
(0.01079667184 0.003472800026 7.099740225e-06)
(0.0105594677 0.003375419675 3.966577094e-05)
(0.01042403759 0.003285414414 4.988352706e-05)
(0.01025383051 0.003207311182 1.529318821e-05)
(0.009989980007 0.003081116008 2.436462516e-06)
(0.009692074005 0.003004705048 -5.078279559e-05)
(0.009544730109 0.002887910832 -2.630431953e-05)
(0.009361226192 0.002763383644 -4.73881143e-05)
(0.009186087432 0.002699859445 1.789909381e-05)
(0.009052279701 0.002602984686 3.030298247e-05)
(0.008937111482 0.002486836332 3.074929484e-05)
(0.008762751026 0.00240242906 -7.069946018e-05)
(0.00866875379 0.002192010851 -4.363259978e-05)
(0.008530622015 0.001959111201 5.265027578e-05)
(0.00830391712 0.001734549616 -3.178041438e-05)
(0.01156846403 0.00307195505 -1.77143036e-05)
(0.01200523464 0.003404090398 -2.190409161e-05)
(0.01226034061 0.003667534902 -3.896815996e-05)
(0.01248265727 0.003886552248 -2.892399759e-05)
(0.0127786646 0.004081834908 -4.699798675e-06)
(0.01298474718 0.004197941243 -2.151217117e-05)
(0.01300974683 0.004255585964 1.412351046e-05)
(0.01300161766 0.004282663255 6.246343884e-06)
(0.01297734905 0.004234002941 3.401601365e-05)
(0.01289657731 0.004203616973 5.305899113e-05)
(0.0127310856 0.004236156874 5.481934436e-05)
(0.01257407854 0.004191392327 -6.041004957e-06)
(0.01248683251 0.004133136782 -3.061437562e-06)
(0.01226739513 0.004052942471 6.014684991e-05)
(0.01200728395 0.003996705382 1.094772119e-05)
(0.01185245418 0.003906590206 1.998120907e-05)
(0.01160162313 0.003740227881 -6.567584596e-06)
(0.01138545946 0.003644616202 -4.068034221e-05)
(0.01117163824 0.003555762792 -1.167605604e-05)
(0.01092924234 0.003506408343 -5.636981361e-05)
(0.01081081816 0.003372813253 1.306464866e-05)
(0.0106088638 0.003289587344 1.583372513e-05)
(0.01036349562 0.00314539887 2.546943044e-05)
(0.01023465556 0.003016747466 2.175082324e-05)
(0.01007468481 0.002986793976 1.297709719e-05)
(0.009820640492 0.002811330697 5.163571672e-05)
(0.009667620632 0.002711172722 4.080450048e-05)
(0.009499885163 0.002498984516 5.532587824e-05)
(0.00929008586 0.002306356802 3.449332083e-05)
(0.009113621109 0.002029697882 2.618290853e-05)
(0.01100210282 0.002555051275 -1.448683153e-05)
(0.01143117093 0.002909311417 -8.419053376e-06)
(0.01194213584 0.003263188526 -1.286444864e-06)
(0.01239437195 0.003570242406 -2.562052704e-05)
(0.01263967604 0.00374358301 -5.153775131e-05)
(0.01290940501 0.004021462735 -6.313172278e-06)
(0.01322077417 0.004199633434 -1.323349616e-05)
(0.01339559071 0.00430057747 2.050905433e-05)
(0.01341139979 0.004383530687 2.258099434e-05)
(0.01341802341 0.004410448075 -7.272862478e-06)
(0.01338204731 0.004428564422 3.81045919e-06)
(0.01334519372 0.004485875917 3.611352307e-05)
(0.0131705895 0.004373616566 1.828308138e-05)
(0.0130618018 0.004381699696 3.012741279e-05)
(0.01301150628 0.004308038765 5.26687226e-06)
(0.01284998346 0.004267446554 1.882639305e-05)
(0.01264920232 0.004167178552 4.782390943e-05)
(0.012391635 0.004054660949 4.113574753e-05)
(0.01220466023 0.003964165936 2.367484215e-05)
(0.01204836368 0.003867924275 -2.961720047e-05)
(0.01184501041 0.003783073148 5.033110401e-06)
(0.01161940666 0.003682160436 1.996906108e-05)
(0.01133414608 0.003510801179 -1.711316055e-05)
(0.0111206062 0.00335048555 -2.993104723e-05)
(0.01088342175 0.003292497045 -2.535569289e-06)
(0.01065329803 0.003147181962 4.302127174e-05)
(0.0105256313 0.003026777184 -2.397118213e-05)
(0.01034102948 0.002771938867 -5.461604475e-06)
(0.01021415443 0.002647383069 -1.227716478e-05)
(0.009992432189 0.002336670971 -9.833748908e-06)
(0.01059895781 0.002066640401 4.924385882e-06)
(0.01099372613 0.002420339623 1.569056879e-05)
(0.01146031415 0.002750154104 2.139853155e-05)
(0.0118615449 0.003099345225 -1.114822643e-06)
(0.01232314014 0.003412346526 1.617487798e-05)
(0.01259689057 0.003631492481 -2.94723197e-05)
(0.01295439849 0.003904890761 -5.055486397e-05)
(0.01320748168 0.004112262841 -1.710280506e-05)
(0.01345241395 0.004321863299 -8.897124588e-06)
(0.01358676735 0.004389281375 2.322658113e-05)
(0.01370808782 0.004496633474 1.562780039e-05)
(0.01382863376 0.004588391796 8.730691347e-05)
(0.01384654716 0.004595275343 4.833946736e-05)
(0.01377106664 0.004589021605 -2.308962647e-05)
(0.01367099745 0.004542938582 -8.256075831e-07)
(0.013556593 0.004534512206 6.524393256e-06)
(0.0134241834 0.00450569807 -3.172974911e-05)
(0.01325866662 0.004383585037 -1.175428359e-05)
(0.01306211125 0.004257361434 2.018546947e-05)
(0.01283412056 0.004216012453 2.47613405e-05)
(0.01258311163 0.004112408761 -1.431470136e-05)
(0.0124336943 0.004025021024 2.708435284e-05)
(0.01217297005 0.003889871426 -2.327902045e-05)
(0.01200480075 0.003745405868 -1.037336547e-05)
(0.01176598704 0.003614350972 -1.155468682e-05)
(0.01163839955 0.003485882824 -2.925646737e-05)
(0.0113772029 0.003313788337 -8.765645565e-06)
(0.01115418814 0.00312283872 -1.891931324e-05)
(0.0108899056 0.002922447775 -1.221312974e-05)
(0.01075426634 0.002682973293 2.062054633e-05)
(0.009973079633 0.001604916175 1.668846219e-05)
(0.01031188038 0.001865070906 3.308738241e-05)
(0.01071879085 0.002220574939 2.564263304e-05)
(0.0111559128 0.002525964291 1.94528173e-05)
(0.01168914692 0.002914610788 2.566312694e-05)
(0.01212955398 0.003232396958 4.209530688e-06)
(0.0125838994 0.003483213125 1.120587532e-05)
(0.01297343809 0.003792787583 -1.775778907e-06)
(0.01330136325 0.004005860317 -2.793057627e-05)
(0.01358846166 0.004229276359 -3.964548564e-05)
(0.01383904965 0.004361127733 9.081074575e-06)
(0.01401337055 0.00454453058 -2.219093962e-06)
(0.01408160516 0.004618298903 3.616001101e-05)
(0.01407814769 0.004701815578 2.317910043e-05)
(0.01410951537 0.004691229893 1.603411855e-05)
(0.0140932263 0.004716047211 9.301285465e-06)
(0.01405224226 0.004697780569 -1.511967093e-05)
(0.0139521289 0.004698027288 -3.41084416e-05)
(0.01373930962 0.004571395415 -8.158266914e-05)
(0.01360440883 0.0045095243 -4.98103264e-05)
(0.01344704516 0.004430443987 -6.509927187e-05)
(0.01325712366 0.004318181067 2.470528755e-05)
(0.01308611009 0.004247490667 3.435853766e-05)
(0.01281830288 0.004060667314 6.96176322e-06)
(0.0126319364 0.00392906983 3.484386704e-05)
(0.01240019887 0.003822966735 2.939567394e-08)
(0.01212542348 0.003668566391 2.031535336e-05)
(0.01192496411 0.003475570551 5.77860603e-05)
(0.01159892438 0.00322431575 4.279657726e-05)
(0.01124558386 0.00298042285 3.169096462e-05)
(0.009679177697 0.001238346725 -1.755848928e-05)
(0.009988013968 0.001506437956 -5.200621652e-06)
(0.01032881983 0.001749730386 -1.320643471e-05)
(0.01076426343 0.002072977997 -1.570171241e-05)
(0.01112772492 0.002344368375 1.332261045e-05)
(0.01156299142 0.002686645216 5.910319e-05)
(0.01205634883 0.003019409467 4.599280502e-05)
(0.01247356201 0.003314020412 5.523101539e-05)
(0.01296130918 0.003637882743 7.775775765e-06)
(0.01339381622 0.003908768069 -3.260375905e-05)
(0.01368847614 0.00416377388 -3.655809132e-05)
(0.013904172 0.004368163099 -5.556277477e-05)
(0.01418619929 0.004550529175 -3.02247421e-05)
(0.0143458688 0.004699472835 -2.025345866e-06)
(0.01439147362 0.004724388042 -5.800090541e-06)
(0.01442261138 0.004725070063 2.653456816e-05)
(0.01448877459 0.004843166108 5.712706459e-05)
(0.01443716696 0.004831732192 4.919045823e-05)
(0.01433921576 0.004829515267 8.950290395e-07)
(0.01424889582 0.004724416635 2.080557115e-05)
(0.01409222781 0.004695258081 -5.951091023e-06)
(0.01394938731 0.004628984733 -4.971218514e-05)
(0.01372267222 0.004496854275 -1.942626127e-05)
(0.01355895263 0.004395916126 8.95685821e-06)
(0.01324233922 0.00424655475 1.97706455e-05)
(0.01309944522 0.004104053156 3.145660013e-05)
(0.01284222638 0.003970371618 2.256718937e-05)
(0.01265551141 0.003789741225 5.135249834e-05)
(0.01242368428 0.003620052166 -7.462255956e-06)
(0.01209650322 0.003356760119 -2.352621582e-05)
(0.009343469641 0.0009353000016 1.794912377e-05)
(0.009623671635 0.001153636438 1.340845079e-05)
(0.009913977973 0.001361265115 2.374726023e-05)
(0.01024992866 0.001598305134 2.568990041e-05)
(0.01067447708 0.001910781725 -1.394928238e-05)
(0.01104646703 0.002213574797 -1.941076772e-05)
(0.01148270247 0.002514412728 2.81870196e-05)
(0.01193637577 0.002776967759 3.152252959e-05)
(0.01242203524 0.003137377518 3.48930299e-05)
(0.01283527594 0.003463731928 5.325277718e-06)
(0.01329734656 0.003796361942 -5.061283218e-05)
(0.01360043755 0.004040054682 -5.258782897e-05)
(0.01393186831 0.00427660846 -3.69459571e-05)
(0.0142778604 0.004489003798 -5.576825269e-06)
(0.01449587925 0.004672982454 3.682654289e-05)
(0.01463603124 0.004740666415 1.764311948e-05)
(0.01468427951 0.004843109498 2.295405495e-05)
(0.01473656956 0.004896167739 4.643866708e-05)
(0.01480129048 0.00493280561 2.235105266e-05)
(0.01470559575 0.004910923253 -1.47229128e-05)
(0.01461069464 0.004882175133 2.976998249e-05)
(0.0145179627 0.004869310436 3.23552785e-05)
(0.01435760614 0.004771855529 2.759781068e-05)
(0.01420750478 0.004662640518 1.623584575e-05)
(0.01399484943 0.004522031388 6.062929406e-05)
(0.01377969269 0.00441606508 1.464979623e-05)
(0.01354939686 0.004266072745 -1.154078289e-05)
(0.01330148443 0.004075304308 -7.74508772e-06)
(0.01313326675 0.003912250017 4.315274633e-05)
(0.01296639935 0.003709321519 2.042875708e-05)
(0.009055477438 0.0006688982706 -2.052116089e-05)
(0.009262627483 0.0008321042762 -3.596873651e-05)
(0.009546014443 0.001056364238 -2.810657458e-05)
(0.009746231075 0.001243473271 -8.69352203e-06)
(0.01003526002 0.001465722745 -1.394123563e-05)
(0.01039449599 0.00174888734 -3.293018237e-05)
(0.01079329082 0.002010949042 -4.462833949e-05)
(0.01118176644 0.00227518142 -3.040598511e-05)
(0.01161585473 0.002627257737 -2.761619918e-05)
(0.01200768672 0.002915062397 2.394621651e-07)
(0.01246950732 0.003227320039 2.542235329e-05)
(0.01307783192 0.003585778097 -9.293414889e-06)
(0.0135526602 0.00388074996 -2.191918266e-05)
(0.0139007109 0.00416168347 -1.313554621e-05)
(0.01423671234 0.004413790171 1.633068214e-05)
(0.01452344792 0.004589422499 2.632143331e-05)
(0.01472689748 0.004729360565 -3.769272011e-06)
(0.01489402139 0.004871708877 1.204956245e-05)
(0.01499762478 0.004955599672 3.350207349e-05)
(0.01507198343 0.005005199878 4.677626307e-05)
(0.01503623698 0.00498246245 2.696635273e-05)
(0.01503999 0.005021086897 2.78283773e-05)
(0.01492522468 0.004965808834 -1.132481016e-05)
(0.01481474423 0.004906303228 4.060996258e-05)
(0.01465601985 0.004806471862 1.943256636e-05)
(0.01447628695 0.004710579907 -4.229900733e-06)
(0.01425952791 0.00459218885 1.938124416e-05)
(0.0140590615 0.004386450989 4.054058023e-05)
(0.01381136786 0.004157389903 5.307237517e-05)
(0.0135915828 0.003993437172 7.100923665e-05)
(0.008791712116 0.0005155127697 -1.700999549e-05)
(0.008946811781 0.0006204289373 -1.359234239e-05)
(0.009112863294 0.0007431666983 1.233067762e-05)
(0.009438762095 0.0009333112477 -1.72819014e-05)
(0.00971404852 0.001146654708 -1.515735986e-05)
(0.009986957089 0.001334432673 -1.343606429e-05)
(0.01029178518 0.001579171113 -2.468594282e-05)
(0.01063663876 0.001874815928 -3.404266979e-05)
(0.01102876715 0.002131446153 -1.247170989e-05)
(0.01152886647 0.002439382866 -7.245365212e-06)
(0.01203277578 0.002749460337 -2.01209527e-05)
(0.01239467286 0.003036373743 7.91269352e-06)
(0.01283829437 0.003372134305 -1.76182868e-06)
(0.01333665147 0.003705325116 -4.445632216e-05)
(0.01373514792 0.004037682092 -3.855234491e-05)
(0.01416117471 0.004265581465 -5.614230009e-06)
(0.01452535701 0.00448013501 -1.72777457e-05)
(0.01484558637 0.00466810387 -5.83209549e-06)
(0.01505391099 0.004877185339 -7.941860789e-06)
(0.015223423 0.004982781982 2.107161939e-05)
(0.01531232749 0.005020153865 1.436527947e-05)
(0.0152138165 0.005051312363 2.876769087e-05)
(0.01531206454 0.005104366457 3.965695202e-05)
(0.01523733233 0.005066395659 -1.771214728e-05)
(0.01514674516 0.004997369463 2.759866271e-05)
(0.01505387172 0.004894772068 2.077710513e-05)
(0.01496382794 0.004839612176 -1.277330618e-05)
(0.01468806487 0.004678691392 -1.757111458e-05)
(0.01445479262 0.004472289932 2.732835825e-06)
(0.01416877519 0.004213516858 7.935512941e-06)
(0.008753651502 0.0003639466108 -9.366455795e-06)
(0.008895078178 0.0004591603373 -1.062130072e-05)
(0.009017097901 0.0005596398572 -2.586307702e-05)
(0.009094593526 0.0006752331977 -7.692475884e-06)
(0.00934319793 0.0008654450839 8.902449404e-06)
(0.00958179626 0.001054272204 -3.320892437e-06)
(0.009829068314 0.001231432471 -2.911594728e-07)
(0.0101352007 0.001453729165 -1.167689713e-05)
(0.01054362964 0.001689871544 -1.364564682e-05)
(0.01090918649 0.001934690175 -1.108045972e-05)
(0.01131868638 0.00227166641 -1.311687133e-07)
(0.01169646367 0.002554420074 1.315738189e-05)
(0.01222555494 0.002879346462 -4.38945618e-06)
(0.01273628405 0.003217660574 -3.423392413e-06)
(0.01323008606 0.003507652178 -1.767566818e-05)
(0.01375813025 0.003841555352 -4.019118485e-05)
(0.01413812376 0.004131461464 -1.985401345e-05)
(0.01445746078 0.004376860311 -8.882583652e-06)
(0.01485613961 0.004605542759 -3.202718082e-05)
(0.0151489723 0.004782174914 -1.76071352e-05)
(0.01539106888 0.00494724115 -1.315194927e-05)
(0.01559969699 0.00506848613 1.623846145e-05)
(0.01566844289 0.005138677014 2.273718318e-05)
(0.01565185323 0.005158998025 4.024900001e-05)
(0.01561582365 0.005152850841 1.708598133e-05)
(0.01547908109 0.00504915799 2.585112874e-05)
(0.0154432398 0.005024686753 3.126750042e-05)
(0.01528980633 0.004936552363 3.919448059e-05)
(0.01503627074 0.004767816814 6.633473281e-06)
(0.01481060886 0.004574358643 -1.661594817e-05)
(0.008549765904 0.0002714262588 1.04748348e-05)
(0.008592757863 0.0003253291484 2.806743879e-06)
(0.008747029923 0.000425265439 5.852999291e-06)
(0.008828814756 0.0005301410071 -1.551853187e-05)
(0.008996629036 0.0006194125824 -1.6087614e-05)
(0.00918191038 0.0007719663355 5.69910594e-06)
(0.009477572739 0.0009265473101 1.003472191e-05)
(0.009764036908 0.001094245338 1.551507613e-05)
(0.01003224898 0.001311650226 -6.592879489e-06)
(0.0103459524 0.001521588471 6.779407538e-06)
(0.01075794861 0.00178774489 2.405384469e-05)
(0.01122023729 0.002093797033 -2.209592886e-05)
(0.01163089156 0.002361558765 -1.048163659e-05)
(0.01213255327 0.002691166044 1.880773502e-05)
(0.01256719084 0.003041701207 -6.049477984e-08)
(0.01300180477 0.003357738634 6.797667845e-06)
(0.01344457606 0.003661693003 2.219181809e-05)
(0.01387161412 0.003957816414 -9.425393117e-07)
(0.01424203431 0.004192108787 -1.322853977e-05)
(0.01468107342 0.004460199198 -4.300811462e-05)
(0.01503788892 0.0047194307 -3.717567242e-05)
(0.01527622934 0.004903914466 -3.249536959e-05)
(0.01548063658 0.005028743236 -1.263678633e-05)
(0.0156010044 0.005139466391 -1.599271478e-05)
(0.01575795163 0.005144830809 3.904315709e-05)
(0.01578224961 0.005162267795 2.25984984e-05)
(0.01567141513 0.005123056725 4.273310825e-05)
(0.01559414364 0.005067382392 -1.927269421e-06)
(0.01546126793 0.004997988629 1.006155853e-05)
(0.008592401338 0.000222554953 1.714795755e-05)
(0.008609066475 0.0002692264873 4.065917158e-06)
(0.008651012261 0.0003094603463 1.191525492e-06)
(0.008792668395 0.0003839593086 7.334967564e-06)
(0.008874843866 0.000469303733 2.329971169e-06)
(0.00905727657 0.0005725937807 -1.476786684e-06)
(0.009229692606 0.000702152356 -6.342691317e-06)
(0.009448254551 0.0008355325837 -1.347171199e-05)
(0.009652963265 0.001009808587 -2.189399107e-05)
(0.00996120527 0.001205787905 -1.911691586e-05)
(0.01024420883 0.001404359376 -2.598499324e-05)
(0.01052645712 0.001625021668 -2.274756262e-05)
(0.01088304904 0.001907569625 -5.039837703e-05)
(0.01126877376 0.002167007734 -2.673146029e-05)
(0.01173771629 0.002530654643 -1.18847928e-05)
(0.01224018044 0.002822744958 -4.226510827e-05)
(0.01286160033 0.003172176682 -5.173878846e-05)
(0.0133942899 0.003495961521 -1.789886567e-05)
(0.01396223615 0.003837775073 -3.476962075e-06)
(0.01425227156 0.004074065982 1.199409346e-06)
(0.01468621543 0.004358415364 -2.604464103e-05)
(0.01509525183 0.004625041383 -2.105672661e-05)
(0.01539463994 0.004814503136 -2.590403047e-07)
(0.01566923191 0.005014957552 1.371639131e-05)
(0.01574761861 0.00508516108 -2.26563542e-05)
(0.008450998904 0.0001630915317 -1.745361305e-05)
(0.008531675434 0.000193897205 -1.569252754e-05)
(0.008616958531 0.0002426974556 -9.542282097e-06)
(0.008688002456 0.000292061999 -8.724941289e-06)
(0.008766016856 0.0003490281091 -2.744510054e-06)
(0.008849862437 0.0004152931373 -1.077517694e-05)
(0.008934765822 0.0004984693829 -1.025049165e-05)
(0.009041412692 0.000627171878 -8.029964801e-06)
(0.009283267221 0.0007295935668 6.218119425e-07)
(0.009504870342 0.0009234991277 -1.645211505e-05)
(0.009712327039 0.001093226065 -3.714025717e-06)
(0.01002143227 0.001287671563 5.501170682e-06)
(0.01037523074 0.001509391354 -3.359455881e-06)
(0.01080065415 0.001761755034 -2.950101185e-05)
(0.01121555561 0.002035343255 -4.789527153e-05)
(0.0116583271 0.002341311299 -2.156619583e-05)
(0.01210793513 0.002622457057 -2.536136845e-05)
(0.01259460153 0.0029848806 -1.963742462e-05)
(0.0130241592 0.003304542145 4.338735847e-05)
(0.008452909694 0.0001165013839 -2.441945886e-06)
(0.008485556467 0.000137082083 2.173780695e-06)
(0.00855331292 0.0001658051294 -2.845927258e-06)
(0.00859889094 0.0002098382099 -3.768567567e-06)
(0.008640362562 0.0002762689349 -6.345469049e-06)
(0.00872722879 0.0003184915793 -7.371691094e-06)
(0.008854751245 0.0003980347288 -9.5813882e-07)
(0.008920266443 0.0004771272831 -1.107427229e-05)
(0.009037715258 0.0005835789043 3.670991734e-07)
(0.009145550941 0.0006751040143 6.357189601e-06)
(0.00945193568 0.000829076493 3.169658501e-06)
(0.009683085935 0.0009975008957 2.293239056e-06)
(0.009959252013 0.001159487491 7.260537137e-06)
(0.01022485636 0.001358842951 7.428520692e-06)
(0.008441848821 7.787974869e-05 -1.883531218e-05)
(0.008479377382 9.532603951e-05 -2.116920549e-05)
(0.008489738661 0.0001357797263 -1.111576762e-05)
(0.00849133326 0.0001675263006 -1.617543265e-05)
(0.008578071073 0.000216211423 -2.821844936e-06)
(0.008559118819 0.000262604701 5.279193653e-06)
(0.008650597855 0.0002991774682 -1.151653255e-06)
(0.008768344729 0.0003527882384 8.786601162e-08)
(0.00837999196 6.74774112e-05 9.371839653e-06)
)
;

boundaryField
{
    flow
    {
        type            calculated;
        value           nonuniform List<vector> 
15
(
(0.003592736168 0.0006807133162 3.433070418e-06)
(0.004998015085 0.0007444182072 3.935010788e-05)
(0.005971486209 0.0008726600216 1.575563431e-05)
(0.006893408064 0.001147502361 7.016444988e-06)
(0.007553247953 0.001417041169 -1.85210338e-05)
(0.00830391712 0.001734549616 -3.178041438e-05)
(0.009113621109 0.002029697882 2.618290853e-05)
(0.009992432189 0.002336670971 -9.833748908e-06)
(0.01075426634 0.002682973293 2.062054633e-05)
(0.01124558386 0.00298042285 3.169096462e-05)
(0.01209650322 0.003356760119 -2.352621582e-05)
(0.01296639935 0.003709321519 2.042875708e-05)
(0.0135915828 0.003993437172 7.100923665e-05)
(0.01416877519 0.004213516858 7.935512941e-06)
(0.01481060886 0.004574358643 -1.661594817e-05)
)
;
    }
    obstacle
    {
        type            calculated;
        value           nonuniform List<vector> 
30
(
(1.283885869e-21 3.440161823e-22 -3.337494092e-23)
(1.153292586e-21 3.090238176e-22 -2.461969392e-23)
(1.18455998e-21 3.174018891e-22 4.629595925e-23)
(1.195256041e-21 3.202678916e-22 -4.171734405e-24)
(1.016738682e-21 2.72434308e-22 -2.262465326e-23)
(1.05135217e-21 2.817089653e-22 2.698233863e-23)
(1.02045699e-21 2.734306268e-22 5.33108021e-24)
(9.907700054e-22 2.65476022e-22 -4.254597482e-23)
(1.086646361e-21 2.911660155e-22 3.252243649e-23)
(9.519951243e-22 2.550863252e-22 -1.007203087e-22)
(1.002247229e-21 2.685513349e-22 -1.148460351e-23)
(8.863443332e-22 2.374952487e-22 7.721285618e-23)
(9.337589765e-22 2.501999641e-22 3.726720594e-23)
(8.992236625e-22 2.409462534e-22 -1.146320917e-23)
(7.695741207e-22 2.062067645e-22 5.849645508e-23)
(8.18644539e-22 2.193551424e-22 -8.353504308e-23)
(7.574239581e-22 2.029511383e-22 5.639364546e-24)
(8.281970611e-22 2.219147341e-22 -1.05032059e-23)
(8.180326346e-22 2.191911831e-22 -4.896462767e-23)
(8.94805607e-22 2.397624402e-22 1.126505899e-22)
(7.821934367e-22 2.095881001e-22 1.308599665e-23)
(8.208681014e-22 2.199509442e-22 3.435824488e-23)
(7.837194236e-22 2.09996987e-22 -9.240548249e-24)
(7.866752775e-22 2.107890057e-22 1.54634286e-23)
(8.477424142e-22 2.271518946e-22 1.27491868e-22)
(7.39363739e-22 1.981119171e-22 1.187286539e-23)
(7.513881797e-22 2.013338553e-22 3.410644091e-23)
(8.745250342e-22 2.343282771e-22 -7.181506038e-24)
(8.459033072e-22 2.266591085e-22 2.541754658e-23)
(8.67792588e-22 2.325243224e-22 6.898254287e-23)
)
;
    }
    frontAndBack
    {
        type            empty;
    }
    procBoundary1to0
    {
        type            processor;
        value           nonuniform List<vector> 
21
(
(0.005709921547 0.00165378113 -4.805996316e-05)
(0.008728999003 0.00263530756 2.153299974e-05)
(0.01049618715 0.003381040377 -2.494204227e-05)
(0.01154041082 0.003711500295 -1.572419608e-05)
(0.01171744824 0.003643795575 1.88009366e-05)
(0.01154671146 0.003211210606 -1.430786177e-05)
(0.01117334475 0.002718146026 -5.527962023e-06)
(0.01056276297 0.002232042808 2.846158758e-06)
(0.01013806866 0.001744864907 -3.705439647e-06)