/*--------------------------------*- C++ -*----------------------------------*\
| =========                 |                                                 |
| \\      /  F ield         | OpenFOAM: The Open Source CFD Toolbox           |
|  \\    /   O peration     | Version:  2406                                  |
|   \\  /    A nd           | Website:  www.openfoam.com                      |
|    \\/     M anipulation  |                                                 |
\*---------------------------------------------------------------------------*/
FoamFile
{
    version     2.0;
    format      ascii;
    arch        "LSB;label=32;scalar=64";
    class       volScalarField;
    location    "0.011";
    object      overallT;
}
// * * * * * * * * * * * * * * * * * * * * * * * * * * * * * * * * * * * * * //

dimensions      [1 2 -2 0 0 0 0];

internalField   nonuniform List<scalar> 
546
(
840.8061095
829.9948384
819.3735675
809.2992381
803.8554739
798.0136397
795.8276652
782.5403719
773.1069366
772.561459
765.6678602
762.3558553
758.8964323
763.1612705
753.5944942
748.7879912
745.4999942
738.1371579
736.7324542
735.8758079
736.8368647
721.8598055
722.2572467
727.7445343
720.6449629
719.4773902
720.9175985
715.971739
710.1870529
701.4618303
916.1461395
911.2022697
906.1930201
899.8908554
894.3880462
884.6702513
878.0102396
871.9383498
868.2536641
862.041414
848.5530384
849.171234
845.9577138
847.632946
844.237442
828.3543761
825.4823757
819.7993453
814.068471
814.1700653
807.2685949
801.4069548
796.4059772
790.6675892
791.4902607
781.7726592
774.2211593
773.1529441
755.1132936
725.2804153
929.2720151
927.6386023
926.1439602
928.2394933
925.2986731
914.8863356
912.2047305
911.5947111
898.770181
901.5753422
894.7549134
889.5809979
884.8169929
886.0309977
881.4396062
877.1612723
872.7348764
864.0622059
855.1034882
856.8785326
850.3897996
847.7927713
835.2988503
835.9266991
830.9635783
820.5205888
807.0297879
792.5804018
779.0719706
749.7565039
908.6059898
906.1234596
916.3416529
910.3367362
913.1489542
915.3231789
908.702184
904.6685527
908.2321311
910.2460687
909.7835625
912.6190287
904.5263224
901.0954333
895.5245113
891.9826682
888.6697906
880.6993366
878.0019699
878.3324682
876.9021651
869.8635176
866.4436226
857.4795251
854.0949148
844.5876711
836.1864976
810.8706316
782.0480524
751.428598
877.4108415
880.5624493
889.875459
891.2862872
889.9643866
890.2778739
891.8800754
892.6577981
898.3379344
897.2172315
898.8957363
902.6039357
901.3718578
900.2678914
892.9171225
893.6671134
896.5536873
892.8679993
890.7852183
886.6263407
879.3533872
882.7499145
878.9381529
872.8905563
869.6554755
853.9771621
844.8914435
819.0106277
797.3755728
764.4747863
848.0563294
851.0887988
859.0552019
867.0520284
864.8861568
863.6119942
872.8479651
875.5713618
874.8269367
875.8750153
881.4380655
887.4799722
887.5917833
890.9287415
888.0572551
888.6895165
882.598696
886.6057632
884.4406683
884.470791
879.55393
878.3855006
879.4615564
873.0571893
867.9953558
856.2763809
843.8811111
826.2989839
808.2150923
781.2464672
813.112725
820.3130859
829.6320033
831.015309
840.5145518
841.3349845
845.0541433
848.402561
853.5162372
856.685627
861.1067122
867.6900432
868.2883869
868.3868343
872.317202
872.249983
877.1836071
880.5793931
881.0229876
880.504261
876.6039421
867.720423
869.6908141
866.5274525
857.8511055
846.3905789
837.445842
833.8279065
817.4334146
785.7479648
764.1319014
783.482769
788.6205526
799.7358621
804.9402012
814.1209472
823.2000575
819.8797562
824.3227759
831.9647737
832.1991927
837.1677123
839.4581227
846.3170985
850.4789471
852.1453383
859.7819095
859.2073576
862.4331096
866.8482734
866.8916505
862.1331542
856.4366186
854.1810522
852.580371
847.6605627
839.2343871
822.7918834
811.7273732
791.0655522
713.9871644
738.052357
749.1479005
763.4069585
774.8618759
782.5241017
787.4018726
794.957051
799.8826488
807.5865041
809.2176601
820.6859828
820.2326962
823.3564445
826.578927
836.2342445
840.0192498
840.8990659
836.8170689
848.815557
846.0985034
848.3707928
847.3080202
843.6289661
841.8974266
839.7979899
834.7285126
824.5514215
810.1678291
790.5585901
659.4870656
683.0473912
710.9128771
726.4204269
743.41507
750.9265374
754.2996424
769.5572632
775.6179169
780.8123135
787.970122
796.1048433
794.3947606
803.8517901
809.2350523
814.7350678
818.8404984
821.0273404
822.9051445
823.0868769
828.6522043
831.2063005
833.7746632
836.1971415
836.9461464
828.3739896
820.8477944
812.859205
801.8987731
788.9624044
601.6548985
631.4728724
656.7554594
681.201855
695.7656922
714.0838623
720.8204699
733.1003885
745.0453851
754.6381519
764.0124076
769.9468143
776.2991609
784.4660732
786.7089219
789.0919661
794.2001519
803.392481
804.3873871
803.5900295
813.1433614
816.0078428
821.2430146
822.1423862
818.5864744
818.7696735
811.3758431
801.3196435
793.9257516
780.8159939
555.1771887
586.133865
605.4817637
630.2007914
648.7588064
669.6971682
691.0094585
700.4972183
715.7481486
724.0882491
734.0693924
745.5635998
752.0186754
762.6833145
769.4616547
770.0331671
773.3351912
783.2300556
789.8680216
789.4767704
795.168633
799.2993648
801.7795591
801.5864742
801.2834547
802.2351105
800.0890479
796.0181621
787.0999506
775.2818939
502.4816286
529.804391
562.8473759
586.9576174
607.158449
633.9444519
649.2951328
664.5557509
684.6699337
700.4198995
709.7268246
722.5296407
728.3942279
738.1445571
749.3079824
750.7350472
756.2895603
765.1123363
767.1073425
772.7540286
777.1206166
783.9324342
786.4583717
792.1379375
785.601388
783.8754011
784.2166785
783.6294483
778.043459
769.5136744
458.956347
484.2534913
506.3588186
536.0289701
567.1385537
591.3925249
606.8750378
625.2188081
643.240189
662.1753267
680.2260331
691.8969789
703.9551828
716.023802
725.5909002
729.3277106
740.1369709
742.0283304
746.8323232
750.5587346
751.275435
762.4336009
765.736974
768.8012502
771.8510637
770.221049
774.6958348
776.1158345
768.4730587
758.8178995
420.002524
438.0117748
462.9128216
481.331945
511.5629273
536.4782553
556.8620812
583.2056142
604.8702508
623.2370544
643.9153799
661.1045928
673.2028134
683.2337617
692.7514956
702.3767411
710.9773582
716.4846685
726.5531467
732.0012978
736.4244555
740.9443846
748.4443983
752.1548828
755.086144
751.8422795
754.6962849
759.9669059
755.6975208
747.5949649
393.8782796
411.4063487
431.7854573
450.495008
470.8180542
495.8952733
519.1459244
542.3586865
564.826384
581.8743122
599.3513009
622.5318445
633.8289019
648.2355739
669.1137368
678.6305621
693.2404013
698.1423727
707.8491794
710.141137
715.3087862
723.8954766
727.1522703
731.6135738
739.4676662
740.0648411
738.6941982
742.1066436
737.3864479
374.4812465
381.595707
394.0172977
415.5443146
436.7045618
457.5028325
478.2683426
495.8528653
517.7043331
543.2300186
562.8581625
584.5115528
601.4685474
618.900133
640.5569403
655.6197812
666.3518962
675.658142
685.695646
690.465722
695.46458
704.6901926
711.1951333
717.5045211
718.48709
357.5118959
365.000619
378.5845652
392.5973972
405.4619627
420.7006358
439.5667691
464.5811806
479.7665248
506.2807707
527.9674821
544.4820045
564.8915192
585.8806574
605.7124269
622.2501045
638.0329773
654.0662146
663.6636945
341.9254496
351.9791029
358.5348626
371.7478088
386.1103962
399.7598718
411.6121547
426.7405384
450.1205356
463.9908268
487.9665405
506.0852222
524.8719159
545.4623723
334.2495221
338.1652228
343.1672542
352.7719871
366.8330006
380.4380122
385.680144
398.4334164
322.9066724
)
;

boundaryField
{
    flow
    {
        type            calculated;
        value           nonuniform List<scalar> 
15
(
701.4618303
725.2804153
749.7565039
751.428598
764.4747863
781.2464672
785.7479648
791.0655522
790.5585901
788.9624044
780.8159939
775.2818939
769.5136744
758.8178995
747.5949649
)
;
    }
    obstacle
    {
        type            calculated;
        value           nonuniform List<scalar> 
30
(
729.7252273
728.8321163
717.7577232
720.5743159
709.354754
717.8164229
700.327616
708.7541929
684.2971475
683.6744645
694.7805874
673.3497777
680.9039481
678.4089377
681.1674326
681.9158812
678.2335047
668.0484811
661.3722903
648.6776681
675.7704082
662.8505307
651.1064506
677.3538489
651.1635279
677.2589175
677.4526415
662.6118538
671.7495467
681.0731345
)
;
    }
    frontAndBack
    {
        type            empty;
    }
    procBoundary1to0
    {
        type            processor;
        value           nonuniform List<scalar> 
21
(
849.2360758
926.8153721
929.2347843
914.043828
878.7668086
843.4402992
797.3727688
747.0026486
691.2495458
635.4522621
575.4387794
521.5887082
479.0932136
436.2489343
407.7425479
381.421211
360.4143525
346.7588966
335.9492377
325.5183704
321.6708348
)
;
    }
    procBoundary1to3
    {
        type            processor;
        value           nonuniform List<scalar> 
36
(
733.9386856
723.9567654
725.6135056
728.4857691
733.9386856
723.8733061
668.7994968
680.3934604
691.6288644
694.5876271
703.7682606
723.9567654
708.3602141
565.9017967
589.9299515
608.6981628
625.9765549
668.7994968
641.5305834
418.6533289
433.7653097
452.1511041
473.6218127
490.9706765
565.9017967
510.7339963
325.436404
332.3606107
338.5014213
349.3706292
361.0287202
367.9346196
418.6533289
376.9383334
325.436404
317.6995842
)
;
    }
}


// ************************************************************************* //
