/*--------------------------------*- C++ -*----------------------------------*\
| =========                 |                                                 |
| \\      /  F ield         | OpenFOAM: The Open Source CFD Toolbox           |
|  \\    /   O peration     | Version:  2406                                  |
|   \\  /    A nd           | Website:  www.openfoam.com                      |
|    \\/     M anipulation  |                                                 |
\*---------------------------------------------------------------------------*/
FoamFile
{
    version     2.0;
    format      ascii;
    arch        "LSB;label=32;scalar=64";
    class       volScalarField;
    location    "0.011";
    object      p;
}
// * * * * * * * * * * * * * * * * * * * * * * * * * * * * * * * * * * * * * //

dimensions      [1 -1 -2 0 0 0 0];

internalField   nonuniform List<scalar> 
546
(
3.932430142
3.866415946
3.772319013
3.707289454
3.603840486
3.561465875
3.56624087
3.495858664
3.471361582
3.4218823
3.362161041
3.357343364
3.295279324
3.347190303
3.308510218
3.186426808
3.107652335
3.140042652
3.128877675
3.075775138
3.048782271
3.020217702
2.981331175
2.974150047
2.855734508
2.772288344
2.667721665
2.538657898
2.31844918
1.894855486
3.898637416
3.832243788
3.754497966
3.730400101
3.6612032
3.637526104
3.576592502
3.545496797
3.497173103
3.449494257
3.39854525
3.419767248
3.401319317
3.406287347
3.368849572
3.25173226
3.211403641
3.231940101
3.175894049
3.124408564
3.082031313
3.064975896
3.039759542
2.954776319
2.882766789
2.809411402
2.660396291
2.485483347
2.202160613
1.734130936
3.691301595
3.68852406
3.651386991
3.656947207
3.584208719
3.516441316
3.522156689
3.478845073
3.468519363
3.438031306
3.399526738
3.435180604
3.376939431
3.351355822
3.325764302
3.235251212
3.230485257
3.230669374
3.14113406
3.137070831
3.06297102
3.041030422
3.056503899
2.933563767
2.83783607
2.733072027
2.632254369
2.417964455
2.178869131
1.776497919
3.418169995
3.42383071
3.501935137
3.474991402
3.487143634
3.464075059
3.457070218
3.401349778
3.385592667
3.380885817
3.358584961
3.35316481
3.337154586
3.294095703
3.261613176
3.219921924
3.194387663
3.179365918
3.148338955
3.123012178
3.065499735
3.03152587
2.999986864
2.940108077
2.854094324
2.755696837
2.610606707
2.397708594
2.189609011
1.882452495
3.137736335
3.160362361
3.281526251
3.337523451
3.340815612
3.297591474
3.302748936
3.28724236
3.313051387
3.282531828
3.269498549
3.313956412
3.299363855
3.285342519
3.22349946
3.221900897
3.172356311
3.169053016
3.144208643
3.092853217
3.031243645
3.009399323
2.96711776
2.909240983
2.841507202
2.761135399
2.675446221
2.40594996
2.205903779
1.907907518
2.846334795
2.935156043
3.041250368
3.106204754
3.124125311
3.091344548
3.155730972
3.187494648
3.196337882
3.169452695
3.217405133
3.242488128
3.200592492
3.221272199
3.164035023
3.174931074
3.090523264
3.1365707
3.109297348
3.08680639
3.036270596
2.973814503
2.925051044
2.876122563
2.837421738
2.740795393
2.601132772
2.45081837
2.273652452
1.992742849
2.506480233
2.653963445
2.753307863
2.81955151
2.92720766
2.972159945
3.016080766
3.055584499
3.06051873
3.100364929
3.111748374
3.155783864
3.139547243
3.111755983
3.130841745
3.11004708
3.104189323
3.108079717
3.081671765
3.059323963
3.040805457
2.962320568
2.906967459
2.857788968
2.811717685
2.671785345
2.601072329
2.493216563
2.312039648
2.077796136
2.144089905
2.323846863
2.440518558
2.579725663
2.64737953
2.756618155
2.860838807
2.900818409
2.920328084
2.972860826
2.998697426
3.049325806
3.009259826
3.039451342
3.067059987
3.085549101
3.101688421
3.047416849
3.033594386
3.054064149
3.032886816
2.96748762
2.91773606
2.83611522
2.800339547
2.721617023
2.649406975
2.483431697
2.363988985
2.185638246
1.854600764
2.003052487
2.13918405
2.288550218
2.415054567
2.518167159
2.615551908
2.688018507
2.761140042
2.806844702
2.838056992
2.964108746
2.969473947
2.965469366
2.967682725
3.044830543
3.025177223
3.011967366
2.969482007
2.999066475
2.944469571
2.932225878
2.889428316
2.84120331
2.803243585
2.771775616
2.661739486
2.546112987
2.412337936
2.234868338
1.551445092
1.684630055
1.841402829
1.986006002
2.145677812
2.241157968
2.337720811
2.475702604
2.568671422
2.663040836
2.729607252
2.812589506
2.813518972
2.880380462
2.911113851
2.928572995
2.941461094
2.959800259
2.904669715
2.898429766
2.929367697
2.911518122
2.877585452
2.829752669
2.827424125
2.761599752
2.664500549
2.566893622
2.433968186
2.286723433
1.307050769
1.448081864
1.584416379
1.736398386
1.856345556
2.00184531
2.105003275
2.218833908
2.361064414
2.475935228
2.570976328
2.62728701
2.704258895
2.794920296
2.804040957
2.813273351
2.852577092
2.901369516
2.895920836
2.862408422
2.909074202
2.889403237
2.888561046
2.85885897
2.769469545
2.748208297
2.686489323
2.593264055
2.483495305
2.338241042
1.124837704
1.25631407
1.352313404
1.476566484
1.603472139
1.736372848
1.880934103
1.991745549
2.133696368
2.23280861
2.336481832
2.436938236
2.523757973
2.634797998
2.704936965
2.720610002
2.745124759
2.800224624
2.852512548
2.829608832
2.846084772
2.863238968
2.849161384
2.836015949
2.78100528
2.744599
2.692757267
2.605539051
2.531926391
2.425237519
0.9521211982
1.044969993
1.165744974
1.263646096
1.363706071
1.506888329
1.62803231
1.722552876
1.859234191
1.981756796
2.095670542
2.242471378
2.343721517
2.440120674
2.542787565
2.589586259
2.653719642
2.731216698
2.747146758
2.784338164
2.789851751
2.838195239
2.823547047
2.834500832
2.776546388
2.741455206
2.697887759
2.670275151
2.572631949
2.455279722
0.814616417
0.8919417522
0.9653418231
1.074806075
1.195282689
1.298250795
1.390863524
1.501252078
1.622671958
1.764990893
1.906519189
2.00287251
2.118049109
2.246819161
2.35927547
2.430149842
2.532662642
2.586161061
2.637607841
2.679113278
2.705884031
2.732609602
2.775073613
2.778783264
2.754676118
2.721625816
2.739882434
2.686254271
2.58724152
2.475163131
0.7143861605
0.7699000373
0.8421981619
0.8997140519
1.004423509
1.096877699
1.18288475
1.299955172
1.419229155
1.531100037
1.655903709
1.775257659
1.905697234
2.013665682
2.128729112
2.244960734
2.330086503
2.402050037
2.500483721
2.570176977
2.624168085
2.678462918
2.71978895
2.737792186
2.750515595
2.688579463
2.698970498
2.698498556
2.624082702
2.515816562
0.6373658045
0.6804004188
0.7382357772
0.7896200299
0.8542766673
0.9374723639
1.033606785
1.128519484
1.229012797
1.311766375
1.425712915
1.565717814
1.650706293
1.780233199
1.923195188
2.032512416
2.146196903
2.231305426
2.328323552
2.405484049
2.471260066
2.550043809
2.600663737
2.63544584
2.679576243
2.677537511
2.648620599
2.637674636
2.586144268
0.5945973517
0.6132499862
0.643324911
0.7052237443
0.7605200463
0.8277350604
0.8936906008
0.9709164542
1.054641558
1.158986834
1.252209681
1.354542101
1.444522987
1.545107828
1.692697903
1.809403546
1.947161025
2.066438943
2.188746782
2.239922755
2.331805439
2.439999753
2.490145675
2.573374729
2.570650673
0.5448358654
0.5672927732
0.6057088174
0.6415606132
0.6794711674
0.7234432373
0.7710151899
0.8388962978
0.9038904186
0.9985049978
1.073353177
1.157331489
1.258686231
1.375577136
1.500730874
1.621651925
1.729679156
1.85391049
1.952813467
0.5130263338
0.5374070232
0.5522911456
0.5840368603
0.6209255424
0.6612312218
0.6985099502
0.7411431274
0.8062402729
0.8519540473
0.947465683
1.015456481
1.098784
1.183853865
0.4909907482
0.4998773907
0.5149390474
0.5374394969
0.573454592
0.6040289616
0.62113547
0.6600035079
0.4661124039
)
;

boundaryField
{
    flow
    {
        type            calculated;
        value           nonuniform List<scalar> 
15
(
1.894855486
1.734130936
1.776497919
1.882452495
1.907907518
1.992742849
2.077796136
2.185638246
2.234868338
2.286723433
2.338241042
2.425237519
2.455279722
2.475163131
2.515816562
)
;
    }
    obstacle
    {
        type            calculated;
        value           nonuniform List<scalar> 
30
(
3.249562061
3.306487241
3.176354751
3.201007769
3.057153172
3.080248431
3.096616663
3.104011085
3.084795745
2.987755018
2.973524804
3.016680224
2.965066718
2.985323119
3.044822866
2.924889754
2.843059097
2.856739213
2.874867475
2.824072591
2.800421321
2.759052749
2.713174409
2.754587794
2.6552115
2.57733765
2.482132237
2.371054107
2.205030621
1.991551601
)
;
    }
    frontAndBack
    {
        type            empty;
    }
    procBoundary1to0
    {
        type            processor;
        value           nonuniform List<scalar> 
21
(
4.00302335
3.921595874
3.697881071
3.440643421
3.077061362
2.699403722
2.357853458
2.014155284
1.700603723
1.418011484
1.193222284
1.015147173
0.8826446515
0.7576942238
0.6685178877
0.6068435857
0.5584784174
0.5174399622
0.4958546605
0.4696731631
0.4658857372
)
;
    }
    procBoundary1to3
    {
        type            processor;
        value           nonuniform List<scalar> 
36
(
2.537083575
2.598711031
2.627627301
2.608780127
2.537083575
2.559001897
2.061139435
2.167680012
2.29737153
2.353115965
2.443775872
2.598711031
2.518898779
1.286926007
1.429713068
1.528415684
1.655730336
2.061139435
1.776653677
0.7157099496
0.7642215437
0.8122592845
0.8896518693
0.9537998429
1.286926007
1.032723793
0.4750814825
0.4894930098
0.5056238143
0.5329717982
0.5647524619
0.5809877426
0.7157099496
0.6048481469
0.4750814825
0.457621112
)
;
    }
}


// ************************************************************************* //
