/*--------------------------------*- C++ -*----------------------------------*\
| =========                 |                                                 |
| \\      /  F ield         | OpenFOAM: The Open Source CFD Toolbox           |
|  \\    /   O peration     | Version:  2406                                  |
|   \\  /    A nd           | Website:  www.openfoam.com                      |
|    \\/     M anipulation  |                                                 |
\*---------------------------------------------------------------------------*/
FoamFile
{
    version     2.0;
    format      ascii;
    arch        "LSB;label=32;scalar=64";
    class       volScalarField;
    location    "0.011";
    object      rhoM;
}
// * * * * * * * * * * * * * * * * * * * * * * * * * * * * * * * * * * * * * //

dimensions      [1 -3 0 0 0 0 0];

internalField   nonuniform List<scalar> 
546
(
1.653872131e-05
1.493491273e-05
1.323188249e-05
1.866420244e-05
1.381605719e-05
1.67824939e-05
1.597534358e-05
1.696354871e-05
1.448300457e-05
1.292137982e-05
1.591986165e-05
1.977383731e-05
1.453952472e-05
1.795230259e-05
1.369932191e-05
1.690908692e-05
1.266093625e-05
1.625711173e-05
9.955974971e-06
1.047419467e-05
1.353306465e-05
1.523432359e-05
9.859189646e-06
1.415892257e-05
1.319921417e-05
1.377444269e-05
1.067721902e-05
6.037674572e-06
6.936496376e-06
7.56914826e-06
1.221929781e-05
1.636162233e-05
1.10391289e-05
1.531245879e-05
2.034066593e-05
1.585379443e-05
1.527441743e-05
8.403502152e-06
1.377116321e-05
1.004974857e-05
1.664296354e-05
1.239854444e-05
1.633857874e-05
9.470597146e-06
1.320083748e-05
8.62140116e-06
1.173153234e-05
1.548957779e-05
1.167302142e-05
1.280975739e-05
1.073817832e-05
1.998850379e-05
1.145919162e-05
8.334158657e-06
4.520606988e-06
9.760959749e-06
1.196600183e-05
1.541932642e-05
1.012445072e-05
6.812461352e-06
1.192047823e-05
1.013296031e-05
1.156847706e-05
1.196071513e-05
1.481424307e-05
1.631814416e-05
1.348232737e-05
1.083750749e-05
8.547815778e-06
1.140702427e-05
1.181776536e-05
1.628908769e-05
1.053826522e-05
7.823105526e-06
1.087591014e-05
1.397899517e-05
1.510859527e-05
1.055327112e-05
1.416201517e-05
1.038792403e-05
1.196054676e-05
1.364818272e-05
1.127998712e-05
1.236618938e-05
1.030707105e-05
1.395627446e-05
1.399091518e-05
7.523389462e-06
1.481182188e-05
7.380546334e-06
1.281514224e-05
1.020776481e-05
1.701268055e-05
7.694192277e-06
1.128234299e-05
1.345682757e-05
1.519674534e-05
9.031571537e-06
1.195116575e-05
1.029017204e-05
1.672309301e-05
8.26569629e-06
1.511141432e-05
1.325804252e-05
1.095865755e-05
9.123990662e-06
8.440624167e-06
1.480891999e-05
1.012705936e-05
1.307065442e-05
1.073817832e-05
9.598246979e-06
1.350185544e-05
1.675763017e-05
1.564082106e-05
1.049048415e-05
1.261039323e-05
1.73701663e-05
1.190641954e-05
6.055774427e-06
1.192047823e-05
1.178408343e-05
1.262717336e-05
1.500692069e-05
1.051550328e-05
1.508112018e-05
1.472883548e-05
1.547070156e-05
1.25052438e-05
8.535393028e-06
1.680322248e-05
1.102157911e-05
1.307007588e-05
9.634751195e-06
7.72150871e-06
1.205408242e-05
1.325182062e-05
1.046844519e-05
8.153386314e-06
9.521047387e-06
1.48403417e-05
1.58508026e-05
1.110292237e-05
1.245550224e-05
1.039717831e-05
1.049048413e-05
8.00791424e-06
9.103919397e-06
8.998759041e-06
8.231534224e-06
1.065453315e-05
6.454883523e-06
1.103912891e-05
1.157925129e-05
1.404555444e-05
1.562255105e-05
1.480650758e-05
1.099405189e-05
1.147596934e-05
9.811246583e-06
7.637476275e-06
1.183121421e-05
7.597399751e-06
1.342418028e-05
1.261960564e-05
1.540333483e-05
1.266093625e-05
1.96604007e-05
8.238928514e-06
1.237840417e-05
1.554064056e-05
1.21519285e-05
1.359038789e-05
1.156021496e-05
9.854356933e-06
1.386535857e-05
7.916175148e-06
1.133249172e-05
7.312479638e-06
1.457021145e-05
7.972335793e-06
1.253393651e-05
1.240109047e-05
8.379359135e-06
9.517317416e-06
9.512649255e-06
1.293674542e-05
1.468608777e-05
1.345563661e-05
1.379973005e-05
1.093440454e-05
1.831415157e-05
8.904013792e-06
8.235474371e-06
1.104140496e-05
1.699251576e-05
1.21541735e-05
8.596123684e-06
1.407647302e-05
1.497486401e-05
1.065116679e-05
1.497102748e-05
1.359038785e-05
1.335078962e-05
1.374203562e-05
1.140184043e-05
1.012456684e-05
1.356106406e-05
7.499342267e-06
6.24437645e-06
1.199473444e-05
8.407032662e-06
9.754349709e-06
9.218212594e-06
1.089984759e-05
1.044134873e-05
1.215814718e-05
6.675838401e-06
1.313820352e-05
7.976966921e-06
1.053182051e-05
1.353320488e-05
9.8035408e-06
1.128224282e-05
1.627249154e-05
1.205408245e-05
9.874757662e-06
1.055327107e-05
8.754249156e-06
1.411007229e-05
1.143637406e-05
1.408913079e-05
1.021545883e-05
1.60409686e-05
1.157292805e-05
9.031435248e-06
1.214948e-05
1.189019408e-05
9.46817357e-06
1.277393475e-05
3.799630003e-06
7.804980645e-06
8.24166619e-06
6.018320443e-06
8.136636163e-06
7.269844658e-06
6.156745687e-06
6.754110602e-06
1.543339738e-05
1.092809881e-05
9.40613459e-06
1.110234741e-05
9.966375622e-06
1.202291976e-05
1.237136342e-05
1.314269019e-05
1.325182058e-05
7.319634066e-06
6.695033937e-06
9.781944383e-06
1.134936255e-05
6.956800112e-06
8.349859829e-06
7.706809957e-06
5.876571272e-06
9.21326709e-06
1.371569777e-05
1.244565913e-05
1.237357591e-05
7.380546348e-06
8.046592009e-06
4.427929861e-06
6.578260765e-06
7.846043784e-06
6.063765348e-06
1.48498768e-05
5.611163724e-06
9.503096533e-06
5.144465789e-06
1.379973e-05
1.326590587e-05
1.126388399e-05
1.307007582e-05
6.918274568e-06
9.796193847e-06
1.188722474e-05
1.586772293e-05
1.489374599e-05
1.544928313e-05
1.25509455e-05
1.012699409e-05
1.180086684e-05
1.270292437e-05
1.200677927e-05
1.645396414e-05
1.368352681e-05
1.371348038e-05
7.338234495e-06
7.4993422e-06
9.462005059e-06
1.042996977e-05
4.728955858e-06
7.032247927e-06
1.112186166e-05
1.112934483e-05
1.291539673e-05
7.403253823e-06
9.659640965e-06
7.439659673e-06
9.65224524e-06
6.271401929e-06
8.26569629e-06
1.682905101e-05
8.976151294e-06
1.029467835e-05
1.339297684e-05
1.282917933e-05
1.029879321e-05
1.158747922e-05
1.17724245e-05
9.42879826e-06
1.021472606e-05
1.137065927e-05
1.084355338e-05
1.220367877e-05
1.450396711e-05
1.196600189e-05
1.049705678e-05
1.209328217e-05
8.799619282e-06
5.438650908e-06
2.70200223e-06
6.048912639e-06
5.636856611e-06
6.677606894e-06
6.805494886e-06
9.507909435e-06
5.654516176e-06
7.835974369e-06
1.036967276e-05
9.245875765e-06
1.418130351e-05
7.106927576e-06
1.31759655e-05
1.137439452e-05
1.858371316e-05
8.440624222e-06
1.336277849e-05
1.810936127e-05
1.09939036e-05
1.300889192e-05
5.723841959e-06
1.216959017e-05
1.299353804e-05
8.318178298e-06
1.058140013e-05
8.377088224e-06
1.709019631e-05
1.125014238e-05
1.211154881e-05
3.129529336e-06
8.78105516e-06
7.258330831e-06
9.37006412e-06
4.37523885e-06
8.894137288e-06
3.819073705e-06
6.047769044e-06
1.345373013e-05
7.498041454e-06
6.994503819e-06
5.83483876e-06
1.429527244e-05
1.12001658e-05
1.311809003e-05
1.088204564e-05
1.164741072e-05
1.089257497e-05
1.055683785e-05
1.246467486e-05
1.379409959e-05
1.197639774e-05
1.536745456e-05
1.424823541e-05
6.509499803e-06
1.094726083e-05
1.454356736e-05
9.939354318e-06
1.377956143e-05
1.173206577e-05
7.376491332e-06
8.706250712e-06
5.444203477e-06
5.409079302e-06
3.7613973e-06
9.899917827e-06
9.11767168e-06
7.225635563e-06
7.518541323e-06
8.455892351e-06
1.165750636e-05
8.023391383e-06
1.135440699e-05
9.716828139e-06
9.547951605e-06
9.123990677e-06
1.392479339e-05
1.217111469e-05
1.433309956e-05
1.17724245e-05
8.817613956e-06
1.532208895e-05
9.770657299e-06
1.236618935e-05
1.446507116e-05
1.003370738e-05
9.113218708e-06
7.338234429e-06
7.4993422e-06
1.466679173e-05
3.725373801e-06
2.627197728e-06
4.914855358e-06
6.703487328e-06
3.300553932e-06
6.109901815e-06
6.312089882e-06
5.654516261e-06
1.02889316e-05
7.498041454e-06
5.788688492e-06
8.104159749e-06
9.966375645e-06
7.08242861e-06
1.361657456e-05
1.130120639e-05
9.790636061e-06
1.09794511e-05
1.622123055e-05
1.203123654e-05
1.23106962e-05
1.197639774e-05
1.030399129e-05
1.218756362e-05
1.057739282e-05
1.012462335e-05
1.187426272e-05
1.003193181e-05
9.7484675e-06
1.031299302e-05
4.469730644e-06
5.929443938e-06
7.712318023e-06
7.542340775e-06
3.837896379e-06
5.568470946e-06
6.779999789e-06
5.104719076e-06
6.252621959e-06
5.743262497e-06
1.101453394e-05
5.915607061e-06
7.025510117e-06
8.317551392e-06
1.328358486e-05
8.79027528e-06
9.790636141e-06
1.055327116e-05
8.238928507e-06
5.712628461e-06
1.632584813e-05
7.924340746e-06
1.154772401e-05
1.353157386e-05
1.175314254e-05
1.888331078e-05
1.196600178e-05
9.381651853e-06
9.748467412e-06
1.564764668e-06
4.803760387e-06
3.402171845e-06
3.275817907e-06
7.214949365e-06
6.72841376e-06
1.714417946e-06
6.910654931e-06
3.403349958e-06
3.50955803e-06
9.648459783e-06
7.050267603e-06
7.188344979e-06
8.317551392e-06
5.396581345e-06
1.062974269e-05
1.029739881e-05
4.25564888e-06
1.004151716e-05
9.781944383e-06
1.065116663e-05
1.470560981e-05
1.394665697e-05
1.657684594e-05
8.408285544e-06
5.885982922e-06
3.827685814e-06
3.326810832e-06
8.075656075e-06
3.914395458e-06
6.032820689e-06
3.974417901e-06
5.261263479e-06
4.036309689e-06
5.264337004e-06
5.145716027e-06
7.050267548e-06
8.822596417e-06
5.270782947e-06
1.071041536e-05
7.868525187e-06
6.077086738e-06
6.978280022e-06
1.055683785e-05
4.172705811e-06
3.678076792e-06
2.722101758e-06
5.103541252e-06
1.074684943e-06
6.186982895e-06
6.779999687e-06
6.2043134e-06
5.856307156e-06
5.822763116e-06
3.939900686e-06
2.917419403e-06
5.963148301e-06
7.164505631e-06
6.63033975e-06
5.929443938e-06
4.310146204e-06
4.494300137e-06
6.601107864e-06
4.485609207e-06
1.714417959e-06
7.225635617e-06
6.929159375e-06
)
;

boundaryField
{
    flow
    {
        type            zeroGradient;
    }
    obstacle
    {
        type            calculated;
        value           nonuniform List<scalar> 
30
(
1e-300
2.664748228e-23
1e-300
2.593598609e-24
1e-300
2.004903387e-23
4.182080244e-24
4.976777711e-24
1.42864528e-24
1e-300
6.48137403e-24
2.734562148e-24
1e-300
1.97826188e-24
1.195370779e-23
3.240828983e-24
6.425175001e-24
1.853361275e-23
1e-300
6.65291212e-24
3.612356449e-24
4.895183921e-24
1e-300
5.229131065e-24
1.950536739e-24
5.187720681e-24
7.650156802e-24
1.731085025e-24
1e-300
2.848190605e-24
)
;
    }
    frontAndBack
    {
        type            empty;
    }
    procBoundary1to0
    {
        type            processor;
        value           nonuniform List<scalar> 
21
(
1.405234402e-05
1.116851564e-05
1.294304221e-05
1.242524925e-05
8.726982678e-06
5.769438403e-06
7.691396763e-06
7.470249063e-06
7.396533163e-06
5.916870199e-06
7.543964963e-06
5.177929567e-06
5.325361345e-06
5.028716055e-06
4.80756839e-06
4.881284291e-06
3.180473627e-06
6.508379054e-06
5.843154341e-06
1.627094764e-06
6.878740208e-06
)
;
    }
    procBoundary1to3
    {
        type            processor;
        value           nonuniform List<scalar> 
36
(
1.409870675e-05
1.067231601e-05
1.445182833e-05
6.780532029e-06
1.409870675e-05
7.312479638e-06
1.056046528e-05
1.475333012e-05
1.074343968e-05
1.199252563e-05
1.156021494e-05
1.067231601e-05
1.148282081e-05
4.15137026e-06
9.793437799e-06
4.81119643e-06
4.340474833e-06
1.056046528e-05
1.390332107e-05
5.223347451e-06
4.226985443e-06
4.502743607e-06
3.078956007e-06
4.0846447e-06
4.15137026e-06
8.399628413e-06
3.227441785e-06
2.797462722e-06
7.770118045e-06
2.225868965e-06
3.248585216e-06
7.325581747e-06
5.223347451e-06
7.303907819e-06
3.227441785e-06
3.203785551e-06
)
;
    }
}


// ************************************************************************* //
