/*--------------------------------*- C++ -*----------------------------------*\
| =========                 |                                                 |
| \\      /  F ield         | OpenFOAM: The Open Source CFD Toolbox           |
|  \\    /   O peration     | Version:  2406                                  |
|   \\  /    A nd           | Website:  www.openfoam.com                      |
|    \\/     M anipulation  |                                                 |
\*---------------------------------------------------------------------------*/
FoamFile
{
    version     2.0;
    format      ascii;
    arch        "LSB;label=32;scalar=64";
    class       volScalarField;
    location    "0.011";
    object      rhoMMean;
}
// * * * * * * * * * * * * * * * * * * * * * * * * * * * * * * * * * * * * * //

dimensions      [1 -3 0 0 0 0 0];

internalField   nonuniform List<scalar> 
546
(
1.470665866e-05
1.472983483e-05
1.45691277e-05
1.462718361e-05
1.43836609e-05
1.437755156e-05
1.458616765e-05
1.449821308e-05
1.458302464e-05
1.443580357e-05
1.436841246e-05
1.44598446e-05
1.42558583e-05
1.445674732e-05
1.454052939e-05
1.416936124e-05
1.376190137e-05
1.413243002e-05
1.411741749e-05
1.392225932e-05
1.374395124e-05
1.38930977e-05
1.365735038e-05
1.350417168e-05
1.307327186e-05
1.27429583e-05
1.2239657e-05
1.182228429e-05
1.086375615e-05
9.038271639e-06
1.325162343e-05
1.322538656e-05
1.310558265e-05
1.314924574e-05
1.304866772e-05
1.323175357e-05
1.317611346e-05
1.312625531e-05
1.307374167e-05
1.302020522e-05
1.312401262e-05
1.32410074e-05
1.321090159e-05
1.321078211e-05
1.317036602e-05
1.297882717e-05
1.286733887e-05
1.302698602e-05
1.29117009e-05
1.274583067e-05
1.270643831e-05
1.264376304e-05
1.265142379e-05
1.234562328e-05
1.211177395e-05
1.190372727e-05
1.140382132e-05
1.075284957e-05
9.811697552e-06
8.349308158e-06
1.238338336e-05
1.249968686e-05
1.249069117e-05
1.252754079e-05
1.239570248e-05
1.241207719e-05
1.245139114e-05
1.236438144e-05
1.255229398e-05
1.24351172e-05
1.244889565e-05
1.260266793e-05
1.251773297e-05
1.246984586e-05
1.243395595e-05
1.221961135e-05
1.233049168e-05
1.238979848e-05
1.217381112e-05
1.2153866e-05
1.195255991e-05
1.189746338e-05
1.216332583e-05
1.169600888e-05
1.139252698e-05
1.111030983e-05
1.087034924e-05
1.032192029e-05
9.565629684e-06
8.389874726e-06
1.157522386e-05
1.174325792e-05
1.205174587e-05
1.208277948e-05
1.215626078e-05
1.213722063e-05
1.228381598e-05
1.217002488e-05
1.212865579e-05
1.210340445e-05
1.209979271e-05
1.207872911e-05
1.213707577e-05
1.208123716e-05
1.198670647e-05
1.195170117e-05
1.19371984e-05
1.19103081e-05
1.190006945e-05
1.180214458e-05
1.167178378e-05
1.164390975e-05
1.155069075e-05
1.141882628e-05
1.123904011e-05
1.099850247e-05
1.065500304e-05
1.004585149e-05
9.59229053e-06
8.765291115e-06
1.087404568e-05
1.107385896e-05
1.147209483e-05
1.176599277e-05
1.187745405e-05
1.183145868e-05
1.189342399e-05
1.192299046e-05
1.20016179e-05
1.194402934e-05
1.188567951e-05
1.201510478e-05
1.203439782e-05
1.201727881e-05
1.197100892e-05
1.189177891e-05
1.171592233e-05
1.172942336e-05
1.169881622e-05
1.163024265e-05
1.153517764e-05
1.138382852e-05
1.126496749e-05
1.116959761e-05
1.098348351e-05
1.088477999e-05
1.075144895e-05
1.006132631e-05
9.55993975e-06
8.805681451e-06
1.009890147e-05
1.050499658e-05
1.090130098e-05
1.115077312e-05
1.133617217e-05
1.14141302e-05
1.157432862e-05
1.171436372e-05
1.180046917e-05
1.182161841e-05
1.193994526e-05
1.194524881e-05
1.182475811e-05
1.189640501e-05
1.181378014e-05
1.181924462e-05
1.16578506e-05
1.175046744e-05
1.168821251e-05
1.160510993e-05
1.150201996e-05
1.130701583e-05
1.121849164e-05
1.115031163e-05
1.100062052e-05
1.080240358e-05
1.050199794e-05
1.018291219e-05
9.736678905e-06
8.998350442e-06
9.128274293e-06
9.656504997e-06
1.006279514e-05
1.042073926e-05
1.085875816e-05
1.111746191e-05
1.129710246e-05
1.14598282e-05
1.152232082e-05
1.16543526e-05
1.174171069e-05
1.187582726e-05
1.187598786e-05
1.183276737e-05
1.184858364e-05
1.181156783e-05
1.173447537e-05
1.175731493e-05
1.16750578e-05
1.16050384e-05
1.157662676e-05
1.142233006e-05
1.123283102e-05
1.113712563e-05
1.108209684e-05
1.075773319e-05
1.055563257e-05
1.024494349e-05
9.823023713e-06
9.299200374e-06
8.225966189e-06
8.750925168e-06
9.248296928e-06
9.74543283e-06
1.007005732e-05
1.047278191e-05
1.08786116e-05
1.113954252e-05
1.127490347e-05
1.145133437e-05
1.158885754e-05
1.175671607e-05
1.16953138e-05
1.179756018e-05
1.188863366e-05
1.191392895e-05
1.193411682e-05
1.180725133e-05
1.17298735e-05
1.17682982e-05
1.171194461e-05
1.153407352e-05
1.140936725e-05
1.123100482e-05
1.113002241e-05
1.09335348e-05
1.076615881e-05
1.039999332e-05
1.014601189e-05
9.724243535e-06
7.536477222e-06
7.965258134e-06
8.447943077e-06
8.931895956e-06
9.390414758e-06
9.775422602e-06
1.020995617e-05
1.051376502e-05
1.082557274e-05
1.103468232e-05
1.123097523e-05
1.156881508e-05
1.170007865e-05
1.174198641e-05
1.177328111e-05
1.190633771e-05
1.189780577e-05
1.187383037e-05
1.182203706e-05
1.180698792e-05
1.172488528e-05
1.165842154e-05
1.153535968e-05
1.139602983e-05
1.125144045e-05
1.118454783e-05
1.092595663e-05
1.060507277e-05
1.028383912e-05
9.93555409e-06
6.791993777e-06
7.156041871e-06
7.576016696e-06
8.025246502e-06
8.578440545e-06
8.994289284e-06
9.44330619e-06
9.891824834e-06
1.027512896e-05
1.063326031e-05
1.092787287e-05
1.120677329e-05
1.133680728e-05
1.15235259e-05
1.167262111e-05
1.175843498e-05
1.181396429e-05
1.192910609e-05
1.178617305e-05
1.179384938e-05
1.185082957e-05
1.17926798e-05
1.169689617e-05
1.14977655e-05
1.146302924e-05
1.131241006e-05
1.107726039e-05
1.085034108e-05
1.04993515e-05
1.006133087e-05
6.350183282e-06
6.68192347e-06
7.025719155e-06
7.440477739e-06
7.817255843e-06
8.262379013e-06
8.720140105e-06
9.157560844e-06
9.656585097e-06
1.011614347e-05
1.046608054e-05
1.07312495e-05
1.105414453e-05
1.134508947e-05
1.14703173e-05
1.155080548e-05
1.172173295e-05
1.182805026e-05
1.186787546e-05
1.183190902e-05
1.189646609e-05
1.185815588e-05
1.177291185e-05
1.17548276e-05
1.148211515e-05
1.138165895e-05
1.124122702e-05
1.109384053e-05
1.082986897e-05
1.044318025e-05
5.96096379e-06
6.253390969e-06
6.52148425e-06
6.845245782e-06
7.2209418e-06
7.599557075e-06
8.032998104e-06
8.462059214e-06
8.926815982e-06
9.347094689e-06
9.783629904e-06
1.015781739e-05
1.051031854e-05
1.089883267e-05
1.115894821e-05
1.13507024e-05
1.147367626e-05
1.165115141e-05
1.182342265e-05
1.183259487e-05
1.186533558e-05
1.191198733e-05
1.184572149e-05
1.182118252e-05
1.169909711e-05
1.156734399e-05
1.140232139e-05
1.119667909e-05
1.109040004e-05
1.088217791e-05
5.627089777e-06
5.819872814e-06
6.089908793e-06
6.322008218e-06
6.589460205e-06
6.952582746e-06
7.3353276e-06
7.672304222e-06
8.087537435e-06
8.48305494e-06
8.909107417e-06
9.484756271e-06
9.943071719e-06
1.031124632e-05
1.068455658e-05
1.094807629e-05
1.123052745e-05
1.148287405e-05
1.160581443e-05
1.176913229e-05
1.178475476e-05
1.193457971e-05
1.191442778e-05
1.192057182e-05
1.183558263e-05
1.176914903e-05
1.163605398e-05
1.150745143e-05
1.126031887e-05
1.101824253e-05
5.36274703e-06
5.515376297e-06
5.676568875e-06
5.949653125e-06
6.20465967e-06
6.464839372e-06
6.756877081e-06
7.086568283e-06
7.461974276e-06
7.923801243e-06
8.384780002e-06
8.717454013e-06
9.145774912e-06
9.644075934e-06
1.006487468e-05
1.042568557e-05
1.078179201e-05
1.111490471e-05
1.13406345e-05
1.155725129e-05
1.169996167e-05
1.173245813e-05
1.192875567e-05
1.197680704e-05
1.1918662e-05
1.187096882e-05
1.188237618e-05
1.169900628e-05
1.148878091e-05
1.120435409e-05
5.248645264e-06
5.370543215e-06
5.50697595e-06
5.607111064e-06
5.835373679e-06
6.061386984e-06
6.289789222e-06
6.573732312e-06
6.938770944e-06
7.281396534e-06
7.66972611e-06
8.030797196e-06
8.506263487e-06
8.948819894e-06
9.399790765e-06
9.872452399e-06
1.023924147e-05
1.055641706e-05
1.09665169e-05
1.12657747e-05
1.152424546e-05
1.17664184e-05
1.189395076e-05
1.195409282e-05
1.201577955e-05
1.19236108e-05
1.198282938e-05
1.193785468e-05
1.172698582e-05
1.149604617e-05
5.097953321e-06
5.153241396e-06
5.281182749e-06
5.374692752e-06
5.518458186e-06
5.69714621e-06
5.950181812e-06
6.199771037e-06
6.450144646e-06
6.712327166e-06
7.064513735e-06
7.478967048e-06
7.82128931e-06
8.261603718e-06
8.714918866e-06
9.13755349e-06
9.552300815e-06
9.943711067e-06
1.029038825e-05
1.069212565e-05
1.102336991e-05
1.131719786e-05
1.15361245e-05
1.173136194e-05
1.187188855e-05
1.194461233e-05
1.19169211e-05
1.188800365e-05
1.181817121e-05
5.071447748e-06
5.097992231e-06
5.143287375e-06
5.27588517e-06
5.362133862e-06
5.520586229e-06
5.669091332e-06
5.852366672e-06
6.045841712e-06
6.317916138e-06
6.576421272e-06
6.84027525e-06
7.157887088e-06
7.48516795e-06
7.930947276e-06
8.358106624e-06
8.893177293e-06
9.383055315e-06
9.867607403e-06
1.013463958e-05
1.053415105e-05
1.096099539e-05
1.123810712e-05
1.153257794e-05
1.161009877e-05
4.966901802e-06
5.031936334e-06
5.10681603e-06
5.16568093e-06
5.242206124e-06
5.314940262e-06
5.395041258e-06
5.511722829e-06
5.701359244e-06
5.902607417e-06
6.092618095e-06
6.35603686e-06
6.653354689e-06
7.012278929e-06
7.383961703e-06
7.777616016e-06
8.157779238e-06
8.598382375e-06
8.992065483e-06
4.941745893e-06
4.978042817e-06
5.018977882e-06
5.066434765e-06
5.11507037e-06
5.200527148e-06
5.30454416e-06
5.374415332e-06
5.495437191e-06
5.597011276e-06
5.839110374e-06
6.030998946e-06
6.266854622e-06
6.514207749e-06
4.907335311e-06
4.933078634e-06
4.954223674e-06
4.979685553e-06
5.04860315e-06
5.063204568e-06
5.13314204e-06
5.231667557e-06
4.859388305e-06
)
;

boundaryField
{
    flow
    {
        type            calculated;
        value           nonuniform List<scalar> 
15
(
9.038271639e-06
8.349308158e-06
8.389874726e-06
8.765291115e-06
8.805681451e-06
8.998350442e-06
9.299200374e-06
9.724243535e-06
9.93555409e-06
1.006133087e-05
1.044318025e-05
1.088217791e-05
1.101824253e-05
1.120435409e-05
1.149604617e-05
)
;
    }
    obstacle
    {
        type            calculated;
        value           nonuniform List<scalar> 
30
(
6.475259315e-24
6.594174124e-24
6.401496573e-24
6.5876853e-24
6.297882043e-24
6.207342128e-24
6.454218426e-24
6.274263666e-24
6.572377128e-24
6.230869054e-24
6.18205622e-24
6.48791003e-24
6.14704819e-24
6.215884562e-24
6.440586568e-24
5.986185541e-24
5.910724157e-24
6.065549314e-24
6.113687017e-24
6.207453682e-24
5.852631579e-24
5.883960225e-24
5.917130609e-24
5.919432177e-24
5.84635741e-24
5.294566585e-24
5.237919975e-24
5.251397204e-24
4.749943171e-24
4.192076554e-24
)
;
    }
    frontAndBack
    {
        type            empty;
    }
    procBoundary1to0
    {
        type            processor;
        value           nonuniform List<scalar> 
21
(
1.473308142e-05
1.310360609e-05
1.227074437e-05
1.143778385e-05
1.053708538e-05
9.505033375e-06
8.634246045e-06
7.777159554e-06
7.074401522e-06
6.438154303e-06
6.061649645e-06
5.751112542e-06
5.483421476e-06
5.284778406e-06
5.123639697e-06
5.055683072e-06
5.013493079e-06
4.921684005e-06
4.912521889e-06
4.883425149e-06
4.885220043e-06
)
;
    }
    procBoundary1to3
    {
        type            processor;
        value           nonuniform List<scalar> 
36
(
1.169718213e-05
1.172290304e-05
1.190105872e-05
1.189438481e-05
1.169718213e-05
1.185018352e-05
9.474748144e-06
9.876276214e-06
1.037291865e-05
1.070233303e-05
1.108173979e-05
1.172290304e-05
1.144178898e-05
6.817030316e-06
7.216294545e-06
7.529304797e-06
7.927479933e-06
9.474748144e-06
8.392946992e-06
5.326627557e-06
5.435127837e-06
5.503660728e-06
5.672186618e-06
5.845670616e-06
6.817030316e-06
6.066011806e-06
4.893903864e-06
4.911830984e-06
4.934150285e-06
4.983226677e-06
5.043914471e-06
5.073065772e-06
5.326627557e-06
5.123417812e-06
4.893903864e-06
4.8745635e-06
)
;
    }
}


// ************************************************************************* //
