/*--------------------------------*- C++ -*----------------------------------*\
| =========                 |                                                 |
| \\      /  F ield         | OpenFOAM: The Open Source CFD Toolbox           |
|  \\    /   O peration     | Version:  2406                                  |
|   \\  /    A nd           | Website:  www.openfoam.com                      |
|    \\/     M anipulation  |                                                 |
\*---------------------------------------------------------------------------*/
FoamFile
{
    version     2.0;
    format      ascii;
    arch        "LSB;label=32;scalar=64";
    class       volScalarField;
    location    "0.011";
    object      rhoN;
}
// * * * * * * * * * * * * * * * * * * * * * * * * * * * * * * * * * * * * * //

dimensions      [0 -3 0 0 0 0 0];

internalField   nonuniform List<scalar> 
546
(
3.365085317e+20
3.050939272e+20
2.732119516e+20
3.89951014e+20
2.888938021e+20
3.49310237e+20
3.285224668e+20
3.547078602e+20
2.978914273e+20
2.642016022e+20
3.389161873e+20
4.148220967e+20
2.95168832e+20
3.719502456e+20
2.874910162e+20
3.528712651e+20
2.668509989e+20
3.459668778e+20
2.067485198e+20
2.215409329e+20
2.891624311e+20
3.181827223e+20
2.006020519e+20
2.968101312e+20
2.722273268e+20
2.884038531e+20
2.217260726e+20
1.258606364e+20
1.411348656e+20
1.566934486e+20
2.579898745e+20
3.389932525e+20
2.276766263e+20
3.211361291e+20
4.275628271e+20
3.260228881e+20
3.167895216e+20
1.773539301e+20
2.859757702e+20
2.041557834e+20
3.510203368e+20
2.56213648e+20
3.443636371e+20
1.983734642e+20
2.749914066e+20
1.764356326e+20
2.41436618e+20
3.203397014e+20
2.455138671e+20
2.606363919e+20
2.234436969e+20
4.109860167e+20
2.407224625e+20
1.753878048e+20
9.527956437e+19
2.060027524e+20
2.494418319e+20
3.216438488e+20
2.117022984e+20
1.424485897e+20
2.467729232e+20
2.146957266e+20
2.390604576e+20
2.523212443e+20
3.120053065e+20
3.376665624e+20
2.815906856e+20
2.246483115e+20
1.787348565e+20
2.401832748e+20
2.420829907e+20
3.416181973e+20
2.213766239e+20
1.611784396e+20
2.249929692e+20
2.898585392e+20
3.176797606e+20
2.17830997e+20
2.972009972e+20
2.215409331e+20
2.497311902e+20
2.78409882e+20
2.273489923e+20
2.563360224e+20
2.177818614e+20
2.884038531e+20
2.910154703e+20
1.538296667e+20
3.104967044e+20
1.566934488e+20
2.692068253e+20
2.146957264e+20
3.528987708e+20
1.605680647e+20
2.311150417e+20
2.794481896e+20
3.167895216e+20
1.891775254e+20
2.502287989e+20
2.161649473e+20
3.510203368e+20
1.708090985e+20
3.074675331e+20
2.727635134e+20
2.249929692e+20
1.890381778e+20
1.779006659e+20
3.075261134e+20
2.067485196e+20
2.736682115e+20
2.234436969e+20
1.988642016e+20
2.808428726e+20
3.507756093e+20
3.266727921e+20
2.19736269e+20
2.632997114e+20
3.635973946e+20
2.540427584e+20
1.282037303e+20
2.467729232e+20
2.485950516e+20
2.618281201e+20
3.096669814e+20
2.195592896e+20
3.143792135e+20
3.050565763e+20
3.192370742e+20
2.62144456e+20
1.801374559e+20
3.510203368e+20
2.318123483e+20
2.705714294e+20
1.983734643e+20
1.624949222e+20
2.520509037e+20
2.795581895e+20
2.178309973e+20
1.679831723e+20
1.954772937e+20
3.023061777e+20
3.314403355e+20
2.273489921e+20
2.563360224e+20
2.177818618e+20
2.197362686e+20
1.662945538e+20
1.957832128e+20
1.834753255e+20
1.709383081e+20
2.243390214e+20
1.355973011e+20
2.276766265e+20
2.40852097e+20
2.888938023e+20
3.260228881e+20
3.050565763e+20
2.246483115e+20
2.383131418e+20
2.041557834e+20
1.57353944e+20
2.440129979e+20
1.598831171e+20
2.851618545e+20
2.624917972e+20
3.276661748e+20
2.668509989e+20
4.100348178e+20
1.679831723e+20
2.606363921e+20
3.285936719e+20
2.518946558e+20
2.808428743e+20
2.428446528e+20
2.041704936e+20
2.884038531e+20
1.662945553e+20
2.37736758e+20
1.552483518e+20
2.991420364e+20
1.682542658e+20
2.598948267e+20
2.618281201e+20
1.720372119e+20
1.964477854e+20
1.979424678e+20
2.698577406e+20
3.074134789e+20
2.859757702e+20
2.882199297e+20
2.299788416e+20
3.782201473e+20
1.8448052e+20
1.735767813e+20
2.24992969e+20
3.528712649e+20
2.541438085e+20
1.793902328e+20
2.972009982e+20
3.127636726e+20
2.234436984e+20
3.181827242e+20
2.808428734e+20
2.698273939e+20
2.858386966e+20
2.334697879e+20
2.078681941e+20
2.796903036e+20
1.552483532e+20
1.282037322e+20
2.467729232e+20
1.807964013e+20
2.049089638e+20
1.949755071e+20
2.311150417e+20
2.212298168e+20
2.581247953e+20
1.418831441e+20
2.740601133e+20
1.681282923e+20
2.178746917e+20
2.806149476e+20
2.090779225e+20
2.355684889e+20
3.374894546e+20
2.520509043e+20
2.033150464e+20
2.178309959e+20
1.809049539e+20
2.997318494e+20
2.365874418e+20
2.916674922e+20
2.139755207e+20
3.372842394e+20
2.450045928e+20
1.922692337e+20
2.494418286e+20
2.51721271e+20
1.975888113e+20
2.706523186e+20
7.851865745e+19
1.581968512e+20
1.707574696e+20
1.261606222e+20
1.733362814e+20
1.513677695e+20
1.290623977e+20
1.418831441e+20
3.217227415e+20
2.281741108e+20
1.936663923e+20
2.318123483e+20
2.090779229e+20
2.479668308e+20
2.624917976e+20
2.772559923e+20
2.795581889e+20
1.537630572e+20
1.421396072e+20
2.085091126e+20
2.365874438e+20
1.458337486e+20
1.738551121e+20
1.618964349e+20
1.225022964e+20
1.922692354e+20
2.910154718e+20
2.517212732e+20
2.540427574e+20
1.566934491e+20
1.682542658e+20
9.03982006e+19
1.366059758e+20
1.605680646e+20
1.271132729e+20
3.143792133e+20
1.173294523e+20
2.010011211e+20
1.072409137e+20
2.882199286e+20
2.783954406e+20
2.31812348e+20
2.705714281e+20
1.487800982e+20
1.999937497e+20
2.520509041e+20
3.303869532e+20
3.075261144e+20
3.230445619e+20
2.60636393e+20
2.1029995e+20
2.518946545e+20
2.674694032e+20
2.428446524e+20
3.402841596e+20
2.884038531e+20
2.771575897e+20
1.53829667e+20
1.552483518e+20
1.994280242e+20
2.131220701e+20
1.016979755e+20
1.479898065e+20
2.293829489e+20
2.311150417e+20
2.678045156e+20
1.525282888e+20
2.010011217e+20
1.549035424e+20
2.041557831e+20
1.331456443e+20
1.708090985e+20
3.566623398e+20
1.859751228e+20
2.124933608e+20
2.772559945e+20
2.668509963e+20
2.178309959e+20
2.455138671e+20
2.476045712e+20
1.971562032e+20
2.121218161e+20
2.407224629e+20
2.293532828e+20
2.450045928e+20
3.021373699e+20
2.49441833e+20
2.237522429e+20
2.540427597e+20
1.851831687e+20
1.12169511e+20
5.649887566e+19
1.252221451e+20
1.146914749e+20
1.386690249e+20
1.397240943e+20
1.994600676e+20
1.182359522e+20
1.668191983e+20
2.161649484e+20
1.936663947e+20
2.928155997e+20
1.475844165e+20
2.727635134e+20
2.374925778e+20
3.906789013e+20
1.779006671e+20
2.818989382e+20
3.747316918e+20
2.345727517e+20
2.760186821e+20
1.193185196e+20
2.540959287e+20
2.698273915e+20
1.769477646e+20
2.197362709e+20
1.801524349e+20
3.496128795e+20
2.399292709e+20
2.564074597e+20
6.730170614e+19
1.807964001e+20
1.479898068e+20
1.949755074e+20
9.24460166e+19
1.862987938e+20
8.213061732e+19
1.300595493e+20
2.740601135e+20
1.561191282e+20
1.452497938e+20
1.22006498e+20
2.951688306e+20
2.355684889e+20
2.749914059e+20
2.268458118e+20
2.414366177e+20
2.178309977e+20
2.196703021e+20
2.60636393e+20
2.891624337e+20
2.518946567e+20
3.209632838e+20
2.968101307e+20
1.361136627e+20
2.334697838e+20
3.048733487e+20
2.097677277e+20
2.822697305e+20
2.421626009e+20
1.570373143e+20
1.807964015e+20
1.138383129e+20
1.146914741e+20
8.089026452e+19
2.095861414e+20
1.877271225e+20
1.53706739e+20
1.549035424e+20
1.801374556e+20
2.420829896e+20
1.708090985e+20
2.336753243e+20
1.983734627e+20
1.999937497e+20
1.890381781e+20
2.795581889e+20
2.562717599e+20
2.97200997e+20
2.476045712e+20
1.840124547e+20
3.181827215e+20
2.006020524e+20
2.56336022e+20
2.994500579e+20
2.060027522e+20
1.940103128e+20
1.538296656e+20
1.552483518e+20
3.133868981e+20
7.851865773e+19
5.649887586e+19
1.024544824e+20
1.376297699e+20
6.933451296e+19
1.280804207e+20
1.290623977e+20
1.182359539e+20
2.14481828e+20
1.561191282e+20
1.210414957e+20
1.708090998e+20
2.090779234e+20
1.487800982e+20
2.874910175e+20
2.394483589e+20
2.033150464e+20
2.306445858e+20
3.359663472e+20
2.476045733e+20
2.628749375e+20
2.518946567e+20
2.139755226e+20
2.56336022e+20
2.177818622e+20
2.06002754e+20
2.49441833e+20
2.097677277e+20
1.975888131e+20
2.136728851e+20
8.973560819e+19
1.242975251e+20
1.593736381e+20
1.605680649e+20
8.089026452e+19
1.164367461e+20
1.40795344e+20
1.064123585e+20
1.310722292e+20
1.20091638e+20
2.299788401e+20
1.22006498e+20
1.475844153e+20
1.735767813e+20
2.749914059e+20
1.890381781e+20
2.033150481e+20
2.178309977e+20
1.679831722e+20
1.172863768e+20
3.417374217e+20
1.590913621e+20
2.407224629e+20
2.833187611e+20
2.450045928e+20
3.982719841e+20
2.494418308e+20
1.957832125e+20
1.975888113e+20
3.365085307e+19
1.016979758e+20
6.830298825e+19
6.881488497e+19
1.50224777e+20
1.397240943e+20
3.519883546e+19
1.418831426e+20
7.149394211e+19
7.205498281e+19
2.057705444e+20
1.464077999e+20
1.475844165e+20
1.735767813e+20
1.124964842e+20
2.142432667e+20
2.160222368e+20
8.96951167e+19
2.067485196e+20
2.085091126e+20
2.23443695e+20
3.049251055e+20
2.94216341e+20
3.372842423e+20
1.769477646e+20
1.233864621e+20
7.909842564e+19
6.830298725e+19
1.720372112e+20
8.089026452e+19
1.280804207e+20
8.213061732e+19
1.064123585e+20
8.340959977e+19
1.080824734e+20
1.089373453e+20
1.464077987e+20
1.844805206e+20
1.115850737e+20
2.249929703e+20
1.63833089e+20
1.27071904e+20
1.409494679e+20
2.196703021e+20
8.973560883e+19
7.909842564e+19
5.691915687e+19
1.032223275e+20
2.311150415e+19
1.280804198e+20
1.407953419e+20
1.300595484e+20
1.191565711e+20
1.200916371e+20
8.472904702e+19
6.100324947e+19
1.229870128e+20
1.487800982e+20
1.346034123e+20
1.242975251e+20
9.107065033e+19
9.175317996e+19
1.386690259e+20
9.314939689e+19
3.519883573e+19
1.537067401e+20
1.458203644e+20
)
;

boundaryField
{
    flow
    {
        type            zeroGradient;
    }
    obstacle
    {
        type            calculated;
        value           nonuniform List<scalar> 
30
(
1e-300
537.4558399
1e-300
55.77631417
1e-300
400.7943078
89.93720955
107.0274777
30.72355441
1e-300
139.3843877
58.80778813
1e-300
42.54326624
245.9679271
69.69524694
138.1758065
398.5723173
1e-300
131.170123
77.68508492
105.2727725
1e-300
105.2606021
36.71944162
111.5638856
164.5195011
37.22763494
1e-300
61.25141086
)
;
    }
    frontAndBack
    {
        type            empty;
    }
    procBoundary1to0
    {
        type            processor;
        value           nonuniform List<scalar> 
21
(
2.895186412e+20
2.338419794e+20
2.672479765e+20
2.561126441e+20
1.781653178e+20
1.22488656e+20
1.55894653e+20
1.55894653e+20
1.55894653e+20
1.224886559e+20
1.55894653e+20
1.11353324e+20
1.113533235e+20
1.002179905e+20
1.002179912e+20
1.002179912e+20
6.681199412e+19
1.336239882e+20
1.224886568e+20
3.340599706e+19
1.447593206e+20
)
;
    }
    procBoundary1to3
    {
        type            processor;
        value           nonuniform List<scalar> 
36
(
2.991420391e+20
2.197362709e+20
3.048733514e+20
1.398451518e+20
2.991420391e+20
1.552483518e+20
2.215409322e+20
3.023061782e+20
2.253794296e+20
2.54095933e+20
2.428446524e+20
2.197362709e+20
2.450045928e+20
8.749726551e+19
2.016407216e+20
1.016575232e+20
8.96951167e+19
2.215409322e+20
2.842792145e+20
1.07240914e+20
8.406414597e+19
9.683319584e+19
6.100324947e+19
8.609090961e+19
8.749726551e+19
1.735767813e+20
6.779865104e+19
5.691915687e+19
1.605680649e+20
4.62230083e+19
6.986204766e+19
1.525282893e+20
1.07240914e+20
1.537067401e+20
6.779865104e+19
6.730170614e+19
)
;
    }
}


// ************************************************************************* //
