/*--------------------------------*- C++ -*----------------------------------*\
| =========                 |                                                 |
| \\      /  F ield         | OpenFOAM: The Open Source CFD Toolbox           |
|  \\    /   O peration     | Version:  2406                                  |
|   \\  /    A nd           | Website:  www.openfoam.com                      |
|    \\/     M anipulation  |                                                 |
\*---------------------------------------------------------------------------*/
FoamFile
{
    version     2.0;
    format      ascii;
    arch        "LSB;label=32;scalar=64";
    class       volScalarField;
    location    "0.011";
    object      rhoNMean;
}
// * * * * * * * * * * * * * * * * * * * * * * * * * * * * * * * * * * * * * //

dimensions      [0 -3 0 0 0 0 0];

internalField   nonuniform List<scalar> 
546
(
3.062166455e+20
3.071895219e+20
3.036937123e+20
3.047623572e+20
2.996385505e+20
2.99750524e+20
3.03787285e+20
3.021208076e+20
3.037062679e+20
3.003906713e+20
2.9896149e+20
3.010343991e+20
2.970605959e+20
3.011624783e+20
3.028950803e+20
2.949568416e+20
2.868105294e+20
2.945424543e+20
2.938530808e+20
2.898679477e+20
2.864070238e+20
2.897897353e+20
2.846652536e+20
2.811405187e+20
2.721951544e+20
2.652466467e+20
2.547934928e+20
2.463029088e+20
2.260929226e+20
1.880917078e+20
2.760614024e+20
2.753529192e+20
2.729014835e+20
2.739937624e+20
2.719026444e+20
2.756121283e+20
2.744271894e+20
2.735528515e+20
2.721254437e+20
2.712411555e+20
2.733513103e+20
2.757058499e+20
2.750325035e+20
2.752882664e+20
2.74393698e+20
2.706591345e+20
2.681817883e+20
2.714570279e+20
2.691184395e+20
2.655861139e+20
2.648369405e+20
2.633468229e+20
2.636032541e+20
2.574030671e+20
2.523027612e+20
2.479224397e+20
2.375391731e+20
2.239175142e+20
2.04294001e+20
1.739426778e+20
2.579450065e+20
2.602173841e+20
2.602219652e+20
2.610690759e+20
2.584475471e+20
2.586462357e+20
2.593386217e+20
2.574491147e+20
2.612085355e+20
2.588236804e+20
2.593016936e+20
2.623627755e+20
2.607190513e+20
2.597768141e+20
2.590464505e+20
2.544591355e+20
2.569116656e+20
2.58214767e+20
2.536451926e+20
2.53288815e+20
2.491528654e+20
2.478474674e+20
2.533737652e+20
2.436933826e+20
2.373871785e+20
2.313748003e+20
2.264856243e+20
2.150411608e+20
1.992798642e+20
1.747999595e+20
2.4126642e+20
2.446257488e+20
2.510465971e+20
2.516518634e+20
2.530604654e+20
2.527820578e+20
2.55889136e+20
2.533603004e+20
2.525989314e+20
2.520941817e+20
2.520127951e+20
2.516106753e+20
2.528009238e+20
2.515916546e+20
2.496921973e+20
2.488819364e+20
2.484879535e+20
2.481409571e+20
2.480629823e+20
2.457161431e+20
2.430374389e+20
2.425154965e+20
2.405522545e+20
2.378822816e+20
2.341526229e+20
2.290151324e+20
2.220485834e+20
2.093431069e+20
1.998572343e+20
1.825957817e+20
2.266028058e+20
2.306386818e+20
2.388741766e+20
2.451144489e+20
2.474821887e+20
2.465495166e+20
2.478702012e+20
2.484223371e+20
2.499384902e+20
2.487643679e+20
2.475056499e+20
2.501820905e+20
2.505603242e+20
2.502052946e+20
2.492808466e+20
2.476170991e+20
2.439595731e+20
2.443504652e+20
2.436178894e+20
2.42261526e+20
2.402820311e+20
2.370774641e+20
2.346849484e+20
2.326231006e+20
2.287501483e+20
2.266704461e+20
2.238400283e+20
2.094854951e+20
1.989668016e+20
1.833157955e+20
2.105462505e+20
2.189423877e+20
2.27165389e+20
2.323440749e+20
2.362541999e+20
2.378950908e+20
2.411354906e+20
2.440906017e+20
2.45991158e+20
2.463603517e+20
2.488481099e+20
2.48813399e+20
2.462289448e+20
2.47707592e+20
2.459354964e+20
2.461208333e+20
2.428297882e+20
2.447814673e+20
2.435427081e+20
2.416454768e+20
2.396989271e+20
2.35419058e+20
2.334497275e+20
2.320491042e+20
2.290594955e+20
2.248726043e+20
2.184984476e+20
2.118399786e+20
2.026901952e+20
1.874105433e+20
1.902700816e+20
2.013188472e+20
2.097895225e+20
2.1724025e+20
2.26318354e+20
2.315630489e+20
2.353522153e+20
2.387893315e+20
2.400918245e+20
2.429497494e+20
2.446952867e+20
2.474979475e+20
2.474990657e+20
2.465534195e+20
2.469036479e+20
2.460177214e+20
2.444401358e+20
2.449725062e+20
2.431738507e+20
2.41688128e+20
2.411710284e+20
2.379524682e+20
2.340357278e+20
2.319460808e+20
2.30715137e+20
2.240086432e+20
2.199094317e+20
2.133401356e+20
2.045839703e+20
1.937041845e+20
1.715336944e+20
1.825550572e+20
1.928524516e+20
2.031206871e+20
2.099175902e+20
2.183273663e+20
2.267423667e+20
2.321444709e+20
2.348835992e+20
2.385980651e+20
2.414469727e+20
2.450201061e+20
2.437893299e+20
2.457847223e+20
2.477513495e+20
2.483022199e+20
2.486335082e+20
2.459183808e+20
2.44381448e+20
2.451474809e+20
2.439837866e+20
2.402110794e+20
2.377754343e+20
2.339967669e+20
2.318733365e+20
2.276467727e+20
2.241423801e+20
2.166506498e+20
2.111967784e+20
2.024039048e+20
1.571902733e+20
1.660512221e+20
1.761968712e+20
1.863006609e+20
1.957670467e+20
2.038786248e+20
2.128121608e+20
2.191686125e+20
2.256998772e+20
2.300388064e+20
2.341030547e+20
2.410449129e+20
2.437781497e+20
2.446643635e+20
2.452900624e+20
2.480707892e+20
2.478618352e+20
2.473535047e+20
2.462985717e+20
2.459886256e+20
2.442777306e+20
2.428553747e+20
2.402069764e+20
2.373916861e+20
2.34449597e+20
2.331376844e+20
2.276118932e+20
2.209324561e+20
2.142170646e+20
2.068457126e+20
1.415538434e+20
1.492535927e+20
1.57955834e+20
1.674099324e+20
1.789082548e+20
1.875414907e+20
1.96936419e+20
2.061605082e+20
2.141785198e+20
2.216280242e+20
2.276724516e+20
2.336468821e+20
2.362737044e+20
2.400859937e+20
2.431651278e+20
2.449980615e+20
2.461706257e+20
2.486069066e+20
2.45530313e+20
2.456332144e+20
2.468419561e+20
2.456057248e+20
2.436597632e+20
2.394227505e+20
2.387532656e+20
2.357295736e+20
2.308495957e+20
2.260151917e+20
2.186256045e+20
2.095030244e+20
1.324436397e+20
1.393467714e+20
1.465782114e+20
1.552296974e+20
1.63055864e+20
1.722755752e+20
1.818649186e+20
1.909532154e+20
2.013789381e+20
2.108699973e+20
2.181189744e+20
2.237088982e+20
2.303748019e+20
2.365355595e+20
2.390652579e+20
2.407452753e+20
2.443338551e+20
2.46552071e+20
2.473887002e+20
2.466544331e+20
2.478982354e+20
2.470206758e+20
2.453107789e+20
2.449247763e+20
2.39263071e+20
2.370979313e+20
2.342082439e+20
2.309835085e+20
2.255797063e+20
2.174257599e+20
1.243715143e+20
1.304343316e+20
1.360347151e+20
1.427950569e+20
1.506449861e+20
1.585593256e+20
1.675784557e+20
1.765241268e+20
1.861463939e+20
1.949523982e+20
2.040341491e+20
2.118276851e+20
2.19259012e+20
2.272300406e+20
2.326836372e+20
2.366987126e+20
2.392348101e+20
2.42803516e+20
2.464042953e+20
2.467255158e+20
2.473294676e+20
2.482644768e+20
2.468450764e+20
2.462665543e+20
2.436880067e+20
2.409308331e+20
2.37546733e+20
2.332566279e+20
2.309556596e+20
2.266486546e+20
1.173395049e+20
1.21304112e+20
1.269338585e+20
1.317596517e+20
1.373285577e+20
1.449108231e+20
1.52890944e+20
1.59962497e+20
1.686260464e+20
1.768993484e+20
1.857986945e+20
1.978058077e+20
2.073896454e+20
2.150774117e+20
2.227589474e+20
2.282710451e+20
2.341265176e+20
2.394416965e+20
2.419051656e+20
2.451640689e+20
2.455968869e+20
2.487417551e+20
2.482845524e+20
2.483491312e+20
2.465414398e+20
2.45198207e+20
2.425380872e+20
2.398725749e+20
2.347329418e+20
2.29629715e+20
1.118289228e+20
1.150050019e+20
1.184208225e+20
1.24158734e+20
1.294412316e+20
1.348252829e+20
1.408550732e+20
1.477540962e+20
1.556098159e+20
1.652286248e+20
1.748477404e+20
1.818140847e+20
1.907461484e+20
2.0106503e+20
2.099138943e+20
2.174328581e+20
2.24852579e+20
2.316696709e+20
2.363699439e+20
2.408493499e+20
2.437424196e+20
2.444173606e+20
2.486979142e+20
2.495707134e+20
2.48387636e+20
2.474330269e+20
2.476100711e+20
2.43788237e+20
2.392800505e+20
2.334602892e+20
1.094427722e+20
1.120424071e+20
1.148028347e+20
1.16870613e+20
1.215917253e+20
1.263550398e+20
1.311700613e+20
1.371021127e+20
1.446560773e+20
1.518831687e+20
1.59957437e+20
1.675326707e+20
1.774233021e+20
1.866761927e+20
1.960575107e+20
2.0581102e+20
2.134969716e+20
2.20142103e+20
2.286732623e+20
2.349210587e+20
2.402796418e+20
2.453333432e+20
2.479708837e+20
2.491880491e+20
2.504243936e+20
2.484243393e+20
2.497391475e+20
2.488277499e+20
2.445200054e+20
2.396347881e+20
1.062000528e+20
1.073581351e+20
1.10019555e+20
1.120222915e+20
1.150679771e+20
1.187506618e+20
1.24040698e+20
1.292426464e+20
1.34497439e+20
1.399351436e+20
1.472898931e+20
1.55928741e+20
1.630695983e+20
1.722648113e+20
1.817079576e+20
1.905665231e+20
1.992302639e+20
2.07319196e+20
2.146566505e+20
2.229839119e+20
2.298650166e+20
2.359252586e+20
2.404598566e+20
2.446157013e+20
2.47570954e+20
2.489936516e+20
2.483457985e+20
2.477089887e+20
2.463034346e+20
1.056759153e+20
1.062363764e+20
1.072025749e+20
1.099912098e+20
1.117525267e+20
1.150585576e+20
1.18201956e+20
1.221033427e+20
1.260806502e+20
1.317077746e+20
1.370783946e+20
1.42585669e+20
1.492011367e+20
1.560229839e+20
1.652993795e+20
1.742038353e+20
1.854163912e+20
1.956401928e+20
2.057124276e+20
2.112860749e+20
2.196320085e+20
2.285299168e+20
2.343153529e+20
2.404162079e+20
2.420175208e+20
1.035243009e+20
1.048968394e+20
1.064533103e+20
1.077390855e+20
1.093741429e+20
1.10894357e+20
1.124976131e+20
1.148780529e+20
1.188250992e+20
1.230524418e+20
1.269967363e+20
1.325168042e+20
1.386779206e+20
1.461922262e+20
1.539520081e+20
1.622085063e+20
1.700776571e+20
1.792411284e+20
1.87473919e+20
1.030817412e+20
1.038326061e+20
1.046877831e+20
1.056412749e+20
1.06628076e+20
1.083750884e+20
1.105435427e+20
1.120081429e+20
1.145354626e+20
1.166657502e+20
1.217611425e+20
1.257443344e+20
1.306949443e+20
1.358520094e+20
1.022618833e+20
1.028135711e+20
1.032410009e+20
1.037394817e+20
1.05172052e+20
1.055340326e+20
1.070065939e+20
1.090242983e+20
1.01305384e+20
)
;

boundaryField
{
    flow
    {
        type            calculated;
        value           nonuniform List<scalar> 
15
(
1.880917078e+20
1.739426778e+20
1.747999595e+20
1.825957817e+20
1.833157955e+20
1.874105433e+20
1.937041845e+20
2.024039048e+20
2.068457126e+20
2.095030244e+20
2.174257599e+20
2.266486546e+20
2.29629715e+20
2.334602892e+20
2.396347881e+20
)
;
    }
    obstacle
    {
        type            calculated;
        value           nonuniform List<scalar> 
30
(
134.9317722
137.3758301
133.6615245
137.2242658
131.3719861
129.5165547
134.2158408
130.7296108
137.0730895
129.533352
128.6498689
135.0033313
128.1978506
129.4489821
134.253208
124.7831423
123.0599452
126.4958794
127.0956362
129.3865775
121.9138906
122.7253575
123.4445414
123.3067214
121.6714533
110.1115852
109.0363964
109.630454
98.8522942
87.172091
)
;
    }
    frontAndBack
    {
        type            empty;
    }
    procBoundary1to0
    {
        type            processor;
        value           nonuniform List<scalar> 
21
(
3.067196928e+20
2.72926996e+20
2.556328125e+20
2.383912688e+20
2.196434185e+20
1.981825962e+20
1.799955614e+20
1.621628328e+20
1.47644384e+20
1.341665826e+20
1.264346128e+20
1.199498006e+20
1.143679617e+20
1.101871498e+20
1.068627477e+20
1.05330121e+20
1.044230976e+20
1.025847555e+20
1.024511322e+20
1.017870607e+20
1.018639958e+20
)
;
    }
    procBoundary1to3
    {
        type            processor;
        value           nonuniform List<scalar> 
36
(
2.438175967e+20
2.444041644e+20
2.480333685e+20
2.479301983e+20
2.438175967e+20
2.468833706e+20
1.975647536e+20
2.059625136e+20
2.16357021e+20
2.231959224e+20
2.310605543e+20
2.444041644e+20
2.385008345e+20
1.421591936e+20
1.504720971e+20
1.570169758e+20
1.653209137e+20
1.975647536e+20
1.749562359e+20
1.11021427e+20
1.132879e+20
1.146681099e+20
1.182464805e+20
1.218778945e+20
1.421591936e+20
1.26458575e+20
1.020205338e+20
1.023923887e+20
1.028302911e+20
1.038399881e+20
1.050598175e+20
1.056797052e+20
1.11021427e+20
1.067606172e+20
1.020205338e+20
1.015582746e+20
)
;
    }
}


// ************************************************************************* //
