/*--------------------------------*- C++ -*----------------------------------*\
| =========                 |                                                 |
| \\      /  F ield         | OpenFOAM: The Open Source CFD Toolbox           |
|  \\    /   O peration     | Version:  2406                                  |
|   \\  /    A nd           | Website:  www.openfoam.com                      |
|    \\/     M anipulation  |                                                 |
\*---------------------------------------------------------------------------*/
FoamFile
{
    version     2.0;
    format      ascii;
    arch        "LSB;label=32;scalar=64";
    class       volScalarField;
    location    "0.011";
    object      translationalT;
}
// * * * * * * * * * * * * * * * * * * * * * * * * * * * * * * * * * * * * * //

dimensions      [1 2 -2 0 0 0 0];

internalField   nonuniform List<scalar> 
546
(
930.1406492
911.6299359
899.6819655
881.0723545
871.1326177
860.5680917
850.2712273
838.0880181
827.8706773
825.0780408
814.5535951
807.7854708
803.4587565
805.00012
791.1460492
782.4595145
784.7905017
772.154219
771.2137055
768.5476329
771.0084695
754.8691089
758.5638883
766.2241501
759.8954472
757.0157226
758.3480708
746.5364936
742.723244
729.6638771
1022.877344
1008.04483
996.4657587
986.1231195
975.2743552
955.9258295
943.9711616
938.75498
930.8171623
921.1200659
900.5095014
898.394264
895.7354993
896.2104079
889.2500312
870.1787906
867.3253015
862.3401682
854.7496908
852.0770303
842.8977363
842.9763353
835.2276555
831.433071
827.5684196
820.7594776
811.1991671
803.968802
780.7460209
722.0913405
1036.498811
1026.674361
1016.319631
1014.564499
1004.470716
984.7219408
983.68914
978.7236625
961.7742863
962.1044455
949.5755216
948.3393275
938.1383867
934.4080192
929.887103
920.8870463
910.7524357
906.2078959
896.9665332
897.066658
890.4169207
888.6948882
873.7349571
871.9030551
865.8575508
855.5618741
841.7897178
814.4130408
791.9251405
736.1050175
1026.155507
1013.739847
1010.346082
1000.161163
998.0721483
992.5615593
978.5268699
972.3645839
970.7772699
971.3686524
965.2729824
965.2553983
956.1236726
948.3232189
946.1149051
937.0620867
931.1050524
928.022411
919.2548398
920.5690946
913.5756294
905.3951979
903.2881739
895.1949071
882.8475123
871.5326483
851.549396
829.5720995
793.5295451
746.7060803
1002.922944
992.4785662
995.000004
986.215482
977.7435531
968.7441635
965.0896204
958.4235671
960.088865
955.7343051
956.7807624
959.4160457
953.7494768
951.0438939
936.6020278
942.4274971
941.8473024
939.3614584
934.7997418
924.6795726
913.7259387
919.4030678
915.7268515
905.8228244
899.7125524
882.2856328
865.7148683
831.8576898
803.0125797
753.8307241
979.1627264
970.9966858
969.6754815
968.3110344
957.7789995
941.192234
947.8841034
945.8337547
941.1299359
931.8153524
936.4569272
943.8892355
941.4725909
941.8993775
931.8295295
934.3343753
921.8207056
928.0961056
924.7056864
925.2244974
917.4677057
914.9316689
907.5205765
897.7261908
897.205639
882.7880972
862.244768
837.9528952
812.4707627
770.1470255
954.1357804
954.8318662
950.5771783
940.0612299
936.8070702
929.6496727
928.1989641
926.82082
923.2813703
924.2995953
921.0755838
923.5322214
918.7764641
914.1361965
918.438355
915.6235924
919.7972086
918.9485707
917.8800064
916.8252242
913.2294399
901.6920546
899.6517133
892.3999138
882.6977632
863.8795444
856.6925209
846.4549307
818.5403209
776.9272145
905.3363403
921.9981289
916.5862821
919.889729
913.4478901
914.5023778
913.8546281
905.0625634
900.52413
902.4518998
899.5540954
901.4019815
894.0491535
895.6879137
896.6493627
900.0533698
903.555666
897.5471589
899.0952039
902.3335863
900.3505596
894.771791
888.7823508
877.8704215
874.7345591
865.9282687
856.1327269
830.2495076
810.7268608
782.1243332
854.5572599
873.7086916
879.3593027
889.7386446
893.5189372
894.6007603
890.1912164
888.3217569
886.0811836
883.7586585
878.0726188
890.6612651
882.2692558
877.8880309
876.3022317
889.0043826
884.0107853
881.9594068
873.2431903
883.0544203
873.0509649
874.5126693
871.2498385
866.8684754
866.0196558
861.1166647
847.006999
834.7079587
815.6436988
782.5675257
793.8366522
817.5157972
844.363668
859.2424771
868.6614203
865.5486989
859.7714293
869.779966
868.6584403
870.3011436
868.3725408
871.8921448
862.4836288
868.959298
867.1102108
865.7845029
865.4525897
862.3143571
856.8563944
854.6574691
859.5503302
858.6129111
855.3833924
856.0506579
857.744697
848.5219225
835.9938808
822.5960927
806.3624149
790.5689406
714.7888224
752.6838652
782.9180545
810.1976244
824.5914045
841.6338785
838.3401115
841.6164613
849.2004037
850.4345376
853.7309652
850.6299358
850.2168248
855.8337138
849.5408933
846.3900756
845.610069
852.3359208
847.8582095
840.5413406
849.9585881
847.2103489
852.8670216
845.4275859
838.373078
839.5339909
830.8054636
813.171538
797.4064041
778.9232824
655.0664329
697.6260825
720.0190782
748.9558809
770.9445441
793.1724097
812.9649077
817.2335477
830.2222977
829.5437946
829.4227628
833.2555304
833.6939579
839.8427576
841.9915011
832.5048978
831.101598
835.3227348
838.4857613
830.6704086
833.4669282
835.3325725
836.0052082
834.1029126
826.578416
825.0930353
821.0404375
809.0586333
794.03358
775.0282548
587.7117664
623.9426878
665.185039
694.6394187
719.2441165
753.1763054
771.2544102
779.9572332
798.593631
811.4103173
816.9524009
821.1155424
818.5313936
821.7371204
826.7825934
821.6672128
820.9578053
826.1763919
822.5326032
822.5864709
822.7628449
826.4374244
823.6860893
826.6665152
815.7017773
809.804651
805.6758249
806.2910145
793.8163137
774.4427046
527.612917
561.7410573
590.4314084
627.0024529
668.827923
697.4348745
715.2015165
735.9198118
755.2837569
773.7017578
789.7644112
797.8884613
804.2603357
809.3716324
814.0552274
809.5138454
815.8228667
808.5423816
808.2289005
805.6789206
804.0711212
809.7704844
808.1998543
806.4500198
803.2615379
796.685936
801.45663
798.0879894
783.1534821
767.9044969
472.7835421
497.7007703
531.3468131
557.5907805
598.3141185
628.7558525
653.1668184
686.753105
710.6115188
730.147026
749.8027776
767.4998263
777.964265
781.2946253
786.4177697
790.0535466
790.490633
790.3061139
791.9997543
792.4237481
791.026579
790.7614041
794.4213696
795.7738661
795.5250944
783.871972
782.7587216
785.4884084
777.2836355
760.4059547
434.6907805
459.0352281
486.0059739
510.5403911
537.7252985
571.7930048
603.5420765
632.4404256
661.8488104
678.962986
701.092852
727.2834806
733.1843874
748.5084815
766.5947127
772.5080252
780.2443928
779.5355192
785.625164
781.3495279
778.685295
782.8699166
783.3539201
780.3441311
783.9400118
778.867697
772.4659378
771.2512124
760.4990626
407.5335383
418.1005134
434.651872
464.3926635
492.9123702
521.0613118
547.6195321
575.9313386
605.8607855
637.3580764
661.644109
688.07065
701.2433056
717.2765227
741.6937778
752.3053109
760.6242139
765.0342847
770.6397282
767.8538553
768.9765225
773.3269113
769.7335414
775.274843
769.329984
381.1884955
391.7069263
412.1175674
431.3013443
449.9588238
472.5104491
496.4048649
528.9171081
550.9649859
587.728038
612.162171
632.5621744
657.3952521
681.5175936
706.0474064
724.1031213
736.6050464
749.1477776
754.4601508
360.4743066
374.8745748
382.1100675
400.4266986
421.7784198
441.9165738
457.6733462
479.257471
509.8482306
528.9190328
563.6002503
584.9103309
608.9336046
631.1730292
347.7570353
352.1514274
361.26012
375.233763
394.9254213
414.554498
420.4285431
438.469457
333.2533592
)
;

boundaryField
{
    flow
    {
        type            calculated;
        value           nonuniform List<scalar> 
15
(
729.6638771
722.0913405
736.1050175
746.7060803
753.8307241
770.1470255
776.9272145
782.1243332
782.5675257
790.5689406
778.9232824
775.0282548
774.4427046
767.9044969
760.4059547
)
;
    }
    obstacle
    {
        type            calculated;
        value           nonuniform List<scalar> 
30
(
790.6844379
803.8998412
776.4900758
781.6985536
759.800833
769.2515552
747.6780784
751.6608731
711.929369
726.5292715
730.8428546
713.0383518
719.4449286
719.323645
709.7896636
719.3575399
715.2530262
692.8105078
692.0237245
694.9415478
705.902592
692.898943
679.3567426
706.1103017
679.9676828
715.5708136
714.6459952
696.8696981
704.481763
721.4732614
)
;
    }
    frontAndBack
    {
        type            empty;
    }
    procBoundary1to0
    {
        type            processor;
        value           nonuniform List<scalar> 
21
(
945.2852158
1040.71723
1047.738117
1045.359628
1014.692301
986.5491616
948.7928802
899.6177805
834.2622571
765.5116299
683.552342
612.979403
558.9821189
498.0574377
453.1094275
417.2925059
387.3702154
365.336902
350.553284
334.2101033
331.2646621
)
;
    }
    procBoundary1to3
    {
        type            processor;
        value           nonuniform List<scalar> 
36
(
753.6785068
770.1331028
767.3085844
762.1219195
753.6785068
750.7497089
755.6389017
762.2955638
769.089079
763.613288
766.0409116
770.1331028
764.9573392
655.6846686
688.1915184
705.0359785
725.4011033
755.6389017
735.5119876
466.9244891
488.5985265
513.0603262
544.9394828
566.8246211
655.6846686
591.4966669
337.2849122
346.2543372
356.141725
371.7543013
389.347951
398.1913114
466.9244891
410.3473956
337.2849122
326.3676776
)
;
    }
}


// ************************************************************************* //
