/*--------------------------------*- C++ -*----------------------------------*\
| =========                 |                                                 |
| \\      /  F ield         | OpenFOAM: The Open Source CFD Toolbox           |
|  \\    /   O peration     | Version:  2406                                  |
|   \\  /    A nd           | Website:  www.openfoam.com                      |
|    \\/     M anipulation  |                                                 |
\*---------------------------------------------------------------------------*/
FoamFile
{
    version     2.0;
    format      ascii;
    arch        "LSB;label=32;scalar=64";
    class       volVectorField;
    location    "0.011";
    object      UMean;
}
// * * * * * * * * * * * * * * * * * * * * * * * * * * * * * * * * * * * * * //

dimensions      [0 1 -1 0 0 0 0];

internalField   nonuniform List<vector> 
546
(
(372.0735808 104.0329781 -1.726775866)
(352.436822 102.4458305 0.6271302568)
(343.6382258 95.4301571 2.146172123)
(329.8213931 91.9482774 1.112017162)
(323.6024691 90.62745439 -4.796034251)
(311.9389762 87.27480946 -4.330495337)
(302.6516278 82.60622768 -1.549615447)
(297.4167087 82.8234748 -2.93386176)
(285.3088449 81.30747799 3.522679339)
(278.1257704 75.67747631 -1.021301131)
(272.0201443 76.06183219 2.862056439)
(266.7052272 71.96603472 -3.853384406)
(258.850991 73.36617147 -0.6700341515)
(252.6229011 67.73250522 0.130582431)
(243.1453158 68.12190929 -1.056258136)
(242.0116904 68.46538214 -4.858285404)
(242.7025168 65.46259446 -7.374979969)
(235.8322065 63.80202228 1.10847571)
(229.4798071 63.62601899 0.5810421796)
(227.8187516 61.47635679 4.383915655)
(230.3529789 60.02288821 -0.4636085876)
(229.1642946 63.14489087 4.806181285)
(226.4187298 63.02289143 7.01529347)
(232.5619223 59.07032329 6.434711456)
(239.7683856 62.82247305 3.586518297)
(244.8717466 66.82361652 4.380164562)
(252.9506936 66.69173207 2.687764449)
(268.3793677 68.02711911 7.367155625)
(301.8236181 75.86621011 6.385302761)
(397.5025659 75.31454501 0.3798370479)
(635.7354366 197.1556615 -5.893402903)
(616.4107099 187.854435 -2.909295245)
(598.326932 179.5569727 2.375201826)
(573.1621953 175.0982041 2.700230751)
(561.6475545 164.5956151 2.545544099)
(543.1074474 155.3816379 -0.3368009675)
(524.1344661 151.2079553 0.4205252846)
(510.7973554 147.3912421 -5.061307396)
(498.63839 148.7587412 -6.049154722)
(493.6832051 139.8720089 -3.309867587)
(479.2497094 138.9387529 -2.764115397)
(458.5678396 133.7020517 -2.955873739)
(447.9488991 130.5406711 -2.393114167)
(436.6182719 122.7598568 4.573790305)
(424.5784926 122.1736582 4.787047246)
(423.4329021 122.904812 3.051633851)
(415.8343673 117.3636217 -2.384023165)
(398.7135551 111.3311389 -0.6816680668)
(396.9657965 112.6629468 2.680867052)
(394.9854954 108.626532 4.44581108)
(389.6329823 105.5927443 5.528453279)
(381.2534504 104.9480037 11.11053027)
(379.8101709 104.0882221 3.400429298)
(383.4201487 98.73182868 5.744573932)
(386.2566787 104.9426359 -0.9756694961)
(390.6762265 104.2750692 2.099406592)
(408.7641626 108.8460436 8.371498189)
(430.7756902 104.2123214 8.158791559)
(482.7513565 112.9749853 1.450445675)
(598.6142793 89.15926842 4.712978265)
(834.2149753 267.127602 -5.611458419)
(813.5362742 258.2152339 -4.993113593)
(791.5765918 254.6323359 -4.804621463)
(769.1726012 241.0076535 -4.706682526)
(751.1159601 228.6460897 0.4081667343)
(724.6545897 223.4933271 -3.578019488)
(703.4400732 217.7365946 -5.408913138)
(689.6725292 207.1411548 -7.15881199)
(669.7248914 200.0572106 -2.122974796)
(656.2176543 194.7886188 -1.449118049)
(638.5279121 191.8636276 -3.565256604)
(617.4365209 188.0192409 0.8833570977)
(603.5274574 180.048543 6.553368398)
(586.8110674 176.0190083 3.258798972)
(576.1311553 174.5916689 3.002044355)
(575.2192351 167.7173799 6.312839664)
(561.4549731 162.2187167 -1.648020076)
(548.6335822 158.2081367 -2.609821022)
(542.2921315 159.4796946 2.15055113)
(533.1268729 149.4684034 3.843679736)
(527.7141083 150.3745581 -0.4837048965)
(525.4278723 143.0062767 1.812480336)
(507.6844447 143.0225575 3.885740409)
(510.9505102 141.399119 2.198284662)
(514.6781302 141.2552355 0.4322049325)
(518.3512464 140.6608235 5.34148379)
(528.8379301 139.0099769 3.386787534)
(566.2210275 136.0898357 3.621921691)
(615.4877001 134.3560878 0.8017306674)
(711.7491504 104.0134746 1.877934394)
(989.5656737 317.5397818 0.7426000046)
(971.7270109 312.8006437 -0.04575605846)
(940.006946 309.3903686 -1.34964157)
(920.1797405 301.4654752 -2.35292007)
(900.4427461 288.5573411 -1.740527818)
(888.1305773 277.3247078 -1.168451101)
(858.908677 271.4132343 0.2556951338)
(843.8757911 264.1135672 1.131865698)
(817.4909528 257.4415915 -2.169108265)
(800.435115 249.1594546 -0.3696961308)
(783.1403054 241.0838723 -0.9739138732)
(759.2847805 240.0886732 0.2397360498)
(742.6542628 230.8472559 -2.577839328)
(730.799027 226.8362901 -2.776393824)
(717.756074 217.1069571 1.50366706)
(708.0651579 209.1865959 3.01147691)
(696.0597827 207.5434123 6.626361401)
(677.9159887 204.568813 1.398832052)
(664.0779654 199.642193 -1.831161207)
(653.9241482 192.2619102 -0.8100214097)
(650.7376643 186.1338679 6.274640342)
(633.226687 179.5728345 4.975201186)
(626.4899278 181.661181 -0.8068625715)
(626.2908446 179.7124626 4.918829789)
(630.4720398 175.7430948 -0.2078954194)
(635.6920973 173.8775612 0.8774189556)
(643.6086813 166.9969898 1.591331928)
(681.6835853 159.5840712 1.154579134)
(718.5583083 155.0600851 -0.2495768095)
(786.44371 130.9143468 0.8004805426)
(1097.747476 346.3197715 2.634965731)
(1080.959568 344.3321377 3.576772423)
(1056.061161 342.9183298 3.031552175)
(1034.236969 337.1838387 1.814343539)
(1015.311852 325.5745471 2.220894765)
(1003.477042 322.8619816 -0.2323497969)
(981.9694771 323.1694963 4.529603758)
(964.7527746 314.4011914 0.08185013549)
(941.2476983 304.3392702 -4.004711065)
(922.8870044 294.1970709 -1.58330185)
(902.8626321 292.48272 -3.584143532)
(881.6364543 280.7447548 1.630556298)
(867.5359943 273.7636823 0.5964591369)
(847.1543606 266.7120235 1.320091716)
(834.9645616 261.6862499 0.5979309946)
(814.7920187 252.9555278 -0.3827650325)
(801.2041583 246.7940593 3.799094759)
(782.0832295 244.2732879 6.735000373)
(769.6494427 234.4573879 2.015335419)
(760.1140512 231.5099884 2.048029787)
(756.6865594 222.5943052 2.839275697)
(742.1517486 221.5018451 -0.4486101887)
(739.2719598 214.9420517 2.315627692)
(736.6871893 213.4478857 3.029249809)
(735.6674299 207.8816923 10.01610482)
(736.1920336 203.5907867 1.941827013)
(743.8154616 196.5843561 1.633601372)
(774.6647577 188.6994241 0.586982704)
(802.3604807 172.8940278 1.217269292)
(857.7698382 160.9235102 -2.103304997)
(1185.573823 352.2808428 -0.1316718445)
(1166.02378 357.3063991 1.225944106)
(1146.820593 355.6538226 4.166500734)
(1127.027971 362.5799979 3.755609338)
(1107.568139 362.1398622 1.440597642)
(1094.319182 360.8090727 3.764575667)
(1076.125718 352.6713573 2.008069573)
(1055.213916 344.1658655 1.654301814)
(1037.225901 338.8397684 -0.2150217432)
(1025.853503 337.0912799 2.681276341)
(1007.088211 328.8849129 -1.970882441)
(984.1711976 322.4418198 -0.3904236068)
(968.2190305 313.2973371 1.728982025)
(947.6051439 308.3308687 2.275964424)
(934.6508254 300.4834426 -0.9709835255)
(913.4823913 293.8258863 0.6006932299)
(905.7816968 289.5404814 3.402494362)
(887.1168439 279.5986143 4.245237674)
(877.27961 274.4056184 1.308428316)
(860.8259698 265.4964949 0.209947388)
(842.6410353 261.2328147 -4.41511976)
(844.1422789 255.4087547 -2.326371513)
(834.4460643 246.323992 -4.224107468)
(823.8413183 242.1330932 1.605255029)
(822.8880984 236.6216234 2.754661196)
(827.3261977 230.2113889 2.846523425)
(834.3889496 228.7592394 -6.732000959)
(851.303991 215.2636504 -4.284884221)
(876.1326216 201.2093877 5.407416255)
(922.8265973 192.7630655 -3.531804477)
(1267.322131 336.5318517 -1.940597208)
(1243.227714 352.5178518 -2.268324991)
(1218.383207 364.4648282 -3.872498586)
(1197.866769 372.9631987 -2.775618587)
(1176.807184 375.9025525 -0.4328118011)
(1167.959674 377.5988871 -1.93498942)
(1151.600322 376.6971201 1.250188755)
(1134.538619 373.7109476 0.5450643566)
(1126.279094 367.4609489 2.952184216)
(1106.588907 360.6907321 4.552718881)
(1084.261564 360.7785088 4.668769807)
(1058.796012 352.9347669 -0.5086807701)
(1051.43527 348.0246722 -0.2577838238)
(1036.730863 342.5185627 5.083075501)
(1013.394032 337.3150329 0.9239687648)
(1003.461552 330.7427315 1.691664422)
(988.6784674 318.7383979 -0.5596828479)
(968.3724153 309.9871207 -3.460002768)
(956.880765 304.5606158 -1.000085502)
(941.767012 302.1453461 -4.857356922)
(933.8487265 291.3468078 1.128536743)
(928.7828092 287.996173 1.386207985)
(922.6076309 280.0183555 2.267409738)
(918.9674156 270.873075 1.953001516)
(909.0955403 269.5152389 1.170996552)
(912.8912492 261.3311417 4.79986962)
(915.8731674 256.8460683 3.865661316)
(927.2755068 243.9236995 5.40031073)
(945.7460485 234.7909228 3.511476898)
(980.0435244 218.2658509 2.815608598)
(1337.484567 310.6080449 -1.761110027)
(1306.281417 332.4575815 -0.9620758051)
(1291.279457 352.8421018 -0.1391007311)
(1271.813389 366.3503169 -2.628977849)
(1255.17419 371.7538929 -5.117920353)
(1232.66245 383.9918342 -0.6028171246)
(1215.29977 386.0449832 -1.216469219)
(1202.526108 386.064101 1.841103824)
(1189.491318 388.786538 2.00276609)
(1171.74322 385.147087 -0.6351104808)
(1154.733956 382.1398622 0.328803696)
(1135.11236 381.5585824 3.071735581)
(1126.142464 373.9631651 1.563282669)
(1107.161278 371.4072766 2.553698589)
(1094.449258 362.3661801 0.4430174579)
(1078.568079 358.1896932 1.580200212)
(1059.919432 349.1819809 4.007327073)
(1049.493624 343.4043059 3.483939349)
(1040.476713 337.9547048 2.01833738)
(1023.798299 328.6732041 -2.516693576)
(1011.361545 323.0098223 0.4297416498)
(1007.398353 319.2419774 1.731310369)
(993.4070692 307.7121722 -1.499921966)
(990.1701923 298.3246473 -2.665037343)
(977.8436509 295.8212412 -0.2278134935)
(974.3690608 287.8467046 3.934799909)
(977.65893 281.1380769 -2.226530608)
(994.3303965 266.5327545 -0.5251546136)
(1006.71619 260.9284414 -1.210048334)
(1027.579385 240.2933414 -1.011261069)
(1406.354388 274.2183569 0.6534068553)
(1380.209648 303.8620447 1.969875744)
(1356.580418 325.5412683 2.532987185)
(1327.998552 346.9974617 -0.124813662)
(1312.310527 363.3861351 1.722488133)
(1288.628746 371.4921215 -3.014940724)
(1268.800598 382.4591109 -4.951526051)
(1256.208566 391.1313247 -1.626706039)
(1242.651476 399.2272189 -0.8218617895)
(1231.278523 397.7714308 2.104870847)
(1220.560774 400.3778284 1.39149095)
(1195.337091 396.617265 7.546746394)
(1183.457614 392.7559362 4.131550634)
(1172.805534 390.8215734 -1.966415703)
(1161.1884 385.8685222 -0.07012553049)
(1138.603098 380.8486133 0.5479764993)
(1128.290683 378.699918 -2.66685721)
(1116.629277 369.1803656 -0.9899319111)
(1104.895136 360.1207993 1.707444273)
(1086.993622 357.0777308 2.097176746)
(1073.196993 350.7419188 -1.220881997)
(1066.498947 345.2457958 2.323157791)
(1055.274424 337.2128424 -2.018057615)
(1053.419563 328.6588334 -0.9102613483)
(1045.731619 321.2345111 -1.026951781)
(1040.57846 311.6695353 -2.615793488)
(1041.30039 303.2950293 -0.8022771699)
(1051.778557 294.4665056 -1.783987121)
(1058.933874 284.1786749 -1.187604123)
(1082.402274 270.0376112 2.07542993)
(1468.358182 236.2952952 2.457078545)
(1441.00336 260.6288419 4.623698828)
(1414.832 293.1058666 3.384711791)
(1390.102198 314.7522372 2.423952622)
(1362.619099 339.75998 2.991584171)
(1348.583929 359.3832549 0.4680226036)
(1332.573481 368.8552563 1.186647462)
(1311.531321 383.4264807 -0.1795198496)
(1294.520322 389.8598581 -2.718270144)
(1277.92053 397.7403199 -3.728441181)
(1266.399218 399.0829492 0.8310011183)
(1250.437587 405.5164198 -0.1980136393)
(1242.113834 407.3720923 3.189611511)
(1221.687512 408.0188318 2.011459047)
(1208.770098 401.9002971 1.373651933)
(1198.563102 401.0777983 0.7910309054)
(1189.460364 397.646417 -1.279813496)
(1169.587125 393.8289468 -2.859262155)
(1165.714228 387.8608769 -6.921896429)
(1153.517261 382.3623784 -4.22341551)
(1134.692308 373.8509579 -5.493224882)
(1124.182449 366.1747067 2.094968062)
(1118.767739 363.129723 2.937406398)
(1114.851654 353.1701282 0.605488364)
(1101.971925 342.7601681 3.039673572)
(1096.158891 337.9444975 0.002598533272)
(1094.622953 331.1799363 1.833969108)
(1099.040484 320.3190135 5.325736755)
(1104.727695 307.0966575 4.076116251)
(1117.703414 296.2255081 3.149778596)
(1524.235958 195.0096037 -2.765036614)
(1494.781258 225.449747 -0.7783120647)
(1470.144138 249.0464459 -1.879727103)
(1446.716704 278.6081848 -2.110309709)
(1423.482248 299.8965905 1.704256675)
(1399.474825 325.1660584 7.153289616)
(1382.586597 346.2569903 5.274319503)
(1362.105284 361.8889865 6.031192839)
(1342.224923 376.7255926 0.8052303881)
(1324.004179 386.3891493 -3.22294352)
(1307.889433 397.8350697 -3.493006879)
(1295.671302 407.0507448 -5.177661259)
(1283.337598 411.6581941 -2.734245243)
(1264.500279 414.2296849 -0.1785218065)
(1254.670925 411.8794553 -0.5056608626)
(1248.623865 409.0684474 2.297205006)
(1236.060798 413.1783353 4.873602293)
(1220.587218 408.4977732 4.158796857)
(1208.237802 406.9401708 0.07541611323)
(1204.276993 399.294537 1.758428932)
(1184.572603 394.6767085 -0.5002402374)
(1176.353849 390.3629518 -4.192235761)
(1165.614114 381.9661891 -1.650081264)
(1153.479498 373.9668736 0.7619727414)
(1153.301378 369.8408086 1.721864417)
(1150.925825 360.5847947 2.763797463)
(1142.422118 353.1973521 2.007537907)
(1140.769185 341.607689 4.628919824)
(1147.168476 334.2655554 -0.6890439742)
(1158.316043 321.4308322 -2.252782702)
(1567.442778 156.9041575 3.011111021)
(1538.952495 184.4817386 2.144188785)
(1520.202701 208.7354754 3.641388881)
(1497.379201 233.4912704 3.75295515)
(1478.2666 264.616691 -1.931781583)
(1453.567217 291.2768172 -2.554197241)
(1429.441701 313.0104969 3.508904053)
(1410.57578 328.1669022 3.725160602)
(1391.541538 351.4553816 3.908787856)
(1373.183472 370.5677585 0.569725449)
(1359.142434 388.0320473 -5.173216146)
(1338.913374 397.728619 -5.17707958)
(1325.541967 406.8961796 -3.515208123)
(1310.035747 411.8793208 -0.511690145)
(1299.03634 418.7654934 3.300180464)
(1289.438374 417.6540136 1.554363673)
(1279.823413 422.1061661 2.000584157)
(1264.816587 420.2303761 3.985757755)
(1251.861743 417.2062318 1.890404608)
(1242.803959 415.033499 -1.244267462)
(1231.376436 411.465407 2.508987824)
(1218.769153 408.7739773 2.716194839)
(1212.04995 402.8336756 2.329770348)
(1201.86832 394.4309725 1.373453605)
(1196.233291 386.5282376 5.182390871)
(1191.25814 381.7700142 1.266478825)
(1188.301609 374.1407207 -1.012143272)
(1187.984787 363.9743779 -0.6917307941)
(1184.201355 352.7600451 3.890999981)
(1191.526131 340.8620543 1.87726733)
(1609.264788 118.8710856 -3.646851518)
(1591.55153 142.9763678 -6.180330336)
(1567.513532 173.4614219 -4.6152702)
(1541.635306 196.6896006 -1.37512033)
(1522.925962 222.4344178 -2.115687051)
(1495.055344 251.5449875 -4.736395606)
(1471.412241 274.1457712 -6.084028134)
(1457.419585 296.5447347 -3.96308387)
(1436.265961 324.8526215 -3.414661064)
(1415.490859 343.6335634 0.02822829356)
(1399.635983 362.2495373 2.853524164)
(1378.826356 378.0569573 -0.9798264313)
(1363.02549 390.2968891 -2.204467923)
(1348.111612 403.6062509 -1.273904802)
(1332.457012 413.0999857 1.528437985)
(1326.57533 419.1989878 2.404206238)
(1311.327322 421.1165135 -0.335627336)
(1297.063899 424.2586704 1.049350746)
(1292.250955 426.9928407 2.886662862)
(1280.636759 425.2819797 3.974486983)
(1275.905802 422.7888106 2.288240465)
(1260.202736 420.7175301 2.331743386)
(1252.701763 416.7895368 -0.9505123012)
(1242.788052 411.5828755 3.40671263)
(1238.301511 406.103528 1.641876616)
(1230.019853 400.2481315 -0.3594058265)
(1225.46079 394.6517313 1.665619993)
(1221.735463 381.1835327 3.522985126)
(1226.552109 369.2071203 4.713221338)
(1233.552698 362.4386704 6.44469719)
(1639.404594 96.12848916 -3.171881015)
(1622.158 112.490772 -2.464445154)
(1605.347085 130.9182914 2.172206115)
(1586.439057 156.8681784 -2.904690583)
(1565.605373 184.8054155 -2.442899477)
(1544.811327 206.4138947 -2.078329177)
(1523.157083 233.7131628 -3.653454476)
(1500.957633 264.5590718 -4.803830067)
(1477.995868 285.6410481 -1.671368652)
(1454.96664 307.8551306 -0.9143799787)
(1435.073523 327.91085 -2.399699538)
(1421.822569 348.3096944 0.9076839991)
(1403.74047 368.709523 -0.192638535)
(1382.885365 384.2073768 -4.609702627)
(1364.661594 401.1656599 -3.830384993)
(1358.296738 409.1415797 -0.5384998396)
(1347.211761 415.5278644 -1.602492951)
(1335.646752 419.9859553 -0.5247094459)
(1327.431105 430.0628275 -0.700301274)
(1317.218308 431.1390188 1.823237971)
(1308.750226 429.0743854 1.227805686)
(1296.728812 430.5416911 2.451974731)
(1283.626302 427.9043512 3.324483551)
(1272.236605 423.0172234 -1.478870556)
(1270.842747 419.289469 2.315583972)
(1268.124947 412.3313051 1.750245109)
(1259.329591 407.2932975 -1.074979111)
(1255.496793 399.9221198 -1.501932229)
(1258.165922 389.2745426 0.2378699574)
(1264.577598 376.0606657 0.7082526021)
(1667.792556 69.34105706 -1.784547311)
(1656.271595 85.49606975 -1.977695793)
(1637.395548 101.6238063 -4.696420913)
(1621.974921 120.4244378 -1.371914306)
(1601.13104 148.3101394 1.525600569)
(1580.792694 173.932502 -0.5478766569)
(1562.702337 195.7827882 -0.04629081557)
(1541.772652 221.14213 -1.776296413)
(1519.524095 243.540471 -1.966579807)
(1498.22722 265.7031747 -1.521749251)
(1475.761484 296.186119 -0.01710213787)
(1456.451132 318.0780204 1.638365603)
(1437.241506 338.4972105 -0.5160263595)
(1423.236158 359.5625582 -0.3825523872)
(1407.487293 373.1627932 -1.880432088)
(1393.587905 389.1186502 -4.07104367)
(1380.77843 403.4929224 -1.939012134)
(1369.542402 414.6160849 -0.84143925)
(1354.681687 419.9640417 -2.92045151)
(1344.689798 424.4870009 -1.562887211)
(1335.538099 429.2898105 -1.141241682)
(1325.781258 430.7586181 1.380068335)
(1317.345533 432.0412216 1.911659435)
(1309.330073 431.567506 3.366963986)
(1299.609699 428.8403277 1.42196195)
(1298.187382 423.4588059 2.168062107)
(1288.780747 419.3239003 2.609358726)
(1280.783419 413.5208958 3.283209724)
(1282.19399 406.5679695 0.5656588472)
(1288.321971 397.9071216 -1.445361989)
(1677.097722 53.24220167 2.054713752)
(1667.447186 63.13097396 0.5446560064)
(1656.263443 80.52465881 1.108274334)
(1642.664086 98.63652335 -2.887333767)
(1630.279461 112.2437756 -2.915237093)
(1611.668376 135.5005308 1.000343984)
(1592.820697 155.7174788 1.686456352)
(1574.902823 176.4977016 2.502524051)
(1555.352559 203.3520639 -1.022128937)
(1541.336133 226.6856834 1.009993609)
(1522.81516 253.0598647 3.404883279)
(1500.2389 279.9580503 -2.954409173)
(1487.081107 301.9398301 -1.340141782)
(1468.546989 325.7437824 2.276523501)
(1442.03188 349.0223206 -0.006941519568)
(1422.897802 367.4658253 0.7439264626)
(1407.469919 383.3309978 2.323190875)
(1395.013796 398.0220651 -0.09478747978)
(1384.013311 407.3810128 -1.285523874)
(1373.073409 417.1480342 -4.022410137)
(1364.182555 428.1295774 -3.372441706)
(1349.824358 433.3152541 -2.871326453)
(1341.926969 435.9127051 -1.095410017)
(1329.854494 438.0963113 -1.363244512)
(1327.333184 433.3624585 3.288706504)
(1321.286047 432.1837874 1.891940716)
(1315.055709 429.8976792 3.585918535)
(1311.754614 426.2601645 -0.162118845)
(1308.262307 422.9071099 0.8513634089)
(1694.269914 43.88390931 3.381274619)
(1688.717064 52.81029769 0.7975526391)
(1682.000563 60.16781171 0.2316661321)
(1666.576908 72.77628231 1.390281882)
(1655.095545 87.52182342 0.4345231262)
(1640.636736 103.7197422 -0.2675054102)
(1628.07266 123.8562434 -1.118819745)
(1614.433114 142.7683244 -2.301925484)
(1596.628514 167.0253102 -3.621330514)
(1576.659938 190.8521541 -3.025826149)
(1557.717854 213.5446192 -3.951236115)
(1538.893792 237.5667072 -3.325533226)
(1520.427593 266.4989824 -7.040957256)
(1505.480416 289.5068953 -3.571257247)
(1479.989197 319.0860505 -1.49853383)
(1464.46809 337.7254065 -5.056780223)
(1446.232309 356.6977895 -5.817806928)
(1427.497702 372.5824269 -1.907573287)
(1414.956593 388.9266077 -0.352361209)
(1406.292887 401.9941655 0.1183475087)
(1394.152728 413.741491 -2.472400566)
(1377.178923 421.9545048 -1.921059708)
(1369.860579 428.4087243 -0.02305017222)
(1358.692913 434.8513903 1.189360383)
(1356.372493 437.9946442 -1.951435095)
(1701.462852 32.83566662 -3.513983917)
(1695.505441 38.53331841 -3.118586266)
(1687.344616 47.52422138 -1.868538448)
(1681.869743 56.53891578 -1.689020558)
(1672.199957 66.58038636 -0.5235410414)
(1665.09161 78.13693415 -2.027337356)
(1656.107042 92.39398905 -1.899983922)
(1640.396836 113.7887186 -1.456888354)
(1628.255092 127.9683555 0.1090638067)
(1610.283333 156.4561324 -2.787262288)
(1594.113875 179.4345301 -0.6095943745)
(1576.679382 202.5903234 0.8655032693)
(1559.398412 226.8616998 -0.5049266179)
(1540.248792 251.2385848 -4.207050539)
(1518.907609 275.6437989 -6.486392191)
(1498.958946 301.0319993 -2.772854276)
(1484.219513 321.4670292 -3.108856922)
(1464.764066 347.1444359 -2.283851051)
(1448.405733 367.4953381 4.825071454)
(1710.510795 23.57494424 -0.4941463885)
(1704.596923 27.53734511 0.4366737641)
(1704.194185 33.0356366 -0.5670332337)
(1697.22721 41.41733183 -0.7438302755)
(1689.197203 54.01077892 -1.240543842)
(1678.143108 61.24217224 -1.417489205)
(1669.276563 75.03655672 -0.1806260427)
(1659.764996 88.77752344 -2.060553866)
(1644.585307 106.1933535 0.06680072224)
(1634.006167 120.6186625 1.135818616)
(1618.728723 141.9867822 0.5428324347)
(1605.552583 165.3956342 0.3802419924)
(1589.194678 185.0190504 1.158561603)
(1569.623928 208.5968093 1.140356737)
(1720.25107 15.87006874 -3.838195474)
(1718.881455 19.3238435 -4.291276717)
(1713.636529 27.40686236 -2.243695148)
(1705.194669 33.64194361 -3.248283949)
(1699.097912 42.825989 -0.5589357793)
(1690.45487 51.86531523 1.042658574)
(1685.244201 58.28349691 -0.2243563973)
(1676.013361 67.43322937 0.01679502963)
(1724.495231 13.88598872 1.928604809)
)
;

boundaryField
{
    flow
    {
        type            calculated;
        value           nonuniform List<vector> 
15
(
(397.5025659 75.31454501 0.3798370479)
(598.6142793 89.15926842 4.712978265)
(711.7491504 104.0134746 1.877934394)
(786.44371 130.9143468 0.8004805426)
(857.7698382 160.9235102 -2.103304997)
(922.8265973 192.7630655 -3.531804477)
(980.0435244 218.2658509 2.815608598)
(1027.579385 240.2933414 -1.011261069)
(1082.402274 270.0376112 2.07542993)
(1117.703414 296.2255081 3.149778596)
(1158.316043 321.4308322 -2.252782702)
(1191.526131 340.8620543 1.87726733)
(1233.552698 362.4386704 6.44469719)
(1264.577598 376.0606657 0.7082526021)
(1288.321971 397.9071216 -1.445361989)
)
;
    }
    obstacle
    {
        type            calculated;
        value           nonuniform List<vector> 
30
(
(198.2755912 53.12778463 -5.15422461)
(174.8956828 46.86315706 -3.733552293)
(185.0442262 49.58245083 7.232052493)
(181.4379387 48.61614923 -0.6332625521)
(161.4413664 43.25808362 -3.592422516)
(169.3723574 45.38318648 4.346842508)
(158.106981 42.36463795 0.825983854)
(157.9101641 42.31190083 -6.781030744)
(165.3353635 44.3014772 4.94835215)
(152.7868931 40.9391247 -16.16472884)
(162.1219856 43.44045498 -1.857731975)
(136.6147695 36.60581722 11.90103682)
(151.9036369 40.70245691 6.062618151)
(144.665438 38.76298715 -1.844179869)
(119.4882038 32.01676778 9.082473227)
(136.755624 36.64355889 -13.95463647)
(128.1440206 34.33608689 0.9540902935)
(136.5411471 36.58609016 -1.731616603)
(133.8034859 35.85253588 -8.009017723)
(144.1501867 38.62492618 18.14763278)
(133.6481592 35.81091638 2.235916694)
(139.5094579 37.38144647 5.839306108)
(132.4492352 35.48966567 -1.561660348)
(132.8970844 35.6096665 2.612316205)
(145.0035218 38.85357644 21.8070602)
(139.6457533 37.41796688 2.242462192)
(143.4516341 38.43774939 6.511447497)
(166.5318772 44.62208208 -1.367541963)
(178.0870374 47.71827794 5.351126459)
(207.0078103 55.46757542 16.45545876)
)
;
    }
    frontAndBack
    {
        type            empty;
    }
    procBoundary1to0
    {
        type            processor;
        value           nonuniform List<vector> 
21
(
(387.5578626 112.2495072 -3.262044224)
(666.1524274 201.1131548 1.643288084)
(855.3830832 275.5366972 -2.032642969)
(1008.972627 324.4947048 -1.374758982)
(1112.019863 345.806781 1.784263478)
(1214.799675 337.84317 -1.505293164)
(1294.073008 314.8098875 -0.6402367959)
(1358.177481 286.9997449 0.3659637864)
(1433.06379 246.6448789 -0.5237813595)
(1499.208074 206.1227859 0.4118004202)
(1547.389767 169.2327315 -0.2481790954)
(1590.817399 132.5544289 2.099024475)
(1623.288331 102.3881102 -4.014885712)
(1656.026929 75.19456744 -2.522850012)
(1677.999505 60.51095533 -0.008407948845)
(1685.273405 42.25191208 -0.7382229504)
(1704.136024 35.02285039 2.675471125)
(1706.613642 23.78333635 -1.926721028)
(1716.050898 18.65560557 -4.019004704)
(1723.240992 14.28051196 -2.496153192)
(1724.293142 11.38193656 2.26076201)
)
;
    }
    procBoundary1to3
    {
        type            processor;
        value           nonuniform List<vector> 
36
(
(1307.655507 414.5935585 0.7882969369)
(1347.189346 438.5654578 -1.092676014)
(1339.016299 438.4133639 -0.4486125604)
(1333.197179 433.074388 -0.8527499986)
(1307.655507 414.5935585 0.7882969369)
(1336.055552 428.4795027 0.1639529086)
(1431.939589 381.5875271 2.007653601)
(1421.023032 392.0981232 0.06422859389)
(1406.982673 408.6203233 -3.340227727)
(1398.23955 418.29455 -4.807790299)
(1384.587545 430.9022489 -1.094003928)
(1347.189346 438.5654578 -1.092676014)
(1369.652326 435.2886358 -3.557681349)
(1552.907707 236.6175622 -0.1232089621)
(1531.402618 261.959195 -2.050065998)
(1514.643068 287.8541077 0.8199297463)
(1497.458708 310.6284395 -4.322650224)
(1431.939589 381.5875271 2.007653601)
(1474.659357 332.0218996 -2.956630477)
(1665.384191 82.37265747 0.4022425513)
(1656.790111 94.28943648 -0.4812782124)
(1645.053361 113.6671617 1.594545304)
(1632.823294 131.1218565 5.572098045)
(1624.837261 153.7485214 4.106842849)
(1552.907707 236.6175622 -0.1232089621)
(1607.380048 174.0588093 -2.215789919)
(1722.566226 17.22108733 2.129873752)
(1717.951391 21.12968839 2.817625541)
(1714.470172 26.8664363 3.136661238)
(1709.845054 32.13607487 1.802539844)
(1703.953548 40.2918726 0.8364819718)
(1700.939786 46.5128175 1.948165195)
(1665.384191 82.37265747 0.4022425513)
(1693.868287 55.59524668 3.527953612)
(1722.566226 17.22108733 2.129873752)
(1726.903376 11.81549899 -1.024557164)
)
;
    }
}


// ************************************************************************* //
