/*--------------------------------*- C++ -*----------------------------------*\
| =========                 |                                                 |
| \\      /  F ield         | OpenFOAM: The Open Source CFD Toolbox           |
|  \\    /   O peration     | Version:  2406                                  |
|   \\  /    A nd           | Website:  www.openfoam.com                      |
|    \\/     M anipulation  |                                                 |
\*---------------------------------------------------------------------------*/
FoamFile
{
    version     2.0;
    format      ascii;
    arch        "LSB;label=32;scalar=64";
    class       volScalarField;
    location    "0.003";
    object      dsmcRhoNMean;
}
// * * * * * * * * * * * * * * * * * * * * * * * * * * * * * * * * * * * * * //

dimensions      [0 -3 0 0 0 0 0];

internalField   nonuniform List<scalar> 
654
(
7.298
9.415333333
9.487333333
9.497333333
9.507333333
9.58
9.546666667
9.595333333
9.522
9.453333333
9.426
9.42
9.300666667
9.402
9.404666667
9.492666667
9.524
9.692
10.15533333
13.064
7.344
9.516
9.648
9.576666667
9.570666667
9.619333333
9.618
9.558666667
9.577333333
9.626
9.586
9.632
9.734666667
9.764
9.707333333
9.743333333
9.886
10.15266667
10.79133333
12.50866667
7.483333333
9.66
9.688666667
9.672666667
9.646
9.66
9.706666667
9.67
9.672
9.684
9.716
9.676666667
9.601333333
9.65
9.748
9.792
9.694666667
9.907333333
10.27733333
11.34533333
7.528
9.588666667
9.606666667
9.530666667
9.478
9.438666667
9.492666667
9.481333333
9.446
9.489333333
9.504666667
9.562666667
9.669333333
9.578
9.631333333
9.593333333
9.705333333
9.953333333
10.31
11.002
7.426
9.544
9.53
9.592
9.622
9.600666667
9.566
9.512666667
9.515333333
9.515333333
9.486
9.502
9.568666667
9.606666667
9.671333333
9.818666667
9.965333333
10.10666667
10.29933333
10.584
7.439333333
9.550666667
9.634
9.528666667
9.533333333
9.563333333
9.503333333
9.591333333
9.695333333
9.736666667
9.745333333
9.669333333
9.57
9.579333333
9.615333333
9.563333333
9.625333333
9.853333333
10.01333333
10.31
7.451333333
9.582
9.646
9.624
9.718
9.754
9.761333333
9.648666667
9.695333333
9.639333333
9.634666667
9.717333333
9.822
9.747333333
9.77
9.732666667
9.854
9.828
9.956666667
10.18733333
7.457333333
9.584
9.652
9.736666667
9.657333333
9.656
9.784
9.846
9.87
9.794666667
9.67
9.532666667
9.520666667
9.551333333
9.698
9.769333333
9.742
9.737333333
9.782666667
9.851333333
7.432
9.670666667
9.720666667
9.643333333
9.640666667
9.588666667
9.642
9.613333333
9.55
9.634
9.821333333
9.822
9.768
9.683333333
9.516666667
9.511333333
9.557333333
9.702
9.688
9.728
7.429333333
9.442
9.594
9.633333333
9.699333333
9.726
9.654666667
9.632
9.608666667
9.593333333
9.588
9.566
9.628
9.667333333
9.720666667
9.82
9.785333333
9.59
9.702666667
9.805333333
7.466666667
9.538666667
9.568
9.446
9.452666667
9.341333333
9.309333333
9.392666667
9.461333333
9.505333333
9.524666667
9.554
9.633333333
9.602
9.53
9.396666667
9.528
9.625333333
9.744
9.723333333
7.488666667
9.618666667
9.589333333
9.56
9.632
9.689333333
9.711333333
9.674
9.648666667
9.556
9.532666667
9.424
9.374666667
9.448666667
9.545333333
9.641333333
9.680666667
9.626666667
9.607333333
9.740666667
7.441333333
9.552666667
9.622
9.613333333
9.532
9.482
9.486
9.452666667
9.493333333
9.588666667
9.618666667
9.654
9.768666667
9.746
9.650666667
9.701333333
9.732
9.752666667
9.808666667
9.739333333
7.448666667
9.593333333
9.643333333
9.63
9.630666667
9.656666667
9.645333333
9.646666667
9.568666667
9.526
9.488
9.534666667
9.474666667
9.532666667
9.604666667
9.496
9.437333333
9.541333333
9.442666667
9.564666667
7.35
9.584666667
9.608666667
9.653333333
9.686666667
9.697333333
9.745333333
9.700666667
9.75
9.722
9.650666667
9.654666667
9.69
9.626
9.630666667
9.515333333
9.616666667
9.604666667
9.530666667
9.538666667
7.523333333
9.686666667
9.718
9.734666667
9.643333333
9.738
9.746
9.65
9.667333333
9.584666667
9.612
9.504666667
9.362
9.336
9.403333333
9.505333333
9.476666667
9.425333333
9.560666667
9.520666667
7.478
9.494
9.529333333
9.622
9.560666667
9.590666667
9.500666667
9.58
9.584
9.658666667
9.746
9.756
9.834
9.889333333
9.775333333
9.76
9.766
9.727333333
9.631333333
9.602
7.439333333
9.506
9.522666667
9.474
9.528
9.549333333
9.632666667
9.677333333
9.660666667
9.612666667
9.612666667
9.608666667
9.668666667
9.615333333
9.617333333
9.616
9.735333333
9.733333333
9.690666667
9.775333333
7.516
9.647333333
9.740666667
9.690666667
9.664666667
9.626
9.613333333
9.603333333
9.629333333
9.576666667
9.579333333
9.616
9.484
9.573333333
9.514
9.557333333
9.502666667
9.459333333
9.526666667
9.485333333
7.398666667
9.607333333
9.731333333
9.704666667
9.733333333
9.766
9.734666667
9.748666667
9.729333333
9.716
9.724666667
9.664666667
9.806666667
9.769333333
9.853333333
9.756
9.765333333
9.804666667
9.800666667
9.812
7.456666667
9.576666667
9.556666667
9.601333333
9.561333333
9.560666667
9.52
9.373333333
9.444
9.496
9.586666667
9.56
9.537333333
9.515333333
9.548
9.646
9.624666667
9.584666667
9.572666667
9.540666667
7.375333333
9.490666667
9.490666667
9.373333333
9.42
9.377333333
9.485333333
9.627333333
9.652
9.683333333
9.594
9.570666667
9.544666667
9.524
9.527333333
9.559333333
9.528666667
9.529333333
9.640666667
9.6
22.93066667
26.42333333
27.05866667
28.27
28.11466667
28.392
28.326
28.03266667
27.15533333
27.57533333
15.762
18.80533333
20.63133333
21.87866667
23.288
23.954
24.18066667
24.46133333
24.55266667
24.428
13.064
15.06333333
16.91066667
18.308
19.44466667
20.488
21.39933333
22.35066667
22.704
23.158
11.92933333
13.19266667
14.3
15.712
16.80533333
18.01933333
19.46466667
20.06466667
20.45266667
21.242
11.13266667
12.05133333
12.97066667
14.224
14.916
15.786
16.986
17.64333333
18.67466667
19.58733333
10.666
11.26133333
11.93733333
12.40066667
13.064
13.83266667
15.00066667
16.106
16.868
17.65266667
10.34
10.68533333
10.99866667
11.582
12.13
12.784
13.44933333
14.34266667
15.37066667
16.09866667
10.052
10.148
10.286
10.78466667
11.10533333
11.51866667
12.15133333
12.69733333
13.47733333
14.37
9.806
10.054
10.25733333
10.39066667
10.64666667
10.94066667
11.096
11.724
12.442
13.10666667
9.839333333
9.814
9.874666667
9.905333333
10.01
10.51466667
10.956
11.17333333
11.39333333
11.80333333
9.807333333
9.819333333
9.955333333
10.082
10.18266667
10.15866667
10.23133333
10.606
10.94
11.37266667
9.703333333
9.761333333
9.744666667
9.669333333
9.722
9.907333333
10.064
10.234
10.34666667
10.52933333
9.709333333
9.698666667
9.708666667
9.642666667
9.616666667
9.672
9.767333333
9.859333333
9.94
10.23333333
9.583333333
9.568
9.562
9.578666667
9.582666667
9.508666667
9.501333333
9.526666667
9.711333333
9.786666667
9.488666667
9.426
9.410666667
9.462666667
9.438
9.598
9.614666667
9.654666667
9.620666667
9.589333333
9.702
9.699333333
9.566
9.454666667
9.432
9.348666667
9.412
9.373333333
9.397333333
9.418666667
9.522
9.529333333
9.424666667
9.410666667
9.266
9.240666667
9.279333333
9.286666667
9.214666667
9.333333333
9.674
9.514666667
9.446666667
9.372666667
9.422
9.294
9.209333333
9.166666667
9.174666667
9.286666667
9.506666667
9.565333333
9.497333333
9.460666667
9.381333333
9.356666667
9.321333333
9.225333333
9.131333333
9.138666667
9.606666667
9.612
9.514
9.392666667
9.335333333
9.284666667
9.297333333
9.305333333
9.208
9.145333333
9.55
9.488666667
9.446666667
9.399333333
9.361333333
9.241333333
9.133333333
9.106
9.166
9.070666667
9.612
9.47
9.365333333
9.341333333
)
;

boundaryField
{
    flow
    {
        type            calculated;
        value           nonuniform List<scalar> 
42
(
7.298
7.344
7.483333333
7.528
7.426
7.439333333
7.451333333
7.457333333
7.432
7.429333333
7.466666667
7.488666667
7.441333333
7.448666667
7.35
7.523333333
7.478
7.439333333
7.516
7.398666667
7.456666667
7.375333333
7.298
9.415333333
9.487333333
9.497333333
9.507333333
9.58
9.546666667
9.595333333
9.522
9.453333333
9.426
9.42
9.300666667
9.402
9.404666667
9.492666667
9.524
9.692
10.15533333
13.064
)
;
    }
    obstacle
    {
        type            calculated;
        value           nonuniform List<scalar> 10(22.93066667 26.42333333 27.05866667 28.27 28.11466667 28.392 28.326 28.03266667 27.15533333 27.57533333);
    }
    frontAndBack
    {
        type            empty;
    }
    procBoundary0to1
    {
        type            processor;
        value           nonuniform List<scalar> 
21
(
27.50666667
24.51933333
22.93133333
21.22866667
20.02066667
18.31733333
16.7
15.288
13.77933333
12.32666667
11.70133333
10.97866667
10.27066667
9.892666667
9.755333333
9.367333333
9.302666667
9.348666667
9.114
9.169333333
8.947333333
)
;
    }
    procBoundary0to2
    {
        type            processor;
        value           nonuniform List<scalar> 
31
(
7.395333333
9.49
9.678
9.606
9.650666667
9.646
9.578
9.492
9.46
9.428
9.440666667
9.610666667
9.628666667
9.574666667
9.602
9.513333333
9.550666667
9.484666667
9.388666667
9.346
9.405333333
9.385333333
9.259333333
9.202666667
9.170666667
9.142
9.457333333
9.444666667
9.516
9.405333333
9.349333333
)
;
    }
}


// ************************************************************************* //
