/*--------------------------------*- C++ -*----------------------------------*\
| =========                 |                                                 |
| \\      /  F ield         | OpenFOAM: The Open Source CFD Toolbox           |
|  \\    /   O peration     | Version:  2406                                  |
|   \\  /    A nd           | Website:  www.openfoam.com                      |
|    \\/     M anipulation  |                                                 |
\*---------------------------------------------------------------------------*/
FoamFile
{
    version     2.0;
    format      ascii;
    arch        "LSB;label=32;scalar=64";
    class       volScalarField;
    location    "0.003";
    object      iDof;
}
// * * * * * * * * * * * * * * * * * * * * * * * * * * * * * * * * * * * * * //

dimensions      [0 -3 0 0 0 0 0];

internalField   nonuniform List<scalar> 
654
(
2.082799616e+20
1.24967977e+20
2.082799616e+20
1.24967977e+20
3.332479385e+20
1.457959731e+20
2.291079578e+20
2.291079578e+20
1.666239693e+20
2.082799616e+20
2.082799616e+20
2.082799616e+20
1.457959731e+20
2.499359539e+20
2.082799616e+20
1.666239693e+20
1.666239693e+20
1.874519654e+20
3.540759347e+20
1.874519654e+20
1.24967977e+20
2.707639501e+20
1.874519654e+20
2.707639501e+20
1.666239693e+20
2.291079578e+20
2.915919462e+20
2.499359539e+20
1.041399808e+20
2.291079578e+20
2.707639501e+20
2.082799616e+20
1.666239693e+20
1.041399808e+20
1.874519654e+20
2.707639501e+20
2.082799616e+20
2.499359539e+20
1.457959731e+20
2.291079578e+20
1.041399808e+20
2.707639501e+20
1.666239693e+20
2.707639501e+20
1.041399808e+20
2.291079578e+20
1.874519654e+20
2.499359539e+20
1.457959731e+20
1.666239693e+20
3.124199424e+20
2.082799616e+20
4.165599232e+19
1.666239693e+20
2.082799616e+20
1.874519654e+20
1.457959731e+20
1.457959731e+20
1.666239693e+20
2.707639501e+20
1.666239693e+20
8.331198464e+19
2.291079578e+20
2.499359539e+20
1.874519654e+20
1.457959731e+20
2.499359539e+20
1.457959731e+20
1.874519654e+20
2.082799616e+20
1.457959731e+20
2.291079578e+20
2.499359539e+20
1.874519654e+20
2.291079578e+20
8.331198464e+19
1.041399808e+20
1.24967977e+20
2.082799616e+20
3.540759347e+20
1.874519654e+20
2.291079578e+20
1.666239693e+20
1.457959731e+20
3.124199424e+20
2.915919462e+20
2.291079578e+20
2.082799616e+20
2.291079578e+20
1.457959731e+20
2.707639501e+20
3.332479385e+20
1.874519654e+20
1.666239693e+20
2.499359539e+20
1.666239693e+20
1.666239693e+20
2.915919462e+20
2.291079578e+20
2.499359539e+20
1.666239693e+20
1.874519654e+20
2.082799616e+20
1.874519654e+20
2.707639501e+20
1.874519654e+20
1.457959731e+20
2.082799616e+20
2.707639501e+20
1.457959731e+20
2.915919462e+20
1.041399808e+20
2.707639501e+20
2.082799616e+20
2.082799616e+20
1.457959731e+20
1.24967977e+20
1.666239693e+20
1.041399808e+20
1.24967977e+20
1.041399808e+20
1.666239693e+20
2.707639501e+20
1.457959731e+20
1.874519654e+20
1.041399808e+20
2.291079578e+20
1.041399808e+20
1.874519654e+20
1.24967977e+20
2.707639501e+20
1.457959731e+20
1.666239693e+20
1.874519654e+20
3.540759347e+20
2.499359539e+20
3.749039309e+20
8.331198464e+19
1.24967977e+20
2.082799616e+20
1.666239693e+20
2.915919462e+20
1.874519654e+20
2.291079578e+20
2.499359539e+20
3.124199424e+20
1.666239693e+20
1.24967977e+20
1.874519654e+20
1.457959731e+20
1.24967977e+20
1.24967977e+20
1.24967977e+20
1.666239693e+20
3.332479385e+20
2.499359539e+20
2.707639501e+20
1.457959731e+20
1.874519654e+20
1.041399808e+20
1.24967977e+20
2.082799616e+20
2.291079578e+20
2.082799616e+20
1.874519654e+20
2.291079578e+20
2.707639501e+20
2.291079578e+20
1.666239693e+20
2.291079578e+20
1.457959731e+20
1.24967977e+20
1.24967977e+20
1.041399808e+20
1.874519654e+20
2.291079578e+20
1.24967977e+20
2.082799616e+20
2.082799616e+20
1.457959731e+20
1.457959731e+20
1.457959731e+20
1.666239693e+20
1.874519654e+20
2.082799616e+20
1.874519654e+20
2.291079578e+20
2.291079578e+20
2.082799616e+20
2.499359539e+20
2.707639501e+20
1.666239693e+20
2.082799616e+20
2.707639501e+20
1.874519654e+20
2.082799616e+20
2.291079578e+20
1.874519654e+20
1.874519654e+20
1.457959731e+20
1.457959731e+20
1.666239693e+20
3.540759347e+20
1.874519654e+20
1.457959731e+20
8.331198464e+19
2.707639501e+20
2.707639501e+20
1.457959731e+20
2.707639501e+20
1.041399808e+20
1.874519654e+20
1.874519654e+20
1.874519654e+20
1.666239693e+20
1.666239693e+20
6.248398848e+19
2.915919462e+20
3.124199424e+20
1.24967977e+20
2.291079578e+20
1.666239693e+20
1.874519654e+20
1.457959731e+20
1.457959731e+20
2.707639501e+20
2.082799616e+20
8.331198464e+19
1.457959731e+20
2.082799616e+20
2.082799616e+20
8.331198464e+19
1.24967977e+20
3.332479385e+20
2.499359539e+20
2.082799616e+20
2.915919462e+20
1.457959731e+20
1.457959731e+20
1.874519654e+20
1.041399808e+20
3.124199424e+20
2.291079578e+20
1.24967977e+20
1.457959731e+20
1.24967977e+20
2.082799616e+20
8.331198464e+19
3.332479385e+20
2.291079578e+20
2.291079578e+20
2.082799616e+20
2.082799616e+20
2.499359539e+20
2.499359539e+20
2.499359539e+20
1.457959731e+20
1.666239693e+20
3.540759347e+20
2.499359539e+20
1.874519654e+20
1.666239693e+20
1.457959731e+20
1.666239693e+20
2.915919462e+20
1.666239693e+20
1.874519654e+20
3.540759347e+20
2.291079578e+20
2.915919462e+20
1.041399808e+20
1.874519654e+20
1.041399808e+20
1.24967977e+20
2.291079578e+20
2.707639501e+20
1.874519654e+20
2.291079578e+20
1.457959731e+20
1.874519654e+20
1.457959731e+20
2.082799616e+20
1.666239693e+20
1.874519654e+20
1.874519654e+20
1.874519654e+20
2.291079578e+20
2.291079578e+20
1.041399808e+20
2.291079578e+20
1.24967977e+20
1.874519654e+20
2.499359539e+20
2.499359539e+20
1.24967977e+20
2.291079578e+20
1.666239693e+20
1.666239693e+20
3.124199424e+20
1.874519654e+20
8.331198464e+19
3.124199424e+20
1.457959731e+20
2.082799616e+20
1.874519654e+20
8.331198464e+19
2.082799616e+20
1.666239693e+20
1.666239693e+20
1.24967977e+20
1.666239693e+20
2.291079578e+20
2.291079578e+20
1.666239693e+20
2.291079578e+20
1.666239693e+20
2.915919462e+20
2.082799616e+20
1.24967977e+20
1.874519654e+20
1.457959731e+20
1.666239693e+20
1.24967977e+20
2.082799616e+20
6.248398848e+19
2.082799616e+20
8.331198464e+19
2.707639501e+20
2.082799616e+20
1.874519654e+20
1.874519654e+20
1.874519654e+20
2.082799616e+20
2.707639501e+20
1.666239693e+20
1.457959731e+20
2.291079578e+20
1.874519654e+20
1.24967977e+20
1.666239693e+20
2.082799616e+20
1.874519654e+20
3.124199424e+20
2.915919462e+20
2.707639501e+20
1.874519654e+20
2.499359539e+20
1.24967977e+20
3.124199424e+20
2.499359539e+20
3.540759347e+20
2.707639501e+20
3.95731927e+20
2.291079578e+20
2.915919462e+20
1.666239693e+20
2.082799616e+20
2.291079578e+20
2.499359539e+20
2.082799616e+20
1.457959731e+20
2.291079578e+20
1.666239693e+20
1.24967977e+20
1.041399808e+20
2.291079578e+20
1.666239693e+20
1.041399808e+20
2.915919462e+20
2.291079578e+20
2.291079578e+20
1.457959731e+20
8.331198464e+19
2.082799616e+20
1.24967977e+20
1.041399808e+20
1.874519654e+20
1.666239693e+20
1.666239693e+20
1.457959731e+20
8.331198464e+19
2.082799616e+20
2.499359539e+20
3.124199424e+20
2.499359539e+20
2.291079578e+20
1.666239693e+20
1.874519654e+20
1.874519654e+20
2.499359539e+20
1.24967977e+20
1.457959731e+20
1.666239693e+20
1.041399808e+20
2.291079578e+20
1.666239693e+20
1.666239693e+20
1.041399808e+20
2.082799616e+20
2.915919462e+20
1.666239693e+20
2.082799616e+20
1.874519654e+20
1.041399808e+20
1.24967977e+20
1.874519654e+20
2.291079578e+20
1.457959731e+20
2.082799616e+20
4.165599232e+20
8.331198464e+19
1.041399808e+20
1.874519654e+20
3.332479385e+20
1.666239693e+20
1.24967977e+20
8.331198464e+19
1.24967977e+20
2.082799616e+20
1.874519654e+20
1.457959731e+20
2.291079578e+20
2.291079578e+20
1.666239693e+20
2.915919462e+20
2.499359539e+20
1.874519654e+20
1.666239693e+20
1.24967977e+20
2.082799616e+20
8.331198464e+19
1.666239693e+20
1.666239693e+20
2.082799616e+20
1.24967977e+20
3.540759347e+20
2.082799616e+20
2.499359539e+20
2.915919462e+20
1.874519654e+20
4.80742724e+20
5.050939433e+20
7.416953099e+20
5.1213696e+20
3.867994809e+20
8.872727481e+20
6.102572364e+20
7.463412867e+20
6.854033565e+20
4.231426294e+20
2.090185757e+20
3.577748765e+20
6.145475428e+20
4.267808001e+20
4.082883411e+20
5.410199687e+20
4.14103125e+20
5.926827869e+20
5.306348567e+20
4.454132941e+20
2.508222908e+20
2.946381335e+20
2.754868294e+20
2.560684801e+20
5.157326417e+20
4.977383709e+20
5.012827299e+20
5.487803583e+20
4.421957139e+20
9.13097253e+20
1.045092878e+20
2.735925527e+20
3.178694187e+20
2.987465599e+20
3.223329006e+20
4.111751759e+20
4.79487829e+20
4.609755009e+20
4.200859282e+20
3.340599706e+20
2.508222908e+20
2.315013906e+20
2.754868295e+20
1.920513602e+20
3.653106212e+20
5.626607675e+20
3.487184211e+20
5.487803583e+20
3.316467857e+20
4.00871965e+20
2.299204332e+20
2.735925526e+20
2.119129457e+20
2.347294399e+20
3.223329006e+20
2.813303833e+20
3.705133219e+20
2.414633573e+20
5.306348563e+20
4.231426297e+20
1.46313003e+20
2.946381335e+20
1.907216512e+20
1.920513602e+20
2.363774608e+20
3.678935787e+20
4.358980263e+20
2.195121433e+20
1.768782856e+20
3.340599706e+20
2.926260059e+20
3.156837147e+20
2.754868295e+20
3.414246399e+20
2.148886004e+20
2.380487861e+20
2.615388158e+20
3.29268215e+20
1.989880713e+20
3.117893059e+20
2.090185757e+20
4.209116193e+20
1.48339062e+20
2.560684801e+20
1.504220205e+20
3.462527797e+20
3.923082234e+20
1.756097146e+20
1.989880713e+20
3.563306353e+20
1.881167182e+20
2.104558098e+20
3.814433024e+20
8.535616003e+19
3.008440408e+20
2.380487862e+20
1.961541118e+20
2.853657863e+20
2.87427214e+20
2.227066471e+20
2.926260059e+20
8.418232386e+19
3.178694185e+20
2.560684801e+20
1.719108804e+20
2.596895848e+20
2.615388156e+20
2.195121431e+20
3.095369997e+20
3.117893059e+20
1.46313003e+20
3.156837147e+20
1.695303566e+20
1.920513599e+20
2.148886006e+20
1.947671887e+20
1.08974507e+20
2.195121447e+20
3.095370013e+20
2.895186424e+20
2.926260059e+20
1.262734861e+20
2.331042412e+20
1.4937328e+20
1.289331598e+20
1.731263896e+20
2.179490127e+20
2.634145697e+20
1.10548928e+20
1.781653177e+20
3.553315774e+20
1.894102275e+20
1.695303554e+20
1.920513594e+20
2.793551809e+20
1.731263895e+20
3.705133203e+20
1.536585001e+20
2.21097856e+20
1.781653164e+20
3.344297228e+20
2.946381343e+20
1.48339062e+20
2.133904008e+20
2.793551828e+20
8.656319536e+19
1.961541121e+20
3.292682168e+20
1.989880718e+20
2.449773118e+20
1.881167178e+20
3.788204584e+20
2.331042418e+20
6.401712024e+19
2.148886007e+20
2.380487872e+20
1.089745067e+20
2.195121415e+20
4.200859264e+20
2.004359824e+20
1.045092877e+20
2.315013897e+20
1.695303554e+20
1.493732795e+20
2.363774608e+20
1.082039934e+20
1.307694081e+20
1.975609301e+20
1.547685003e+20
2.004359824e+20
1.881167178e+20
1.473190672e+20
1.695303577e+20
4.267807987e+19
2.148885992e+20
2.380487856e+20
1.525643084e+20
2.853657859e+20
1.768782861e+20
1.55894653e+20
2.090185768e+20
1.683646482e+20
2.966781239e+20
1.066952004e+20
1.933997406e+20
1.082039934e+20
3.269235202e+20
2.19512143e+20
1.326587136e+20
2.004359838e+20
2.508222905e+20
1.473190672e+20
2.754868294e+20
1.066951997e+20
2.148886007e+20
1.082039942e+20
3.051286189e+20
2.414633573e+20
2.210978576e+20
1.781653177e+20
1.463130028e+20
2.104558088e+20
1.48339062e+20
1.920513607e+20
3.00844041e+20
1.947671882e+20
2.833337175e+20
3.292682168e+20
2.874272148e+20
1.55894653e+20
1.672148603e+20
2.735925515e+20
2.331042402e+20
1.280342405e+20
)
;

boundaryField
{
    flow
    {
        type            zeroGradient;
    }
    obstacle
    {
        type            calculated;
        value           nonuniform List<scalar> 10(1e-300 222.1184051 71.23728116 282.0891476 88.55599332 419.4544205 270.8427928 581.8091409 496.8359961 1e-300);
    }
    frontAndBack
    {
        type            empty;
    }
    procBoundary0to1
    {
        type            processor;
        value           nonuniform List<scalar> 
21
(
8.300543781e+20
5.159797489e+20
5.159797486e+20
6.281492591e+20
3.140746296e+20
2.916407279e+20
4.486780422e+20
4.935458465e+20
2.692068255e+20
2.01905119e+20
3.813763359e+20
2.243390219e+20
3.589424328e+20
2.916407266e+20
2.467729243e+20
2.692068246e+20
2.692068246e+20
2.019051199e+20
1.570373155e+20
2.692068246e+20
2.692068265e+20
)
;
    }
    procBoundary0to2
    {
        type            processor;
        value           nonuniform List<scalar> 
31
(
1.666239693e+20
2.082799616e+20
1.666239693e+20
1.874519654e+20
1.666239693e+20
2.291079578e+20
2.291079578e+20
2.082799616e+20
2.499359539e+20
1.666239693e+20
2.082799616e+20
3.540759347e+20
2.291079578e+20
3.95731927e+20
3.124199424e+20
2.291079578e+20
2.707639501e+20
1.874519654e+20
1.666239693e+20
1.666239693e+20
2.793551809e+20
2.81330383e+20
3.269235179e+20
1.975609287e+20
1.547685003e+20
1.781653177e+20
2.299204329e+20
1.473190672e+20
1.48339062e+20
2.793551809e+20
1.280342396e+20
)
;
    }
}


// ************************************************************************* //
