/*--------------------------------*- C++ -*----------------------------------*\
| =========                 |                                                 |
| \\      /  F ield         | OpenFOAM: The Open Source CFD Toolbox           |
|  \\    /   O peration     | Version:  2406                                  |
|   \\  /    A nd           | Website:  www.openfoam.com                      |
|    \\/     M anipulation  |                                                 |
\*---------------------------------------------------------------------------*/
FoamFile
{
    version     2.0;
    format      ascii;
    arch        "LSB;label=32;scalar=64";
    class       volScalarField;
    location    "0.003";
    object      iDofMean;
}
// * * * * * * * * * * * * * * * * * * * * * * * * * * * * * * * * * * * * * //

dimensions      [0 -3 0 0 0 0 0];

internalField   nonuniform List<scalar> 
654
(
1.52002716e+20
1.961025265e+20
1.976021422e+20
1.978104222e+20
1.980187022e+20
1.995322032e+20
1.988379367e+20
1.998515658e+20
1.983241794e+20
1.968939904e+20
1.963246918e+20
1.961997238e+20
1.937142496e+20
1.958248199e+20
1.958803612e+20
1.977132249e+20
1.983658354e+20
2.018649388e+20
2.115152437e+20
2.720969418e+20
1.529608038e+20
1.981992115e+20
2.009485069e+20
1.994627766e+20
1.993378086e+20
2.003514377e+20
2.003236671e+20
1.990878726e+20
1.994766619e+20
2.00490291e+20
1.996571712e+20
2.00615259e+20
2.027535999e+20
2.033645545e+20
2.021843014e+20
2.029341092e+20
2.0590557e+20
2.114597023e+20
2.247618492e+20
2.605304613e+20
1.558628379e+20
2.011984429e+20
2.017955121e+20
2.014622642e+20
2.00906851e+20
2.011984429e+20
2.021704161e+20
2.014067229e+20
2.014483789e+20
2.016983148e+20
2.023648107e+20
2.015455762e+20
1.999765338e+20
2.009901629e+20
2.030313066e+20
2.039477384e+20
2.019204801e+20
2.063499006e+20
2.140562592e+20
2.363005591e+20
1.567931551e+20
1.997127125e+20
2.000876164e+20
1.985046887e+20
1.974077476e+20
1.965885131e+20
1.977132249e+20
1.974771743e+20
1.967412517e+20
1.976437982e+20
1.979631608e+20
1.991711846e+20
2.013928375e+20
1.994905472e+20
2.006013737e+20
1.998099098e+20
2.021426454e+20
2.073079884e+20
2.147366404e+20
2.291496137e+20
1.546686995e+20
1.987823953e+20
1.984908034e+20
1.997821392e+20
2.00406979e+20
1.999626485e+20
1.992406113e+20
1.981297848e+20
1.981853261e+20
1.981853261e+20
1.975743716e+20
1.979076195e+20
1.992961526e+20
2.000876164e+20
2.014344935e+20
2.045031516e+20
2.075579244e+20
2.105016145e+20
2.145144751e+20
2.204435114e+20
1.549464061e+20
1.989212487e+20
2.00656915e+20
1.984630327e+20
1.985602301e+20
1.991850699e+20
1.979353902e+20
1.997682538e+20
2.019343654e+20
2.027952559e+20
2.029757652e+20
2.013928375e+20
1.993239232e+20
1.995183179e+20
2.002681257e+20
1.991850699e+20
2.004764057e+20
2.052251888e+20
2.085576682e+20
2.147366404e+20
1.55196342e+20
1.995738592e+20
2.00906851e+20
2.00448635e+20
2.024064667e+20
2.031562745e+20
2.033090132e+20
2.009623923e+20
2.019343654e+20
2.007679976e+20
2.006708003e+20
2.023925813e+20
2.045725783e+20
2.030174212e+20
2.034895225e+20
2.02711944e+20
2.052390742e+20
2.046975463e+20
2.073774151e+20
2.121817395e+20
1.5532131e+20
1.996155152e+20
2.010318189e+20
2.027952559e+20
2.011429016e+20
2.011151309e+20
2.037811144e+20
2.050724502e+20
2.055723221e+20
2.040032797e+20
2.014067229e+20
1.985463447e+20
1.982964088e+20
1.98935134e+20
2.019899068e+20
2.034756371e+20
2.029063386e+20
2.028091413e+20
2.037533438e+20
2.051835328e+20
1.547936675e+20
2.014206082e+20
2.02462008e+20
2.008513096e+20
2.007957683e+20
1.997127125e+20
2.00823539e+20
2.002264697e+20
1.989073633e+20
2.00656915e+20
2.045586929e+20
2.045725783e+20
2.034478665e+20
2.016844295e+20
1.982130968e+20
1.981020141e+20
1.99060102e+20
2.020732187e+20
2.017816268e+20
2.026147466e+20
1.547381261e+20
1.966579397e+20
1.998237952e+20
2.006430297e+20
2.020176774e+20
2.025730906e+20
2.010873603e+20
2.00615259e+20
2.001292724e+20
1.998099098e+20
1.996988272e+20
1.992406113e+20
2.00531947e+20
2.013511815e+20
2.02462008e+20
2.045309223e+20
2.038088851e+20
1.997404832e+20
2.020871041e+20
2.04225445e+20
1.555157047e+20
1.986713127e+20
1.992822673e+20
1.967412517e+20
1.96880105e+20
1.945612548e+20
1.938947589e+20
1.956304253e+20
1.970606143e+20
1.979770462e+20
1.983797208e+20
1.989906753e+20
2.006430297e+20
1.999904191e+20
1.984908034e+20
1.957137372e+20
1.984491474e+20
2.004764057e+20
2.029479946e+20
2.025175493e+20
1.559739206e+20
2.003375524e+20
1.997265978e+20
1.991156433e+20
2.00615259e+20
2.018093975e+20
2.022676134e+20
2.014900348e+20
2.009623923e+20
1.990323313e+20
1.985463447e+20
1.962830358e+20
1.952555213e+20
1.96796793e+20
1.98810166e+20
2.008096536e+20
2.016288882e+20
2.005041764e+20
2.001015018e+20
2.028785679e+20
1.549880621e+20
1.989629046e+20
2.00406979e+20
2.002264697e+20
1.985324594e+20
1.974910596e+20
1.975743716e+20
1.96880105e+20
1.977271102e+20
1.997127125e+20
2.003375524e+20
2.010734749e+20
2.034617518e+20
2.029896506e+20
2.010040483e+20
2.020593334e+20
2.026980586e+20
2.031285039e+20
2.042948717e+20
2.028507973e+20
1.551408007e+20
1.998099098e+20
2.008513096e+20
2.00573603e+20
2.005874883e+20
2.011290162e+20
2.008929656e+20
2.009207363e+20
1.992961526e+20
1.984074914e+20
1.976160276e+20
1.985880007e+20
1.973383209e+20
1.985463447e+20
2.000459604e+20
1.977826515e+20
1.965607424e+20
1.98726854e+20
1.966718251e+20
1.992128406e+20
1.530857718e+20
1.996294005e+20
2.001292724e+20
2.010595896e+20
2.017538561e+20
2.019760214e+20
2.029757652e+20
2.020454481e+20
2.030729626e+20
2.024897787e+20
2.010040483e+20
2.010873603e+20
2.018232828e+20
2.00490291e+20
2.005874883e+20
1.981853261e+20
2.002958964e+20
2.000459604e+20
1.985046887e+20
1.986713127e+20
1.566959578e+20
2.017538561e+20
2.024064667e+20
2.027535999e+20
2.008513096e+20
2.028230266e+20
2.029896506e+20
2.009901629e+20
2.013511815e+20
1.996294005e+20
2.001986991e+20
1.979631608e+20
1.949917e+20
1.944501721e+20
1.958525906e+20
1.979770462e+20
1.973799769e+20
1.963108065e+20
1.991295286e+20
1.982964088e+20
1.557517553e+20
1.977409955e+20
1.984769181e+20
2.00406979e+20
1.991295286e+20
1.997543685e+20
1.978798488e+20
1.995322032e+20
1.996155152e+20
2.011706722e+20
2.029896506e+20
2.031979305e+20
2.048225142e+20
2.059749967e+20
2.036006051e+20
2.032812425e+20
2.034062105e+20
2.026008613e+20
2.006013737e+20
1.999904191e+20
1.549464061e+20
1.979909315e+20
1.983380648e+20
1.973244356e+20
1.984491474e+20
1.98893478e+20
2.006291443e+20
2.015594615e+20
2.012123282e+20
2.002125844e+20
2.002125844e+20
2.001292724e+20
2.013789522e+20
2.002681257e+20
2.003097817e+20
2.002820111e+20
2.027674853e+20
2.027258293e+20
2.018371681e+20
2.036006051e+20
1.565432191e+20
2.009346216e+20
2.028785679e+20
2.018371681e+20
2.012956402e+20
2.00490291e+20
2.002264697e+20
2.000181898e+20
2.005597177e+20
1.994627766e+20
1.995183179e+20
2.002820111e+20
1.975327156e+20
1.993933499e+20
1.981575555e+20
1.99060102e+20
1.979215048e+20
1.970189583e+20
1.984213767e+20
1.975604862e+20
1.540994009e+20
2.001015018e+20
2.026841733e+20
2.021287601e+20
2.027258293e+20
2.034062105e+20
2.027535999e+20
2.030451919e+20
2.026425173e+20
2.023648107e+20
2.0254532e+20
2.012956402e+20
2.042532157e+20
2.034756371e+20
2.052251888e+20
2.031979305e+20
2.033923252e+20
2.042115597e+20
2.041282477e+20
2.043642983e+20
1.553074247e+20
1.994627766e+20
1.990462166e+20
1.999765338e+20
1.991434139e+20
1.991295286e+20
1.982825234e+20
1.952277507e+20
1.966995957e+20
1.977826515e+20
1.996710565e+20
1.991156433e+20
1.98643542e+20
1.981853261e+20
1.988657073e+20
2.00906851e+20
2.004625204e+20
1.996294005e+20
1.993794646e+20
1.987129687e+20
1.536134143e+20
1.976715689e+20
1.976715689e+20
1.952277507e+20
1.961997238e+20
1.953110627e+20
1.975604862e+20
2.005180617e+20
2.010318189e+20
2.016844295e+20
1.998237952e+20
1.993378086e+20
1.987962807e+20
1.983658354e+20
1.984352621e+20
1.99101758e+20
1.984630327e+20
1.984769181e+20
2.007957683e+20
1.999487631e+20
4.792935286e+20
5.560944012e+20
5.73408176e+20
6.032546607e+20
6.041521373e+20
6.144255577e+20
6.173623742e+20
6.153510738e+20
6.003986005e+20
6.141210029e+20
3.294550791e+20
3.957691654e+20
4.372046622e+20
4.668697433e+20
5.00432573e+20
5.183836932e+20
5.270152438e+20
5.369559708e+20
5.428541982e+20
5.440277975e+20
2.730618672e+20
3.170166013e+20
3.583589186e+20
3.906751444e+20
4.178437211e+20
4.433766845e+20
4.663963579e+20
4.906242744e+20
5.019805744e+20
5.157440533e+20
2.493452262e+20
2.776473347e+20
3.030355125e+20
3.352789964e+20
3.611274559e+20
3.89952766e+20
4.242304892e+20
4.404437985e+20
4.522040769e+20
4.730734597e+20
2.32693413e+20
2.536273114e+20
2.748652182e+20
3.035265053e+20
3.205278368e+20
3.416216491e+20
3.702081938e+20
3.872925915e+20
4.128928782e+20
4.362229335e+20
2.229392128e+20
2.370013025e+20
2.52967547e+20
2.646183219e+20
2.807304676e+20
2.993499551e+20
3.269380492e+20
3.535462575e+20
3.729478648e+20
3.931366208e+20
2.161252072e+20
2.248790478e+20
2.330759853e+20
2.471487615e+20
2.606598727e+20
2.766559712e+20
2.931268928e+20
3.148389501e+20
3.39842146e+20
3.585280076e+20
2.101054723e+20
2.135705558e+20
2.179736561e+20
2.301344333e+20
2.386409537e+20
2.49273147e+20
2.648371109e+20
2.787218854e+20
2.979809517e+20
3.200294518e+20
2.049636153e+20
2.11592271e+20
2.173661721e+20
2.217268517e+20
2.287847302e+20
2.367647653e+20
2.418362248e+20
2.573560368e+20
2.750899536e+20
2.918941788e+20
2.05660344e+20
2.065413317e+20
2.092569702e+20
2.113703043e+20
2.151034892e+20
2.275457852e+20
2.387849388e+20
2.452682348e+20
2.519041583e+20
2.628680791e+20
2.049914844e+20
2.066535747e+20
2.109664012e+20
2.151402013e+20
2.18813899e+20
2.198416607e+20
2.229909002e+20
2.32814579e+20
2.418810555e+20
2.532768462e+20
2.028176912e+20
2.054329311e+20
2.065021019e+20
2.063342907e+20
2.089146975e+20
2.144026068e+20
2.193438876e+20
2.246487289e+20
2.287625838e+20
2.344952533e+20
2.029431024e+20
2.041140751e+20
2.05739216e+20
2.057652498e+20
2.066512034e+20
2.093098051e+20
2.128780657e+20
2.164243373e+20
2.197712689e+20
2.279031355e+20
2.003094677e+20
2.013641175e+20
2.026311573e+20
2.043995505e+20
2.059205831e+20
2.057751411e+20
2.070806212e+20
2.091219016e+20
2.147154979e+20
2.179555704e+20
1.983307602e+20
1.983756467e+20
1.994242094e+20
2.019242233e+20
2.028118627e+20
2.077083873e+20
2.095507115e+20
2.119316585e+20
2.127108788e+20
2.135608274e+20
2.027898218e+20
2.041281055e+20
2.027159252e+20
2.017535109e+20
2.026829282e+20
2.023126147e+20
2.051336115e+20
2.057560473e+20
2.077730252e+20
2.097599673e+20
1.990274875e+20
2.005503554e+20
1.997208862e+20
2.008145918e+20
1.991157774e+20
1.999754071e+20
2.022421546e+20
2.038536116e+20
2.037343058e+20
2.078595373e+20
2.022045698e+20
2.002416882e+20
2.001870974e+20
2.000037083e+20
2.024680382e+20
2.01129583e+20
2.007165101e+20
2.012194644e+20
2.028499144e+20
2.068202396e+20
1.987069937e+20
2.013079977e+20
2.012607883e+20
2.018815452e+20
2.015941593e+20
2.024857397e+20
2.031575404e+20
2.02507269e+20
2.018918222e+20
2.035241827e+20
2.007971781e+20
2.022901248e+20
2.016139765e+20
2.004304891e+20
2.006056717e+20
2.009276036e+20
2.026344628e+20
2.042633661e+20
2.035869073e+20
2.036726523e+20
1.996127395e+20
1.996945018e+20
2.00187096e+20
2.005727507e+20
2.011643821e+20
1.999898343e+20
1.99060099e+20
1.998877588e+20
2.026582963e+20
2.02009776e+20
2.009086547e+20
1.993016509e+20
1.984635374e+20
1.993350864e+20
)
;

boundaryField
{
    flow
    {
        type            calculated;
        value           nonuniform List<scalar> 
42
(
1.52002716e+20
1.529608038e+20
1.558628379e+20
1.567931551e+20
1.546686995e+20
1.549464061e+20
1.55196342e+20
1.5532131e+20
1.547936675e+20
1.547381261e+20
1.555157047e+20
1.559739206e+20
1.549880621e+20
1.551408007e+20
1.530857718e+20
1.566959578e+20
1.557517553e+20
1.549464061e+20
1.565432191e+20
1.540994009e+20
1.553074247e+20
1.536134143e+20
1.52002716e+20
1.961025265e+20
1.976021422e+20
1.978104222e+20
1.980187022e+20
1.995322032e+20
1.988379367e+20
1.998515658e+20
1.983241794e+20
1.968939904e+20
1.963246918e+20
1.961997238e+20
1.937142496e+20
1.958248199e+20
1.958803612e+20
1.977132249e+20
1.983658354e+20
2.018649388e+20
2.115152437e+20
2.720969418e+20
)
;
    }
    obstacle
    {
        type            calculated;
        value           nonuniform List<scalar> 10(276.6159366 290.4659951 295.5181172 283.0211861 301.3123173 300.6304687 279.3682403 282.9575021 285.4871352 271.443112);
    }
    frontAndBack
    {
        type            empty;
    }
    procBoundary0to1
    {
        type            processor;
        value           nonuniform List<scalar> 
21
(
6.170818674e+20
5.500643242e+20
5.144392873e+20
4.7624183e+20
4.491416762e+20
4.109292635e+20
3.746461653e+20
3.429694955e+20
3.091242154e+20
2.765352334e+20
2.625065666e+20
2.462943342e+20
2.3041113e+20
2.21931115e+20
2.18850194e+20
2.101458384e+20
2.086951128e+20
2.097270738e+20
2.044625847e+20
2.057039258e+20
2.00723601e+20
)
;
    }
    procBoundary0to2
    {
        type            processor;
        value           nonuniform List<scalar> 
31
(
1.540299743e+20
1.976576836e+20
2.015733468e+20
2.000737311e+20
2.010040483e+20
2.00906851e+20
1.994905472e+20
1.976993395e+20
1.970328437e+20
1.963663478e+20
1.966301691e+20
2.001709284e+20
2.005458324e+20
1.994211206e+20
1.999904191e+20
1.981436701e+20
1.989212487e+20
1.975466009e+20
1.955471133e+20
1.946584521e+20
2.021098919e+20
2.031061093e+20
2.018062551e+20
2.020097081e+20
2.027614753e+20
2.035984168e+20
1.97675834e+20
1.987684976e+20
2.016563591e+20
2.021098919e+20
1.995057974e+20
)
;
    }
}


// ************************************************************************* //
