/*--------------------------------*- C++ -*----------------------------------*\
| =========                 |                                                 |
| \\      /  F ield         | OpenFOAM: The Open Source CFD Toolbox           |
|  \\    /   O peration     | Version:  2406                                  |
|   \\  /    A nd           | Website:  www.openfoam.com                      |
|    \\/     M anipulation  |                                                 |
\*---------------------------------------------------------------------------*/
FoamFile
{
    version     2.0;
    format      ascii;
    arch        "LSB;label=32;scalar=64";
    class       volScalarField;
    location    "0.003";
    object      internalEMean;
}
// * * * * * * * * * * * * * * * * * * * * * * * * * * * * * * * * * * * * * //

dimensions      [1 -1 -2 0 0 0 0];

internalField   nonuniform List<scalar> 
654
(
0.3160311061
0.4103245883
0.4142969813
0.4155430268
0.411316147
0.4152254601
0.4116088729
0.4145912795
0.4076017693
0.4030376064
0.4035958519
0.408157427
0.3990587845
0.4072505504
0.4117184959
0.4144281299
0.4176678934
0.4274036998
0.4880042683
0.7847637734
0.3196879173
0.4132716453
0.4157515299
0.4101895763
0.4151149908
0.4232792692
0.4202058615
0.4177140917
0.4173435807
0.4234737861
0.4196399583
0.4187141447
0.4238730289
0.4240444633
0.4220781178
0.4253219548
0.4412767224
0.471735983
0.5375469057
0.7512695536
0.3236315009
0.4183732887
0.421479767
0.4153148114
0.4117402907
0.4115056964
0.4084922892
0.4088904015
0.4094473378
0.4127272458
0.4119081749
0.4093061828
0.4076482868
0.4130205987
0.4224770055
0.4311765057
0.4262771237
0.4482512395
0.5058737881
0.6434246418
0.3251501773
0.4107020071
0.4119832667
0.406599648
0.4065132798
0.4003637054
0.4069552294
0.4086546069
0.4081409567
0.4044460443
0.4052549806
0.4103616351
0.4146192199
0.4130533952
0.4142874974
0.41372804
0.4274014173
0.4498342571
0.4952431684
0.5824054407
0.3140460886
0.4094720422
0.4040913919
0.4096200982
0.4114240146
0.4121861487
0.4069013938
0.4078099972
0.4084569219
0.4084288065
0.4098758101
0.4090737488
0.4126755055
0.4167472302
0.4245667239
0.4311059049
0.4375592742
0.4557937227
0.4930623373
0.5369386257
0.3140633027
0.4034871944
0.4077581362
0.4060502767
0.4022988258
0.4038785021
0.4024040716
0.403367751
0.406593585
0.4153477678
0.4173383915
0.4140883622
0.4108719264
0.4116051837
0.4101190976
0.4139127445
0.4211521044
0.4503102014
0.4588509604
0.4928466952
0.3257464175
0.417256141
0.4186963744
0.4132912671
0.4192546159
0.4177586154
0.416062175
0.409260629
0.4135650674
0.4081384066
0.4109532336
0.4126993114
0.4207270141
0.4159260355
0.4222195624
0.4225899551
0.4311624156
0.4318809124
0.4355181108
0.4635577482
0.3259506858
0.419244341
0.4195899078
0.4245494381
0.4156523037
0.4209351666
0.4274702578
0.4258844316
0.4306512151
0.4255930555
0.4137678333
0.4112323521
0.4104137779
0.4139234282
0.4195615858
0.4220047642
0.4279794872
0.4319852644
0.4493941179
0.4450068308
0.3272560785
0.4277887599
0.4312556901
0.4234045197
0.4223448438
0.4141682579
0.4165412084
0.4158028499
0.4149649632
0.4209679126
0.4284680603
0.4285578961
0.4263591477
0.4210009773
0.4141519447
0.4185263127
0.4194241138
0.4357281578
0.4342622799
0.4381982731
0.3236031895
0.4098068588
0.4119640147
0.4147435478
0.4183466769
0.4238576536
0.4220356792
0.4215175311
0.4157848063
0.4156889517
0.4157682437
0.4163340566
0.4267736284
0.4264100747
0.4254736241
0.4278438314
0.4301639464
0.4236330858
0.4331455172
0.4446511915
0.3216225458
0.4110389186
0.4142644401
0.40670704
0.4094544038
0.4028076661
0.40045995
0.4023845185
0.4048446943
0.4080985868
0.4062971322
0.4060887656
0.4106764597
0.407941628
0.4022957223
0.3993875873
0.4083940792
0.4128894666
0.4192289527
0.4265184987
0.3185005068
0.4125389247
0.4117991139
0.4156778675
0.4191815026
0.4210986711
0.4208929973
0.4193377518
0.4193008319
0.4136443211
0.415294595
0.4117073882
0.4086918151
0.4120640215
0.4160088405
0.4139789839
0.4147876865
0.4145566562
0.4186672202
0.4353459511
0.3155077607
0.4042978083
0.4075541344
0.4050856057
0.3994290609
0.3972355864
0.4005308401
0.4042755695
0.4074264097
0.4097451233
0.4071820121
0.4118455471
0.4184621198
0.4171962794
0.4108451133
0.4127693393
0.4177957604
0.4166716985
0.4186216809
0.4144581246
0.3177675003
0.4071269527
0.4103715094
0.4137544525
0.4193209494
0.4186238927
0.4195502827
0.4164271673
0.4098928583
0.4086531792
0.4104142514
0.4100245827
0.4063891417
0.413188469
0.4170672264
0.412665161
0.4058155686
0.4101891365
0.4069201874
0.4139184957
0.31352298
0.4124894832
0.4137325561
0.417154242
0.4150265875
0.418716204
0.4138154161
0.4165131064
0.4170317891
0.4185225487
0.4175996753
0.4151736279
0.4146353351
0.4038831291
0.404702637
0.3973728712
0.4044610605
0.4061407719
0.4071474707
0.4150117495
0.320958188
0.4111528427
0.414535247
0.4112161092
0.4066771468
0.4104214032
0.412866812
0.4091568824
0.4066292568
0.4038976523
0.4040833808
0.4032740834
0.3991619661
0.3996322894
0.4030466258
0.410935877
0.4158555444
0.4077220568
0.4132531958
0.4139210028
0.3200765749
0.4066132484
0.4055764644
0.4074364508
0.4044981919
0.4038279154
0.402459532
0.4066178674
0.4075540481
0.414784178
0.4229393478
0.4236750127
0.4261042078
0.4308261791
0.4263991482
0.4168287964
0.4199983938
0.4233516772
0.4211688629
0.4231569287
0.3261103711
0.4154826783
0.4145093148
0.4102426694
0.4094024572
0.4135914211
0.4166462912
0.417951535
0.4198334886
0.4119409253
0.4127724759
0.4091808414
0.4149491711
0.4150686296
0.4144384298
0.4132669795
0.4157582332
0.4145694718
0.4128581584
0.4137703315
0.320797762
0.413155297
0.419199116
0.4187921033
0.4157372638
0.4164171324
0.411130976
0.4090103829
0.4103665941
0.4068855534
0.4081581804
0.4095596524
0.401254047
0.4024888839
0.3968881037
0.4015296362
0.4022441057
0.4025873671
0.4024300878
0.4048542421
0.3167600713
0.4117781467
0.4184839256
0.4141418991
0.4199976798
0.4188411155
0.4131880754
0.4149323189
0.4132112542
0.4092608644
0.4127125019
0.4143201896
0.424292493
0.4228343031
0.4304318595
0.4247753142
0.4238378744
0.4251938457
0.4202690242
0.4160049105
0.3205518546
0.4105699275
0.4082806222
0.4055315888
0.4055468779
0.4042043143
0.4050027091
0.4041286262
0.4121178119
0.4135612117
0.4169823723
0.4118681267
0.4119693272
0.4095052359
0.4098577186
0.415671216
0.4176204295
0.4176581964
0.4178299518
0.418014909
0.3186714999
0.4086165786
0.4088428408
0.4069643947
0.4082901867
0.4100479126
0.4145215936
0.4196154592
0.4154880473
0.4191976325
0.4138730354
0.4128913665
0.4065406236
0.410644877
0.4113487577
0.4136103253
0.4096819459
0.4096886942
0.4123956087
0.4131651895
1.795508049
2.315201921
2.465673009
2.681262834
2.782850648
2.897666466
2.963848712
2.916768935
2.8683662
2.982740089
1.140023586
1.580466111
1.85067419
2.072773141
2.298665377
2.448387303
2.631953196
2.7583346
2.804026144
2.842636877
0.8755171584
1.115983124
1.356152773
1.567557267
1.79943092
2.059749221
2.234245276
2.441606933
2.554808118
2.666902367
0.6903374909
0.8505358097
1.030079113
1.244191616
1.430042751
1.640812693
1.888121392
2.022359721
2.106471227
2.302560241
0.618168853
0.7340423409
0.8605755063
1.018808019
1.142754314
1.291665654
1.514090094
1.644613602
1.837354859
1.969436368
0.548376678
0.6338190142
0.7084477962
0.7985347974
0.9031072278
1.034209201
1.233822809
1.375339279
1.512735058
1.671337267
0.5109050469
0.5661377222
0.5873063263
0.6728231127
0.7538646367
0.8470919394
0.9412437188
1.071849182
1.229431676
1.389094892
0.4700810771
0.4983010627
0.5348144353
0.5975932804
0.6481360156
0.7016633214
0.8056726551
0.8894377503
0.9887737677
1.121620852
0.4628847651
0.4792162684
0.507032902
0.5358431517
0.5795532766
0.6364828437
0.6854508472
0.7628370598
0.8647040674
0.9535659786
0.4529414603
0.4582065751
0.476019162
0.4905426953
0.5076859292
0.5709509355
0.6312223916
0.6626616439
0.7049624829
0.7723908478
0.4421888262
0.4696067387
0.470474095
0.4910363336
0.5021191249
0.5260793559
0.5441833734
0.5814723166
0.6370932516
0.7042736267
0.4299781646
0.4473031018
0.4523185811
0.4459004511
0.4638332589
0.4761234682
0.5040158699
0.5339407716
0.5529648138
0.591703774
0.4210508529
0.4215737124
0.4313819144
0.438698516
0.4460734714
0.468397583
0.4902152214
0.50406076
0.5169071821
0.5408236338
0.4230570251
0.4251430781
0.4375839177
0.4474375918
0.4525290766
0.4529685425
0.4668038774
0.472854833
0.5038007485
0.5124967159
0.4157438793
0.4153569053
0.4160223483
0.4257880029
0.4310800852
0.447923188
0.4596018811
0.4705463918
0.479333039
0.4893568902
0.4269119135
0.4367749555
0.4262464662
0.4213486383
0.4280017707
0.4398704948
0.446726027
0.4555879007
0.464487588
0.4725891023
0.4180178072
0.4206356791
0.4236800278
0.4263628964
0.4137891834
0.4206002954
0.4251006484
0.4339169532
0.4439914902
0.4558690783
0.4189073417
0.4160617552
0.4153899895
0.4109900493
0.417709149
0.412590162
0.4208053924
0.4205870733
0.4287568643
0.4488804062
0.4051018057
0.4080013843
0.4124135969
0.4189498416
0.4203024742
0.4197944273
0.4199102284
0.4237345247
0.4242235584
0.4328305276
0.4150209767
0.4208291056
0.4183318382
0.4148022389
0.4137986156
0.4232475209
0.4310207575
0.4377763463
0.4365831568
0.4386480484
0.4187945684
0.4167630748
0.4241613276
0.4233582175
0.4239661946
0.4186049689
0.4226686812
0.4208204106
0.4298882047
0.4283929883
0.4165103868
0.4094076559
0.4122403113
0.4168038933
)
;

boundaryField
{
    flow
    {
        type            calculated;
        value           nonuniform List<scalar> 
42
(
0.3160311061
0.3196879173
0.3236315009
0.3251501773
0.3140460886
0.3140633027
0.3257464175
0.3259506858
0.3272560785
0.3236031895
0.3216225458
0.3185005068
0.3155077607
0.3177675003
0.31352298
0.320958188
0.3200765749
0.3261103711
0.320797762
0.3167600713
0.3205518546
0.3186714999
0.3160311061
0.4103245883
0.4142969813
0.4155430268
0.411316147
0.4152254601
0.4116088729
0.4145912795
0.4076017693
0.4030376064
0.4035958519
0.408157427
0.3990587845
0.4072505504
0.4117184959
0.4144281299
0.4176678934
0.4274036998
0.4880042683
0.7847637734
)
;
    }
    obstacle
    {
        type            calculated;
        value           nonuniform List<scalar> 10(9.697802439e-19 1.119332253e-18 1.194964919e-18 1.169972699e-18 1.258676889e-18 1.283024503e-18 1.181569261e-18 1.229685963e-18 1.260878109e-18 1.123407309e-18);
    }
    frontAndBack
    {
        type            empty;
    }
    procBoundary0to1
    {
        type            processor;
        value           nonuniform List<scalar> 
21
(
2.977895526
2.859865703
2.751030675
2.370895611
2.086214022
1.78447931
1.523740827
1.280245906
1.06740479
0.852164128
0.7612513055
0.6592365803
0.5707372343
0.5321026806
0.5033932584
0.4867159785
0.4594779764
0.4586362764
0.4472293439
0.4424459334
0.4281985097
)
;
    }
    procBoundary0to2
    {
        type            processor;
        value           nonuniform List<scalar> 
31
(
0.3235096106
0.4169347361
0.4250942427
0.41983961
0.4226336639
0.4201419394
0.4154536838
0.4095814967
0.4077292631
0.4018385261
0.4014179137
0.4110456664
0.4152852692
0.410898762
0.4128366245
0.4060665868
0.4042836616
0.403665781
0.3998653186
0.3998402827
0.4285889408
0.4318022737
0.4280001098
0.4251017216
0.4213192054
0.4235955339
0.4060762222
0.4090542701
0.4149317763
0.4285889408
0.4071779214
)
;
    }
}


// ************************************************************************* //
