/*--------------------------------*- C++ -*----------------------------------*\
| =========                 |                                                 |
| \\      /  F ield         | OpenFOAM: The Open Source CFD Toolbox           |
|  \\    /   O peration     | Version:  2406                                  |
|   \\  /    A nd           | Website:  www.openfoam.com                      |
|    \\/     M anipulation  |                                                 |
\*---------------------------------------------------------------------------*/
FoamFile
{
    version     2.0;
    format      ascii;
    arch        "LSB;label=32;scalar=64";
    class       volScalarField;
    location    "0.003";
    object      internalT;
}
// * * * * * * * * * * * * * * * * * * * * * * * * * * * * * * * * * * * * * //

dimensions      [1 2 -2 0 0 0 0];

internalField   nonuniform List<scalar> 
654
(
301.179135
303.1033608
303.7151939
304.3079002
300.8956765
301.4514488
299.8692122
300.5100537
297.7191654
296.5237669
297.7955255
301.3531325
298.4157255
301.2592167
304.477973
303.6406446
305.0075674
306.7070659
334.2168541
417.7935054
302.7557943
302.0508661
299.706023
297.8990774
301.6651465
306.0419313
303.8618957
303.9350031
303.0735558
305.9705195
304.4656624
302.3431042
302.8402582
302.0525704
302.406975
303.6051612
310.4483259
323.1601391
346.4496828
417.7184701
300.783914
301.2213371
302.56008
298.6277125
296.8759514
296.2767926
292.6932161
294.0893864
294.4290607
296.4198397
294.8572526
294.1856153
295.2928854
297.6756483
301.4299942
306.2545808
305.8144871
314.6760091
342.3423629
394.4385364
300.4023282
297.8979492
298.2673836
296.7171353
298.302534
295.0142273
298.1654459
299.7684301
300.5115347
296.4311229
296.5448458
298.4603498
298.230329
299.9371587
299.1674384
299.9468673
306.2840714
314.327868
334.0863545
368.1736409
294.1286661
298.3958188
294.9073577
297.0099487
297.3878318
298.600762
295.8405563
298.1635143
298.5528099
298.5322596
300.5163305
299.4232322
299.9550484
301.7163949
305.3222894
305.3728094
305.3823781
313.6601219
332.9596647
352.8366786
293.6176
293.8292169
294.3709186
296.3784249
293.4964794
293.7246215
294.5000096
292.4967862
291.6733077
296.6883464
297.8451612
297.8484898
298.6025004
298.843944
296.6501403
301.0221232
304.3141217
317.8538822
318.7072044
332.4697164
304.0496906
302.8624841
301.891477
298.675448
300.0543087
297.8801565
296.4476426
295.0064924
296.6743589
294.4824214
296.6570118
295.3830382
297.9198069
296.7762877
300.5679693
301.9855967
304.3177246
305.63126
304.2223812
316.4770614
303.9955685
304.2421025
302.3476727
303.26122
299.3449112
303.1913888
303.8703797
300.8367184
303.4641787
302.2064865
297.5974192
300.034901
299.8150857
301.4080977
300.8932519
300.4355601
305.5439849
308.5516016
319.4986574
314.1742396
306.2534081
307.6605873
308.5586295
305.3705984
304.690588
300.412154
300.4621392
300.8239225
302.2087033
303.9073904
303.4218918
303.4649105
303.5769854
302.382833
302.6730525
306.0414666
305.2218159
312.3584544
311.7574837
313.2896224
302.9436534
301.8659556
298.6472205
299.4345846
299.9807235
303.0991189
304.0260475
304.3673601
300.956964
301.3685
301.593654
302.698641
308.2906853
306.774794
304.4216259
303.0209787
305.7435424
307.2346356
310.4857138
315.3958741
299.5840111
299.7051332
301.1309529
299.4557512
301.2659939
299.9078042
299.1847254
297.9554013
297.601433
298.6047068
296.6831495
295.6205682
296.4982477
295.4848594
293.5968715
295.6103608
298.1100368
298.3437434
299.2353534
305.085528
295.8043371
298.297056
298.6729572
302.4112328
302.6805717
302.265711
301.4336612
301.4788076
302.2437511
301.0577661
302.9987112
303.8451389
303.2068546
303.3144342
303.1170533
298.6345874
298.0022193
299.5069248
303.0853951
310.8456094
294.8887446
294.3578844
294.5905831
293.0702396
291.4436083
291.3715246
293.6647037
297.4555411
298.4897045
297.2038846
294.4236003
296.7057684
297.9337957
297.723372
296.0872592
295.9204051
298.5800854
297.1457559
296.8319539
295.9718022
296.708404
295.1611741
295.9708449
298.8238816
302.8231819
301.5058068
302.5280768
300.2345667
297.9324687
298.3617971
300.8476798
299.0909624
298.3163559
301.4620828
302.0109408
302.2428314
299.0737655
299.0019325
299.7184557
300.9843421
296.6749985
299.3193381
299.4714865
300.5510648
297.9891653
300.3076209
295.3308917
298.6248879
297.4838922
299.4071409
300.9551272
299.0827632
297.6058352
291.8157744
292.2661995
290.4511612
292.5169678
294.098766
297.1169103
302.6018852
296.7133348
295.2078158
296.6767265
293.7973973
293.3063723
293.1292388
294.6337384
294.8909584
292.5437599
293.0847521
292.3857055
295.0953267
296.5373661
297.7135747
298.107133
300.6807448
305.2008935
300.8613484
300.6262874
302.3771804
297.6921206
297.8730464
296.0118763
294.5055184
294.2573486
292.8508235
294.6232706
295.2023828
295.7585549
298.6784667
301.8217923
302.0368755
301.3592514
302.9939655
303.3777055
297.0344394
299.109233
302.6958005
304.1366458
306.5057768
304.8803972
303.9863075
302.7433564
301.1662896
298.8461092
301.2294148
300.829137
300.3787002
302.2517958
298.050577
298.6522267
296.1768249
298.4882384
300.2302696
299.7120887
298.9063635
297.0222213
296.2338146
296.309875
294.3924591
296.8543846
297.855038
299.3164501
300.5686899
299.1789151
300.8719088
297.4439278
296.2178592
296.397604
295.4995396
296.341264
296.2249403
294.2569912
292.4082483
290.1374862
292.1997107
294.403591
296.0046427
293.7976943
296.8554361
297.7665302
298.0981941
299.0923751
296.8024334
300.1125825
298.2850569
295.2062879
296.0267463
295.3846807
292.9622218
295.1697248
298.1591395
300.9143118
301.0261292
303.8226474
302.8212778
301.8641929
301.6150763
298.2432839
294.8762718
298.987116
298.1753064
297.1332404
293.7595885
294.9996582
294.0435636
295.8829155
299.8640915
303.5039282
302.8991137
302.5164382
299.6395952
300.4255259
299.3190525
298.5517474
299.7102555
301.7831225
303.069969
303.5746772
304.7277174
300.511074
299.4457629
299.6115742
301.9682362
301.4511524
304.1264278
303.9439276
303.1407916
299.3919582
301.0875854
300.0311369
300.049233
296.2389042
299.8789158
300.2878354
300.9280533
299.0292011
299.0132064
297.5129503
299.3307957
542.6654717
603.0964194
622.8995233
643.850594
667.2521488
683.1648623
695.4441728
686.6342482
692.0561357
703.570885
501.2611286
578.4817088
613.1850844
643.1354394
665.39048
684.1875789
723.4381099
744.1400337
748.2474685
756.9142705
464.4618039
509.9434524
548.1971803
581.2380441
623.8320695
672.9578978
693.940279
720.8968305
737.2550817
749.0646222
401.0576458
443.7572821
492.406133
537.5604651
573.6340348
609.5276346
644.7248851
665.1418989
674.788164
705.0644469
384.8304493
419.2484754
453.5399964
486.2304262
516.4562235
547.7105739
592.4505265
615.1359187
644.6174363
654.0031769
356.318943
387.4011712
405.68546
437.139784
466.0109993
500.4671756
546.6806801
563.5208643
587.5720723
615.8387256
342.4373823
364.6863413
365.0173842
394.3563713
418.9532762
443.5441947
465.1497856
493.1642925
524.0510064
561.2485411
324.1020692
337.9845389
355.4229856
376.158171
393.4300948
407.7553582
440.6828817
462.2648649
480.6786486
507.6945781
327.1466765
328.0787877
337.9018606
350.0787846
366.9549319
389.4180053
410.5833759
429.3819876
455.3435302
473.229394
319.034696
321.3666032
329.5269213
336.1857019
341.8960397
363.4765454
382.9321801
391.3784659
405.3937667
425.643167
312.4772055
329.1833015
323.0493114
330.6271063
332.4131968
346.6471724
353.5122977
361.7972562
381.5465652
402.8026641
307.1050551
315.4120241
317.2972811
313.0494181
321.6172176
321.6887888
332.8626552
344.2988068
350.1538473
365.5246599
300.5430259
299.1899266
303.7324905
308.8449696
312.6906216
324.168992
333.5817443
337.3829971
340.712486
343.7571658
305.945333
305.8436218
312.8250523
317.1019632
318.3414048
318.875779
326.5437637
327.5478185
339.8926822
340.619504
303.6562232
303.3049358
302.193543
305.4579255
307.9009328
312.3891276
317.7159781
321.6273773
326.4330036
331.9330612
304.9569387
309.9569092
304.5925818
302.5289165
305.8967016
314.9548258
315.4647427
320.7494881
323.8406395
326.3679432
304.2482723
303.8288921
307.2988294
307.5604838
301.036987
304.6767977
304.4854066
308.3433644
315.6871328
317.6995336
300.1051193
300.9883576
300.584334
297.673146
298.8573294
297.159291
303.6998642
302.7835875
306.1841151
314.4010663
295.3231042
293.593885
296.8384835
300.6158041
302.0163119
300.3230214
299.4124849
303.1095586
304.3844437
308.0691875
299.4048571
301.3543642
300.5707271
299.7945296
298.8080024
305.1414578
308.128078
310.4618251
310.644401
311.9822464
303.9199323
302.3218416
306.9314482
305.7612617
305.2998142
303.2095369
307.5829455
304.9699128
307.2822968
307.1965721
300.3126243
297.5715874
300.8958016
302.8966128
)
;

boundaryField
{
    flow
    {
        type            calculated;
        value           nonuniform List<scalar> 
42
(
301.179135
302.7557943
300.783914
300.4023282
294.1286661
293.6176
304.0496906
303.9955685
306.2534081
302.9436534
299.5840111
295.8043371
294.8887446
296.708404
296.6749985
296.7133348
297.6921206
304.8803972
296.8543846
297.7665302
298.987116
300.511074
301.179135
303.1033608
303.7151939
304.3079002
300.8956765
301.4514488
299.8692122
300.5100537
297.7191654
296.5237669
297.7955255
301.3531325
298.4157255
301.2592167
304.477973
303.6406446
305.0075674
306.7070659
334.2168541
417.7935054
)
;
    }
    obstacle
    {
        type            calculated;
        value           nonuniform List<scalar> 10(507.8582755 558.2260762 585.7569405 598.82949 605.1231541 618.2275509 612.6727299 629.5343052 639.7833896 599.5215767);
    }
    frontAndBack
    {
        type            empty;
    }
    procBoundary0to1
    {
        type            processor;
        value           nonuniform List<scalar> 
21
(
699.0577753
753.1449343
774.6538854
721.15944
672.8556493
629.0582255
589.1640121
540.7347741
500.1986541
446.3948487
420.0821975
387.7334549
358.8220732
347.3150879
333.2014307
335.5067086
318.9325309
316.7818596
316.8566621
311.5760204
309.0246407
)
;
    }
    procBoundary0to2
    {
        type            processor;
        value           nonuniform List<scalar> 
31
(
304.2484276
305.5630076
305.4910666
303.9763089
304.5830147
302.9337686
301.6801192
300.1107199
299.7641243
296.4359751
295.7283739
297.4647228
299.9710088
298.4764557
299.0304582
296.8680437
294.4092238
296.004813
296.2161463
297.549811
307.1848472
307.9699456
307.2243652
304.8365383
301.0039623
301.3862082
297.5776972
298.1122168
298.0651301
307.1848472
295.6481047
)
;
    }
}


// ************************************************************************* //
