/*--------------------------------*- C++ -*----------------------------------*\
| =========                 |                                                 |
| \\      /  F ield         | OpenFOAM: The Open Source CFD Toolbox           |
|  \\    /   O peration     | Version:  2406                                  |
|   \\  /    A nd           | Website:  www.openfoam.com                      |
|    \\/     M anipulation  |                                                 |
\*---------------------------------------------------------------------------*/
FoamFile
{
    version     2.0;
    format      ascii;
    arch        "LSB;label=32;scalar=64";
    class       volScalarField;
    location    "0.003";
    object      internalE;
}
// * * * * * * * * * * * * * * * * * * * * * * * * * * * * * * * * * * * * * //

dimensions      [1 -1 -2 0 0 0 0];

internalField   nonuniform List<scalar> 
654
(
0.238808757
0.08287497037
0.3715244888
0.1329206874
0.4035814119
0.2868244805
0.4291999011
0.5506244777
0.3687129492
0.5340549539
0.2962593236
0.5239628874
0.3404984085
0.400118275
0.3542885712
0.2323063319
0.3687362865
0.2942949875
0.7707162978
0.9017049113
0.1435893109
0.6876423403
0.2508998736
0.5632240861
0.5376328966
0.717928191
0.6036186439
0.5387515892
0.2590299384
0.6460544216
0.6138463163
0.4768581845
0.4349323618
0.1467983412
0.5573640523
0.7810654588
0.3738701642
0.6323399179
0.7225354879
0.489035604
0.1937350409
0.4833297259
0.2825261976
0.6841429677
0.1411278867
0.4686263536
0.280449377
0.5729776392
0.3075870053
0.5129052806
0.6224813395
0.4548514997
0.02475772224
0.5626996689
0.5796023634
0.4135431834
0.1430988449
0.4730913386
0.154161696
0.5378457252
0.2675045341
0.1328672931
0.6617011529
0.2566986136
0.4659082073
0.1906736131
0.5207263732
0.3564832709
0.3153679524
0.2520522065
0.2506267152
0.5809900448
0.6511638153
0.458660083
0.373741166
0.06522612246
0.07788394136
0.1655522357
0.2623639058
0.9198005845
0.3300049849
0.3176814353
0.3765793911
0.4084227472
0.6123130246
0.593832499
0.4086202336
0.412159562
0.2669246647
0.3421268216
0.4079826096
0.5297484298
0.5905782469
0.5035696663
0.8086844685
0.363495695
0.2094375485
0.4240743719
0.1799929396
0.7251347156
0.3350519817
0.6937045104
0.3506440559
0.3118078956
0.6967559554
0.3404697789
0.1367250961
0.6820525091
0.4716965273
0.2372777174
0.6478785872
0.1811292031
0.6815562157
0.4534809723
0.2839044403
0.2582158814
0.2678988535
0.3533129434
0.157930428
0.2408869946
0.2780153016
0.4014014838
0.6674862249
0.4302316514
0.5389728571
0.3225935595
0.4389174879
0.2006459711
0.4657560688
0.2563737384
0.7653170263
0.3597405779
0.3422105804
0.7728050445
0.6175510796
0.8590410734
1.004886906
0.1482821485
0.1244531073
0.6541389171
0.2541120699
0.9364693745
0.2982989143
0.400326413
0.4423263757
0.5462934503
0.461385997
0.4355523167
0.7064575915
0.2884614177
0.07266789488
0.2190594811
0.1757798166
0.4597319591
0.9287665732
0.4040747249
0.7890983107
0.3725559303
0.5138281791
0.2476731144
0.2795854166
0.3048774301
0.4527159035
0.8744185363
0.7260019039
0.5089312337
0.6544724615
0.4312964791
0.5065340865
0.8166222839
0.1820327102
0.1421318572
0.3774842822
0.2426251005
0.2652511259
0.3364178811
0.3634266368
0.4129247433
0.2947205601
0.1973725874
0.3084523414
0.324583023
0.24240721
0.3031062608
0.8710564806
0.2382648753
0.3102254387
0.4015415284
0.3009924445
0.4793909942
0.4910798042
0.3803348999
0.3285577109
0.6483601563
0.3005133386
0.586255483
0.3698584782
0.4968649627
0.3238526215
0.2207961933
0.4442858341
0.5302296264
0.748606078
0.4284229736
0.2790912085
0.1886706642
0.4892956469
0.5755286449
0.2945228664
0.7340805084
0.2695099706
0.1336189636
0.2181653774
0.1500231483
0.5224697348
0.4422242299
0.1308560857
0.6296002161
0.6721806165
0.1933208577
0.4483477717
0.3364312559
0.3735197934
0.1835423259
0.1663591019
0.489365304
0.4555721863
0.1142648341
0.2487167933
0.4089882163
0.3101421896
0.2622269476
0.287930264
0.6608216071
0.8221679842
0.3760780098
0.471309046
0.405071356
0.347537561
0.3307348624
0.08788847865
0.4627412632
0.3740589663
0.1970082543
0.1935447819
0.4255292035
0.3248974422
0.2572195599
0.8571234925
0.4457368309
0.4586158603
0.327578034
0.4655703656
0.5266691917
0.536760941
0.363551826
0.2381708325
0.4482677787
0.8798861077
0.3082364472
0.5580240848
0.3160538038
0.3191734938
0.2401193061
0.5597188553
0.6946289456
0.4928543484
0.7611085703
0.3568141583
0.6328215987
0.2128546896
0.3719701714
0.2249412155
0.06902854259
0.3069837688
1.226379195
0.4740966661
0.5850942825
0.6700926428
0.3388930283
0.3130595674
0.3964727529
0.3380734997
0.175145431
0.3612987432
0.4298680677
0.3957976511
0.5390915936
0.1488560852
0.5757228482
0.1114270819
0.4057276188
0.3868638051
0.4745973123
0.2305139884
0.4588292183
0.3561754832
0.2678904214
0.7299665867
0.4094472557
0.1384154507
0.6476349236
0.2472033836
0.5679532653
0.516590622
0.1295182486
0.6168829402
0.299361934
0.3223358591
0.1657337786
0.2528947539
0.5378700915
0.326003439
0.2080935978
0.5024298105
0.1804414275
0.4391447669
0.4810033622
0.3192980686
0.3638875895
0.3025787247
0.2518393098
0.3158812755
0.4251507981
0.08612198645
0.425095685
0.1041325745
0.4685651209
0.5458840369
0.4870225477
0.3000195982
0.4682122633
0.4072652651
0.8141293666
0.5214790393
0.1512426612
0.4419789618
0.6925271162
0.2265166081
0.5040605168
0.7766337259
0.3824556696
0.4765576927
0.3592123373
0.3672412657
0.2104019909
0.5799594365
0.1919540043
0.4955344062
0.6009898262
0.7956861297
0.644621068
0.7309861752
0.5657299535
0.5689028289
0.3600806708
0.2998850333
0.6735393137
1.006014593
0.4637194961
0.2269487732
0.4023802863
0.6300051144
0.1157142904
0.3827776489
0.6194970738
0.4229767361
0.1213665299
0.5133631002
0.4475486577
0.4714605073
0.2437670283
0.2502186733
0.2197898807
0.4817458882
0.2289421862
0.3466328649
0.2620742565
0.5400199021
0.3593926556
0.1148655529
0.5069333973
0.5973699714
0.2865447175
0.6048610877
0.3890997249
0.1703773822
0.4294784092
0.4098032709
0.4448200621
0.2424797966
0.3397105749
0.2167455409
0.2577451122
0.6231303434
0.4763655575
0.3228892019
0.07998771977
0.4460404788
0.7120680373
0.2354179344
0.2495980983
0.3831650986
0.2117099395
0.2713567387
0.4388508423
0.3342900261
0.3237636884
0.3686224163
0.9268567586
0.1164402949
0.5668106685
0.2351746733
0.8441706846
0.3689736131
0.2554294821
0.4526430311
0.1708188115
0.4318350725
0.8775530156
0.4763849067
0.567063892
0.2680886093
0.4533359426
0.7569398882
0.4534845527
0.3821439332
0.214808337
0.2696016857
0.5849749826
0.07604097785
0.526674901
0.2980900339
0.3029403182
0.2102106036
0.6863133661
0.3941594069
0.3950693937
0.5015708321
0.4740607897
1.641454252
1.981884046
2.298804244
2.176340423
2.270526736
3.60531687
3.068608963
3.327206637
2.837125082
1.808495166
0.5882136045
1.11926574
3.032145116
1.926355307
1.652821982
2.227683851
1.950309794
2.065026385
2.481833918
2.639627786
1.213482308
0.6588007998
1.386671709
0.6199946497
2.566299096
1.872156531
2.389046502
2.444437697
1.705937987
3.806684506
0.8297574723
0.3295459673
1.195676591
0.9110799855
0.7208669651
1.544723983
2.762931882
2.312493494
2.356931674
1.007789569
0.5123737358
0.5874348934
1.619821435
0.5572139854
1.451365042
3.351182308
2.052242607
2.782901218
1.824407747
3.312962494
0.3065736817
0.4504098088
0.7901106178
0.8102291438
1.284004294
0.5954973406
1.397631606
0.6262578102
1.759772003
1.336539985
0.1133657507
0.804625707
0.2538352046
0.7487053858
0.4895546201
1.129218717
1.333937388
1.095750845
0.4455370992
0.7486305137
0.8177704667
0.5203814275
0.2597145282
0.5239250053
0.5578020392
0.6386709128
0.880659163
1.703928316
0.3457324318
0.9330284237
0.3418849679
0.5441276129
0.3697244475
0.5250802296
0.5684263559
0.2597667961
1.255260373
0.3174437934
0.2817289202
1.811497347
0.4069798135
0.286958671
0.5802244888
0.2253602767
0.6967898417
0.6425448569
0.2983446458
0.6598176114
1.427691491
0.3380316037
0.3949103721
0.04877002736
0.6521068343
0.5867069171
0.7671207168
0.4973852591
0.3984296938
1.226684644
0.4839270798
0.9836652731
0.3866489949
0.5194278765
0.36050237
0.3048613625
0.6260572027
0.2501035966
0.140703355
0.2092259518
0.5937386174
0.3127391831
0.5132356827
0.3913024625
0.6194118112
0.3842851338
0.2302430377
0.319434574
0.3364109348
0.3795671048
0.2704643248
0.4526227003
0.6983042583
0.4084021709
0.3287012378
0.3333818409
0.6446670012
0.7589175188
0.9034843558
0.3650664141
0.6238236298
0.4159566331
0.5473209085
0.634798137
0.1869456507
0.6738400968
0.6185045877
0.1579220958
0.3254512586
0.7089058329
0.3190029646
1.071806866
0.4952061776
1.541284309
0.4702464552
0.242522183
0.5370783061
0.3333042226
0.06570892764
0.5671914309
0.9126556334
0.7536225149
0.2049385658
0.464916177
0.2260874793
0.1243495622
0.3257683749
0.3218239929
0.4862466909
0.5297087283
0.4938225144
0.2238114861
0.4761003617
0.2717244866
0.4458007323
0.06284283218
0.4922481352
0.3766530689
0.3706057459
0.4515610508
0.3040562712
0.2869408135
0.6730640359
0.2503350935
0.2782576077
0.1306658555
0.3708864245
0.2041942607
0.5594544854
0.56683642
0.3191348094
0.3065700483
0.3064543333
0.4296656184
0.5366465913
0.3416302676
0.3599735953
0.1425156505
0.5175062885
0.4699607867
0.4816102331
0.2903837464
0.3589936363
0.7645724851
0.6884213297
0.4348628756
0.4201150234
0.4271027551
0.8100140779
0.9746637991
0.550547866
0.2750357111
0.3131186653
0.5078684139
0.4478105289
0.3966062535
)
;

boundaryField
{
    flow
    {
        type            zeroGradient;
    }
    obstacle
    {
        type            calculated;
        value           nonuniform List<scalar> 10(0 3.68819154e-19 2.253308476e-19 7.49402069e-19 8.361938362e-19 1.180391717e-18 6.507725679e-19 1.941878764e-18 3.4132991e-18 0);
    }
    frontAndBack
    {
        type            empty;
    }
    procBoundary0to1
    {
        type            processor;
        value           nonuniform List<scalar> 
21
(
3.692990669
2.389658566
3.952465497
4.015741856
1.98840144
0.5411466471
2.07476871
2.060432942
0.850562084
0.7310198033
0.5827188971
0.478828212
1.103248195
0.7231373731
0.9201937143
0.5534321006
1.046386304
0.2768794061
0.1113704284
0.4535019591
0.6190865339
)
;
    }
    procBoundary0to2
    {
        type            processor;
        value           nonuniform List<scalar> 
31
(
0.3837977454
0.5566087008
0.5232041006
0.288288591
0.2816671862
0.5367869397
0.4675287055
0.6579233601
0.5423487186
0.3387562642
0.3852181102
0.6464455797
0.5617611044
0.9652243386
0.5561297276
0.3947675573
0.454229824
0.4509666954
0.2818975917
0.2755385565
0.5924415598
0.4460585253
0.6403849263
0.3641408078
0.3832186142
0.4011758437
0.5128007091
0.1162138335
0.3538412236
0.5924415598
0.2487452767
)
;
    }
}


// ************************************************************************* //
