/*--------------------------------*- C++ -*----------------------------------*\
| =========                 |                                                 |
| \\      /  F ield         | OpenFOAM: The Open Source CFD Toolbox           |
|  \\    /   O peration     | Version:  2406                                  |
|   \\  /    A nd           | Website:  www.openfoam.com                      |
|    \\/     M anipulation  |                                                 |
\*---------------------------------------------------------------------------*/
FoamFile
{
    version     2.0;
    format      ascii;
    arch        "LSB;label=32;scalar=64";
    class       volScalarField;
    location    "0.003";
    object      linearKEMean;
}
// * * * * * * * * * * * * * * * * * * * * * * * * * * * * * * * * * * * * * //

dimensions      [1 -1 -2 0 0 0 0];

internalField   nonuniform List<scalar> 
654
(
5.76562496
7.762334416
7.741234705
7.768207844
7.757439059
7.832338555
7.792038094
7.837195447
7.742781469
7.690487636
7.663819226
7.643937344
7.558821858
7.655007692
7.647912253
7.69320646
7.666433213
7.685282589
7.76703889
8.279369805
5.831171885
7.895909647
7.891755359
7.843298165
7.844151154
7.880668077
7.878136708
7.842901322
7.875809882
7.934751204
7.906848463
7.926274562
7.989014826
7.96490337
7.917248609
7.919311525
7.990051685
8.072961005
8.240820067
8.456568725
5.917123968
7.977190435
7.933811489
7.923295916
7.904683946
7.900716637
7.930056112
7.908369015
7.864982368
7.849058817
7.847933547
7.820358284
7.790396598
7.800748662
7.897665219
7.912267097
7.807039769
7.932044258
7.898737108
8.20308628
5.962265053
7.901165889
7.807974884
7.754666092
7.71246169
7.702952245
7.762553831
7.732901055
7.71587047
7.75191929
7.778830143
7.814857257
7.903476789
7.784673428
7.790078252
7.728123946
7.761526427
7.876974701
8.009083521
8.193991205
5.874906473
7.901988604
7.841208324
7.875260075
7.9049606
7.87021712
7.828121678
7.77047738
7.768806479
7.768126233
7.73319603
7.729665089
7.778828678
7.814595707
7.839839412
7.955661616
8.014755795
8.05177952
8.08147614
8.129836405
5.898631309
7.888594482
7.843326863
7.759462332
7.752717151
7.782470764
7.758786347
7.837711365
7.944131713
7.970862521
7.977978845
7.926137576
7.836896892
7.844910882
7.858014555
7.792785079
7.827362065
7.887478418
7.946170986
8.097456183
5.90142395
7.927163791
7.898549874
7.876842424
7.955349335
7.978937371
7.989017421
7.862473581
7.899274966
7.827867878
7.822290327
7.862626853
7.947926141
7.907774924
7.902573248
7.86751398
7.94264376
7.887812452
7.976844357
8.043956889
5.901574721
7.893250979
7.848205021
7.905239514
7.848401549
7.860552751
7.978652624
8.027411434
8.037589898
8.008591584
7.892736776
7.812325832
7.807989296
7.835686299
7.925328367
7.978380278
7.966338785
7.927317709
7.938506578
7.973011115
5.86023428
7.98487602
7.948385751
7.895798576
7.900219069
7.846973095
7.869460672
7.86012233
7.829301429
7.870258688
8.032957506
8.045315144
7.97408974
7.946581771
7.813787518
7.788630086
7.821950846
7.911422426
7.864082752
7.873596935
5.900548378
7.81965651
7.834599276
7.873109533
7.89417171
7.922098359
7.892286771
7.848821254
7.845294181
7.873255381
7.833674647
7.833513718
7.892495554
7.929303247
7.966923573
8.055959233
7.996330224
7.865637928
7.894993993
7.941213878
5.844849101
7.815488529
7.794294393
7.712773153
7.725768422
7.661295314
7.600806997
7.704240298
7.740146237
7.736235112
7.771983892
7.781224589
7.83478114
7.802892973
7.772286293
7.654495903
7.758167648
7.85681974
7.917557864
7.894323048
5.952718777
7.967477304
7.834295292
7.778131532
7.848766771
7.890127558
7.888182588
7.8551714
7.828645102
7.765463344
7.756908244
7.666250954
7.630846103
7.697255183
7.757338194
7.82100511
7.864513328
7.799504023
7.763197298
7.869192237
5.86341707
7.859751708
7.841413663
7.841402649
7.768729874
7.730723345
7.744428247
7.716107969
7.746745816
7.843199204
7.89318919
7.910881241
7.996061659
7.969989426
7.89914396
7.93407121
7.961504695
7.995556523
8.041096087
7.960007132
5.879943301
7.924731108
7.904873676
7.895819646
7.900825638
7.910122519
7.906083573
7.931863394
7.866244568
7.805645845
7.757710941
7.790471093
7.742246977
7.786454343
7.851004794
7.743936965
7.691445569
7.755697804
7.686024887
7.768131333
5.838033774
7.928382077
7.852774742
7.885162372
7.913721654
7.925301993
7.941308958
7.901458515
7.944546942
7.921804228
7.879142097
7.908537097
7.942318196
7.884365369
7.88420738
7.805218385
7.864522017
7.842500843
7.782651413
7.779931562
5.949304826
8.002988734
7.93957079
7.94454407
7.864181787
7.940808488
7.966621934
7.894587537
7.89074939
7.823527599
7.85988114
7.774609998
7.679219646
7.653404081
7.692201473
7.786153942
7.778508808
7.749963437
7.844941024
7.810316122
5.917740505
7.84708752
7.784197687
7.850107409
7.788590081
7.808506529
7.732452282
7.816593068
7.806625676
7.881170623
7.937782124
7.986317155
8.021623517
8.085067294
7.984076198
7.935040911
7.924846832
7.927109074
7.840731548
7.815619103
5.915116149
7.8650205
7.795790219
7.743373651
7.79374534
7.818651127
7.873953015
7.918748242
7.919798179
7.839372874
7.826528354
7.82875918
7.834331924
7.819140643
7.856434693
7.860500907
7.989044122
7.965426949
7.918495824
7.982665376
5.9166791
7.910579804
7.937170693
7.903442321
7.892972799
7.850610829
7.832780196
7.830764437
7.861986006
7.842316785
7.819829653
7.838851333
7.746416645
7.807251473
7.754455727
7.780104489
7.738363323
7.706812442
7.758353713
7.736044992
5.882764591
7.968374375
7.972042562
7.932798476
7.951911257
7.967388267
7.956004931
7.951199127
7.940759702
7.911502825
7.927808129
7.912223222
8.030594035
7.998101762
8.051299674
7.995343011
7.984390174
8.041732191
7.982888788
7.99911118
5.891294484
7.898493312
7.787851856
7.833374055
7.808091279
7.808412552
7.798481523
7.679539442
7.769939605
7.822168532
7.88203229
7.8436985
7.79389848
7.766334872
7.797509765
7.882737599
7.866655183
7.827045875
7.820206972
7.79265029
5.8683457
7.899297651
7.811417319
7.748904821
7.758799048
7.717884724
7.762487825
7.888999165
7.867919961
7.872689001
7.810670872
7.774753082
7.777364585
7.780468295
7.779301575
7.79899276
7.758459346
7.764632429
7.865900009
7.840435505
9.648359721
9.766394391
9.517919148
9.159187757
8.713171097
8.478643288
8.170960785
7.768117692
7.432981903
7.288891479
9.088650773
9.784283581
10.19447187
10.41325715
10.48233197
10.33888064
9.996446517
9.706072883
9.487999307
9.146121254
8.643563305
9.240703755
9.902459024
10.3566099
10.5661571
10.96016757
10.99833032
11.01748415
10.83684568
10.50189632
8.473637787
8.870765742
9.195981475
9.773350706
10.15165103
10.66317549
11.2292645
11.37928158
11.51698097
11.54822194
8.282347809
8.644787536
9.07593426
9.65677032
10.03222884
10.41565265
10.86561296
11.15186288
11.54937116
11.80842926
8.252783854
8.501421796
8.889197123
9.038749817
9.340989407
9.675796396
10.25056654
10.76269487
11.14259734
11.53848634
8.127628102
8.326761332
8.488737402
8.810443616
9.0580969
9.501049678
9.80491505
10.24400376
10.82717814
11.16376006
8.067443838
8.059562971
8.172334302
8.415576409
8.668457483
8.912275077
9.269685266
9.542213497
9.865142681
10.42795384
7.854636295
8.092003466
8.20235169
8.255350455
8.438931831
8.636309812
8.721400246
9.131185379
9.624543132
9.950849267
7.983723932
7.973564661
8.047043263
8.07613782
8.175184287
8.488772198
8.81041746
8.978616515
9.143944691
9.456963578
7.981521184
7.968447385
8.135056823
8.240597906
8.36267063
8.310826543
8.383207499
8.569078371
8.833692108
9.138743094
7.887810036
7.963132168
8.002504864
7.922809111
8.015081618
8.192503243
8.297156415
8.381171965
8.446366574
8.6689538
7.922744055
7.914446594
7.946700797
7.958449884
7.927963176
7.985605426
8.10671757
8.275825536
8.343647847
8.581657087
7.811705315
7.83251392
7.843951441
7.918650219
7.984283436
7.9841752
8.020718371
8.112874712
8.246818956
8.350544387
7.770274018
7.744995562
7.84431959
7.913171467
7.959158141
8.157210082
8.175272387
8.206945294
8.234721161
8.231613874
7.999038292
8.048741833
7.989244332
7.933705451
7.944735163
7.86995176
7.945878538
7.941711405
7.944060611
7.988379812
7.761602108
7.807376071
7.768942577
7.790449744
7.753098862
7.809825511
7.830410069
7.91233776
7.897124758
8.084187267
7.911052365
7.827290793
7.841352534
7.82644797
7.906355893
7.856916859
7.853653132
7.904873568
7.938280365
8.045376761
7.763704448
7.880299399
7.877024581
7.892840431
7.940801516
7.97255057
7.988602756
7.936146862
7.8706142
7.938731363
7.889582397
7.964122263
7.942004926
7.895278449
7.878431146
7.8779728
7.922191569
7.981640743
7.954429811
7.952491807
7.834108632
7.819928342
7.841061138
7.859594945
7.887530585
7.82615773
7.787356565
7.804409424
7.92147479
7.890830882
7.896580758
7.814024259
7.757449147
7.79754163
)
;

boundaryField
{
    flow
    {
        type            calculated;
        value           nonuniform List<scalar> 
42
(
5.76562496
5.831171885
5.917123968
5.962265053
5.874906473
5.898631309
5.90142395
5.901574721
5.86023428
5.900548378
5.844849101
5.952718777
5.86341707
5.879943301
5.838033774
5.949304826
5.917740505
5.915116149
5.9166791
5.882764591
5.891294484
5.8683457
5.76562496
7.762334416
7.741234705
7.768207844
7.757439059
7.832338555
7.792038094
7.837195447
7.742781469
7.690487636
7.663819226
7.643937344
7.558821858
7.655007692
7.647912253
7.69320646
7.666433213
7.685282589
7.76703889
8.279369805
)
;
    }
    obstacle
    {
        type            calculated;
        value           nonuniform List<scalar> 10(4.125139522e-18 3.717677753e-18 3.402729169e-18 3.059164987e-18 3.013596239e-18 2.818757423e-18 2.760140381e-18 2.633734562e-18 2.568707249e-18 2.518454883e-18);
    }
    frontAndBack
    {
        type            empty;
    }
    procBoundary0to1
    {
        type            processor;
        value           nonuniform List<scalar> 
21
(
7.083362571
8.854637473
10.20423916
11.38884248
11.99144581
11.77106282
11.46521257
10.99056043
10.48039653
9.675988095
9.371104289
8.9660272
8.654742891
8.409722518
8.393624953
8.036140262
8.088450347
8.158471604
7.900056322
8.022970936
7.824700533
)
;
    }
    procBoundary0to2
    {
        type            processor;
        value           nonuniform List<scalar> 
31
(
5.861672663
7.84807375
7.901868435
7.819496606
7.862617748
7.871286166
7.804469103
7.754225231
7.744646081
7.728418983
7.742057793
7.896208745
7.92292725
7.850117638
7.862995781
7.785780041
7.817381634
7.77939652
7.721457503
7.667698123
7.924259635
7.946130305
7.886831848
7.889196567
7.910818518
7.951332267
7.757834685
7.825041905
7.927218767
7.924259635
7.815427971
)
;
    }
}


// ************************************************************************* //
