/*--------------------------------*- C++ -*----------------------------------*\
| =========                 |                                                 |
| \\      /  F ield         | OpenFOAM: The Open Source CFD Toolbox           |
|  \\    /   O peration     | Version:  2406                                  |
|   \\  /    A nd           | Website:  www.openfoam.com                      |
|    \\/     M anipulation  |                                                 |
\*---------------------------------------------------------------------------*/
FoamFile
{
    version     2.0;
    format      ascii;
    arch        "LSB;label=32;scalar=64";
    class       volScalarField;
    location    "0.003";
    object      linearKE;
}
// * * * * * * * * * * * * * * * * * * * * * * * * * * * * * * * * * * * * * //

dimensions      [1 -1 -2 0 0 0 0];

internalField   nonuniform List<scalar> 
654
(
7.779936622
4.844975452
7.606301125
5.313336296
14.29255677
7.047731416
8.626812971
9.140834565
6.77290477
8.405564551
9.281242465
7.996484152
6.488602078
9.756381953
8.025279437
6.148765667
7.708379884
8.261697585
13.74621145
4.389877509
3.708666437
9.999232296
7.542709084
9.058307972
7.376858925
9.98156879
10.79091105
10.59082393
3.920769842
8.053649052
10.46669712
8.268536366
6.822033655
4.199778799
5.986015945
10.07559945
6.284705929
9.397615898
4.416321029
7.859004235
3.529999127
10.1482489
6.530656317
11.861111
3.904788792
10.12725019
7.93749736
8.295777379
6.814002061
6.613439178
11.18524515
6.963904922
1.608874457
5.1265574
7.537323609
7.242361282
7.112250139
5.039247682
5.786951481
10.81291775
5.827998935
2.911513459
9.252452909
10.15829747
7.135372472
5.913410334
10.95837937
5.977888081
7.909014429
7.396756556
6.154610953
9.165986777
9.224710651
6.962602247
9.222065847
3.116650605
3.908866973
4.494454479
7.348579747
13.96848446
8.298305209
8.917895087
6.807589045
4.979081458
11.70700706
10.34446513
8.70590756
8.564634131
9.188487885
6.673097059
12.69169654
15.64423405
6.97174606
7.535188302
8.928745048
5.651892749
6.058667812
10.7522513
8.571864446
7.578969409
7.079966949
7.121940925
7.969189336
7.349529063
12.89601001
7.117740354
5.052087878
8.396932677
10.30855965
6.097720865
11.06146385
3.927294398
10.45926185
7.748223974
8.69405503
5.071507548
6.221589315
6.923995103
3.135571401
6.485310709
3.24999324
6.587675468
11.37040152
5.436131095
5.567993833
4.80141375
9.010944456
4.10107631
6.757771397
5.450527728
9.178081912
6.037824858
5.542211638
9.239428132
14.30552394
8.874897548
14.63552001
3.396959254
4.854247029
7.335312705
5.981881721
11.97162391
6.300620662
9.166026443
9.799693012
11.48028443
6.083101238
3.847782192
6.711774907
4.421087331
5.199148628
5.776574981
4.579178088
7.699970582
13.70129064
9.555694425
10.93253301
6.015866431
6.881748906
3.737925732
5.671092929
8.134978355
8.008698938
6.638939319
7.101346826
10.15760709
10.28857716
8.885996551
6.64304908
9.335762282
5.184728319
5.23846278
4.194455892
3.64037375
6.467714848
8.458491524
5.135713315
9.56923792
8.890140875
6.159804021
5.097106172
5.313745529
6.487355848
8.071994485
7.974477152
6.586526783
8.779965266
10.02061432
7.160686953
10.90787492
10.702532
5.839059787
8.353423428
10.16700254
6.998021436
8.619004024
9.236705085
9.39646165
6.792571627
6.012552555
5.385244311
6.183267557
13.87878333
6.790015249
5.66363076
3.412714305
11.46754249
10.59679889
6.133103918
10.40605822
4.391676574
7.04207713
8.139651049
8.946327313
7.176370938
7.23889939
1.773247965
11.78701962
13.42316914
5.640001426
6.861840507
7.148359423
6.959544693
5.503631041
5.398687032
9.097575446
9.044313753
3.201767508
6.312300093
6.355434124
8.58448058
3.066056594
5.520663236
12.38879901
11.1239681
8.306858051
11.71854059
5.313182408
5.937092803
6.94426252
3.809062946
13.12095296
8.220502986
5.16338378
5.378843487
6.072809279
8.79256268
4.25397906
11.83129339
9.627109176
9.482569446
9.675454661
8.221859859
10.08472853
9.935099231
11.87951094
6.530248436
6.097038657
14.59300191
9.492197438
4.973686598
6.108948239
6.133425437
6.662257864
11.53997805
6.250056325
8.149449896
13.43213604
8.431346105
11.16076865
4.074184582
6.446601409
3.46886745
4.550290714
8.674529603
9.572046115
7.399397444
8.900174957
4.89329078
7.968208615
5.142322853
8.431663329
5.547046188
10.13247578
6.533211326
7.090296831
9.683615559
9.531288718
3.840107171
8.532066119
5.17380518
6.5679943
9.737200874
10.80371447
5.442935472
11.20966678
6.41088479
6.087520564
10.43105919
5.703185827
3.484790672
11.47207083
6.468528394
8.214943055
6.801828372
3.651124995
10.68326665
6.832768531
6.121011276
4.026764798
6.027374418
8.679035151
6.960137395
6.781988469
8.517460816
6.55688064
10.93213265
7.247528866
5.607679424
6.568986596
5.696939234
6.121523952
4.654041431
9.106149126
2.703553156
8.539232768
3.405347049
9.180434098
8.661885413
8.565019566
7.235958288
7.210810456
9.032687072
10.54958802
5.470239581
5.89628066
7.337213228
6.654913469
5.170668519
6.863764223
8.485268564
6.616016099
11.16083134
9.454936494
9.845779362
8.641323258
10.57071001
5.077863532
12.77080851
10.66214759
14.11321529
10.1638603
13.99004214
8.64428483
12.66246011
5.029966305
7.642811865
10.48254948
11.11910961
8.784266454
6.277433783
9.320441954
5.254757688
5.315057063
3.211013276
9.611191245
7.138224031
4.987608554
10.67586406
10.05623171
7.857116803
4.712256523
4.111054358
8.484375565
3.230666483
4.160051489
7.069552769
7.393922456
6.261426669
6.358858705
2.907339247
8.481784419
9.650259139
12.53194204
9.448107878
8.368303551
6.220232328
7.612501766
7.783499941
10.44601521
4.593811364
5.456112754
7.469503085
3.803069807
9.408721056
6.652943852
6.6456238
4.926535447
7.243097274
10.06270886
6.939964
9.583805955
9.524870548
4.328144391
4.228541082
7.129622662
9.342933794
5.938377767
7.019460938
14.86183548
3.073403726
4.631686919
6.339281417
12.62720872
7.080543795
6.116677804
3.452228578
4.964178412
6.989161279
8.878051031
5.271048615
8.399271852
8.033696239
6.623426612
12.34269626
8.893781466
7.905771499
5.95187315
4.778180074
8.302328083
2.856057237
6.969913089
6.402188526
6.534112463
5.110568712
14.74291935
9.382068586
9.523212884
10.17001924
6.727340008
10.58572717
8.816733581
12.65437444
9.668847313
4.516874451
10.87752451
9.443163559
7.548084249
7.281661505
5.580676499
5.890071829
7.831510627
12.72573125
10.81344572
10.01887411
11.1662467
7.807391404
12.73356901
12.47771338
8.264226579
7.733453104
6.815519166
9.842036887
7.150869205
14.09856622
13.60473913
13.47006237
12.67594799
9.9788282
20.07246546
3.398964517
7.918029654
12.22104814
11.59480228
7.932193219
8.539108943
12.82660061
10.1969166
9.141790487
8.397932232
9.31708243
6.684376571
7.276785986
7.011645887
10.69306126
16.34784256
8.882850622
14.74078706
9.898735154
9.410483984
10.94041448
8.476653392
8.748996314
8.424828556
11.33150252
10.00316037
10.86355963
8.424540376
16.73618605
14.61114993
6.449082697
9.48738784
6.946680323
5.943597443
8.807463548
12.4456319
16.22091318
7.090804912
5.298302594
9.591416984
11.68028602
12.97245066
9.218432684
12.6236545
8.798020401
10.50673267
8.967995896
9.344015787
7.477057818
7.225349078
10.01107713
17.51117891
6.246595716
10.74215538
4.625607688
12.98437559
15.13103186
6.79416405
7.992627315
12.24572601
7.19764346
7.488984352
15.25863073
3.515365492
11.62225338
9.301964225
7.013698498
9.189047852
9.903618619
9.060075273
13.12893704
3.26982054
12.51485219
9.760516163
6.294901508
10.02248165
9.426056991
9.141306345
11.7102783
13.33114288
6.569367278
13.30020007
7.672090106
7.34207059
7.172828402
8.822156052
3.910333206
8.63083456
10.97658002
10.96630562
11.72588
4.897025818
9.587959631
5.480890967
4.430309319
7.443318491
8.574180506
9.873643855
4.842014875
5.841493827
13.07538113
7.281862692
6.255209833
8.253092836
9.525784256
7.829901144
12.95338258
6.18133026
8.342617578
6.166063015
11.95743463
9.660288329
5.550054616
9.899915071
11.54328687
4.04904249
6.963209739
12.84921876
8.855077257
9.873492187
8.123055722
14.36731412
8.561446132
2.210567136
8.125859727
8.558067058
3.932188147
7.740842428
14.97292388
6.865166606
4.91055582
9.81267425
7.053375179
5.811462852
10.05706742
4.643607872
4.289445171
7.755001894
5.54093014
6.379011533
7.400021937
4.789387649
5.878428309
1.68037337
8.84276681
8.980615767
5.901787138
9.192286804
7.64753513
5.414630827
8.300958664
6.5253299
11.26958171
4.127947691
6.209426549
4.174668648
13.34605396
6.729633726
5.29218766
8.250728918
12.21504477
5.206468363
11.72737158
4.67560195
6.31846275
4.039578267
11.30709785
9.315208177
6.87510155
7.096867794
5.894709789
9.621871066
6.418102612
7.16243989
11.01945404
7.300501263
10.34723542
12.65857911
11.01238956
6.182082297
7.595390925
10.99965084
9.664754017
3.853388302
)
;

boundaryField
{
    flow
    {
        type            zeroGradient;
    }
    obstacle
    {
        type            calculated;
        value           nonuniform List<scalar> 10(0 3.02955558e-18 1.026179901e-18 3.933975588e-18 7.782569877e-19 5.355630284e-18 2.904113864e-18 2.826039851e-18 2.275534297e-18 0);
    }
    frontAndBack
    {
        type            empty;
    }
    procBoundary0to1
    {
        type            processor;
        value           nonuniform List<scalar> 
21
(
11.70818686
7.723879602
11.96396647
14.98880337
10.18194424
8.355520441
10.97450764
15.70696877
9.650660553
5.977864598
14.165969
8.337142855
13.29362904
10.80993742
7.718586145
11.1765543
10.74929928
7.134834201
6.0950813
10.44519706
11.29094126
)
;
    }
    procBoundary0to2
    {
        type            processor;
        value           nonuniform List<scalar> 
31
(
5.517219448
8.596928337
7.041077748
6.476739439
5.459758352
10.86148823
9.610254873
7.078645644
8.04197575
6.517335663
7.931450372
15.55565407
10.24104276
15.02045053
11.41684147
8.86888212
10.49303088
6.231560477
7.197770561
6.420094633
10.78557963
10.01782296
12.8206547
8.782714528
5.948380257
6.672448966
8.000848268
5.439258417
4.715952236
10.78557963
4.379858332
)
;
    }
}


// ************************************************************************* //
