/*--------------------------------*- C++ -*----------------------------------*\
| =========                 |                                                 |
| \\      /  F ield         | OpenFOAM: The Open Source CFD Toolbox           |
|  \\    /   O peration     | Version:  2406                                  |
|   \\  /    A nd           | Website:  www.openfoam.com                      |
|    \\/     M anipulation  |                                                 |
\*---------------------------------------------------------------------------*/
FoamFile
{
    version     2.0;
    format      ascii;
    arch        "LSB;label=32;scalar=64";
    class       volVectorField;
    location    "0.003";
    object      momentumMean;
}
// * * * * * * * * * * * * * * * * * * * * * * * * * * * * * * * * * * * * * //

dimensions      [1 -2 -1 0 0 0 0];

internalField   nonuniform List<vector> 
654
(
(0.006224960042 -1.987342631e-05 -2.583014702e-05)
(0.00820430736 -2.308920166e-05 -3.516652649e-05)
(0.008228913815 -3.140016762e-05 -1.901889971e-05)
(0.008244236692 -2.548471774e-05 -2.067853576e-05)
(0.008243525719 -2.555592299e-05 -2.950595535e-05)
(0.008314501891 -2.858918779e-05 -1.503689755e-05)
(0.008274712835 -2.697036179e-05 4.418994434e-07)
(0.00831925046 -4.496124312e-05 -8.435789038e-06)
(0.00823639747 -3.473876946e-05 9.039931859e-07)
(0.008180887599 -3.886965976e-05 -1.405071607e-06)
(0.008157881231 -3.540042686e-05 -2.640480064e-06)
(0.008142029062 -8.176563253e-06 -8.494064727e-06)
(0.008049167666 -3.515134504e-06 -5.900633877e-07)
(0.008134106352 -2.380875598e-06 1.362820216e-06)
(0.008122892906 -1.340125488e-05 -1.414645385e-06)
(0.00816473645 -2.550631096e-05 -5.725632988e-06)
(0.008108235354 -5.905448935e-05 1.468134256e-05)
(0.008070845759 -8.800332911e-05 2.335393276e-06)
(0.007956868492 -0.0001118651219 -1.206572058e-05)
(0.007705542064 6.5919228e-05 4.814533483e-05)
(0.006281953644 6.12909894e-06 -6.162397101e-06)
(0.008316295556 -1.849201032e-05 -6.572215448e-06)
(0.008372814027 -2.104459394e-06 -1.121909406e-05)
(0.008313098256 -9.534162009e-06 -2.127413404e-05)
(0.008311613343 -7.474129046e-06 -2.056710152e-05)
(0.008351908997 -1.829447158e-05 -3.041124282e-05)
(0.008347605911 -2.956467541e-05 -5.325756583e-05)
(0.008303299562 -3.67279576e-06 -2.782261798e-05)
(0.008331375465 -5.345090419e-06 -1.344742859e-05)
(0.008386708129 -8.749899415e-06 -2.6082798e-06)
(0.008357385033 1.894164175e-06 -3.428549418e-06)
(0.008387531166 -1.149033337e-05 -1.086015301e-06)
(0.008452550163 -7.502195531e-06 2.474042824e-06)
(0.008433560909 -1.635239923e-05 2.660990312e-06)
(0.008369982168 3.436553624e-06 -1.775418575e-05)
(0.008358682954 -7.470935662e-06 -1.389479331e-05)
(0.008413301315 2.3555077e-05 8.007045094e-06)
(0.0084351927 2.168384698e-05 -6.855512019e-06)
(0.008420153789 0.000105603277 2.090566703e-05)
(0.008166856813 0.0004441557371 -2.252461938e-05)
(0.006383282881 5.110820855e-06 1.914332994e-05)
(0.008416199671 -8.389016314e-06 2.426565801e-05)
(0.008415910246 -2.111913955e-05 1.146429185e-05)
(0.008403441946 -2.760060575e-05 1.152729633e-05)
(0.008384844279 -3.626350144e-05 1.501929027e-05)
(0.008388460114 -2.23857305e-05 1.963419371e-05)
(0.008425491744 -1.329693228e-05 2.974410463e-05)
(0.00839720788 -1.041522813e-05 1.569024546e-05)
(0.008371880367 1.460577568e-05 1.399769478e-06)
(0.008362277671 3.838553682e-06 -4.491565981e-06)
(0.00837480594 1.258829638e-05 -2.088504274e-05)
(0.008345709805 -6.490549818e-06 -1.745234997e-05)
(0.008291662323 -5.240783463e-06 -1.972387354e-05)
(0.008305775404 -5.581108055e-06 -1.894119997e-05)
(0.00838982009 -9.673160283e-07 -3.309821065e-05)
(0.008383383456 5.222865995e-06 -9.832720953e-06)
(0.008235358099 3.401076927e-05 1.780903474e-05)
(0.008297893928 5.776485843e-05 4.607444141e-06)
(0.008123057552 0.0001570393001 1.874337358e-05)
(0.00824027979 0.0003643641948 1.339406935e-05)
(0.006430980034 -2.646681707e-05 1.210383271e-06)
(0.008343473019 -8.826977608e-06 7.86857449e-06)
(0.008310676918 6.525880252e-07 1.516094048e-05)
(0.008250842124 -7.332628603e-06 2.288190358e-05)
(0.008203810905 1.398317397e-05 2.405735939e-05)
(0.0081850549 -9.72885131e-07 1.254479075e-05)
(0.008241011642 -1.316058334e-05 -4.382470408e-06)
(0.008221397233 -1.940396334e-05 -1.140944547e-05)
(0.008194388984 -2.889062905e-05 -4.395752328e-06)
(0.008235133064 -2.330478446e-06 3.838618895e-06)
(0.008253544789 -9.579333983e-06 1.216772662e-05)
(0.008293430549 2.163883826e-05 5.184653907e-06)
(0.00838082915 3.610237695e-05 -1.535882418e-05)
(0.008268981417 3.07606312e-05 5.161761093e-06)
(0.008273624913 2.344870476e-05 2.638679258e-06)
(0.008210379652 1.547499859e-05 6.932221839e-06)
(0.00822017551 2.143303305e-05 -9.025343597e-06)
(0.008264787623 4.807828935e-05 7.709880328e-06)
(0.008339385424 0.0001056974604 -2.976770295e-05)
(0.008388825897 0.0003242565926 -5.551720673e-05)
(0.006339354518 -7.25349832e-07 -7.948307673e-07)
(0.008332023861 -1.915371511e-05 5.358555641e-06)
(0.008299038892 -1.722428868e-05 1.736363322e-05)
(0.008342636852 4.898616906e-06 2.079887436e-05)
(0.008367794035 3.750960437e-06 1.744630521e-05)
(0.008336666399 8.764407168e-06 2.383806102e-05)
(0.008301725856 3.183502329e-05 5.016658732e-05)
(0.008248462095 2.137050882e-05 4.517997788e-05)
(0.008245108722 4.464512244e-06 2.64668049e-05)
(0.008244440971 5.866033046e-06 3.379155416e-05)
(0.008210315425 -2.499860136e-05 3.166576014e-05)
(0.008215611422 -2.412509791e-05 3.220466621e-05)
(0.00827828965 -3.254090041e-05 3.573628671e-05)
(0.008307634819 -1.642184001e-05 1.322566229e-05)
(0.008336410529 2.540006462e-06 7.192466356e-06)
(0.008432327418 1.255114746e-05 -1.429237357e-05)
(0.008488486123 3.56774456e-05 -1.171405066e-05)
(0.008481950054 7.934190271e-05 -3.085982275e-05)
(0.008463407513 0.0001271837431 -3.177534655e-05)
(0.008437256342 0.0002418290247 -2.556159409e-05)
(0.0063567259 5.801343828e-06 9.027245531e-06)
(0.008321546677 2.180170129e-05 2.378239045e-06)
(0.008333130871 2.184595333e-05 5.114125489e-06)
(0.008242154838 4.952443487e-06 -3.493386714e-06)
(0.008242608151 1.522694047e-05 -1.937175663e-06)
(0.008276924366 -2.402060387e-06 2.118787762e-06)
(0.008236423778 -8.432399221e-06 -6.426673926e-06)
(0.008315882338 -8.563941642e-06 -1.277242132e-05)
(0.008420793032 2.042013345e-06 5.95176347e-06)
(0.008446410318 2.654468827e-06 1.053991225e-05)
(0.008455030546 1.552373995e-05 6.147953849e-06)
(0.008401779023 -1.811360059e-06 8.857269855e-06)
(0.008306494959 -9.716261068e-06 3.093829595e-06)
(0.008313909036 -2.060214195e-05 5.521290503e-06)
(0.008314501173 -2.622183623e-05 2.415739376e-05)
(0.008246771955 -2.718346709e-05 2.640634231e-05)
(0.008263126083 7.617123788e-06 3.871584673e-06)
(0.008294908181 5.867242076e-05 -2.00859294e-05)
(0.008350501956 7.260998027e-05 -1.471147111e-05)
(0.008427543506 0.0001925653817 -4.602878894e-05)
(0.006364363066 1.165075848e-05 -1.87052591e-05)
(0.008361801558 9.318180531e-06 -1.702158002e-05)
(0.008377677155 8.849346667e-06 -2.298797219e-05)
(0.008354777024 3.001353514e-05 -1.81163688e-05)
(0.008430540216 1.027155561e-05 -3.053957702e-05)
(0.008457904731 3.662688525e-06 -2.705932469e-05)
(0.008465529621 -2.083754989e-05 -1.349503595e-05)
(0.008352204026 -2.886970003e-05 -5.469606413e-06)
(0.008393968001 -3.121565411e-05 -7.154014233e-06)
(0.008331706602 -3.175083997e-05 3.894030764e-06)
(0.008325304139 -2.152670374e-05 -1.343393765e-05)
(0.008380349058 -2.042012931e-05 -1.053276972e-05)
(0.008469542983 -1.209120756e-05 -7.630061165e-06)
(0.008416056072 2.613752778e-06 -1.859779934e-05)
(0.008423320356 4.494313e-06 -1.378280287e-05)
(0.00837066887 2.362520881e-05 -1.174690886e-05)
(0.008428050439 1.454488806e-05 -7.440150519e-06)
(0.008356633663 1.572585266e-05 -1.921909808e-05)
(0.008410057632 3.990431382e-05 3.815712191e-06)
(0.00846552308 0.0001161923416 1.875296182e-05)
(0.006366565127 -1.709035169e-05 -3.296174002e-07)
(0.008341337796 -6.083355972e-06 -1.367053115e-05)
(0.008349247604 -1.612905432e-05 -1.762791156e-05)
(0.008410385543 -3.165154637e-05 -2.570416584e-05)
(0.008356943702 -2.598938204e-05 -1.24225232e-05)
(0.008359608341 -1.282968777e-05 -2.339471997e-05)
(0.008480315164 2.709771978e-05 -2.015813515e-05)
(0.008526693513 1.905356777e-05 -1.138496266e-05)
(0.008542255333 1.452877972e-05 -2.453406549e-05)
(0.008496001477 -7.230145325e-07 -3.472660435e-05)
(0.008382589642 -1.9332797e-05 -2.466930496e-05)
(0.008282185863 -1.010783401e-05 -3.033924376e-05)
(0.008275987347 -1.896487705e-06 -1.839194733e-05)
(0.008300775949 -4.515148005e-06 -1.582619038e-05)
(0.008394158009 -9.016449357e-06 -1.053480253e-05)
(0.008448088635 -1.695850888e-05 -6.04221789e-06)
(0.008420415171 -6.287034251e-06 -5.686065813e-06)
(0.00836914973 1.474333445e-05 -1.896754642e-05)
(0.00836898825 4.464241352e-05 -1.671530316e-05)
(0.00838233447 6.488279329e-05 -1.370487541e-05)
(0.006330542919 -1.551910513e-05 -1.577406217e-05)
(0.008423806579 -1.472630027e-05 -1.593267053e-05)
(0.008434349565 -8.965393501e-06 -1.108697327e-05)
(0.008367188408 6.216736937e-07 4.971196798e-08)
(0.008366712491 -1.607614734e-05 2.594545015e-06)
(0.008315117396 -8.372116414e-06 5.608872333e-06)
(0.008347266992 -2.152435521e-05 2.798302869e-06)
(0.008334051855 -1.344831236e-05 -1.45467224e-05)
(0.008289291281 -3.962507433e-06 -1.457974999e-05)
(0.008344743581 1.858244525e-05 -4.356159087e-06)
(0.008511371175 3.108657114e-05 2.927744927e-07)
(0.008519449274 1.414838136e-05 -7.586115863e-06)
(0.008456812531 -1.235474843e-05 -4.435291216e-06)
(0.008401027133 -1.615632114e-05 -5.197296457e-06)
(0.00826410256 -1.813492719e-05 5.177730707e-06)
(0.008236872344 -3.969376521e-06 1.897456465e-06)
(0.008261182288 1.773961632e-05 4.377614372e-06)
(0.008354596621 2.408940208e-05 9.766982941e-06)
(0.00830146862 5.113338714e-05 8.514143037e-06)
(0.00829431512 8.064251518e-05 8.768248622e-06)
(0.006350021241 -1.828149136e-05 3.363396789e-05)
(0.008240797066 -4.252544941e-05 4.113429561e-05)
(0.008315041888 -4.350865653e-05 3.267294654e-05)
(0.008356002748 -4.115862005e-05 2.905471056e-05)
(0.008393321874 -1.167223106e-05 2.085010178e-05)
(0.008416876154 5.120277793e-07 2.224490279e-05)
(0.008373912834 -1.207963377e-05 2.776926183e-05)
(0.008339818418 -7.713424606e-06 2.290837034e-05)
(0.008329896979 -1.850400891e-06 3.376220153e-05)
(0.008337887339 -2.948994852e-06 2.012223902e-05)
(0.008312108733 -3.006350319e-06 2.703642277e-05)
(0.008294443999 1.57345741e-05 3.033550218e-05)
(0.008343198996 1.639828185e-05 4.386189562e-05)
(0.008386607933 2.578104227e-05 2.609522552e-05)
(0.00842939824 2.714467094e-05 1.249736401e-05)
(0.008514616413 2.034106134e-05 6.219580402e-06)
(0.0084687589 2.496871159e-05 2.171185195e-05)
(0.008313141475 3.71728013e-05 2.938440138e-05)
(0.008342262833 4.758217034e-05 3.042014132e-05)
(0.008378812847 6.063123152e-05 1.206577199e-05)
(0.006333525473 6.372282036e-06 -3.873008019e-06)
(0.008277826707 1.25469551e-05 -1.835587036e-05)
(0.008280172249 4.375353661e-07 -1.210954699e-05)
(0.008187948575 -1.887600896e-05 -2.032805535e-06)
(0.008197264434 -1.464597091e-05 8.986358797e-06)
(0.008118402231 -3.585092029e-05 2.020015672e-05)
(0.008071402064 -1.310701901e-05 1.412176681e-05)
(0.008159246091 -2.302771784e-06 4.603544259e-07)
(0.008206290455 -2.450842007e-06 -1.082680158e-05)
(0.008220939099 1.104993922e-06 -1.459056411e-05)
(0.008246221035 -1.930975474e-05 -1.923030218e-05)
(0.008270096463 -6.960952397e-06 -1.538766723e-05)
(0.008326720492 1.504016214e-05 -1.584550606e-05)
(0.008293014912 1.720468289e-05 -1.602423225e-05)
(0.008243122913 2.259031136e-05 -2.643476575e-05)
(0.008128129941 1.029946408e-05 -5.009113035e-06)
(0.008233535957 1.785050266e-05 -7.636268113e-06)
(0.008330452936 -9.255390614e-06 -2.129831944e-05)
(0.008396026856 9.451348674e-06 -1.767723709e-05)
(0.008350852571 6.430653243e-05 -5.986255631e-08)
(0.006402551953 -5.189479093e-06 5.433145141e-06)
(0.008388344318 -5.348981506e-06 9.711790402e-06)
(0.008314398537 6.598437343e-06 2.182513102e-05)
(0.008272439801 -4.735137224e-06 1.273389544e-06)
(0.008342404273 -4.150218608e-06 -1.897625159e-05)
(0.008388962958 -5.573794853e-06 -2.879167373e-05)
(0.008395130688 -1.290724323e-06 -2.519897538e-05)
(0.008362684667 -1.639176713e-05 -1.772166403e-05)
(0.008330982471 -8.398759639e-06 -9.527194484e-06)
(0.008255292768 -4.442144866e-07 2.903639565e-06)
(0.008242371852 2.947779983e-05 -1.158567306e-07)
(0.008146639571 1.604068185e-05 -9.773470033e-06)
(0.008108029023 -3.712770852e-06 -7.589738207e-06)
(0.008175345924 -1.37798604e-05 -4.060943801e-06)
(0.00824669483 -8.059402686e-06 8.9772929e-06)
(0.008314744442 -2.544269854e-06 9.958725637e-06)
(0.008352523119 -1.027327659e-05 6.525761877e-06)
(0.008293244037 2.432287724e-06 1.032467146e-05)
(0.008257411147 3.068820114e-06 -3.382824501e-07)
(0.008344659792 2.626006019e-05 1.140668985e-05)
(0.006335883594 1.508723672e-05 3.564928523e-06)
(0.008303940536 7.673659997e-06 -1.661811975e-05)
(0.008331977681 5.234099994e-06 -2.063673716e-05)
(0.008328797012 1.115920279e-05 -2.037908561e-05)
(0.008256188814 -1.766546471e-07 -2.299008214e-05)
(0.008213018336 1.457633325e-05 -2.378675143e-05)
(0.008222073379 -8.0229553e-06 -1.845680922e-05)
(0.008194226479 -1.88013218e-06 -2.160371462e-05)
(0.008228117164 -1.840429582e-06 -1.613707433e-05)
(0.00831963968 -1.565171185e-05 -1.344961778e-05)
(0.008358580698 -2.492270012e-05 -1.013166768e-05)
(0.008383524311 -3.044409159e-05 2.935457575e-06)
(0.008475851574 -2.850731216e-05 -5.480514161e-06)
(0.008446596502 -4.713547818e-06 -1.298042351e-05)
(0.008365604193 -1.163715693e-05 -8.912824112e-06)
(0.008406709197 -2.235936012e-05 -1.29532788e-05)
(0.008427808033 -4.693896026e-06 -1.250713802e-05)
(0.008456519378 -3.806354431e-06 -4.809718139e-06)
(0.008498997997 2.868860423e-06 2.110879251e-05)
(0.008422995094 2.056392463e-05 6.202250381e-06)
(0.006347932567 1.770123523e-05 -1.670155841e-05)
(0.008362254487 1.586724421e-05 -1.045669042e-05)
(0.008375874586 1.59465968e-05 -1.226933581e-06)
(0.008363800541 2.335848002e-05 -4.516920767e-06)
(0.008370308948 2.306648556e-05 3.176460707e-06)
(0.008382459649 1.331654245e-05 6.274517929e-07)
(0.008375946422 1.254268755e-05 6.831103996e-06)
(0.008390697707 1.133731453e-05 8.057964675e-06)
(0.008324415861 -6.4720369e-06 9.502946133e-06)
(0.008276631637 -2.51063921e-05 1.614054313e-05)
(0.008224975788 -2.334147232e-05 -2.862097864e-06)
(0.0082667248 -2.214872714e-05 -6.96026055e-06)
(0.008214010564 -2.685656032e-05 -3.782325411e-07)
(0.008265571908 -2.803583855e-05 2.070250906e-05)
(0.008324075585 -1.157247477e-05 8.464587307e-06)
(0.008223839221 -1.993457341e-06 -1.553067391e-06)
(0.008171665656 -1.509361582e-05 -1.427939754e-05)
(0.008239906324 -5.376822027e-06 8.317861646e-07)
(0.008159349906 1.497861666e-05 -2.072796025e-05)
(0.00824639863 2.275038517e-06 -8.776134549e-06)
(0.006284516033 2.523153991e-05 1.810650682e-05)
(0.008351276946 2.04040211e-05 1.724107137e-05)
(0.008328314838 7.442338907e-06 1.658188184e-05)
(0.008368644649 -3.10814685e-06 2.133966278e-05)
(0.0083928637 1.456141975e-05 1.047006709e-05)
(0.008407284046 8.470039663e-06 1.034519106e-05)
(0.008434643343 8.537908635e-06 1.439226703e-05)
(0.008398589086 -1.022461451e-05 4.424276058e-06)
(0.008439029049 -1.051324387e-05 1.694280397e-05)
(0.008415713623 9.105557614e-06 8.910305728e-06)
(0.008367453827 -6.382084449e-06 4.614625526e-06)
(0.008383637688 -3.006847039e-05 1.939915376e-05)
(0.008419741471 -1.182560628e-05 8.394074404e-06)
(0.00836110189 -2.005735181e-05 -6.957481752e-06)
(0.008362470068 -1.371491324e-05 -9.468983989e-06)
(0.00827007095 9.821828422e-06 -3.739163919e-09)
(0.008338114601 2.38804156e-05 -1.625974909e-06)
(0.008314705005 2.645745936e-05 -1.209898756e-05)
(0.008246371069 1.531056737e-05 -3.143375405e-07)
(0.008247645374 -4.467661837e-06 -1.267545471e-05)
(0.006418307059 -3.002486756e-05 -4.750639709e-07)
(0.008443259671 -3.326851994e-05 -2.365967753e-06)
(0.008426552087 -7.213789007e-06 1.767485749e-06)
(0.008434113534 1.094056432e-05 1.995858554e-06)
(0.008354449628 4.688339685e-06 6.386814384e-06)
(0.008435952244 4.400679302e-06 9.463105871e-06)
(0.008451119294 1.869073006e-05 4.952759539e-06)
(0.008372816808 1.693527345e-05 1.107001624e-05)
(0.008375765794 1.152418526e-05 -7.250173914e-06)
(0.008302862876 8.065552479e-06 -8.725389536e-06)
(0.008332497575 3.32324e-06 -2.310383713e-07)
(0.008244398494 3.115272283e-05 -2.185422619e-06)
(0.008134262117 4.505730094e-05 1.810327633e-05)
(0.008107653953 3.753687458e-05 3.467448227e-05)
(0.008161790935 6.535248925e-06 3.538290482e-05)
(0.008257385693 -2.753968116e-05 1.966559191e-05)
(0.00824222697 -3.562391514e-05 -2.851036481e-06)
(0.008207754134 -1.556344096e-05 5.472560572e-07)
(0.008314183361 -3.988395553e-06 -5.718816824e-06)
(0.008271984052 6.344028623e-06 -1.041621262e-05)
(0.006381639409 2.468583284e-05 1.381952502e-06)
(0.008277397366 1.626355323e-05 7.137397769e-07)
(0.00826503422 -1.015300052e-05 -4.840435491e-06)
(0.008337021193 -1.013953584e-05 -7.959467176e-06)
(0.008273358593 8.606281789e-06 -6.889147195e-06)
(0.008295732674 1.388937713e-05 -4.295708852e-06)
(0.008215798086 2.152755673e-05 -1.001904512e-07)
(0.008298198473 2.44539939e-05 6.055226884e-07)
(0.00829572028 2.549914858e-05 2.61989837e-06)
(0.008371009932 2.672726973e-05 -5.431138684e-06)
(0.008440885538 3.604863356e-05 -8.113039317e-06)
(0.008473062576 2.073062918e-05 -1.114875712e-05)
(0.008525574452 -7.011106808e-06 -2.391143657e-05)
(0.008583437698 -1.848463423e-05 -4.062119919e-05)
(0.008479894183 -1.821765184e-07 -4.065461825e-05)
(0.008436008287 5.411669671e-06 -2.803422902e-05)
(0.008432475045 8.111390586e-06 -1.557250214e-05)
(0.00841574545 -1.641857369e-05 2.424029194e-06)
(0.00832884828 7.667095952e-06 6.161729835e-06)
(0.008293728284 -3.457772857e-06 1.918993838e-05)
(0.006363980243 -1.512222327e-05 7.192393629e-06)
(0.008294857651 -8.233890235e-06 8.195764089e-06)
(0.008268037459 2.303381922e-05 7.738970238e-06)
(0.008221707867 2.701235675e-05 -1.330925466e-06)
(0.008268916326 1.35592824e-05 9.138002237e-06)
(0.008291660296 -5.533311018e-06 4.179604408e-06)
(0.008359139574 -8.620465358e-06 1.00928021e-05)
(0.008404612226 -1.212194808e-06 1.151977891e-05)
(0.00840103363 -1.934649131e-05 1.34349891e-05)
(0.008332762687 -2.894554201e-05 9.479128403e-06)
(0.008324069944 -1.640005624e-05 8.398631294e-06)
(0.008323023183 -1.454950732e-05 7.779818424e-06)
(0.008347843547 4.078708355e-06 4.414710387e-06)
(0.008316838338 1.650605538e-05 2.799296953e-06)
(0.008335600628 1.152555195e-05 1.975154669e-05)
(0.00834215955 2.308105913e-05 1.658473485e-05)
(0.00846384516 1.14375608e-05 1.286650591e-05)
(0.008449478616 8.643781036e-06 4.972631125e-07)
(0.008409100888 1.15394181e-05 7.642147822e-07)
(0.008472280839 1.399951544e-05 -1.017087771e-05)
(0.006399002497 2.593898279e-05 -1.237770255e-05)
(0.008377130443 1.316323942e-05 -1.359813864e-05)
(0.008438136145 5.953330564e-06 -1.42093879e-06)
(0.008397614653 -2.521743768e-05 3.922248906e-06)
(0.008382326758 -1.675119488e-05 -2.818612334e-05)
(0.008340529024 -1.613809878e-05 -3.3002162e-05)
(0.008318670287 -9.883041366e-06 -3.749179254e-05)
(0.008310818463 -1.991227283e-05 -1.850935291e-05)
(0.008337647459 3.011613988e-06 -2.290605877e-05)
(0.008304611269 1.672638718e-05 -1.162921862e-05)
(0.008297412045 6.039628179e-06 -1.829909186e-06)
(0.008320008999 2.073509145e-06 -3.216991415e-06)
(0.008217705489 1.551087055e-05 3.855086776e-07)
(0.008292007879 -4.164015274e-06 -2.154312033e-06)
(0.008237886401 7.45698438e-06 -1.665632746e-05)
(0.008263929003 -6.521643186e-06 -1.944856327e-05)
(0.008219722712 3.300579064e-06 -8.077962869e-06)
(0.008188080751 -1.177896101e-06 3.258192451e-06)
(0.008241741946 -3.340647057e-06 3.861748202e-06)
(0.00822035974 -6.981397688e-06 8.360732689e-06)
(0.006331268996 -8.412500888e-06 -1.706260902e-05)
(0.008388855979 -1.127354128e-05 -3.106731961e-05)
(0.0084496154 -9.678721448e-06 -4.612875459e-05)
(0.008413407068 1.981164391e-07 -3.629896688e-05)
(0.008436519086 2.654816763e-06 -1.985547689e-05)
(0.00846286399 3.085185347e-06 7.782792826e-07)
(0.008445216444 -1.091347934e-05 -9.030742617e-06)
(0.008451173122 1.592656889e-05 -2.429040783e-05)
(0.008438684202 6.235899719e-06 -2.522032317e-05)
(0.008418984174 1.372076137e-05 -4.839812955e-05)
(0.008429843129 -3.845593125e-06 -4.281696689e-05)
(0.008395016333 -4.186306148e-06 -3.385187867e-05)
(0.008514666502 1.148464264e-05 -3.55512434e-05)
(0.008481439853 2.012402123e-05 -2.063576992e-05)
(0.00854477717 -4.665170666e-07 -2.219554994e-05)
(0.008470705055 2.511229068e-05 -1.938882749e-05)
(0.008475466812 2.334330957e-05 7.577025885e-06)
(0.008522498523 1.420255113e-05 1.626904355e-06)
(0.008477893484 2.946185941e-05 -2.062536774e-05)
(0.008486664151 1.250758303e-05 -9.222522102e-06)
(0.006359133746 -3.299171683e-05 -6.580018942e-06)
(0.00834118789 -2.755335191e-05 -3.818947459e-07)
(0.008278710039 2.577268727e-06 3.695010851e-06)
(0.008319677326 -5.122749154e-06 1.561689015e-06)
(0.0082888024 -2.466725414e-06 -4.468721471e-06)
(0.008287916314 -2.378015972e-06 -5.686393379e-06)
(0.008266093484 9.054948946e-06 1.010724197e-06)
(0.008141720526 -1.108417123e-05 -1.180646385e-05)
(0.008221238067 -3.60199182e-06 1.666565993e-05)
(0.008266292678 -7.915164537e-06 1.18772067e-05)
(0.008336888524 8.409974546e-06 1.888831406e-05)
(0.008303146611 1.007627957e-05 -4.896356069e-06)
(0.008274869302 -1.134264737e-05 -9.117943933e-07)
(0.008248628818 -3.227605989e-06 2.729298746e-07)
(0.008278941254 2.816914729e-05 8.634092067e-06)
(0.008363617032 7.900546735e-06 1.750421984e-05)
(0.008339922117 2.470117998e-06 -1.924424144e-06)
(0.008299262524 1.043711863e-05 1.770781494e-06)
(0.008297469226 2.129978904e-05 7.019453772e-06)
(0.008266560865 7.53280315e-06 -6.813744017e-06)
(0.006311758913 1.371438774e-05 3.898064286e-06)
(0.00830156607 1.737440812e-05 -8.826575554e-07)
(0.008263043578 -3.233862099e-05 -2.182898184e-06)
(0.008181281455 -1.241807238e-05 6.677509334e-06)
(0.008207596204 -2.799776568e-06 2.306827315e-06)
(0.008168056503 7.689422606e-06 -1.821608518e-06)
(0.008236262039 1.679085857e-05 1.186679551e-05)
(0.008361902562 2.909280782e-05 1.786015125e-05)
(0.008355320549 2.281585676e-05 1.171825532e-05)
(0.008374954914 -2.205226365e-07 8.550251787e-06)
(0.008301885653 1.155196097e-05 2.225019363e-05)
(0.008271832726 -1.986254345e-06 5.757267001e-06)
(0.008260474758 -3.394365694e-06 8.786074715e-06)
(0.008255189376 8.658787971e-07 -6.569486472e-06)
(0.008251162922 -1.705297968e-05 -2.06290636e-05)
(0.008279555471 -1.556913918e-05 -2.864827535e-05)
(0.008245447489 -8.826368197e-06 -2.018198116e-05)
(0.008247468868 3.946176119e-06 -2.996985188e-05)
(0.008346407847 1.278237228e-05 -2.448350596e-05)
(0.008312331704 4.129624671e-05 -2.328532504e-05)
(0.007742187921 0.001745173805 -4.273404201e-05)
(0.00803248912 0.0023089735 -2.069261817e-05)
(0.007923740407 0.002261116142 -6.041158756e-05)
(0.007579042495 0.002194055424 0.0001221404215)
(0.00724408167 0.002122472506 0.0001080808286)
(0.006992259936 0.002026664176 2.155023311e-05)
(0.006614946445 0.001824466492 2.204684815e-05)
(0.006259801915 0.001843721119 -4.836180474e-05)
(0.005951439952 0.001665246975 -3.604408626e-05)
(0.005799269527 0.00172599958 -2.558257979e-05)
(0.008386234544 0.00126149223 -0.0001226746545)
(0.008932462044 0.002102801759 -8.093508524e-05)
(0.009392151324 0.002608789267 2.606094399e-05)
(0.00975618855 0.002789325509 -2.702249071e-05)
(0.009936213642 0.002881263879 2.042158604e-05)
(0.009757081837 0.002969760343 -8.590516709e-05)
(0.009525063817 0.002960932836 -0.0001005395273)
(0.009293758455 0.002898519875 -0.0002025236199)
(0.009092157575 0.002694755748 -4.830307589e-05)
(0.008688387222 0.002650121898 -1.29269162e-05)
(0.008398427665 0.0009045540556 -4.475104306e-05)
(0.008887743891 0.001517348322 -0.0001311332033)
(0.009508864514 0.00204591937 -8.42035518e-05)
(0.009944328719 0.002506481488 -0.000143082819)
(0.01018815244 0.002882387286 -8.763286574e-05)
(0.01062347115 0.003184965476 -9.06960583e-05)
(0.0107226084 0.003332625135 -5.819866727e-05)
(0.01084408297 0.003320205459 -0.0001240276378)
(0.01073430593 0.003344410814 -9.95394179e-05)
(0.01049252653 0.003382568914 1.027321431e-05)
(0.008512256254 0.0006209985156 -1.979175498e-05)
(0.008782243459 0.001080233208 -3.485752122e-05)
(0.009061243465 0.001564425048 2.451776339e-05)
(0.009534405574 0.001982010689 9.222994658e-06)
(0.009990970119 0.002346805895 7.097053488e-05)
(0.01054865536 0.002744254098 -1.748775045e-05)
(0.01104390025 0.003212184251 3.421032562e-05)
(0.01132845252 0.003354994293 -7.972145738e-05)
(0.01144986499 0.003533473398 -7.866726939e-05)
(0.01153040936 0.003609269153 -3.177233096e-05)
(0.008487529806 0.0004804336241 -2.998342295e-05)
(0.00874557354 0.0007976292757 2.698371444e-05)
(0.009099660897 0.001117839323 2.233662334e-05)
(0.009585970845 0.001513633513 -2.507886945e-05)
(0.009989985107 0.001835313735 1.071957097e-05)
(0.01036551994 0.002214831297 7.322701598e-05)
(0.01071270241 0.002710127525 3.749652285e-05)
(0.01107166823 0.003010361433 3.668152026e-05)
(0.01146068263 0.00339068002 -4.530170872e-05)
(0.01181982867 0.00354754766 1.733611367e-06)
(0.008539724021 0.0003189102749 -2.113520927e-05)
(0.008694463774 0.000526363957 -9.799948174e-06)
(0.008968472661 0.0008437703897 2.774624537e-05)
(0.009097395207 0.001106928115 -8.127163766e-06)
(0.009362997728 0.00142786414 -1.032920229e-05)
(0.0096996042 0.001698141432 -9.432840271e-06)
(0.01021178527 0.002152606868 -3.822659604e-06)
(0.01071440112 0.002535312497 6.030076181e-05)
(0.01103786677 0.002876970988 7.780167363e-05)
(0.01150711154 0.003106684915 1.207992559e-05)
(0.008486274537 0.0002239593637 5.990592394e-06)
(0.008598054304 0.0003854872028 -2.283240387e-05)
(0.008709474576 0.0005675132812 -1.796157282e-05)
(0.008961709511 0.000842936504 -3.469919588e-05)
(0.009218582776 0.001046954978 -2.11746489e-05)
(0.009581629276 0.001326827719 -5.84543847e-05)
(0.009894397986 0.001612930699 -5.090138747e-05)
(0.0102665398 0.002024591231 -1.626388144e-05)
(0.01082798463 0.002429826882 2.493606887e-05)
(0.01114744169 0.002749156377 1.346657369e-05)
(0.008429062989 0.0001626671937 -2.39098571e-05)
(0.008381757941 0.0002726250524 -3.208645137e-05)
(0.008462527433 0.0003799125731 4.876349825e-06)
(0.008635376995 0.0005496696612 1.745690803e-05)
(0.008865043478 0.0007253206585 3.08638469e-05)
(0.009058951445 0.0009728094079 3.053132085e-05)
(0.009406855338 0.0011974803 2.010754412e-05)
(0.009647297543 0.001474284894 -2.797128545e-05)
(0.009946324333 0.001843176434 -4.670082272e-05)
(0.01048439317 0.0021877799 6.566074128e-05)
(0.00825458127 0.0001322570474 -3.590621834e-06)
(0.008460178425 0.0001731149071 2.204965563e-05)
(0.008570206164 0.0002668204032 -2.523823571e-06)
(0.008592783269 0.0003779076593 4.885328358e-06)
(0.008730613541 0.0005546432201 5.577911703e-05)
(0.008869155648 0.0007293978707 6.332836836e-05)
(0.008923661851 0.0008871884229 -5.403321805e-06)
(0.009291977239 0.001130966947 -1.707131293e-05)
(0.009725230174 0.001366763153 1.769492831e-05)
(0.01006901758 0.001626686684 -2.04692172e-05)
(0.008397225757 6.658070249e-05 1.247297171e-05)
(0.008355134213 0.0001539414271 6.568303849e-06)
(0.008397911232 0.0002190874769 1.227698475e-05)
(0.008410332739 0.0002613929602 -1.087193989e-06)
(0.008502463204 0.0003595892278 2.036095186e-05)
(0.008778080871 0.0005096122479 7.838346906e-06)
(0.009082547097 0.0006572520446 -3.376100739e-05)
(0.009218137593 0.0008054244221 -1.130783084e-05)
(0.009300128566 0.001050161446 -1.666060827e-05)
(0.009565117803 0.001256331516 -4.198474601e-06)
(0.008415035799 8.026925309e-05 -6.723373917e-08)
(0.008380670904 0.000131029936 6.817536181e-06)
(0.008538162832 0.0001697012102 -1.252692579e-05)
(0.008623625574 0.0002304031036 -1.881395512e-06)
(0.008727305043 0.0002656618351 -1.502272352e-05)
(0.008632226916 0.0003734258002 -1.363809302e-05)
(0.008670854679 0.0005073431949 2.924273565e-05)
(0.008859080121 0.0006513176357 3.322335025e-05)
(0.009129996443 0.0007765752585 7.09781855e-05)
(0.009422805047 0.0009798611335 4.161783842e-05)
(0.008343903032 4.602643005e-05 9.450287903e-06)
(0.008404612402 4.950433274e-05 2.118252387e-05)
(0.008419214921 8.888498485e-05 1.118442272e-05)
(0.008321906837 0.0001613100372 2.552763105e-05)
(0.008412185385 0.000208310081 3.088207463e-05)
(0.008564728481 0.0002750321951 2.579652529e-05)
(0.008676956175 0.0003550324213 2.352628056e-05)
(0.008749848535 0.000478196619 -1.462539716e-05)
(0.008803421346 0.000566701724 -8.657085275e-06)
(0.008983060687 0.0006887306333 2.893415178e-06)
(0.008372397925 4.721030578e-05 1.05300198e-05)
(0.008372184056 8.471247536e-05 1.416293569e-05)
(0.008396999885 0.0001137868753 2.417704941e-05)
(0.008402878411 0.0001116360257 9.608312967e-07)
(0.008369759634 0.0001622868917 -1.899370256e-05)
(0.00840855199 0.0002112163219 -2.863441211e-05)
(0.008522817735 0.0002372679228 -1.494682229e-05)
(0.008638218986 0.0003145860637 -4.651196451e-06)
(0.008695500597 0.0004175032077 -1.460940407e-05)
(0.008916559564 0.0005351837397 -5.731882706e-06)
(0.008269753115 2.745264502e-05 -6.491691002e-06)
(0.00829656077 2.036177484e-05 -1.193037719e-05)
(0.008304713452 7.44549693e-05 -2.167937804e-05)
(0.008372339616 9.886105953e-05 -1.213698871e-06)
(0.008421852705 0.0001147667262 -2.893972431e-05)
(0.008398512034 0.0001533151496 -2.179848393e-05)
(0.008415403573 0.0001675585299 -7.923222299e-06)
(0.008483481517 0.0002306153244 -9.782034115e-06)
(0.008609918804 0.0002925692677 -3.163904515e-05)
(0.008707173734 0.0003790571508 -8.868503415e-06)
(0.008217041718 2.115397783e-05 -6.152762087e-06)
(0.008209099028 2.69026945e-05 -2.1089377e-05)
(0.008282248425 2.633132449e-05 -1.54970999e-05)
(0.008361511984 3.004287604e-05 -1.09971146e-05)
(0.008376147523 6.417929711e-05 6.683794734e-06)
(0.008565020754 9.797206372e-05 4.643278713e-07)
(0.00859948354 0.0001549522915 -1.013582147e-05)