/*--------------------------------*- C++ -*----------------------------------*\
| =========                 |                                                 |
| \\      /  F ield         | OpenFOAM: The Open Source CFD Toolbox           |
|  \\    /   O peration     | Version:  2406                                  |
|   \\  /    A nd           | Website:  www.openfoam.com                      |
|    \\/     M anipulation  |                                                 |
\*---------------------------------------------------------------------------*/
FoamFile
{
    version     2.0;
    format      ascii;
    arch        "LSB;label=32;scalar=64";
    class       volVectorField;
    location    "0.003";
    object      momentum;
}
// * * * * * * * * * * * * * * * * * * * * * * * * * * * * * * * * * * * * * //

dimensions      [1 -2 -1 0 0 0 0];

internalField   nonuniform List<vector> 
654
(
(0.008368557464 -0.0002319067528 -0.0002091411822)
(0.005333304697 0.0003105135397 -7.020254481e-05)
(0.008297926602 -0.0004003382823 0.000557854309)
(0.005391271276 -0.0002204570928 -0.0001122791997)
(0.01432154529 -0.000552055169 -0.001063634198)
(0.006888588182 -6.492920187e-05 0.000743437316)
(0.009434592405 0.0002336127566 -0.0003331415627)
(0.009804131841 0.0004817384548 0.0005875945014)
(0.00721289679 -0.0003015962458 0.0003485294756)
(0.008786716577 -0.0005882370175 7.180333759e-05)
(0.009273766455 -0.0001154025429 -0.001165159864)
(0.008400346888 -0.0001403113685 -0.0006120582249)
(0.006598376765 -0.0001033644372 -0.000246955388)
(0.01031334721 -0.0007708362439 5.891366596e-05)
(0.008536230241 0.0002686143296 0.0006969997139)
(0.006856759826 0.0005475937137 0.0006237358378)
(0.007618270408 -1.215907464e-05 -0.0002620118081)
(0.008244530346 -0.001063471855 0.0005196197989)
(0.01480461007 0.0004880321872 -0.000386177228)
(0.00343178627 0.0003930932044 -0.0002249373063)
(0.004582128097 6.129617827e-05 -4.960803271e-05)
(0.01092123327 0.0001314344533 0.0009315420921)
(0.008054093996 0.0001278304651 8.727944889e-05)
(0.01022856684 0.0004655603232 -4.414206713e-05)
(0.007442193843 0.0001727312709 0.0002033156577)
(0.01016235337 0.0006183493181 -0.0008307757666)
(0.01180077377 3.011454216e-05 -0.0005655984859)
(0.01090486985 0.0001071859822 -1.261832412e-05)
(0.004144487538 -6.573223599e-05 -0.0004168179252)
(0.008981972989 -0.00040183145 0.0002760861266)
(0.0111874958 -0.000527302823 0.0008849658284)
(0.008959193444 0.0001195319092 0.0007399790072)
(0.006986049685 -0.0002464688764 0.0001935517095)
(0.004519463341 -0.0003751325235 -1.124213279e-05)
(0.006885212344 0.0007142421703 4.886987365e-05)
(0.01116218878 -0.00021222709 0.0003303695735)
(0.007440967327 0.0002065835941 -0.000181523137)
(0.01032962289 0.0001303865913 0.000301712076)
(0.003861806639 0.0007851344288 0.0005711732914)
(0.007953482922 0.0001241944145 -0.0001117349678)
(0.004041783547 -0.0005829836796 -0.0003980805241)
(0.01111251666 -0.0006736077074 0.0002370286729)
(0.006890591108 0.0002288245203 -0.0003711498627)
(0.01200159641 -0.0009646553095 -0.0005104181682)
(0.004168444282 0.00020916462 -0.0007455646863)
(0.01007527546 -3.92097631e-05 0.0009626538893)
(0.007990016154 0.0002546246151 0.001046223887)
(0.009476080361 0.0001660982606 0.0001270174794)
(0.00655164701 0.0007034886834 -0.0002328928665)
(0.007319632758 -0.0002799095361 -6.591224147e-05)
(0.0123132343 0.0004554927167 0.000552562448)
(0.007991157807 -0.0005399475654 0.0004326587771)
(0.001711072005 -0.0001868858186 0.0003982922973)
(0.006094385886 -5.450212552e-06 0.0005740833027)
(0.008326552609 -7.320165182e-05 -0.0004520705339)
(0.007982047493 7.510108224e-05 -7.554266698e-05)
(0.006761564983 5.053529024e-05 -0.0002700296771)
(0.005837438951 1.670432061e-05 5.434645502e-05)
(0.006374734569 0.0004327498401 -8.868845825e-05)
(0.01001157654 -1.632677941e-05 -0.0005165621677)
(0.00655803139 -0.0001309836412 0.0008106416462)
(0.003292591334 -0.0001055011533 8.443363349e-05)
(0.009529377743 -0.0007693749945 0.0006261721546)
(0.01068667571 0.0003309481319 -0.00022803064)
(0.007594937192 -0.0001378698131 -0.000365771984)
(0.006072036506 -0.0004320304422 -0.0007811412659)
(0.01115162764 -0.0002026512926 0.000295578507)
(0.006104623942 -0.0002110033521 0.0005721721101)
(0.008107468394 -0.0002920884783 -8.776495476e-05)
(0.008173214438 -0.0003997264623 -7.922876665e-06)
(0.006385863569 -6.169574857e-05 -0.0003086578706)
(0.009695346296 -0.0001891215421 0.001096404756)
(0.01016078815 0.0001576593491 0.0006331273493)
(0.007345568593 9.325744424e-05 0.000644733501)
(0.009778286271 -8.72203095e-05 0.0003503125845)
(0.003458754611 -0.0002227707287 0.0001978178461)
(0.004214316723 -0.0006358555141 0.0002337597855)
(0.004957198827 0.0002103986609 9.541705051e-05)
(0.00757002843 -0.0002527927527 -4.84307271e-05)
(0.0146809553 0.0008094767117 0.0001620037807)
(0.008405232891 0.0003406958624 -0.0001898117169)
(0.009600651853 1.585305977e-05 -0.0004061225336)
(0.007073545399 -0.0006475157623 0.0001835164315)
(0.005885176553 0.0001209071687 9.927006661e-05)
(0.01240037947 -0.000470799609 0.000948764663)
(0.0115814676 0.0005228118899 -0.0001142815985)
(0.009568320175 0.0003906315017 -0.0001992289991)
(0.008912376438 -1.25121662e-05 0.0002792584229)
(0.009482709135 0.0004140499638 0.0005718404768)
(0.006804706704 -0.0005424329165 -0.0001531381886)
(0.01218273336 -0.0001268753075 5.809800059e-05)
(0.01543756181 -0.0003148103156 -0.0007956055954)
(0.007639037999 0.0007581566011 0.0006170119301)
(0.007356186521 -0.0005032890481 0.0001132605385)
(0.01010825358 -0.0001674647057 0.0001762715836)
(0.006428926737 -0.0005133272498 -5.243726531e-05)
(0.006732310566 0.0002240323901 -0.0003119906274)
(0.0118854618 -5.196523007e-05 -0.0005252043353)
(0.009185598101 5.1318394e-05 7.33735263e-05)
(0.008043212629 0.0009494811287 0.0007226669916)
(0.007414934952 0.0002214352496 0.0001345426936)
(0.007645159039 0.0002636869579 -0.0007732843899)
(0.008395346524 6.445363271e-05 -0.0007256622076)
(0.007963426343 -0.000575227161 -0.0002533256164)
(0.01247035872 8.269065977e-05 4.116586557e-06)
(0.007701021531 7.225909359e-05 -1.238722752e-05)
(0.005738357475 2.033281689e-05 0.0002448779947)
(0.008570080003 -0.0002375381803 0.0005592001118)
(0.01104531761 -0.001074968439 -0.0001055320816)
(0.006364180107 9.093286955e-05 -0.0002522402842)
(0.01195970446 0.0003158856714 0.0002567260031)
(0.004165211679 0.0003321329094 -0.0007311598571)
(0.0113619811 -0.0008890845226 0.0002380749415)
(0.008506596186 0.0002194195804 -0.0006910195664)
(0.008733854012 -9.348210461e-05 0.0002422712795)
(0.005753598036 0.0002686489151 -0.0001198825654)
(0.005939946037 -0.0001523425096 -0.0001683817162)
(0.007095629778 -0.0008046136332 -0.0001759056856)
(0.003906172863 -0.0001501436453 -7.571472115e-05)
(0.0060176873 9.790037091e-05 -0.0003793526886)
(0.003846858136 0.0002710950232 0.000152192909)
(0.007003444624 0.0002145889601 -0.0006527659405)
(0.01179513664 0.0004815788236 -0.0005979463141)
(0.005989302149 3.0855701e-05 0.0001308473303)
(0.006812331763 0.0001168154813 -0.0001574000365)
(0.004746687772 0.0003454891536 0.0002203522101)
(0.009537525005 0.0001949357922 -0.0004314322471)
(0.004340577406 -0.0002282219182 -1.073559074e-05)
(0.007384041955 -0.0003786500375 -0.0007681661188)
(0.005497929325 -0.0001169314579 -0.0002714571041)
(0.0103956745 0.0001363761703 -0.0005348355887)
(0.006254408467 0.0001353444018 -0.0002206291264)
(0.006207674008 -0.0004127743469 0.0001708024837)
(0.008739367479 0.0007318467214 0.0008424023283)
(0.01507086784 -0.000691361662 0.0009362732457)
(0.00974582483 0.0006023270354 -0.001127985159)
(0.01559186932 0.001150159951 0.0009257271116)
(0.003449026558 -0.0002387111791 0.0004642330001)
(0.005102996634 0.0003171454113 -5.80729696e-05)
(0.008012306786 0.0001444996997 -0.0003820520269)
(0.006531353786 0.0006228640344 0.0004104240103)
(0.01260393928 0.0006708238767 0.0004410499166)
(0.007176460243 -0.0005999543532 -0.0002625494277)
(0.009742702377 -0.000514750025 -7.995780139e-05)
(0.01054249425 -0.0006231108701 -0.0003893133954)
(0.01252615503 -0.0003990210837 0.0004238101515)
(0.006449375409 0.0005825179315 -0.0002427806622)
(0.004596687463 -7.396601104e-05 0.0003852007299)
(0.007390451805 0.0002225163478 -0.0004137852981)
(0.005383731133 0.0001553084463 -0.0003388302857)
(0.005353219166 6.627300107e-05 -0.0004827922965)
(0.005691280374 -0.0003766024547 -0.0007576714712)
(0.005117288037 -9.253537986e-05 -6.64047568e-05)
(0.007430565001 0.001067294558 -0.000284618066)
(0.01424818837 0.0001517415051 0.001235415488)
(0.01024389412 0.0003684276339 1.414745424e-05)
(0.0114183968 0.0007790062545 0.0003424214844)
(0.006275282018 0.0004619253567 0.0002836241884)
(0.007579458062 2.05966469e-05 0.0002188383716)
(0.004082967041 -0.0001490701184 5.906286323e-06)
(0.005601555602 -0.0001339626245 -0.0002087387425)
(0.008682227707 4.001051103e-05 0.0004384300539)
(0.008927653055 -7.084165864e-05 0.0009056837609)
(0.007773236553 -0.0006672988796 0.0003581584647)
(0.007431170882 -0.0007690015154 -1.08193051e-05)
(0.01017782911 -0.001032164386 -0.0004931957284)
(0.01115863383 1.199947979e-05 0.0003330131607)
(0.009383390121 0.0001463099612 0.0002118836608)
(0.007136834099 0.0002071193212 0.0006480131878)
(0.009770268912 0.0002279919203 -0.000778297289)
(0.005757920622 -0.0001818195487 0.0002039245024)
(0.005472808755 0.0002878250534 -0.000485400778)
(0.004815550655 0.00025398631 -0.0003046113282)
(0.00413296483 -0.0006277184069 -0.0001176195338)
(0.007395420917 -0.000213448539 -8.217271508e-05)
(0.009242800424 9.937878269e-05 -0.0006391183747)
(0.005290318484 7.670650338e-05 9.645004671e-05)
(0.009313848838 0.0002689886254 -0.0006301732841)
(0.009109682519 4.966325198e-06 0.0002249518844)
(0.006061882588 0.0003416095823 -3.666095208e-05)
(0.005701020957 0.000121748895 0.0004940728293)
(0.005823935623 0.0002749547349 -3.78598699e-05)
(0.006916491243 -9.213971213e-06 -0.0001389311189)
(0.008333079668 0.0003477197897 -0.0001317907222)
(0.008524534014 -0.0004048491663 -0.0003626674543)
(0.00719507391 7.248535328e-05 0.001030232031)
(0.009346060093 0.0006898461436 -0.0003412498777)
(0.01005423254 -0.0008934030903 0.001097694134)
(0.008232001705 0.0002515093811 -0.0008646807346)
(0.01094625258 -2.414046626e-05 0.0009548624928)
(0.01136634675 -0.0001209463898 0.0001659168577)
(0.006517432136 -0.0004682057732 -0.0008576281366)
(0.008862675437 -0.0004009823673 -0.000734212846)
(0.01113317396 0.000283856103 0.0005639881915)
(0.007491701223 -0.0003367764142 0.0008698573664)
(0.008829616484 0.0002233525006 -0.0008290956993)
(0.009579933627 -0.0003333949767 0.0005409316677)
(0.008911556961 0.000114109869 0.0003891079378)
(0.007414483265 -0.0008480216943 -6.316348284e-05)
(0.006220606625 -3.964435389e-05 -2.585896614e-05)
(0.005827469596 -0.000397325549 -0.0003156315314)
(0.006673900141 0.0005613259223 -0.0002975518048)
(0.01488386535 -0.0002983873052 -0.0002336225588)
(0.007449034686 -0.00031825415 8.742398982e-05)
(0.005951485155 -0.0004019436101 -0.0007534725588)
(0.003616373036 -0.0003267171517 0.0003228830888)
(0.01183515177 0.0001456604944 0.0002723275619)
(0.01131610481 -0.000709200217 -0.0002503179365)
(0.006228625181 -0.000240846874 0.0002343738171)
(0.01142857052 -0.0003533898616 -0.0006352028986)
(0.004563623179 0.0001361240037 0.0003542307365)
(0.007728177712 0.0004055413904 0.0003414974224)
(0.008146134533 -0.000125192128 -0.000789588852)
(0.008626282787 -0.0003213877511 -0.0004566017338)
(0.007428072614 0.0003609512423 0.0004552535324)
(0.007469565777 0.0002751216519 -1.507232094e-05)
(0.002194840684 -0.0003302769302 2.982162817e-05)
(0.01225127291 0.00112105387 -0.0002780413288)
(0.01348719812 0.001235331142 -0.0007000667661)
(0.005587150099 -6.96286364e-05 0.0002124968733)
(0.008519850869 0.0001757778937 0.0001628642566)
(0.007053613237 0.0005367189996 0.0001881959647)
(0.007667110541 -0.0007817190794 0.0005400572683)
(0.005956732005 -0.0006108345569 -0.0005771918152)
(0.005888346337 -0.0007190922857 0.0005506664784)
(0.01046133265 0.0005342973121 0.0007307858544)
(0.009388534941 -0.0004424753578 7.816364112e-05)
(0.003509255513 -0.0003488814521 -0.0001311099229)
(0.006462581458 5.341555005e-05 -0.0004385117047)
(0.007654113075 0.0009513078598 3.19431483e-05)
(0.008835893966 8.731398218e-05 -0.0004648402082)
(0.003388832252 -0.0003230539434 -9.786571704e-05)
(0.005443728116 0.0007277668127 0.000226705928)
(0.01354588584 -0.0006967294187 -0.0007819666095)
(0.01105239444 0.0008286837086 0.0006609369257)
(0.008496780528 0.000696143842 -0.0001192005153)
(0.0122708203 -0.000460391098 0.000640873465)
(0.005899471631 0.0001185588592 3.839302059e-05)
(0.006303576631 0.0003236383339 -0.0004571452295)
(0.007597256251 -0.000215262038 -0.000278821449)
(0.004125712123 0.0007206181637 -2.836610809e-05)
(0.01332961165 0.000590099134 -0.0003160643076)
(0.009038366432 -0.0001960252348 -0.0006181775739)
(0.005279368473 -0.0004345598304 -0.0001925605911)
(0.005890852314 -0.0001759450508 0.0003208695685)
(0.005788014779 -0.0005650371809 0.0009693287109)
(0.009026315151 0.0006764022573 -0.0003325861266)
(0.003907543099 0.0001805586395 -9.374863428e-05)
(0.01317060121 1.423697763e-05 0.0006201095738)
(0.009835495102 0.0002503590822 -0.0007536310914)
(0.0098256678 -0.0005768199277 -0.0001016689022)
(0.009651455399 0.000260142286 0.00046030432)
(0.008765321058 -0.0003336345618 -0.0002496691504)
(0.01055840073 0.0004720055098 0.000126549827)
(0.01053951909 0.000962725553 -4.64171612e-05)
(0.01160182661 -0.0005412748251 0.0006167410813)
(0.006587834446 -0.0002664426887 1.081432828e-05)
(0.006631918673 -0.0002681922687 -0.00016889783)
(0.01528668536 9.728744763e-05 0.0006198947882)
(0.01026878303 -0.0001573405381 -0.0002171463176)
(0.006265641145 0.0003684555284 -0.000289584699)
(0.006724921678 -0.0001041174559 0.000271047943)
(0.006326633002 -0.0008203353628 0.0004062485707)
(0.007051464797 4.003398915e-05 0.0001381360866)
(0.01203321455 0.0007519583581 -0.001403131626)
(0.006760512572 -0.0004209763981 -0.0002705535535)
(0.00834868984 0.000606709326 -0.0002750718432)
(0.01440078991 -0.000583062945 0.0003556842624)
(0.009174788728 -7.079570248e-05 -0.0002307380728)
(0.01187080531 6.001989354e-05 0.001025824628)
(0.004419306256 -0.0001447400774 0.0002866734256)
(0.007421598757 5.40176058e-05 6.618898557e-05)
(0.003914527043 -0.0007585500153 0.0002041005988)
(0.004995360729 0.0005507655024 0.0002454093236)
(0.009324065217 0.0004215289708 -0.0006679002377)
(0.01044677806 0.001035690235 -0.0004109318272)
(0.007928988801 -0.0003993016181 0.0001969591658)
(0.009471034246 -0.0011356769 -0.0005168145)
(0.005662039608 0.0005948618733 -0.0006141198457)
(0.007998459989 0.0004992459964 0.0008905227318)
(0.005799941127 -0.0002907389428 -0.0002877094888)
(0.009007446849 0.0007750815331 -0.0004105536995)
(0.006337411401 0.0004491136597 0.0001330067997)
(0.009247461991 -3.068908834e-05 -0.0003812932538)
(0.007342142498 -0.0004256477429 -0.0004060807437)
(0.007476520412 8.72236342e-05 0.000281949696)
(0.0100204986 0.0003664386299 -0.0001299061091)
(0.009948870943 -0.000306553409 2.493066738e-05)
(0.004384649306 -0.0001072973214 0.0001699581486)
(0.009386340002 0.0008201969985 0.0002366515686)
(0.005358375716 -0.0003042087161 0.0002076406446)
(0.007424467595 0.0001498278334 -0.0003360051886)
(0.01037863987 -6.962235719e-05 0.0003081010618)
(0.01111225546 -0.0001744373502 -0.0002900652289)
(0.005527968818 4.332146543e-05 -0.0005561186927)
(0.01055502585 -0.0003217841997 0.0008590966842)
(0.00696710205 6.417768879e-05 -0.0001614629082)
(0.006628246068 0.0006673917296 -0.0009130195135)
(0.01212252604 0.0006267221699 -0.0001241658925)
(0.006829261564 9.84413686e-05 -0.000406157141)
(0.003674174038 9.439721941e-05 0.0003515138664)
(0.01254166186 0.0003697383128 0.001051919149)
(0.006514516553 -6.571053924e-05 0.0004818983722)
(0.008905148123 0.0005205119269 0.0003435220629)
(0.007543698013 0.0001268067543 -0.0003677297276)
(0.003566100414 -8.044346389e-05 -0.0004182843678)
(0.009803903422 0.0002083561334 0.0009724277762)
(0.007056721058 6.83497993e-05 0.0003328553741)
(0.006694239508 0.000519672579 0.0001761949766)
(0.00471140052 0.0001142774315 -2.320412086e-05)
(0.00666153394 0.0002421264475 0.000308039803)
(0.009089401947 0.0006601905847 -0.0005251414457)
(0.008225045645 -0.0001411836911 0.0004676244617)
(0.007022327858 -0.0004648531138 0.0004668657522)
(0.009421813202 0.0002882004987 0.0001779274128)
(0.007062036843 0.0003322716422 -0.000202271983)
(0.0120613046 0.0003292226604 -0.0005623281813)
(0.008089590792 -0.0005031063921 0.0007768484129)
(0.005673697686 -0.0006567123993 6.074964003e-06)
(0.007408224231 -0.000250504146 0.000274192108)
(0.006068220111 -5.406749023e-05 0.0005659090442)
(0.006772951766 0.0003892238967 0.0001489344327)
(0.005164090508 -0.0005422915813 -0.0003427555708)
(0.009157233478 0.0005844520449 -0.0009554118118)
(0.002693637115 0.000579538561 -0.0003249671296)
(0.009023469062 0.0005557482174 -0.000353898647)
(0.003439930698 -0.0001373329139 0.0002416229535)
(0.01065309658 0.0001797535686 8.700418393e-05)
(0.008976796299 0.0001182904625 0.0002337726288)
(0.008383385572 0.0005095305873 2.715772681e-05)
(0.007690839091 -0.0001219009148 7.502539351e-05)
(0.007590293771 1.435913739e-06 0.001014472501)
(0.009395634935 0.0003298651596 0.0001910923115)
(0.01137425372 -5.190873729e-05 1.243377624e-05)
(0.006311411638 0.0003257740889 0.0001740900046)
(0.006133908573 0.0003904568963 -0.0001596025896)
(0.008454213349 3.469760853e-05 -0.0002669925612)
(0.007319485028 0.0004714011076 -0.0001546139322)
(0.005356327132 0.0007387415548 -0.0002628365331)
(0.007222443835 -0.0003371502714 0.0004816926913)
(0.008824596931 -0.0005684852765 -0.001068848224)
(0.00743908326 0.0001604684708 0.0009622054232)
(0.01235059262 0.0001143243978 -0.0001802970118)
(0.01090616499 0.000276890508 -0.001044439818)
(0.01075596728 -0.0004434566023 -0.0004846607438)
(0.008535166968 9.680650353e-06 -0.0005593143742)
(0.01097145229 0.0008622932518 -0.0003264161178)
(0.005189221652 -0.0002626083465 0.000951186766)
(0.01327857123 0.0001452006789 -0.0007675997332)
(0.01085489442 0.0002589988579 -0.0003276749134)
(0.01486008158 0.0008500238859 0.0002683503593)
(0.01109375763 0.0002185641761 -0.0001088997099)
(0.01559928271 -0.0007914208315 0.0006804466105)
(0.009441087524 0.0006659240217 0.0006294225492)
(0.0132074273 0.0007806691255 -0.0002276617632)
(0.005957087403 7.513470354e-05 0.0001055343759)
(0.008290360737 -0.0003409519782 -0.0004537342177)
(0.01033106666 -0.0009987556718 0.0005120328912)
(0.01125875606 -0.0002655150545 -0.0005227797003)
(0.009291145704 -0.000309603584 -0.000534535735)
(0.006342666369 0.0001038472332 -0.0001872288359)
(0.009770289273 0.0002494715726 -0.0006212700236)
(0.006311661395 -0.0001410216935 -0.0005197942034)
(0.005547776349 -0.0002430252739 -0.0002874031039)
(0.003743053277 0.0008085058833 0.0004174277437)
(0.01006334064 -0.0005522924269 0.0003630469631)
(0.00710884657 5.604702224e-05 -0.0004466773681)
(0.004755688263 0.00085311296 0.0001041600146)
(0.01188072998 -0.0009948722834 -0.0003901970887)
(0.01014071243 0.0001893435378 -0.0001845695783)
(0.008900760859 -7.919622381e-05 0.0001905942414)
(0.00554704646 -0.0002891816693 0.0002922539261)
(0.003792098439 0.0006923322321 0.0005358796796)
(0.008779386346 -0.0003211893866 -0.0003509678523)
(0.004212000355 0.0003949775666 0.0001135412999)
(0.004479385806 0.0002399715993 0.0004119538646)
(0.00785205932 -0.0001362347902 -0.0001732196213)
(0.007564416594 -2.217052592e-05 0.0005818930399)
(0.00675175516 -0.0006301130953 -0.0008083569605)
(0.006399943996 -0.0004807018935 0.0005641956898)
(0.003346692621 0.0001506945135 -4.123223712e-05)
(0.008927119593 -5.604261159e-05 0.0001654322845)
(0.01021939751 0.0001229922306 0.0008839380325)
(0.01312789713 0.0003357827308 -0.0002068748721)
(0.01026960961 2.785564893e-05 -0.0004396773043)
(0.009320948884 0.000288368659 0.0001998988137)
(0.006629228776 0.0004771732498 4.24634392e-05)
(0.00803206719 -0.0002869132196 -0.0005237565105)
(0.008093025615 0.0004486703143 -1.62619722e-05)
(0.01077569788 -0.0005184998452 -8.612107788e-05)
(0.005084965798 0.0002959682359 0.0002753237162)
(0.006122817121 0.0002773535442 0.0004490243191)
(0.007555869114 0.0002170441938 -0.0004562619416)
(0.004160417012 -5.461973762e-05 0.0003935045129)
(0.009785532429 -8.428486791e-05 -0.0001160422741)
(0.006804108647 0.0004008404009 -0.0005717910315)
(0.007094296264 0.0003421927942 0.0007253152689)
(0.004898729137 0.0002020402349 1.584255124e-05)
(0.00797848062 0.000165306337 -0.0001010784462)
(0.01134024716 0.0003654352173 -0.0002775138555)
(0.007079404514 -0.0001353872105 -0.0002095827764)
(0.009448368628 -0.0002473450199 -0.001045494554)
(0.009017447096 -0.0002150234452 -0.0005509256313)
(0.004556079066 8.31239483e-05 0.0004240579813)
(0.0048485035 0.0005174659664 0.0002924914945)
(0.007739465323 0.0005332419052 0.0004422887414)
(0.009683930484 -2.586524169e-05 -0.0009073108395)
(0.006245098773 -0.0004408587748 2.373311973e-05)
(0.007936711212 0.0005615544298 -0.0001850725247)
(0.01669849055 -0.0004134369845 -0.000100046337)
(0.003455104003 9.478798713e-05 -0.0004297084058)
(0.004624881103 9.983004918e-05 0.0004439941246)
(0.007204722523 0.0001831895656 -2.796151622e-05)
(0.01358538684 0.0002978808147 -0.0001771018124)
(0.00733047158 -0.0003017155564 -0.0002264909554)
(0.005951839791 0.0003330767153 -0.0002798565696)
(0.003477986092 -0.0003454101396 6.306746257e-05)
(0.004982704835 0.0003666576828 0.0001957888137)
(0.00782910431 0.0001119825943 0.0006971586043)
(0.008713471433 0.0006144376439 -0.000281007214)
(0.005839808469 -9.801785145e-05 0.000756226656)
(0.009361050682 -8.822026191e-05 -0.0002419437489)
(0.009050230721 0.0002050142796 0.0003116830091)
(0.007023531469 -2.766112882e-05 6.617297079e-05)
(0.0127395494 -0.0001417646004 0.0001779247708)
(0.009924606814 0.0002752427959 -0.0001612045615)
(0.007986984828 -7.352065232e-05 -8.719709901e-05)
(0.006728419173 4.504828465e-05 -0.0004505702798)
(0.005170545959 0.0002992965367 -0.0004064655825)
(0.008915376062 0.0002333379352 0.0002615250033)
(0.003401824783 -9.971208568e-05 0.000268150197)
(0.007138006866 0.0002187146462 -0.0001228910711)
(0.006782204346 -0.0003236823769 0.0001035579386)
(0.007712197918 -0.0003270402649 -0.0002935845684)
(0.005407275955 0.0004698956083 -0.0003214963273)
(0.01502596926 0.0007858232924 -0.0004247812442)
(0.009298233972 0.0002235860521 -0.0006300621008)
(0.01027960783 -0.0003008328625 -0.0001728434737)
(0.01136814362 -0.0002201167953 -0.0002794589737)
(0.007352343 1.03207143e-05 0.0003607004691)
(0.008905520586 0.001902161954 0.0005166174143)
(0.007632070693 0.002959218456 0.0008749711558)
(0.007311855119 0.004236578698 -0.001513092672)
(0.008447231852 0.002722580369 0.001799380678)
(0.003307287824 0.00204052887 -0.001111755229)
(0.006724066389 0.0008932545359 0.001283925595)
(0.007885120292 0.001830265193 0.0005128657513)
(0.008436784428 0.001531770438 0.0008016957163)
(0.005624415171 0.002691426843 0.000136879691)
(0.003664580443 0.001964578103 0.001218292661)
(0.004961917631 0.0008200246882 -0.0003733387249)
(0.007189665866 0.002354420169 0.0002380505494)
(0.01060540137 0.004883808273 -0.0007347861848)
(0.009669581757 0.00333946826 0.001191320224)
(0.009571599499 0.002920424997 -0.001064411358)
(0.009819122253 0.004003925626 -0.002331696368)
(0.005084606442 0.004167221418 -0.0006905133626)
(0.01237321324 0.003149450265 0.000854988639)
(0.01251503418 0.001529832457 0.001327036923)
(0.007748603403 0.0004696737942 -0.0003154409339)
(0.007975146582 0.0001824472543 0.000847255711)
(0.006960269163 0.001110886469 0.00051675738)
(0.008137262778 0.001166461181 -0.0002670108703)
(0.006679395858 0.001969585957 -0.001666922728)
(0.0136571798 0.004276352798 -0.0001629561764)
(0.01444302831 0.003772796488 0.0002457149607)
(0.01349282404 0.003980720772 -0.0005865817422)
(0.01266265748 0.004609178763 -0.002836471248)
(0.00968085155 0.005482114198 -0.0006480999051)
(0.02100953289 0.004521949758 0.002520876401)
(0.003615017345 0.0001192230827 -0.0001434273123)
(0.009544931765 0.0006591371342 -0.001218931669)
(0.01244202555 0.001222524684 -0.0004236461811)
(0.01057466685 0.0001683423511 -0.0001144872903)
(0.008843744394 0.002796455774 0.001322796534)
(0.007949442079 0.004181371103 0.0006526680253)
(0.0123322477 0.003826792602 0.0007079856128)
(0.008484494404 0.004387259197 -0.002142131355)
(0.009550474936 0.004410289969 0.0002998641328)
(0.009906789535 0.002254974877 -0.001956949443)
(0.00816181918 0.0008695682649 0.0001301430019)
(0.007291887416 0.001241743805 0.0007113939762)
(0.00788749277 0.001490395234 -0.000310802754)
(0.007333648426 0.001245577464 0.0001015500572)
(0.01020706789 0.002549534956 -0.001304807977)
(0.01606522424 0.003734744487 0.0004551491857)
(0.00881635926 0.00367542156 0.0005635277227)
(0.01223196964 0.00671211309 -0.001228904838)
(0.009533906478 0.002222614756 -0.00112008635)
(0.01064475691 0.002630953332 -0.0004080266987)
(0.01082737191 0.0001179999292 -0.0004304927776)
(0.009375934683 -0.0004711140708 0.0005131801057)
(0.00886487381 0.001066094364 -0.001347607232)
(0.008185448585 0.0007647005081 0.0006617485713)
(0.01148997497 0.002906065771 -0.001539679654)
(0.009293497637 0.002690939364 0.0002245858795)
(0.01161181179 0.001738409501 0.0006359021028)
(0.00832545347 0.002165276611 0.0006936745548)
(0.01631611369 0.005306092696 3.568207845e-05)
(0.0141309257 0.002206762854 0.000552676252)
(0.006598900038 6.76803261e-06 6.80877931e-05)
(0.009985085036 -0.0002877603551 0.0007321795549)
(0.0070006458 -0.0004735820242 -0.0002374844926)
(0.006383460809 0.001283070572 -0.000139298032)
(0.008312364569 0.0004498981479 -0.0009630111782)
(0.01309068935 0.001088351502 0.00021832964)
(0.01598227662 0.001595531734 -0.002041083355)
(0.006150090395 0.002429255609 -0.000671089817)
(0.005607576752 0.000965384713 -0.0001454147955)
(0.01019224419 0.002471993909 0.0004040839222)
(0.0120308207 -0.0009392604217 -0.0003118169415)
(0.0133140364 0.000738903347 0.0002445047073)
(0.01050208734 0.0005916800607 0.0006531130386)
(0.01331718196 0.0005872472243 0.0006215806941)
(0.008698892739 0.0005388803078 -0.0003620706272)
(0.008728428613 0.00145367039 0.002626107638)
(0.009024985795 0.0007863452119 0.0002534507016)
(0.01016774146 0.002309021242 -0.0004192323282)
(0.007748830108 0.0003348423345 0.0002049568443)
(0.008358009674 0.001506356501 -0.001116120562)
(0.009512763573 -0.0001562608629 0.0001322805912)
(0.01784588707 9.920255522e-05 0.001076050803)
(0.006329816158 0.0002111642383 0.0001276868531)
(0.01083723563 0.0005113914418 -0.0002404944866)
(0.00531364975 0.000362041259 9.782523365e-05)
(0.01384343625 0.0006577049338 0.0009235281797)
(0.01504832979 0.001264513989 -0.0003405788353)
(0.007040883156 -0.0001953719972 0.0007842464366)
(0.008178710089 0.0009778198569 4.628525125e-05)
(0.01230774248 0.00207924973 -0.0008461701486)
(0.007649634792 -0.001143394298 -0.0002631330774)
(0.00851647063 -0.0002273016744 -0.0005099710029)
(0.01609080504 -0.0005043664145 -0.0002616214675)
(0.003754132096 -0.0003679789691 -0.0002209354253)
(0.01199711839 -7.209877772e-05 -0.0003958854465)
(0.009719626721 0.0008539069356 -0.0005942873574)
(0.007528118393 0.001156410901 -0.0003401501413)
(0.01037044639 0.0008569463418 -0.0008475363697)
(0.009929356318 0.0003900868133 0.0003684563257)
(0.008973498848 0.001097615685 0.0005985463728)
(0.01317853105 0.0001625368858 -3.492539696e-05)
(0.003186237556 0.0004678223722 -6.407380467e-05)
(0.01342138877 0.0001392518138 3.653892872e-05)
(0.008461345925 0.001226955293 0.0006630880378)
(0.006596329447 0.0007130135856 -0.0003843933158)
(0.0104970379 -7.655175574e-05 -7.333205162e-05)
(0.01009499783 -0.0003024814312 0.0007128180638)
(0.009127557815 0.0005737043546 -0.0004067757589)
(0.01238290183 0.001061127833 0.001109391945)
(0.01214101075 0.001136574003 -0.0006168412832)
(0.006634784156 0.0004863727028 -0.0001800435627)
(0.01379137388 -0.0001897449685 -0.0006156782612)
(0.007692952311 -0.0004926071727 -0.0003809984566)
(0.007827477778 0.0008991021686 -0.0003968545004)
(0.008113787735 -0.000178943711 0.0001305958822)
(0.008824438041 -0.0004941970517 -0.0001723600594)
(0.003945555446 0.0004435122186 -0.0009150824204)
(0.00910218561 -0.0001944652487 0.0004660482694)
(0.01209681625 -2.284031718e-05 -0.0006130404174)
(0.011697129 0.001532650191 0.0002464648034)
(0.0123653184 -4.257420786e-05 -0.0002433785725)
(0.005288762308 0.0001507547217 3.73750268e-05)
(0.01014958759 -0.0003057204784 9.635558268e-05)
(0.006149653208 -0.0004678443259 0.0003358911573)
(0.004339733849 0.0005936285536 -0.0009757485544)
(0.007596919961 0.0006514403653 -0.0009019567404)
(0.009079444959 0.0005944293836 0.0005522306968)
(0.0106553626 0.0003690460182 -1.346916941e-05)
(0.005058572129 0.0001291641647 2.284549488e-05)
(0.006820908675 7.691161324e-05 -6.816663837e-05)
(0.01442990072 -0.0007784867982 0.0003016970262)
(0.007555867715 0.0001479713815 0.0005619690733)
(0.006817916965 2.094090383e-05 0.0001179463792)
(0.008489024645 0.0003596748011 8.622584177e-05)
(0.01091272961 -0.0001693911507 0.0003654648606)
(0.007968467171 5.602916177e-05 -0.0005073891694)
(0.01387873572 -0.0007307770804 0.0004606947121)
(0.006523126572 0.0003559458656 -0.000554338427)
(0.008571874407 0.0002274227873 -0.0008058242869)
(0.006749915958 -0.0007368240044 0.0002659413379)
(0.01320114299 -0.0001302561 3.550704605e-05)
(0.01120522776 -0.0006148147253 -0.0008839928002)
(0.005918614347 -0.0005768786065 -0.000317156808)
(0.009479143757 -8.150873191e-05 -0.0008603668521)
(0.01195704534 -3.34384619e-06 0.000237560726)
(0.004024342374 0.0001390596154 -0.0001796900066)
(0.007555315205 0.001272678319 0.0001600266328)
(0.01350870529 -2.185135608e-05 -0.0003056856468)
(0.008914605961 -0.0002774544378 -0.0005409908367)
(0.01037291931 -0.0004048856556 -0.0002394236127)
(0.008252107631 0.0004195655711 -0.001079954957)
(0.01549954212 -0.0004455545107 0.0001153157015)