/*--------------------------------*- C++ -*----------------------------------*\
| =========                 |                                                 |
| \\      /  F ield         | OpenFOAM: The Open Source CFD Toolbox           |
|  \\    /   O peration     | Version:  2406                                  |
|   \\  /    A nd           | Website:  www.openfoam.com                      |
|    \\/     M anipulation  |                                                 |
\*---------------------------------------------------------------------------*/
FoamFile
{
    version     2.0;
    format      ascii;
    arch        "LSB;label=32;scalar=64";
    class       volScalarField;
    location    "0.003";
    object      overallT;
}
// * * * * * * * * * * * * * * * * * * * * * * * * * * * * * * * * * * * * * //

dimensions      [1 2 -2 0 0 0 0];

internalField   nonuniform List<scalar> 
654
(
292.1574397
300.1410845
295.9271602
299.6552799
297.5971765
299.1050504
299.5322208
299.9901797
297.8421977
296.7781182
295.8820221
297.9521556
294.8344597
301.0552163
307.0692742
315.7073188
342.5061131
397.3033183
552.0797159
960.9741554
293.0826838
303.2583992
299.2870836
299.8789852
301.3244488
303.2399862
302.5848168
302.8675718
302.1773552
302.4794429
300.236813
298.8835448
303.9030457
311.8510865
319.6459571
334.309862
357.0822033
419.9203476
567.6157584
857.2532441
294.5576886
304.4489411
299.1519091
296.6676633
294.504364
295.0883599
292.2470714
293.5391467
293.866159
296.9321823
295.6469467
294.9928244
299.8427704
307.2903401
313.7047747
331.0824377
354.4544337
401.3650701
536.3025294
698.3937749
292.0112712
302.9877733
297.3844676
296.9521352
297.4680609
294.8504119
295.9123748
295.6813648
298.2329491
296.052744
297.8850495
299.9634216
303.0993632
306.310003
316.1362924
322.0379037
350.5833444
409.1133461
473.3755185
598.5475946
290.0052656
300.9138277
295.3364176
296.9659246
298.2512629
300.1188486
298.3118905
299.3056994
300.5178766
300.3322175
301.7678192
300.9504604
297.0706117
301.6814233
308.6481622
321.9318903
338.4270813
381.2395505
436.5729622
507.8249622
291.1337097
301.4294072
299.2080751
300.6698099
297.6901321
294.5448039
296.4617857
296.3287087
296.4964668
300.7536104
299.8026637
297.7485523
299.086622
300.0287374
309.6126196
317.6301403
332.9842196
382.1848657
398.8186055
456.9923408
294.0708616
302.8890153
299.1857887
298.7665364
302.7624602
303.0217856
302.2308236
299.0380355
298.6357482
296.7813408
298.5787863
298.2636333
299.3854768
299.8178535
301.5593948
310.5601045
328.076523
343.5061664
366.0751527
402.0366752
293.704753
303.5206446
299.8424656
303.2866864
297.2966237
300.0613461
300.7077125
302.0341744
303.7309063
302.5935836
298.5843912
299.551421
299.2700552
300.9604038
308.1744314
309.7014109
316.9990571
331.9266535
346.823529
361.9062064
296.4614411
308.5863303
303.2460261
303.9856157
304.5679988
303.3024237
303.3480036
302.6500186
302.7536271
303.6153893
304.3901182
304.8853555
305.3633461
308.3283618
305.864886
310.8146235
316.6239443
326.9954984
337.3486038
352.2526627
296.6847794
302.9002193
298.1591341
297.4514046
298.0452507
300.1517796
299.5766767
298.5668676
298.8369413
300.3812988
301.8856912
304.7805018
311.5427964
308.397516
307.2947036
310.1109703
310.211525
312.652354
328.8539807
345.3059844
294.6820382
303.0044546
301.8296542
299.6142147
300.6092226
298.1728126
297.9192528
300.8510611
299.3634154
300.4131804
299.8421568
297.1570914
300.5102973
300.8963764
303.5553633
301.8840909
305.9033761
305.6954666
315.5907235
328.9623677
294.2238675
305.3065283
299.8679424
299.6190255
299.5025584
299.9564031
300.4377629
299.2885845
303.3602609
302.3990422
303.0674153
303.1219239
303.1089841
303.666851
303.5370075
304.2409328
306.1568788
307.2539256
311.1221143
326.9631356
292.4995626
302.4462962
297.2262407
296.7244998
296.1613616
296.4542572
297.3124301
297.8694139
296.9422406
298.1136609
298.3657647
299.9646151
300.6544964
301.5065496
302.2298777
301.1461254
304.3479801
303.3389994
307.2147936
307.665761
292.8928785
300.7186043
298.8426132
300.1718333
300.6194776
302.3730342
301.6839689
302.2422499
300.232429
298.7197109
303.1510114
299.3165122
299.5463657
299.2072871
303.1166112
301.3346839
299.596572
304.5315712
305.8139669
310.5864859
294.3614663
307.0775983
301.8890787
300.3639157
301.1596593
300.8215832
298.7633889
298.8052608
299.4551349
300.0580434
298.5679307
299.421212
297.2487638
294.2851602
295.7012077
295.8151853
299.7954079
302.7756492
305.3986789
306.871458
293.1960381
301.4006066
298.5878147
298.2491561
297.4902003
296.7342982
298.8812183
298.0321941
298.1749923
299.0057624
299.7409389
299.2557586
299.5661539
300.8292704
299.2086386
300.157208
301.8200233
300.4592821
302.6576252
306.3140315
293.4816243
302.362496
297.8454906
298.005252
298.6618244
298.3076675
298.7428599
298.4933774
298.4982941
298.334695
298.9747454
299.7496532
299.15803
300.0954228
300.7680382
301.673992
301.383547
302.8752236
302.5167592
308.2410537
297.028409
303.6227803
300.2617749
298.6102026
299.9208269
301.5731522
300.1232087
298.7085206
298.9175027
297.5390879
298.3396172
296.8964191
298.2859052
298.8156707
300.5245038
298.380839
296.864134
298.4081864
296.8219889
299.3890758
289.794926
300.0765367
297.1225195
297.705609
297.278207
298.6319824
300.7688956
300.7230509
301.0385031
302.3357373
300.7352897
302.2606939
300.2137231
297.4766728
297.0962985
300.9939206
301.3960042
299.044487
300.5851465
298.7241653
293.1315583
303.886491
300.0193706
299.2499785
300.1618656
298.2913641
296.5407102
295.8965605
295.2779635
293.3399884
294.9519925
296.4028889
300.2431688
300.98009
302.357783
302.8821751
300.2632248
301.5853007
302.8417329
303.1197111
292.1244002
301.9587707
296.7321063
296.8642197
297.3751153
296.5381892
297.651396
298.277472
300.6138612
302.6080922
302.3351633
303.4952826
300.0827772
299.1470293
298.2926287
300.2227194
303.022777
304.0490136
302.1098449
304.2717221
296.0578952
305.5430409
299.709293
300.1162549
299.0860076
300.2946455
298.917311
300.0882929
299.7764209
298.8423877
299.1632861
299.0876311
298.1146658
300.4614345
303.0094887
300.0608587
298.5298898
299.9427521
299.6719674
301.9228731
1052.352245
986.2238543
961.8286253
930.8645215
914.1606656
903.2519595
895.8300255
870.3093625
866.3267849
851.8569779
998.0258319
1013.963785
995.9279176
979.1836539
963.8702263
961.9173083
955.9286517
947.8571962
943.6938563
940.3452956
863.7301196
915.2635704
931.0405307
936.2945044
939.8198643
946.0049965
943.7772501
944.2552796
939.500876
927.5855218
714.0562365
801.3558987
842.9443044
884.984814
882.7126348
883.9306688
904.5889619
894.6046055
898.3771747
908.9738989
604.5719176
695.2467655
751.5138322
803.9370092
807.970103
823.7958503
862.9992238
855.0488668
867.4345734
864.7420803
515.074002
603.7914891
668.2120048
705.1814473
739.5859779
764.9857898
805.0512624
817.2336572
836.0123768
836.9879539
452.9994104
522.2592527
563.0699843
621.3491359
650.6218934
689.5778638
711.1030638
747.9962528
767.1047164
789.7604812
409.7685545
459.28859
489.8898676
561.0363791
583.4907363
620.9305779
655.3069663
687.7957659
719.4536822
738.3581654
391.1317737
414.4312268
441.974212
479.4223907
516.2084665
561.6076375
591.8943852
628.0110564
668.7796523
688.2579507
362.4136395
389.0077738
413.460058
434.2683698
448.8832642
504.2241635
535.1921169
559.0042192
597.5461053
628.285285
347.3010549
378.0979812
385.3814813
408.5619082
424.5412516
462.7827822
486.7873201
519.0858256
535.0390868
559.7580768
330.0810637
349.1006907
362.4420491
382.3762822
390.976225
411.1809942
429.7191126
459.8104628
481.7682013
503.557901
325.3029722
334.0679879
346.5350155
349.765149
364.1146311
387.8998953
401.5777652
422.9406007
440.1484991
463.803832
323.1325812
325.3762867
337.8912592
343.6659929
353.9726322
365.1198107
382.0287672
391.0480662
417.4382757
425.3545859
317.5129897
315.5224497
317.8034708
323.2562828
337.1953357
346.5265937
353.1173892
370.5910352
386.2766455
396.9461762
306.2649774
316.9874377
316.0003938
320.9374418
325.7090815
338.9656733
348.6158766
353.5385937
367.3422126
377.6911821
308.3080435
312.2203585
314.5284485
314.2254034
309.460654
318.2931562
328.3073615
334.7019269
345.3894545
361.2547006
306.0147784
306.3267261
306.4042944
306.6904777
310.3050577
310.9197681
321.5167107
320.2848992
327.096525
340.6636268
302.3337719
305.0943126
307.9961837
310.2691484
308.4766776
310.8323317
313.0008935
319.4909181
319.4110202
329.1367895
304.4584167
304.1086896
305.5898064
305.407733
305.752072
310.3661286
313.0524228
316.4713368
323.9287304
322.3368431
303.7130553
301.5946638
303.4834005
302.2694529
305.5388107
307.2533759
309.9690778
312.5742607
322.5044505
321.0131216
299.6423131
298.3005648
301.8965035
303.6972348
)
;

boundaryField
{
    flow
    {
        type            calculated;
        value           nonuniform List<scalar> 
42
(
292.1574397
293.0826838
294.5576886
292.0112712
290.0052656
291.1337097
294.0708616
293.704753
296.4614411
296.6847794
294.6820382
294.2238675
292.4995626
292.8928785
294.3614663
293.1960381
293.4816243
297.028409
289.794926
293.1315583
292.1244002
296.0578952
292.1574397
300.1410845
295.9271602
299.6552799
297.5971765
299.1050504
299.5322208
299.9901797
297.8421977
296.7781182
295.8820221
297.9521556
294.8344597
301.0552163
307.0692742
315.7073188
342.5061131
397.3033183
552.0797159
960.9741554
)
;
    }
    obstacle
    {
        type            calculated;
        value           nonuniform List<scalar> 10(924.1855619 874.7198943 830.8654691 807.1070055 769.8559008 745.7895389 779.8922829 753.9681443 742.9560908 745.8812055);
    }
    frontAndBack
    {
        type            empty;
    }
    procBoundary0to1
    {
        type            processor;
        value           nonuniform List<scalar> 
21
(
841.7072686
919.2620999
924.8325666
903.6081339
867.500269
832.6614121
802.0720934
760.7874939
712.009208
651.727785
588.7743488
541.1748461
484.4857422
448.6156412
411.5216698
391.8198467
365.3383837
349.8636109
341.1215595
333.0338957
327.4002591
)
;
    }
    procBoundary0to2
    {
        type            processor;
        value           nonuniform List<scalar> 
31
(
292.3228618
302.6185201
301.2516248
301.4744808
301.1971827
299.6788801
300.0091434
301.0472058
301.5485485
299.9363695
300.2195747
300.3461235
301.9587949
300.8982913
299.7591204
298.1163601
297.8256176
298.6737917
298.5382334
299.9971717
306.9442325
310.0200166
304.3609691
306.9921865
307.582929
312.4484772
298.7878071
303.668291
301.8216167
306.9442325
300.3022627
)
;
    }
}


// ************************************************************************* //
