/*--------------------------------*- C++ -*----------------------------------*\
| =========                 |                                                 |
| \\      /  F ield         | OpenFOAM: The Open Source CFD Toolbox           |
|  \\    /   O peration     | Version:  2406                                  |
|   \\  /    A nd           | Website:  www.openfoam.com                      |
|    \\/     M anipulation  |                                                 |
\*---------------------------------------------------------------------------*/
FoamFile
{
    version     2.0;
    format      ascii;
    arch        "LSB;label=32;scalar=64";
    class       volScalarField;
    location    "0.003";
    object      p;
}
// * * * * * * * * * * * * * * * * * * * * * * * * * * * * * * * * * * * * * //

dimensions      [1 -1 -2 0 0 0 0];

internalField   nonuniform List<scalar> 
654
(
0.300253473
0.4036409783
0.3965909258
0.4049541685
0.403801215
0.4098388306
0.4108379333
0.4133958939
0.4078825047
0.4036138004
0.3992736353
0.4004801993
0.3910769914
0.4067909281
0.4175584729
0.441877075
0.5032501338
0.6378171409
1.018189013
2.485238973
0.3026644251
0.4160252611
0.4147829436
0.4147332714
0.4143336127
0.4168204306
0.4172624408
0.4152690453
0.4152867448
0.4154208346
0.4099257035
0.4107289205
0.4263522622
0.4469709718
0.4621796901
0.4970125639
0.5517537481
0.707146989
1.109477672
2.068780099
0.3124662171
0.4258447785
0.4135668754
0.410771599
0.4062583261
0.4087546268
0.4074545321
0.4076153484
0.4081426739
0.4139161999
0.4137468128
0.4111779925
0.418116723
0.4352543387
0.451150399
0.489435164
0.5392764388
0.6540633444
0.9835601376
1.46979881
0.3100129573
0.4223972929
0.4099507134
0.4071363593
0.4046179758
0.3999931825
0.4018300039
0.399368561
0.4029831729
0.4035856204
0.4083074937
0.4138059955
0.4259013004
0.4276804867
0.4534516529
0.4645130412
0.5304298029
0.6759132416
0.8393757854
1.189777566
0.3067083827
0.4152309156
0.4050712444
0.4095189055
0.4134148844
0.41567874
0.4125665474
0.4104136831
0.4129376764
0.4125330792
0.4127206635
0.4125512621
0.4060615348
0.4166667225
0.4322747262
0.4700676666
0.5164713606
0.6194649343
0.7487880806
0.9300345491
0.3096352146
0.4208815361
0.4189253961
0.4158492248
0.4118793018
0.4057581201
0.4068716814
0.4121751069
0.4177994188
0.4248330203
0.4219097879
0.413856796
0.4119821649
0.414324926
0.4399868304
0.4519734573
0.4872815367
0.6022086038
0.6510817018
0.8004965897
0.3079282347
0.4173170615
0.4124421299
0.4135013393
0.4255612797
0.4297766469
0.4295899313
0.4185821858
0.4181220397
0.4134487253
0.415390229
0.4194070967
0.4241767507
0.423030525
0.4245407194
0.4425881542
0.4872655171
0.5210812618
0.5830965703
0.6724292418
0.3075606241
0.4175873978
0.4137954769
0.4246088575
0.4109120894
0.4136925189
0.4200551105
0.428709762
0.4312820779
0.4265016277
0.4160549122
0.4101279106
0.4091703002
0.4128987324
0.4364828872
0.4436967878
0.4547216051
0.4865286964
0.5134509158
0.5576887368
0.3098169216
0.4299341027
0.4188804599
0.4202039935
0.4220616333
0.4208094557
0.4232091669
0.4200096074
0.416212028
0.4202937865
0.4307468129
0.4319011873
0.430540576
0.4347973593
0.4214309986
0.4294055124
0.4455380599
0.4697583569
0.4936741558
0.5290276301
0.3124603495
0.4121470165
0.4108418766
0.4101654131
0.4138480623
0.4169883259
0.4117416421
0.4081290541
0.4109033042
0.4134194785
0.4164392336
0.4211064025
0.4342769109
0.4301693199
0.4321661994
0.4445280953
0.4406409465
0.436083531
0.4758535072
0.5149309429
0.3128515783
0.418580495
0.4158664402
0.4070657366
0.4079666935
0.3989238729
0.3976368831
0.4089020975
0.4088395743
0.4122179433
0.413507381
0.4096065903
0.4199382028
0.420393383
0.4250381233
0.4135145726
0.4261881443
0.4298466909
0.4574187621
0.4821527001
0.315664283
0.428695527
0.4145451155
0.4092811762
0.4118461324
0.4157366864
0.4185753696
0.4142603178
0.4218823769
0.4167157761
0.4154515397
0.4100741385
0.4084719495
0.4128619739
0.4169694412
0.4269318773
0.4337050643
0.4324280891
0.4371697665
0.4729675203
0.311247366
0.4228134053
0.4136313435
0.4135038846
0.4102053469
0.4087846575
0.4088227623
0.4052130689
0.4039060332
0.4118355874
0.4162685712
0.4193846741
0.4248310412
0.4260318169
0.4250507499
0.424917973
0.4312472154
0.4311457921
0.443026521
0.4417504555
0.3109569416
0.4199029083
0.4170078157
0.4168650977
0.4142351466
0.4206307203
0.4175992477
0.4210682818
0.4151666333
0.4094702108
0.4156512322
0.4105399273
0.4091818291
0.4080377075
0.4196120507
0.4105986062
0.4069979023
0.4228322973
0.420713057
0.435926866
0.3094481197
0.4303088061
0.4192992331
0.4167213147
0.4223861352
0.4199105591
0.421831398
0.4169324044
0.4216374775
0.4200389752
0.4120789605
0.4159566608
0.4138061936
0.4095793213
0.4126300952
0.4096039444
0.4212341365
0.4261115914
0.4260620293
0.4247711229
0.3146170216
0.4255279337
0.4189857335
0.4216010148
0.4163454628
0.4188340382
0.4227867185
0.416420913
0.4196747345
0.4174971439
0.4210252007
0.4127500857
0.4059569326
0.406602818
0.4055287207
0.4097433604
0.4081777948
0.4068139347
0.4179071292
0.4229028609
0.3125314126
0.4168271617
0.4097636321
0.4155060168
0.4145891465
0.4163691465
0.4118385602
0.4141730074
0.4138462964
0.4139885004
0.4162901254
0.4183277686
0.4209168789
0.4239571309
0.4202859769
0.4276799462
0.42532091
0.4237699136
0.4174301606
0.4271497541
0.3121124514
0.414654575
0.4088464401
0.4044395854
0.4118562957
0.4143780134
0.4150167816
0.4140783459
0.4121144945
0.4107626953
0.4120523709
0.4108377581
0.4144803753
0.4118091559
0.4163107602
0.4120559987
0.4153894276
0.4196410746
0.4140473998
0.425474955
0.3080830068
0.418291039
0.4140780377
0.4121433976
0.4113352424
0.4112502396
0.4187906675
0.4193781474
0.4210755761
0.4225739595
0.4182448483
0.4234680083
0.414791889
0.4141163748
0.412753397
0.4216707463
0.4181670151
0.4094780413
0.4179253022
0.4091018928
0.308542369
0.4251042598
0.4206456474
0.4198338505
0.42011263
0.4188558762
0.4163009685
0.4146281893
0.4129624445
0.4101404152
0.4122051055
0.4102527303
0.4227152948
0.4227265218
0.4269730196
0.4249176847
0.4200914272
0.4251238868
0.4310688522
0.4353876797
0.3082890281
0.4192526086
0.4073619812
0.4126747658
0.4109895918
0.4099196717
0.4090371844
0.4005647987
0.4055772701
0.4128989713
0.4165659298
0.4207011536
0.411185983
0.4091129878
0.4092648464
0.4168557851
0.4204795746
0.4199068852
0.4144697088
0.4169723782
0.3108010126
0.42248358
0.409065082
0.4028045175
0.4029512045
0.4014373799
0.4030960151
0.4125732108
0.416377292
0.4139877335
0.4118777979
0.4106859668
0.4108309294
0.4119743488
0.417562511
0.4116238004
0.4085418187
0.4118113672
0.4173834543
0.4191282476
4.60616136
4.766488717
4.701689969
4.673339318
4.499117197
4.453511026
4.387191698
4.217164959
4.072199275
4.030487808
3.023019114
3.563429019
3.775955536
3.877866518
4.017217815
4.104828616
4.041666564
4.016879301
4.024738106
3.990780545
2.129894656
2.594351
2.934642199
3.163493562
3.318531536
3.452626227
3.574891556
3.702428905
3.722877827
3.726218647
1.588274333
1.992866093
2.252247918
2.584389572
2.71424018
2.871940855
3.156504579
3.185159559
3.26975931
3.41242048
1.206468331
1.53942961
1.802899545
2.128302603
2.21780104
2.376818672
2.666465086
2.713656735
2.895848694
3.027119458
0.9555847591
1.223871859
1.472530525
1.614599449
1.786732797
1.945249918
2.205698864
2.407366046
2.578772674
2.671639595
0.7858297536
0.9738303931
1.118411373
1.31828827
1.448638922
1.630227496
1.770732719
1.994940576
2.179777877
2.33170987
0.6771670413
0.7963715887
0.8720409347
1.087112421
1.169978602
1.313048022
1.459645399
1.612672821
1.807388901
1.970940832
0.6137738963
0.6894375891
0.7673062361
0.8658064276
0.9724279301
1.105540708
1.18993541
1.350975435
1.540234631
1.675710175
0.5555850614
0.6189452705
0.6780956278
0.729070271
0.7724638255
0.9394294764
1.049529194
1.135686976
1.261870362
1.385263043
0.5243213082
0.5859080168
0.6217702501
0.6839466076
0.7340556562
0.8198292726
0.8861141999
1.002789999
1.064254087
1.161650433
0.4835927274
0.5269293467
0.5595777069
0.6104797913
0.6305480818
0.6968820644
0.7484469734
0.8325011186
0.8993749574
0.9641127093
0.4788639644
0.5034819615
0.5327004307
0.5355735598
0.568339618
0.6218741224
0.656754533
0.7171036571
0.7683371094
0.8556004622
0.4626675114
0.4703959278
0.4960221669
0.5099082734
0.5369466556
0.5624526164
0.5989996077
0.6256386267
0.6953687057
0.7249843092
0.4473633305
0.4432420914
0.4518386817
0.4671375438
0.4994366698
0.529503933
0.5449535593
0.5899375163
0.6257900169
0.6491010249
0.4299638052
0.4532867063
0.4528532619
0.4640795786
0.4742032803
0.4957603266
0.5249675983
0.5332098472
0.5684787607
0.5964513663
0.4273142537
0.4399982778
0.4402927671
0.4417618967
0.4330870462
0.4519288184
0.4805314851
0.4957388723
0.5136151602
0.5600317213
0.4326558554
0.4283606305
0.4287947315
0.4317400657
0.4443763933
0.4444330021
0.4619503184
0.4611046014
0.4775637686
0.5113735616
0.4211296416
0.434637897
0.4382502472
0.4413719663
0.4352868068
0.4442777868
0.4516719397
0.4619019539
0.4591280346
0.4821630674
0.426695989
0.4272396113
0.4299743596
0.4277464895
0.4298258883
0.4353256838
0.4425013452
0.4518995109
0.467699735
0.4629123757
0.4183194487
0.4150923342
0.4162196601
0.4153002643
0.4245193473
0.4279097065
0.4281335669
0.4383088287
0.4653812156
0.4605055043
0.4149609371
0.4110792363
0.4145253199
0.4186400664
)
;

boundaryField
{
    flow
    {
        type            calculated;
        value           nonuniform List<scalar> 
42
(
0.300253473
0.3026644251
0.3124662171
0.3100129573
0.3067083827
0.3096352146
0.3079282347
0.3075606241
0.3098169216
0.3124603495
0.3128515783
0.315664283
0.311247366
0.3109569416
0.3094481197
0.3146170216
0.3125314126
0.3121124514
0.3080830068
0.308542369
0.3082890281
0.3108010126
0.300253473
0.4036409783
0.3965909258
0.4049541685
0.403801215
0.4098388306
0.4108379333
0.4133958939
0.4078825047
0.4036138004
0.3992736353
0.4004801993
0.3910769914
0.4067909281
0.4175584729
0.441877075
0.5032501338
0.6378171409
1.018189013
2.485238973
)
;
    }
    obstacle
    {
        type            calculated;
        value           nonuniform List<scalar> 10(3.649621983 3.713874123 3.662068789 3.510482783 3.516664466 3.404557014 3.430704521 3.437994581 3.280331229 3.323290587);
    }
    frontAndBack
    {
        type            empty;
    }
    procBoundary0to1
    {
        type            processor;
        value           nonuniform List<scalar> 
21
(
3.990676116
3.911174606
3.639914013
3.370597812
3.092052187
2.74709734
2.441472645
2.148575468
1.82073082
1.505462298
1.270743341
1.094046356
0.9038686119
0.7907645211
0.7006006966
0.622870753
0.5709041939
0.5384624555
0.5043107494
0.493230488
0.4706353219
)
;
    }
    procBoundary0to2
    {
        type            processor;
        value           nonuniform List<scalar> 
31
(
0.3023753728
0.4102385768
0.4152621913
0.4140805727
0.4148034691
0.4126182091
0.4116184236
0.4117116398
0.4117744544
0.4097468855
0.4115784114
0.4176816762
0.419871814
0.4164554775
0.4145132566
0.4089124057
0.412102666
0.4097319853
0.4050896687
0.4053214568
0.4280294253
0.4365929215
0.4213516906
0.430111892
0.4366669824
0.4495087289
0.4088284269
0.4217605362
0.4236473528
0.4280294253
0.4178610633
)
;
    }
}


// ************************************************************************* //
