/*--------------------------------*- C++ -*----------------------------------*\
| =========                 |                                                 |
| \\      /  F ield         | OpenFOAM: The Open Source CFD Toolbox           |
|  \\    /   O peration     | Version:  2406                                  |
|   \\  /    A nd           | Website:  www.openfoam.com                      |
|    \\/     M anipulation  |                                                 |
\*---------------------------------------------------------------------------*/
FoamFile
{
    version     2.0;
    format      ascii;
    arch        "LSB;label=32;scalar=64";
    class       volScalarField;
    location    "0.003";
    object      rhoMMean;
}
// * * * * * * * * * * * * * * * * * * * * * * * * * * * * * * * * * * * * * //

dimensions      [1 -3 0 0 0 0 0];

internalField   nonuniform List<scalar> 
654
(
3.645287423e-06
4.702642448e-06
4.737830237e-06
4.745889977e-06
4.751100169e-06
4.789138617e-06
4.77102062e-06
4.795001142e-06
4.756685821e-06
4.723204123e-06
4.710059853e-06
4.706143217e-06
4.646241762e-06
4.695910006e-06
4.698488235e-06
4.741102315e-06
4.75632147e-06
4.841030736e-06
5.07427069e-06
6.523332285e-06
3.669493303e-06
4.755388932e-06
4.821745955e-06
4.785088543e-06
4.78241284e-06
4.807128729e-06
4.804460801e-06
4.77462553e-06
4.785135615e-06
4.809943424e-06
4.789240535e-06
4.8118378e-06
4.860589057e-06
4.875299316e-06
4.848915521e-06
4.869657706e-06
4.941363914e-06
5.073484919e-06
5.391124635e-06
6.24793119e-06
3.73930958e-06
4.826178153e-06
4.842312074e-06
4.832174116e-06
4.818663273e-06
4.827878689e-06
4.849787659e-06
4.831710069e-06
4.831851283e-06
4.837156729e-06
4.852285074e-06
4.834478804e-06
4.798963738e-06
4.825655926e-06
4.874031724e-06
4.895522606e-06
4.845769105e-06
4.953165335e-06
5.138175148e-06
5.671119553e-06
3.761720781e-06
4.789336899e-06
4.800994884e-06
4.764651419e-06
4.735976267e-06
4.716009856e-06
4.742756891e-06
4.737406595e-06
4.721215605e-06
4.744773596e-06
4.752842223e-06
4.780377251e-06
4.834374664e-06
4.786193816e-06
4.81395087e-06
4.793573036e-06
4.850199081e-06
4.976543927e-06
5.152385396e-06
5.49828773e-06
3.710856454e-06
4.768626234e-06
4.760743671e-06
4.792743526e-06
4.80589224e-06
4.795331752e-06
4.780107042e-06
4.754785892e-06
4.754422651e-06
4.753733245e-06
4.737828015e-06
4.746127555e-06
4.779284197e-06
4.799799912e-06
4.831850172e-06
4.903380314e-06
4.976196239e-06
5.050887654e-06
5.148277143e-06
5.289436387e-06
3.717956579e-06
4.770981325e-06
4.812346697e-06
4.760098003e-06
4.761162869e-06
4.774817148e-06
4.744980765e-06
4.789433263e-06
4.845264651e-06
4.864039423e-06
4.866351886e-06
4.831387235e-06
4.778964696e-06
4.784541461e-06
4.802158336e-06
4.779505113e-06
4.810815562e-06
4.926096577e-06
5.002933276e-06
5.151925791e-06
3.723262025e-06
4.788268701e-06
4.820547651e-06
4.809664329e-06
4.856838491e-06
4.876891269e-06
4.878787866e-06
4.821287462e-06
4.844529284e-06
4.815572815e-06
4.813818542e-06
4.854539358e-06
4.905408128e-06
4.869250727e-06
4.882662984e-06
4.863435272e-06
4.924764835e-06
4.913599085e-06
4.97949095e-06
5.094224883e-06
3.725340243e-06
4.787352824e-06
4.822579908e-06
4.866061683e-06
4.828471732e-06
4.826217448e-06
4.893257214e-06
4.922913087e-06
4.93669525e-06
4.897871032e-06
4.833686368e-06
4.76548204e-06
4.760222554e-06
4.774107746e-06
4.845682738e-06
4.879812326e-06
4.866897857e-06
4.865787031e-06
4.885533638e-06
4.923151776e-06
3.71385388e-06
4.83387132e-06
4.859140956e-06
4.817969423e-06
4.816356364e-06
4.790991475e-06
4.815531298e-06
4.803304014e-06
4.768406429e-06
4.809175427e-06
4.90361456e-06
4.905821772e-06
4.879580302e-06
4.837799064e-06
4.754884478e-06
4.748119406e-06
4.770119185e-06
4.842656014e-06
4.837255314e-06
4.858877413e-06
3.711827178e-06
4.715326003e-06
4.789391746e-06
4.810323327e-06
4.842881373e-06
4.854599759e-06
4.819688844e-06
4.80563314e-06
4.79934364e-06
4.792469985e-06
4.792047455e-06
4.776476167e-06
4.806683565e-06
4.828120711e-06
4.85440703e-06
4.905772479e-06
4.888709352e-06
4.791683103e-06
4.845736474e-06
4.896785754e-06
3.73110085e-06
4.766732969e-06
4.780799781e-06
4.719882752e-06
4.722881289e-06
4.665934632e-06
4.650530524e-06
4.694285839e-06
4.724596267e-06
4.747465962e-06
4.75416244e-06
4.771630325e-06
4.81165618e-06
4.794460725e-06
4.761938642e-06
4.696084962e-06
4.761383784e-06
4.811183245e-06
4.87411698e-06
4.862638393e-06
3.74074324e-06
4.803404822e-06
4.792371399e-06
4.776052525e-06
4.812343365e-06
4.842451066e-06
4.853702072e-06
4.833922835e-06
4.822620315e-06
4.772139223e-06
4.761713283e-06
4.706195843e-06
4.683593024e-06
4.721449851e-06
4.767893089e-06
4.814013492e-06
4.835404678e-06
4.809071287e-06
4.796721673e-06
4.862897077e-06
3.719384685e-06
4.771674064e-06
4.806995291e-06
4.803212094e-06
4.76451576e-06
4.738602678e-06
4.739942195e-06
4.723065131e-06
4.740459979e-06
4.789796504e-06
4.805932646e-06
4.826030274e-06
4.881281949e-06
4.866031274e-06
4.81876297e-06
4.842838745e-06
4.855207242e-06
4.865582778e-06
4.896147862e-06
4.861148359e-06
3.721878769e-06
4.79292959e-06
4.818796711e-06
4.810777377e-06
4.812341143e-06
4.826494322e-06
4.818662162e-06
4.822019496e-06
4.783328716e-06
4.762851186e-06
4.741278381e-06
4.762543904e-06
4.732477719e-06
4.761437521e-06
4.797452597e-06
4.744049337e-06
4.715226307e-06
4.767013175e-06
4.718360503e-06
4.779369453e-06
3.674834712e-06
4.788227183e-06
4.800860335e-06
4.823271537e-06
4.837850579e-06
4.844302814e-06
4.867133214e-06
4.847157916e-06
4.869852656e-06
4.856477472e-06
4.821244834e-06
4.824330849e-06
4.841303166e-06
4.808013086e-06
4.812708827e-06
4.755663583e-06
4.806296998e-06
4.798831411e-06
4.759733652e-06
4.761723281e-06
3.760518034e-06
4.839964759e-06
4.856103124e-06
4.864128012e-06
4.820451287e-06
4.865971984e-06
4.870259635e-06
4.821519486e-06
4.830694496e-06
4.789146392e-06
4.802658347e-06
4.749579031e-06
4.679343557e-06
4.666477271e-06
4.701933046e-06
4.753900424e-06
4.739972604e-06
4.717780097e-06
4.788371035e-06
4.767714107e-06
3.737048631e-06
4.743632361e-06
4.763959791e-06
4.808879669e-06
4.77545615e-06
4.789799836e-06
4.74368943e-06
4.785094097e-06
4.788547796e-06
4.825946129e-06
4.871224804e-06
4.878043612e-06
4.917699562e-06
4.945368027e-06
4.889428056e-06
4.878785645e-06
4.879117365e-06
4.856716161e-06
4.807608328e-06
4.793541516e-06
3.717726777e-06
4.749719134e-06
4.758847073e-06
4.735877681e-06
4.764187371e-06
4.776356475e-06
4.818043571e-06
4.839765366e-06
4.83302737e-06
4.806428214e-06
4.806198412e-06
4.802285109e-06
4.830880559e-06
4.802526019e-06
4.803862205e-06
4.804503429e-06
4.862704349e-06
4.866010168e-06
4.845073033e-06
4.88667043e-06
3.753565788e-06
4.817746286e-06
4.866160269e-06
4.839971424e-06
4.828529911e-06
4.80842673e-06
4.802614608e-06
4.795428116e-06
4.807283273e-06
4.78375569e-06
4.786058156e-06
4.804687271e-06
4.739525219e-06
4.784071859e-06
4.75543156e-06
4.777334975e-06
4.750586829e-06
4.726385392e-06
4.762438653e-06
4.743801762e-06
3.697941986e-06
4.799938905e-06
4.862927486e-06
4.846383253e-06
4.860540875e-06
4.879347167e-06
4.864036091e-06
4.87247018e-06
4.863337797e-06
4.857386684e-06
4.86107796e-06
4.829311239e-06
4.901016337e-06
4.884270489e-06
4.926142537e-06
4.875929432e-06
4.88385018e-06
4.904965603e-06
4.898662357e-06
4.902220195e-06
3.724511844e-06
4.785410266e-06
4.77489796e-06
4.79717128e-06
4.776698193e-06
4.77439906e-06
4.754981953e-06
4.682211989e-06
4.71886829e-06
4.743405891e-06
4.78864416e-06
4.779269757e-06
4.770269702e-06
4.756261069e-06
4.770701119e-06
4.819214798e-06
4.806172446e-06
4.785055913e-06
4.78214041e-06
4.767287827e-06
3.687286244e-06
4.742661637e-06
4.743029321e-06
4.684142327e-06
4.707935675e-06
4.68800967e-06
4.738608232e-06
4.808888556e-06
4.819040954e-06
4.836098528e-06
4.791000362e-06
4.779011767e-06
4.764307063e-06
4.75728664e-06
4.759038691e-06
4.772788223e-06
4.757294416e-06
4.758812221e-06
4.811116874e-06
4.790596715e-06
1.149803312e-05
1.334767091e-05
1.377107024e-05
1.448708763e-05
1.450583522e-05
1.473538043e-05
1.48055191e-05
1.476277202e-05
1.441627334e-05
1.472508082e-05
7.897827499e-06
9.485756576e-06
1.0486498e-05
1.120039563e-05
1.200833773e-05
1.24386077e-05
1.264685067e-05
1.28800215e-05
1.303016253e-05
1.305580378e-05
6.547757147e-06
7.600377539e-06
8.600259446e-06
9.373165925e-06
1.003105475e-05
1.063877478e-05
1.118561615e-05
1.17713242e-05
1.203423313e-05
1.236980153e-05
5.979464067e-06
6.656156049e-06
7.267087844e-06
8.041130975e-06
8.661758357e-06
9.347004485e-06
1.018453115e-05
1.057299746e-05
1.08578043e-05
1.13520571e-05
5.582715736e-06
6.086359006e-06
6.59599557e-06
7.284803709e-06
7.692780112e-06
8.200575098e-06
8.892346036e-06
9.29518683e-06
9.912154919e-06
1.047734483e-05
5.354500755e-06
5.691212789e-06
6.073453984e-06
6.34652042e-06
6.733681707e-06
7.174254293e-06
7.844569512e-06
8.475660036e-06
8.943475226e-06
9.431997391e-06
5.18551286e-06
5.394370061e-06
5.592130039e-06
5.928863633e-06
6.251060257e-06
6.630908092e-06
7.029363205e-06
7.55013934e-06
8.14751882e-06
8.597713341e-06
5.039650222e-06
5.122298827e-06
5.226972247e-06
5.51755306e-06
5.721859966e-06
5.978355338e-06
6.350320097e-06
6.685519934e-06
7.151803147e-06
7.676673924e-06
4.914613359e-06
5.072727782e-06
5.213128818e-06
5.317132532e-06
5.482175807e-06
5.674832892e-06
5.796792805e-06
6.166336691e-06
6.593241421e-06
6.993927055e-06
4.931089043e-06
4.956036492e-06
5.019492802e-06
5.069938816e-06
5.160815058e-06
5.460348343e-06
5.729986496e-06
5.884665586e-06
6.04012047e-06
6.306341959e-06
4.921395733e-06
4.954652251e-06
5.062837756e-06
5.157541835e-06
5.249310768e-06
5.271437872e-06
5.347433086e-06
5.584558385e-06
5.800838346e-06
6.067324871e-06
4.860292776e-06
4.924228903e-06
4.948334272e-06
4.943622223e-06
5.00824802e-06
5.137052699e-06
5.255858778e-06
5.383077007e-06
5.482465713e-06
5.619005725e-06
4.865007399e-06
4.89584109e-06
4.933309378e-06
4.935006661e-06
4.952302469e-06
5.015684309e-06
5.103845125e-06
5.188614487e-06
5.269416948e-06
5.466476145e-06
4.804190502e-06
4.829118137e-06
4.857399565e-06
4.899910894e-06
4.941005799e-06
4.940761985e-06
4.973671572e-06
5.019414125e-06
5.151284806e-06
5.229101407e-06
4.755464272e-06
4.759125348e-06
4.785877566e-06
4.846879998e-06
4.86574067e-06
4.982319422e-06
5.026965081e-06
5.083869072e-06
5.103604057e-06
5.122156673e-06
4.871729151e-06
4.901647285e-06
4.865215687e-06
4.841168675e-06
4.862980034e-06
4.849943377e-06
4.920564262e-06
4.935587525e-06
4.9833346e-06
5.033737532e-06
4.772631772e-06
4.811080541e-06
4.792307679e-06
4.818538306e-06
4.779664429e-06
4.802097846e-06
4.856993039e-06
4.894407555e-06
4.889727108e-06
4.989061094e-06
4.853325205e-06
4.805436569e-06
4.806981585e-06
4.805618371e-06
4.862393785e-06
4.824968852e-06
4.812143457e-06
4.828271292e-06
4.869311374e-06
4.962440226e-06
4.7722833e-06
4.834175713e-06
4.830729082e-06
4.841743976e-06
4.834252007e-06
4.858743935e-06
4.878420042e-06
4.856953334e-06
4.842400783e-06
4.874798662e-06
4.813408091e-06
4.843960365e-06
4.832534298e-06
4.806123395e-06
4.812028371e-06
4.818171655e-06
4.85534113e-06
4.896716935e-06
4.882543344e-06
4.887047345e-06
4.79172757e-06
4.794990072e-06
4.801136287e-06
4.808442128e-06
4.822600031e-06
4.793646537e-06
4.77127529e-06
4.7952747e-06
4.858855215e-06
4.844797964e-06
4.811710442e-06
4.776196649e-06
4.759052778e-06
4.779148463e-06
)
;

boundaryField
{
    flow
    {
        type            calculated;
        value           nonuniform List<scalar> 
42
(
3.645287423e-06
3.669493303e-06
3.73930958e-06
3.761720781e-06
3.710856454e-06
3.717956579e-06
3.723262025e-06
3.725340243e-06
3.71385388e-06
3.711827178e-06
3.73110085e-06
3.74074324e-06
3.719384685e-06
3.721878769e-06
3.674834712e-06
3.760518034e-06
3.737048631e-06
3.717726777e-06
3.753565788e-06
3.697941986e-06
3.724511844e-06
3.687286244e-06
3.645287423e-06
4.702642448e-06
4.737830237e-06
4.745889977e-06
4.751100169e-06
4.789138617e-06
4.77102062e-06
4.795001142e-06
4.756685821e-06
4.723204123e-06
4.710059853e-06
4.706143217e-06
4.646241762e-06
4.695910006e-06
4.698488235e-06
4.741102315e-06
4.75632147e-06
4.841030736e-06
5.07427069e-06
6.523332285e-06
)
;
    }
    obstacle
    {
        type            calculated;
        value           nonuniform List<scalar> 10(6.645564763e-24 6.964086503e-24 7.075793135e-24 6.811846429e-24 7.26428934e-24 7.200123457e-24 6.693842331e-24 6.787735821e-24 6.841523588e-24 6.494231132e-24);
    }
    frontAndBack
    {
        type            empty;
    }
    procBoundary0to1
    {
        type            processor;
        value           nonuniform List<scalar> 
21
(
1.48116508e-05
1.319121671e-05
1.232961831e-05
1.142613164e-05
1.078154835e-05
9.859694459e-06
8.984528779e-06
8.225967359e-06
7.409906656e-06
6.635331911e-06
6.292581519e-06
5.89787513e-06
5.524432282e-06
5.326430363e-06
5.248907959e-06
5.044304004e-06
5.008049921e-06
5.033181611e-06
4.8983567e-06
4.93533656e-06
4.814098553e-06
)
;
    }
    procBoundary0to2
    {
        type            processor;
        value           nonuniform List<scalar> 
31
(
3.694857082e-06
4.738570047e-06
4.833240093e-06
4.799201316e-06
4.819222574e-06
4.816549093e-06
4.781413929e-06
4.739860272e-06
4.722158141e-06
4.710292987e-06
4.715783386e-06
4.799668696e-06
4.807190241e-06
4.78090281e-06
4.793219793e-06
4.751018246e-06
4.768315619e-06
4.733551472e-06
4.688074514e-06
4.665253001e-06
4.846195372e-06
4.868726402e-06
4.838634288e-06
4.843447484e-06
4.861107759e-06
4.878785225e-06
4.74014499e-06
4.767237437e-06
4.83146216e-06
4.846195372e-06
4.780198026e-06
)
;
    }
}


// ************************************************************************* //
