/*--------------------------------*- C++ -*----------------------------------*\
| =========                 |                                                 |
| \\      /  F ield         | OpenFOAM: The Open Source CFD Toolbox           |
|  \\    /   O peration     | Version:  2406                                  |
|   \\  /    A nd           | Website:  www.openfoam.com                      |
|    \\/     M anipulation  |                                                 |
\*---------------------------------------------------------------------------*/
FoamFile
{
    version     2.0;
    format      ascii;
    arch        "LSB;label=32;scalar=64";
    class       volScalarField;
    location    "0.003";
    object      rhoM;
}
// * * * * * * * * * * * * * * * * * * * * * * * * * * * * * * * * * * * * * //

dimensions      [1 -3 0 0 0 0 0];

internalField   nonuniform List<scalar> 
654
(
4.980390442e-06
3.112327466e-06
4.980390442e-06
2.974446132e-06
7.954836573e-06
3.596578377e-06
5.53358202e-06
5.671463354e-06
4.218710622e-06
5.049331109e-06
5.049331109e-06
4.842509107e-06
3.52763771e-06
5.948892263e-06
4.911449774e-06
4.080829287e-06
4.01188862e-06
4.496139531e-06
8.576968818e-06
4.496139531e-06
2.974446132e-06
6.433143174e-06
4.634020865e-06
6.295261839e-06
4.080829287e-06
5.602522687e-06
6.917394084e-06
6.086773598e-06
2.421254554e-06
5.395700685e-06
6.502083841e-06
5.187212443e-06
4.01188862e-06
2.490195221e-06
4.427198864e-06
6.502083841e-06
5.049331109e-06
6.01783293e-06
3.458697042e-06
5.395700685e-06
2.490195221e-06
6.571024508e-06
3.874007286e-06
6.571024508e-06
2.490195221e-06
5.602522687e-06
4.427198864e-06
5.948892263e-06
3.389756375e-06
4.218710622e-06
7.332704328e-06
4.980390442e-06
1.037442489e-06
4.01188862e-06
5.049331109e-06
4.565080198e-06
3.458697042e-06
3.596578377e-06
3.874007286e-06
6.364202506e-06
4.01188862e-06
1.937003643e-06
5.395700685e-06
6.01783293e-06
4.358258196e-06
3.52763771e-06
5.948892263e-06
3.458697042e-06
4.565080198e-06
4.911449774e-06
3.52763771e-06
5.464641352e-06
6.01783293e-06
4.565080198e-06
5.53358202e-06
2.074884977e-06
2.490195221e-06
2.974446132e-06
4.842509107e-06
8.645909486e-06
4.496139531e-06
5.464641352e-06
4.01188862e-06
3.665519044e-06
7.332704328e-06
7.055275419e-06
5.602522687e-06
4.911449774e-06
5.395700685e-06
3.596578377e-06
6.364202506e-06
8.161658575e-06
4.634020865e-06
3.874007286e-06
6.086773598e-06
4.01188862e-06
4.01188862e-06
6.986334752e-06
5.395700685e-06
5.948892263e-06
4.080829287e-06
4.427198864e-06
4.842509107e-06
4.565080198e-06
6.639965176e-06
4.496139531e-06
3.52763771e-06
4.980390442e-06
6.433143174e-06
3.596578377e-06
6.917394084e-06
2.421254554e-06
6.571024508e-06
4.911449774e-06
5.049331109e-06
3.458697042e-06
3.043386799e-06
3.942947953e-06
2.559135888e-06
2.974446132e-06
2.421254554e-06
4.01188862e-06
6.571024508e-06
3.52763771e-06
4.496139531e-06
2.490195221e-06
5.53358202e-06
2.421254554e-06
4.496139531e-06
2.974446132e-06
6.433143174e-06
3.52763771e-06
3.942947953e-06
4.496139531e-06
8.508028151e-06
5.879951596e-06
9.061219729e-06
1.937003643e-06
2.905505464e-06
4.842509107e-06
3.942947953e-06
7.055275419e-06
4.427198864e-06
5.602522687e-06
6.224654932e-06
7.332704328e-06
4.01188862e-06
2.974446132e-06
4.427198864e-06
3.52763771e-06
2.905505464e-06
3.043386799e-06
3.043386799e-06
4.01188862e-06
7.954836573e-06
6.086773598e-06
6.502083841e-06
3.596578377e-06
4.358258196e-06
2.421254554e-06
2.974446132e-06
5.049331109e-06
5.464641352e-06
4.980390442e-06
4.496139531e-06
5.53358202e-06
6.433143174e-06
5.395700685e-06
4.01188862e-06
5.395700685e-06
3.458697042e-06
2.974446132e-06
2.905505464e-06
2.490195221e-06
4.496139531e-06
5.53358202e-06
2.974446132e-06
4.980390442e-06
5.049331109e-06
3.389756375e-06
3.458697042e-06
3.458697042e-06
3.942947953e-06
4.634020865e-06
4.911449774e-06
4.358258196e-06
5.326760018e-06
5.602522687e-06
5.049331109e-06
6.086773598e-06
6.502083841e-06
3.942947953e-06
5.118271776e-06
6.639965176e-06
4.427198864e-06
4.842509107e-06
5.464641352e-06
4.427198864e-06
4.496139531e-06
3.458697042e-06
3.458697042e-06
4.01188862e-06
8.576968818e-06
4.427198864e-06
3.389756375e-06
2.074884977e-06
6.502083841e-06
6.433143174e-06
3.389756375e-06
6.639965176e-06
2.490195221e-06
4.496139531e-06
4.427198864e-06
4.634020865e-06
4.01188862e-06
4.01188862e-06
1.521693399e-06
6.917394084e-06
7.401644995e-06
2.974446132e-06
5.602522687e-06
3.942947953e-06
4.565080198e-06
3.458697042e-06
3.458697042e-06
6.639965176e-06
5.049331109e-06
2.074884977e-06
3.596578377e-06
5.118271776e-06
4.911449774e-06
2.00594431e-06
2.905505464e-06
8.161658575e-06
5.811010928e-06
4.980390442e-06
6.848453417e-06
3.596578377e-06
3.596578377e-06
4.427198864e-06
2.421254554e-06
7.470585662e-06
5.602522687e-06
2.974446132e-06
3.458697042e-06
2.974446132e-06
5.118271776e-06
2.00594431e-06
7.954836573e-06
5.464641352e-06
5.53358202e-06
5.049331109e-06
5.049331109e-06
5.948892263e-06
5.948892263e-06
6.086773598e-06
3.458697042e-06
4.01188862e-06
8.714850153e-06
5.948892263e-06
4.496139531e-06
3.942947953e-06
3.52763771e-06
4.01188862e-06
6.986334752e-06
4.01188862e-06
4.565080198e-06
8.439087484e-06
5.395700685e-06
6.917394084e-06
2.628076555e-06
4.702961533e-06
2.421254554e-06
3.043386799e-06
5.464641352e-06
6.364202506e-06
4.496139531e-06
5.464641352e-06
3.596578377e-06
4.427198864e-06
3.458697042e-06
5.049331109e-06
4.149769955e-06
4.496139531e-06
4.427198864e-06
4.496139531e-06
5.395700685e-06
5.53358202e-06
2.559135888e-06
5.53358202e-06
2.974446132e-06
4.565080198e-06
5.948892263e-06
6.086773598e-06
3.043386799e-06
5.464641352e-06
4.01188862e-06
3.942947953e-06
7.470585662e-06
4.358258196e-06
2.00594431e-06
7.401644995e-06
3.52763771e-06
5.049331109e-06
4.496139531e-06
1.937003643e-06
4.911449774e-06
4.01188862e-06
3.874007286e-06
2.974446132e-06
4.080829287e-06
5.464641352e-06
5.464641352e-06
3.942947953e-06
5.740404021e-06
3.942947953e-06
7.055275419e-06
4.842509107e-06
3.043386799e-06
4.565080198e-06
3.458697042e-06
4.01188862e-06
3.112327466e-06
4.911449774e-06
1.521693399e-06
5.049331109e-06
1.937003643e-06
6.502083841e-06
5.049331109e-06
4.427198864e-06
4.496139531e-06
4.358258196e-06
5.118271776e-06
6.433143174e-06
4.01188862e-06
3.52763771e-06
5.464641352e-06
4.427198864e-06
2.974446132e-06
4.080829287e-06
4.911449774e-06
4.496139531e-06
7.332704328e-06
7.055275419e-06
6.433143174e-06
4.565080198e-06
6.01783293e-06
2.905505464e-06
7.53952633e-06
5.948892263e-06
8.439087484e-06
6.364202506e-06
9.407589305e-06
5.602522687e-06
7.331038088e-06
3.874007286e-06
4.911449774e-06
5.464641352e-06
6.155714265e-06
5.187212443e-06
3.458697042e-06
5.602522687e-06
4.080829287e-06
3.043386799e-06
2.490195221e-06
5.602522687e-06
3.942947953e-06
2.490195221e-06
7.055275419e-06
5.464641352e-06
5.464641352e-06
3.458697042e-06
2.00594431e-06
4.980390442e-06
2.905505464e-06
2.559135888e-06
4.634020865e-06
4.01188862e-06
4.01188862e-06
3.52763771e-06
2.00594431e-06
4.980390442e-06
5.879951596e-06
7.401644995e-06
6.086773598e-06
5.602522687e-06
3.874007286e-06
4.427198864e-06
4.565080198e-06
5.879951596e-06
3.043386799e-06
3.665519044e-06
4.080829287e-06
2.490195221e-06
5.53358202e-06
4.01188862e-06
4.01188862e-06
2.490195221e-06
4.842509107e-06
6.917394084e-06
4.01188862e-06
5.049331109e-06
4.496139531e-06
2.490195221e-06
2.974446132e-06
4.496139531e-06
5.326760018e-06
3.52763771e-06
4.911449774e-06
1.009866222e-05
2.074884977e-06
2.490195221e-06
4.427198864e-06
7.885895906e-06
4.01188862e-06
3.043386799e-06
1.937003643e-06
2.974446132e-06
4.842509107e-06
4.634020865e-06
3.52763771e-06
5.53358202e-06
5.53358202e-06
3.942947953e-06
6.917394084e-06
6.086773598e-06
4.565080198e-06
4.01188862e-06
2.974446132e-06
5.049331109e-06
2.074884977e-06
4.01188862e-06
3.942947953e-06
4.980390442e-06
3.043386799e-06
8.370146817e-06
4.980390442e-06
5.879951596e-06
6.917394084e-06
4.358258196e-06
1.145400893e-05
1.223106029e-05
1.75249887e-05
1.226034543e-05
9.419856691e-06
2.148866392e-05
1.462132749e-05
1.786104455e-05
1.659427856e-05
9.985497935e-06
4.998052183e-06
8.596909372e-06
1.46389463e-05
1.020518249e-05
9.777216437e-06
1.272197636e-05
9.844321026e-06
1.407050887e-05
1.262999398e-05
1.079815449e-05
5.831618261e-06
6.850336604e-06
6.615498338e-06
6.306753274e-06
1.248868081e-05
1.207383443e-05
1.215981133e-05
1.334041148e-05
1.06469673e-05
2.196667013e-05
2.568211239e-06
6.709331216e-06
7.88146628e-06
7.01648974e-06
7.778752446e-06
9.91797806e-06
1.172522101e-05
1.100831447e-05
1.042564835e-05
7.988042017e-06
5.900803409e-06
5.661050824e-06
6.685641527e-06
4.535826347e-06
8.635728197e-06
1.351164911e-05
8.32412666e-06
1.304977741e-05
7.783971157e-06
9.615136788e-06
5.622390667e-06
6.361026847e-06
5.137405542e-06
5.598723923e-06
7.849880573e-06
6.827455588e-06
8.975140349e-06
5.831998615e-06
1.284954414e-05
1.013292974e-05
3.540147616e-06
6.98965835e-06
4.434278391e-06
4.535826347e-06
5.56690409e-06
8.768418837e-06
1.07117581e-05
5.248974371e-06
4.112420139e-06
7.988042017e-06
7.080295232e-06
7.618289859e-06
6.475211972e-06
8.220651767e-06
4.99615996e-06
5.677896364e-06
6.225059714e-06
7.728144517e-06
4.846022829e-06
7.691396763e-06
4.928867033e-06
1.034348213e-05
3.448883191e-06
6.165488829e-06
3.568440103e-06
8.336901304e-06
9.337589564e-06
4.082925865e-06
4.772839438e-06
8.358403171e-06
4.650454293e-06
5.102080197e-06
9.149129522e-06
2.125795165e-06
7.136880202e-06
5.749527412e-06
4.632724224e-06
6.707413051e-06
7.048599679e-06
5.472793145e-06
7.218665529e-06
2.026899903e-06
7.600893535e-06
5.953592162e-06
4.139184224e-06
6.252675978e-06
6.152918586e-06
5.176315848e-06
7.343102025e-06
7.617680863e-06
3.678517913e-06
7.687950732e-06
4.292296717e-06
4.606458563e-06
4.996159963e-06
4.671599226e-06
2.60579841e-06
5.321632924e-06
7.416285452e-06
7.099887939e-06
7.011110083e-06
3.144841172e-06
5.700246348e-06
3.684825428e-06
3.211080345e-06
4.168450646e-06
5.283737915e-06
6.269705784e-06
2.716629357e-06
4.363491336e-06
8.607384917e-06
4.473448663e-06
4.011723947e-06
4.677090773e-06
6.63726421e-06
4.311712731e-06
8.758716943e-06
3.645218647e-06
5.506442104e-06
4.289775405e-06
7.844676205e-06
7.059319242e-06
3.448883191e-06
5.031959041e-06
6.708392383e-06
2.084225336e-06
4.63272423e-06
7.8734616e-06
4.772839451e-06
5.916870199e-06
4.512083987e-06
9.086219151e-06
5.630103178e-06
1.559030268e-06
5.13841622e-06
5.677896391e-06
2.750080652e-06
5.248974326e-06
1.013291474e-05
4.73385249e-06
2.568211236e-06
5.591389928e-06
4.011723947e-06
3.543560971e-06
5.638032217e-06
2.587373891e-06
3.040388738e-06
4.811267184e-06
3.744734414e-06
4.80756839e-06
4.581269135e-06
3.494829185e-06
3.941580816e-06
9.922653569e-07
5.067288058e-06
5.534634265e-06
3.691402415e-06
6.85273008e-06
4.258786933e-06
3.624550681e-06
5.067237357e-06
4.12346069e-06
7.178339121e-06
2.480663409e-06
4.567672097e-06
2.515742848e-06
7.673112968e-06
5.321632883e-06
3.230681872e-06
4.881284325e-06
6.246729144e-06
3.425168311e-06
6.685641523e-06
2.480663392e-06
5.13841622e-06
2.587373909e-06
7.238522635e-06
5.759340096e-06
5.28689197e-06
4.216059536e-06
3.470962463e-06
5.0324193e-06
3.448883191e-06
4.465194137e-06
7.421392714e-06
4.671599213e-06
6.731791179e-06
7.80080308e-06
6.902232918e-06
3.771982481e-06
4.095300947e-06
6.430687694e-06
5.559959955e-06
3.047428314e-06
)
;

boundaryField
{
    flow
    {
        type            zeroGradient;
    }
    obstacle
    {
        type            calculated;
        value           nonuniform List<scalar> 10(1e-300 5.16425292e-24 1.656266787e-24 6.907010031e-24 2.058926845e-24 9.752315276e-24 6.297094933e-24 1.378173988e-23 1.155143691e-23 1e-300);
    }
    frontAndBack
    {
        type            empty;
    }
    procBoundary0to1
    {
        type            processor;
        value           nonuniform List<scalar> 
21
(
2.004132645e-05
1.244206646e-05
1.244206645e-05
1.527277622e-05
7.747772433e-06
7.003415571e-06
1.072878935e-05
1.162345336e-05
6.481827342e-06
4.917062665e-06
9.164024674e-06
5.512907125e-06
8.493923993e-06
6.929159325e-06
5.811726706e-06
6.481827318e-06
6.333314887e-06
4.694294037e-06
3.799630017e-06
6.333314887e-06
6.333314932e-06
)
;
    }
    procBoundary0to2
    {
        type            processor;
        value           nonuniform List<scalar> 
31
(
4.080829287e-06
4.911449774e-06
4.01188862e-06
4.634020865e-06
3.942947953e-06
5.602522687e-06
5.53358202e-06
4.980390442e-06
5.879951596e-06
4.218710622e-06
4.911449774e-06
8.370146817e-06
5.395700685e-06
9.683351974e-06
7.470585662e-06
5.53358202e-06
6.502083841e-06
4.427198864e-06
3.942947953e-06
4.080829287e-06
6.708392337e-06
6.827455578e-06
7.745254037e-06
4.665950111e-06
3.671551023e-06
4.437207236e-06
5.345650065e-06
3.564490058e-06
3.448883191e-06
6.708392337e-06
3.047428293e-06
)
;
    }
}


// ************************************************************************* //
