/*--------------------------------*- C++ -*----------------------------------*\
| =========                 |                                                 |
| \\      /  F ield         | OpenFOAM: The Open Source CFD Toolbox           |
|  \\    /   O peration     | Version:  2406                                  |
|   \\  /    A nd           | Website:  www.openfoam.com                      |
|    \\/     M anipulation  |                                                 |
\*---------------------------------------------------------------------------*/
FoamFile
{
    version     2.0;
    format      ascii;
    arch        "LSB;label=32;scalar=64";
    class       volScalarField;
    location    "0.003";
    object      rhoNMean;
}
// * * * * * * * * * * * * * * * * * * * * * * * * * * * * * * * * * * * * * //

dimensions      [0 -3 0 0 0 0 0];

internalField   nonuniform List<scalar> 
654
(
7.600135799e+19
9.805126325e+19
9.880107111e+19
9.89052111e+19
9.900935108e+19
9.97661016e+19
9.941896833e+19
9.992578291e+19
9.916208971e+19
9.844699518e+19
9.81623459e+19
9.809986191e+19
9.685712481e+19
9.791240994e+19
9.794018061e+19
9.885661244e+19
9.918291771e+19
1.009324694e+20
1.057576218e+20
1.360484709e+20
7.64804019e+19
9.909960573e+19
1.004742535e+20
9.973138828e+19
9.966890429e+19
1.001757189e+20
1.001618335e+20
9.954393631e+19
9.973833094e+19
1.002451455e+20
9.982858559e+19
1.003076295e+20
1.013768e+20
1.016822772e+20
1.010921507e+20
1.014670546e+20
1.02952785e+20
1.057298512e+20
1.123809246e+20
1.302652306e+20
7.793141896e+19
1.005992214e+20
1.008977561e+20
1.007311321e+20
1.004534255e+20
1.005992214e+20
1.01085208e+20
1.007033614e+20
1.007241894e+20
1.008491574e+20
1.011824053e+20
1.007727881e+20
9.99882669e+19
1.004950815e+20
1.015156533e+20
1.019738692e+20
1.0096024e+20
1.031749503e+20
1.070281296e+20
1.181502795e+20
7.839657754e+19
9.985635625e+19
1.000438082e+20
9.925234436e+19
9.87038738e+19
9.829425654e+19
9.885661244e+19
9.873858713e+19
9.837062586e+19
9.882189911e+19
9.898158041e+19
9.95855923e+19
1.006964188e+20
9.974527361e+19
1.003006868e+20
9.990495491e+19
1.010713227e+20
1.036539942e+20
1.073683202e+20
1.145748069e+20
7.733434974e+19
9.939119767e+19
9.92454017e+19
9.989106958e+19
1.002034895e+20
9.998132423e+19
9.962030563e+19
9.90648924e+19
9.909266306e+19
9.909266306e+19
9.878718578e+19
9.895380975e+19
9.964807629e+19
1.000438082e+20
1.007172468e+20
1.022515758e+20
1.037789622e+20
1.052508073e+20
1.072572376e+20
1.102217557e+20
7.747320305e+19
9.946062433e+19
1.003284575e+20
9.923151637e+19
9.928011503e+19
9.959253497e+19
9.896769508e+19
9.988412691e+19
1.009671827e+20
1.01397628e+20
1.014878826e+20
1.006964188e+20
9.966196162e+19
9.975915894e+19
1.001340629e+20
9.959253497e+19
1.002382028e+20
1.026125944e+20
1.042788341e+20
1.073683202e+20
7.759817102e+19
9.97869296e+19
1.004534255e+20
1.002243175e+20
1.012032333e+20
1.015781373e+20
1.016545066e+20
1.004811961e+20
1.009671827e+20
1.003839988e+20
1.003354002e+20
1.011962907e+20
1.022862891e+20
1.015087106e+20
1.017447612e+20
1.01355972e+20
1.026195371e+20
1.023487731e+20
1.036887075e+20
1.060908698e+20
7.766065501e+19
9.98077576e+19
1.005159095e+20
1.01397628e+20
1.005714508e+20
1.005575655e+20
1.018905572e+20
1.025362251e+20
1.02786161e+20
1.020016399e+20
1.007033614e+20
9.927317236e+19
9.914820438e+19
9.946756699e+19
1.009949534e+20
1.017378186e+20
1.014531693e+20
1.014045706e+20
1.018766719e+20
1.025917664e+20
7.739683373e+19
1.007103041e+20
1.01231004e+20
1.004256548e+20
1.003978842e+20
9.985635625e+19
1.004117695e+20
1.001132349e+20
9.945368166e+19
1.003284575e+20
1.022793465e+20
1.022862891e+20
1.017239332e+20
1.008422147e+20
9.910654839e+19
9.905100707e+19
9.953005098e+19
1.010366094e+20
1.008908134e+20
1.013073733e+20
7.736906307e+19
9.832896987e+19
9.991189758e+19
1.003215148e+20
1.010088387e+20
1.012865453e+20
1.005436801e+20
1.003076295e+20
1.000646362e+20
9.990495491e+19
9.984941359e+19
9.962030563e+19
1.002659735e+20
1.006755908e+20
1.01231004e+20
1.022654611e+20
1.019044425e+20
9.987024158e+19
1.01043552e+20
1.021127225e+20
7.775785233e+19
9.933565635e+19
9.964113363e+19
9.837062586e+19
9.844005251e+19
9.728062739e+19
9.694737946e+19
9.781521263e+19
9.853030716e+19
9.898852308e+19
9.918986038e+19
9.949533765e+19
1.003215148e+20
9.999520956e+19
9.92454017e+19
9.785686862e+19
9.92245737e+19
1.002382028e+20
1.014739973e+20
1.012587747e+20
7.798696029e+19
1.001687762e+20
9.986329892e+19
9.955782164e+19
1.003076295e+20
1.009046987e+20
1.011338067e+20
1.007450174e+20
1.004811961e+20
9.951616565e+19
9.927317236e+19
9.81415179e+19
9.762776066e+19
9.839839652e+19
9.9405083e+19
1.004048268e+20
1.008144441e+20
1.002520882e+20
1.000507509e+20
1.01439284e+20
7.749403104e+19
9.948145232e+19
1.002034895e+20
1.001132349e+20
9.92662297e+19
9.874552979e+19
9.878718578e+19
9.844005251e+19
9.88635551e+19
9.985635625e+19
1.001687762e+20
1.005367375e+20
1.017308759e+20
1.014948253e+20
1.005020241e+20
1.010296667e+20
1.013490293e+20
1.015642519e+20
1.021474358e+20
1.014253986e+20
7.757040036e+19
9.990495491e+19
1.004256548e+20
1.002868015e+20
1.002937442e+20
1.005645081e+20
1.004464828e+20
1.004603681e+20
9.964807629e+19
9.920374571e+19
9.880801378e+19
9.929400036e+19
9.866916047e+19
9.927317236e+19
1.000229802e+20
9.889132576e+19
9.828037121e+19
9.936342701e+19
9.833591253e+19
9.96064203e+19
7.654288589e+19
9.981470026e+19
1.000646362e+20
1.005297948e+20
1.008769281e+20
1.009880107e+20
1.014878826e+20
1.01022724e+20
1.015364813e+20
1.012448893e+20
1.005020241e+20
1.005436801e+20
1.009116414e+20
1.002451455e+20
1.002937442e+20
9.909266306e+19
1.001479482e+20
1.000229802e+20
9.925234436e+19
9.933565635e+19
7.834797889e+19
1.008769281e+20
1.012032333e+20
1.013768e+20
1.004256548e+20
1.014115133e+20
1.014948253e+20
1.004950815e+20
1.006755908e+20
9.981470026e+19
1.000993495e+20
9.898158041e+19
9.749585002e+19
9.722508607e+19
9.792629528e+19
9.898852308e+19
9.868998847e+19
9.815540323e+19
9.956476431e+19
9.914820438e+19
7.787587764e+19
9.887049777e+19
9.923845903e+19
1.002034895e+20
9.956476431e+19
9.987718425e+19
9.893992442e+19
9.97661016e+19
9.98077576e+19
1.005853361e+20
1.014948253e+20
1.015989653e+20
1.024112571e+20
1.029874983e+20
1.018003026e+20
1.016406213e+20
1.017031052e+20
1.013004307e+20
1.003006868e+20
9.999520956e+19
7.747320305e+19
9.899546575e+19
9.916903238e+19
9.866221781e+19
9.92245737e+19
9.9446739e+19
1.003145722e+20
1.007797307e+20
1.006061641e+20
1.001062922e+20
1.001062922e+20
1.000646362e+20
1.006894761e+20
1.001340629e+20
1.001548909e+20
1.001410055e+20
1.013837426e+20
1.013629146e+20
1.009185841e+20
1.018003026e+20
7.827160957e+19
1.004673108e+20
1.01439284e+20
1.009185841e+20
1.006478201e+20
1.002451455e+20
1.001132349e+20
1.000090949e+20
1.002798588e+20
9.973138828e+19
9.975915894e+19
1.001410055e+20
9.876635779e+19
9.969667495e+19
9.907877773e+19
9.953005098e+19
9.896075242e+19
9.850947917e+19
9.921068837e+19
9.878024312e+19
7.704970046e+19
1.000507509e+20
1.013420866e+20
1.0106438e+20
1.013629146e+20
1.017031052e+20
1.013768e+20
1.015225959e+20
1.013212586e+20
1.011824053e+20
1.0127266e+20
1.006478201e+20
1.021266078e+20
1.017378186e+20
1.026125944e+20
1.015989653e+20
1.016961626e+20
1.021057798e+20
1.020641238e+20
1.021821492e+20
7.765371235e+19
9.973138828e+19
9.952310831e+19
9.99882669e+19
9.957170697e+19
9.956476431e+19
9.914126172e+19
9.761387533e+19
9.834979786e+19
9.889132576e+19
9.983552826e+19
9.955782164e+19
9.932177102e+19
9.909266306e+19
9.943285366e+19
1.004534255e+20
1.002312602e+20
9.981470026e+19
9.968973228e+19
9.935648435e+19
7.680670717e+19
9.883578444e+19
9.883578444e+19
9.761387533e+19
9.809986191e+19
9.765553133e+19
9.878024312e+19
1.002590308e+20
1.005159095e+20
1.008422147e+20
9.991189758e+19
9.966890429e+19
9.939814034e+19
9.918291771e+19
9.921763104e+19
9.955087898e+19
9.923151637e+19
9.923845903e+19
1.003978842e+20
9.997438156e+19
2.396467643e+20
2.780472006e+20
2.86704088e+20
3.016273304e+20
3.020760687e+20
3.072127788e+20
3.086811871e+20
3.076755369e+20
3.001993002e+20
3.070605014e+20
1.647275395e+20
1.978845827e+20
2.186023311e+20
2.334348716e+20
2.502162865e+20
2.591918466e+20
2.635076219e+20
2.684779854e+20
2.714270991e+20
2.720138987e+20
1.365309336e+20
1.585083006e+20
1.791794593e+20
1.953375722e+20
2.089218606e+20
2.216883422e+20
2.33198179e+20
2.453121372e+20
2.509902872e+20
2.578720266e+20
1.246726131e+20
1.388236673e+20
1.515177562e+20
1.676394982e+20
1.80563728e+20
1.94976383e+20
2.121152446e+20
2.202218992e+20
2.261020384e+20
2.365367299e+20
1.163467065e+20
1.268136557e+20
1.374326091e+20
1.517632526e+20
1.602639184e+20
1.708108245e+20
1.851040969e+20
1.936462957e+20
2.064464391e+20
2.181114667e+20
1.114696064e+20
1.185006512e+20
1.264837735e+20
1.32309161e+20
1.403652338e+20
1.496749775e+20
1.634690246e+20
1.767731288e+20
1.864739324e+20
1.965683104e+20
1.080626036e+20
1.124395239e+20
1.165379927e+20
1.235743808e+20
1.303299363e+20
1.383279856e+20
1.465634464e+20
1.57419475e+20
1.69921073e+20
1.792640038e+20
1.050527361e+20
1.067852779e+20
1.08986828e+20
1.150672167e+20
1.193204769e+20
1.246365735e+20
1.324185554e+20
1.393609427e+20
1.489904759e+20
1.600147259e+20
1.024818076e+20
1.057961355e+20
1.086830861e+20
1.108634258e+20
1.143923651e+20
1.183823827e+20
1.209181124e+20
1.286780184e+20
1.375449768e+20
1.459470894e+20
1.02830172e+20
1.032706659e+20
1.046284851e+20
1.056851521e+20
1.075517446e+20
1.137728926e+20
1.193924694e+20
1.226341174e+20
1.259520792e+20
1.314340395e+20
1.024957422e+20
1.033267873e+20
1.054832006e+20
1.075701007e+20
1.094069495e+20
1.099208304e+20
1.114954501e+20
1.164072895e+20
1.209405277e+20
1.266384231e+20
1.014088456e+20
1.027164656e+20
1.03251051e+20
1.031671453e+20
1.044573487e+20
1.072013034e+20
1.096719438e+20
1.123243644e+20
1.143812919e+20
1.172476266e+20
1.014715512e+20
1.020570376e+20
1.02869608e+20
1.028826249e+20
1.033256017e+20
1.046549025e+20
1.064390328e+20
1.082121687e+20
1.098856344e+20
1.139515678e+20
1.001547338e+20
1.006820587e+20
1.013155786e+20
1.021997753e+20
1.029602916e+20
1.028875706e+20
1.035403106e+20
1.045609508e+20
1.073577489e+20
1.089777852e+20
9.916538011e+19
9.918782336e+19
9.97121047e+19
1.009621116e+20
1.014059314e+20
1.038541936e+20
1.047753557e+20
1.059658292e+20
1.063554394e+20
1.067804137e+20
1.013949109e+20
1.020640528e+20
1.013579626e+20
1.008767555e+20
1.013414641e+20
1.011563074e+20
1.025668057e+20
1.028780236e+20
1.038865126e+20
1.048799837e+20
9.951374374e+19
1.002751777e+20
9.986044308e+19
1.004072959e+20
9.955788871e+19
9.998770354e+19
1.011210773e+20
1.019268058e+20
1.018671529e+20
1.039297686e+20
1.011022849e+20
1.001208441e+20
1.000935487e+20
1.000018541e+20
1.012340191e+20
1.005647915e+20
1.00358255e+20
1.006097322e+20
1.014249572e+20
1.034101198e+20
9.935349683e+19
1.006539988e+20
1.006303941e+20
1.009407726e+20
1.007970796e+20
1.012428699e+20
1.015787702e+20
1.012536345e+20
1.009459111e+20
1.017620913e+20
1.00398589e+20
1.011450624e+20
1.008069882e+20
1.002152445e+20
1.003028359e+20
1.004638018e+20
1.013172314e+20
1.021316831e+20
1.017934536e+20
1.018363262e+20
9.980636974e+19
9.984725089e+19
1.00093548e+20
1.002863754e+20
1.00582191e+20
9.999491714e+19
9.953004948e+19
9.994387941e+19
1.013291481e+20
1.01004888e+20
1.004543273e+20
9.965082547e+19
9.923176869e+19
9.96675432e+19
)
;

boundaryField
{
    flow
    {
        type            calculated;
        value           nonuniform List<scalar> 
42
(
7.600135799e+19
7.64804019e+19
7.793141896e+19
7.839657754e+19
7.733434974e+19
7.747320305e+19
7.759817102e+19
7.766065501e+19
7.739683373e+19
7.736906307e+19
7.775785233e+19
7.798696029e+19
7.749403104e+19
7.757040036e+19
7.654288589e+19
7.834797889e+19
7.787587764e+19
7.747320305e+19
7.827160957e+19
7.704970046e+19
7.765371235e+19
7.680670717e+19
7.600135799e+19
9.805126325e+19
9.880107111e+19
9.89052111e+19
9.900935108e+19
9.97661016e+19
9.941896833e+19
9.992578291e+19
9.916208971e+19
9.844699518e+19
9.81623459e+19
9.809986191e+19
9.685712481e+19
9.791240994e+19
9.794018061e+19
9.885661244e+19
9.918291771e+19
1.009324694e+20
1.057576218e+20
1.360484709e+20
)
;
    }
    obstacle
    {
        type            calculated;
        value           nonuniform List<scalar> 10(138.3079683 145.2329976 147.7590586 141.510593 150.6561586 150.3152344 139.6841202 141.4787511 142.7435676 135.721556);
    }
    frontAndBack
    {
        type            empty;
    }
    procBoundary0to1
    {
        type            processor;
        value           nonuniform List<scalar> 
21
(
3.085409337e+20
2.750321621e+20
2.572196436e+20
2.38120915e+20
2.245708381e+20
2.054646318e+20
1.873230826e+20
1.714847477e+20
1.545621077e+20
1.382676167e+20
1.312532833e+20
1.231471671e+20
1.15205565e+20
1.109655575e+20
1.09425097e+20
1.050729192e+20
1.043475564e+20
1.048635369e+20
1.022312924e+20
1.028519629e+20
1.003618005e+20
)
;
    }
    procBoundary0to2
    {
        type            processor;
        value           nonuniform List<scalar> 
31
(
7.701498713e+19
9.882884178e+19
1.007866734e+20
1.000368656e+20
1.005020241e+20
1.004534255e+20
9.974527361e+19
9.884966977e+19
9.851642183e+19
9.81831739e+19
9.831508454e+19
1.000854642e+20
1.002729162e+20
9.971056028e+19
9.999520956e+19
9.907183506e+19
9.946062433e+19
9.877330045e+19
9.777355664e+19
9.732922605e+19
1.01054946e+20
1.015530546e+20
1.009031276e+20
1.010048541e+20
1.013807376e+20
1.017992084e+20
9.883791701e+19
9.938424878e+19
1.008281795e+20
1.01054946e+20
9.975289868e+19
)
;
    }
}


// ************************************************************************* //
