/*--------------------------------*- C++ -*----------------------------------*\
| =========                 |                                                 |
| \\      /  F ield         | OpenFOAM: The Open Source CFD Toolbox           |
|  \\    /   O peration     | Version:  2406                                  |
|   \\  /    A nd           | Website:  www.openfoam.com                      |
|    \\/     M anipulation  |                                                 |
\*---------------------------------------------------------------------------*/
FoamFile
{
    version     2.0;
    format      ascii;
    arch        "LSB;label=32;scalar=64";
    class       volScalarField;
    location    "0.003";
    object      rhoN;
}
// * * * * * * * * * * * * * * * * * * * * * * * * * * * * * * * * * * * * * //

dimensions      [0 -3 0 0 0 0 0];

internalField   nonuniform List<scalar> 
654
(
1.041399808e+20
6.248398848e+19
1.041399808e+20
6.248398848e+19
1.666239693e+20
7.289798656e+19
1.145539789e+20
1.145539789e+20
8.331198464e+19
1.041399808e+20
1.041399808e+20
1.041399808e+20
7.289798656e+19
1.24967977e+20
1.041399808e+20
8.331198464e+19
8.331198464e+19
9.372598272e+19
1.770379674e+20
9.372598272e+19
6.248398848e+19
1.35381975e+20
9.372598272e+19
1.35381975e+20
8.331198464e+19
1.145539789e+20
1.457959731e+20
1.24967977e+20
5.20699904e+19
1.145539789e+20
1.35381975e+20
1.041399808e+20
8.331198464e+19
5.20699904e+19
9.372598272e+19
1.35381975e+20
1.041399808e+20
1.24967977e+20
7.289798656e+19
1.145539789e+20
5.20699904e+19
1.35381975e+20
8.331198464e+19
1.35381975e+20
5.20699904e+19
1.145539789e+20
9.372598272e+19
1.24967977e+20
7.289798656e+19
8.331198464e+19
1.562099712e+20
1.041399808e+20
2.082799616e+19
8.331198464e+19
1.041399808e+20
9.372598272e+19
7.289798656e+19
7.289798656e+19
8.331198464e+19
1.35381975e+20
8.331198464e+19
4.165599232e+19
1.145539789e+20
1.24967977e+20
9.372598272e+19
7.289798656e+19
1.24967977e+20
7.289798656e+19
9.372598272e+19
1.041399808e+20
7.289798656e+19
1.145539789e+20
1.24967977e+20
9.372598272e+19
1.145539789e+20
4.165599232e+19
5.20699904e+19
6.248398848e+19
1.041399808e+20
1.770379674e+20
9.372598272e+19
1.145539789e+20
8.331198464e+19
7.289798656e+19
1.562099712e+20
1.457959731e+20
1.145539789e+20
1.041399808e+20
1.145539789e+20
7.289798656e+19
1.35381975e+20
1.666239693e+20
9.372598272e+19
8.331198464e+19
1.24967977e+20
8.331198464e+19
8.331198464e+19
1.457959731e+20
1.145539789e+20
1.24967977e+20
8.331198464e+19
9.372598272e+19
1.041399808e+20
9.372598272e+19
1.35381975e+20
9.372598272e+19
7.289798656e+19
1.041399808e+20
1.35381975e+20
7.289798656e+19
1.457959731e+20
5.20699904e+19
1.35381975e+20
1.041399808e+20
1.041399808e+20
7.289798656e+19
6.248398848e+19
8.331198464e+19
5.20699904e+19
6.248398848e+19
5.20699904e+19
8.331198464e+19
1.35381975e+20
7.289798656e+19
9.372598272e+19
5.20699904e+19
1.145539789e+20
5.20699904e+19
9.372598272e+19
6.248398848e+19
1.35381975e+20
7.289798656e+19
8.331198464e+19
9.372598272e+19
1.770379674e+20
1.24967977e+20
1.874519654e+20
4.165599232e+19
6.248398848e+19
1.041399808e+20
8.331198464e+19
1.457959731e+20
9.372598272e+19
1.145539789e+20
1.24967977e+20
1.562099712e+20
8.331198464e+19
6.248398848e+19
9.372598272e+19
7.289798656e+19
6.248398848e+19
6.248398848e+19
6.248398848e+19
8.331198464e+19
1.666239693e+20
1.24967977e+20
1.35381975e+20
7.289798656e+19
9.372598272e+19
5.20699904e+19
6.248398848e+19
1.041399808e+20
1.145539789e+20
1.041399808e+20
9.372598272e+19
1.145539789e+20
1.35381975e+20
1.145539789e+20
8.331198464e+19
1.145539789e+20
7.289798656e+19
6.248398848e+19
6.248398848e+19
5.20699904e+19
9.372598272e+19
1.145539789e+20
6.248398848e+19
1.041399808e+20
1.041399808e+20
7.289798656e+19
7.289798656e+19
7.289798656e+19
8.331198464e+19
9.372598272e+19
1.041399808e+20
9.372598272e+19
1.145539789e+20
1.145539789e+20
1.041399808e+20
1.24967977e+20
1.35381975e+20
8.331198464e+19
1.041399808e+20
1.35381975e+20
9.372598272e+19
1.041399808e+20
1.145539789e+20
9.372598272e+19
9.372598272e+19
7.289798656e+19
7.289798656e+19
8.331198464e+19
1.770379674e+20
9.372598272e+19
7.289798656e+19
4.165599232e+19
1.35381975e+20
1.35381975e+20
7.289798656e+19
1.35381975e+20
5.20699904e+19
9.372598272e+19
9.372598272e+19
9.372598272e+19
8.331198464e+19
8.331198464e+19
3.124199424e+19
1.457959731e+20
1.562099712e+20
6.248398848e+19
1.145539789e+20
8.331198464e+19
9.372598272e+19
7.289798656e+19
7.289798656e+19
1.35381975e+20
1.041399808e+20
4.165599232e+19
7.289798656e+19
1.041399808e+20
1.041399808e+20
4.165599232e+19
6.248398848e+19
1.666239693e+20
1.24967977e+20
1.041399808e+20
1.457959731e+20
7.289798656e+19
7.289798656e+19
9.372598272e+19
5.20699904e+19
1.562099712e+20
1.145539789e+20
6.248398848e+19
7.289798656e+19
6.248398848e+19
1.041399808e+20
4.165599232e+19
1.666239693e+20
1.145539789e+20
1.145539789e+20
1.041399808e+20
1.041399808e+20
1.24967977e+20
1.24967977e+20
1.24967977e+20
7.289798656e+19
8.331198464e+19
1.770379674e+20
1.24967977e+20
9.372598272e+19
8.331198464e+19
7.289798656e+19
8.331198464e+19
1.457959731e+20
8.331198464e+19
9.372598272e+19
1.770379674e+20
1.145539789e+20
1.457959731e+20
5.20699904e+19
9.372598272e+19
5.20699904e+19
6.248398848e+19
1.145539789e+20
1.35381975e+20
9.372598272e+19
1.145539789e+20
7.289798656e+19
9.372598272e+19
7.289798656e+19
1.041399808e+20
8.331198464e+19
9.372598272e+19
9.372598272e+19
9.372598272e+19
1.145539789e+20
1.145539789e+20
5.20699904e+19
1.145539789e+20
6.248398848e+19
9.372598272e+19
1.24967977e+20
1.24967977e+20
6.248398848e+19
1.145539789e+20
8.331198464e+19
8.331198464e+19
1.562099712e+20
9.372598272e+19
4.165599232e+19
1.562099712e+20
7.289798656e+19
1.041399808e+20
9.372598272e+19
4.165599232e+19
1.041399808e+20
8.331198464e+19
8.331198464e+19
6.248398848e+19
8.331198464e+19
1.145539789e+20
1.145539789e+20
8.331198464e+19
1.145539789e+20
8.331198464e+19
1.457959731e+20
1.041399808e+20
6.248398848e+19
9.372598272e+19
7.289798656e+19
8.331198464e+19
6.248398848e+19
1.041399808e+20
3.124199424e+19
1.041399808e+20
4.165599232e+19
1.35381975e+20
1.041399808e+20
9.372598272e+19
9.372598272e+19
9.372598272e+19
1.041399808e+20
1.35381975e+20
8.331198464e+19
7.289798656e+19
1.145539789e+20
9.372598272e+19
6.248398848e+19
8.331198464e+19
1.041399808e+20
9.372598272e+19
1.562099712e+20
1.457959731e+20
1.35381975e+20
9.372598272e+19
1.24967977e+20
6.248398848e+19
1.562099712e+20
1.24967977e+20
1.770379674e+20
1.35381975e+20
1.978659635e+20
1.145539789e+20
1.457959731e+20
8.331198464e+19
1.041399808e+20
1.145539789e+20
1.24967977e+20
1.041399808e+20
7.289798656e+19
1.145539789e+20
8.331198464e+19
6.248398848e+19
5.20699904e+19
1.145539789e+20
8.331198464e+19
5.20699904e+19
1.457959731e+20
1.145539789e+20
1.145539789e+20
7.289798656e+19
4.165599232e+19
1.041399808e+20
6.248398848e+19
5.20699904e+19
9.372598272e+19
8.331198464e+19
8.331198464e+19
7.289798656e+19
4.165599232e+19
1.041399808e+20
1.24967977e+20
1.562099712e+20
1.24967977e+20
1.145539789e+20
8.331198464e+19
9.372598272e+19
9.372598272e+19
1.24967977e+20
6.248398848e+19
7.289798656e+19
8.331198464e+19
5.20699904e+19
1.145539789e+20
8.331198464e+19
8.331198464e+19
5.20699904e+19
1.041399808e+20
1.457959731e+20
8.331198464e+19
1.041399808e+20
9.372598272e+19
5.20699904e+19
6.248398848e+19
9.372598272e+19
1.145539789e+20
7.289798656e+19
1.041399808e+20
2.082799616e+20
4.165599232e+19
5.20699904e+19
9.372598272e+19
1.666239693e+20
8.331198464e+19
6.248398848e+19
4.165599232e+19
6.248398848e+19
1.041399808e+20
9.372598272e+19
7.289798656e+19
1.145539789e+20
1.145539789e+20
8.331198464e+19
1.457959731e+20
1.24967977e+20
9.372598272e+19
8.331198464e+19
6.248398848e+19
1.041399808e+20
4.165599232e+19
8.331198464e+19
8.331198464e+19
1.041399808e+20
6.248398848e+19
1.770379674e+20
1.041399808e+20
1.24967977e+20
1.457959731e+20
9.372598272e+19
2.40371362e+20
2.525469717e+20
3.70847655e+20
2.5606848e+20
1.933997404e+20
4.43636374e+20
3.051286182e+20
3.731706433e+20
3.427016783e+20
2.115713147e+20
1.045092879e+20
1.788874383e+20
3.072737714e+20
2.133904001e+20
2.041441705e+20
2.705099844e+20
2.070515625e+20
2.963413935e+20
2.653174283e+20
2.227066471e+20
1.254111454e+20
1.473190668e+20
1.377434147e+20
1.2803424e+20
2.578663208e+20
2.488691854e+20
2.50641365e+20
2.743901791e+20
2.210978569e+20
4.565486265e+20
5.225464391e+19
1.367962764e+20
1.589347094e+20
1.493732799e+20
1.611664503e+20
2.05587588e+20
2.397439145e+20
2.304877505e+20
2.100429641e+20
1.670299853e+20
1.254111454e+20
1.157506953e+20
1.377434148e+20
9.60256801e+19
1.826553106e+20
2.813303837e+20
1.743592105e+20
2.743901791e+20
1.658233928e+20
2.004359825e+20
1.149602166e+20
1.367962763e+20
1.059564728e+20
1.1736472e+20
1.611664503e+20
1.406651917e+20
1.852566609e+20
1.207316786e+20
2.653174281e+20
2.115713149e+20
7.315650148e+19
1.473190668e+20
9.536082561e+19
9.60256801e+19
1.181887304e+20
1.839467894e+20
2.179490132e+20
1.097560717e+20
8.843914278e+19
1.670299853e+20
1.46313003e+20
1.578418574e+20
1.377434148e+20
1.707123199e+20
1.074443002e+20
1.19024393e+20
1.307694079e+20
1.646341075e+20
9.949403563e+19
1.55894653e+20
1.045092878e+20
2.104558097e+20
7.416953098e+19
1.2803424e+20
7.521101025e+19
1.731263899e+20
1.961541117e+20
8.780485732e+19
9.949403563e+19
1.781653177e+20
9.405835911e+19
1.052279049e+20
1.907216512e+20
4.267808001e+19
1.504220204e+20
1.190243931e+20
9.807705592e+19
1.426828931e+20
1.43713607e+20
1.113533235e+20
1.46313003e+20
4.209116193e+19
1.589347092e+20
1.2803424e+20
8.595544022e+19
1.298447924e+20
1.307694078e+20
1.097560716e+20
1.547684999e+20
1.55894653e+20
7.315650148e+19
1.578418574e+20
8.476517832e+19
9.602567996e+19
1.074443003e+20
9.738359437e+19
5.448725348e+19
1.097560723e+20
1.547685006e+20
1.447593212e+20
1.46313003e+20
6.313674307e+19
1.165521206e+20
7.468664002e+19
6.44665799e+19
8.656319482e+19
1.089745064e+20
1.317072849e+20
5.5274464e+19
8.908265883e+19
1.776657887e+20
9.470511377e+19
8.476517769e+19
9.60256797e+19
1.396775905e+20
8.656319476e+19
1.852566602e+20
7.682925005e+19
1.10548928e+20
8.908265819e+19
1.672148614e+20
1.473190672e+20
7.416953098e+19
1.066952004e+20
1.396775914e+20
4.328159768e+19
9.807705606e+19
1.646341084e+20
9.949403591e+19
1.224886559e+20
9.405835892e+19
1.894102292e+20
1.165521209e+20
3.200856012e+19
1.074443004e+20
1.190243936e+20
5.448725337e+19
1.097560707e+20
2.100429632e+20
1.002179912e+20
5.225464384e+19
1.157506948e+20
8.476517769e+19
7.468663977e+19
1.181887304e+20
5.410199672e+19
6.538470404e+19
9.878046504e+19
7.738425015e+19
1.002179912e+20
9.405835892e+19
7.365953358e+19
8.476517884e+19
2.133903993e+19
1.074442996e+20
1.190243928e+20
7.628215418e+19
1.426828929e+20
8.843914303e+19
7.794732648e+19
1.045092884e+20
8.418232409e+19
1.48339062e+20
5.33476002e+19
9.669987032e+19
5.410199672e+19
1.634617601e+20
1.097560715e+20
6.63293568e+19
1.002179919e+20
1.254111452e+20
7.365953358e+19
1.377434147e+20
5.334759983e+19
1.074443004e+20
5.41019971e+19
1.525643094e+20
1.207316786e+20
1.105489288e+20
8.908265883e+19
7.315650138e+19
1.052279044e+20
7.416953098e+19
9.602568036e+19
1.504220205e+20
9.73835941e+19
1.416668588e+20
1.646341084e+20
1.437136074e+20
7.794732648e+19
8.360743015e+19
1.367962757e+20
1.165521201e+20
6.401712024e+19
)
;

boundaryField
{
    flow
    {
        type            zeroGradient;
    }
    obstacle
    {
        type            calculated;
        value           nonuniform List<scalar> 10(1e-300 111.0592026 35.61864058 141.0445738 44.27799666 209.7272102 135.4213964 290.9045705 248.417998 1e-300);
    }
    frontAndBack
    {
        type            empty;
    }
    procBoundary0to1
    {
        type            processor;
        value           nonuniform List<scalar> 
21
(
4.150271891e+20
2.579898745e+20
2.579898743e+20
3.140746296e+20
1.570373148e+20
1.458203639e+20
2.243390211e+20
2.467729232e+20
1.346034128e+20
1.009525595e+20
1.906881679e+20
1.12169511e+20
1.794712164e+20
1.458203633e+20
1.233864621e+20
1.346034123e+20
1.346034123e+20
1.009525599e+20
7.851865773e+19
1.346034123e+20
1.346034132e+20
)
;
    }
    procBoundary0to2
    {
        type            processor;
        value           nonuniform List<scalar> 
31
(
8.331198464e+19
1.041399808e+20
8.331198464e+19
9.372598272e+19
8.331198464e+19
1.145539789e+20
1.145539789e+20
1.041399808e+20
1.24967977e+20
8.331198464e+19
1.041399808e+20
1.770379674e+20
1.145539789e+20
1.978659635e+20
1.562099712e+20
1.145539789e+20
1.35381975e+20
9.372598272e+19
8.331198464e+19
8.331198464e+19
1.396775905e+20
1.406651915e+20
1.63461759e+20
9.878046435e+19
7.738425015e+19
8.908265883e+19
1.149602165e+20
7.365953358e+19
7.416953098e+19
1.396775905e+20
6.40171198e+19
)
;
    }
}


// ************************************************************************* //
