/*--------------------------------*- C++ -*----------------------------------*\
| =========                 |                                                 |
| \\      /  F ield         | OpenFOAM: The Open Source CFD Toolbox           |
|  \\    /   O peration     | Version:  2406                                  |
|   \\  /    A nd           | Website:  www.openfoam.com                      |
|    \\/     M anipulation  |                                                 |
\*---------------------------------------------------------------------------*/
FoamFile
{
    version     2.0;
    format      ascii;
    arch        "LSB;label=32;scalar=64";
    class       volScalarField;
    location    "0.003";
    object      translationalT;
}
// * * * * * * * * * * * * * * * * * * * * * * * * * * * * * * * * * * * * * //

dimensions      [1 2 -2 0 0 0 0];

internalField   nonuniform List<scalar> 
654
(
286.1429762
298.1662337
290.7351377
296.553533
295.3981765
297.5407848
299.3075599
299.643597
297.9242192
296.9476858
294.6063531
295.6848377
292.4469493
300.9192161
308.7968083
323.7517682
367.5051435
457.70082
697.3216238
1323.094589
286.6339434
304.0634214
299.0077907
301.1989237
301.097317
301.3720228
301.7334308
302.1559509
301.5798882
300.1520585
297.41758
296.5771718
304.6115708
318.3834306
331.1386118
354.7796625
388.171455
484.4271533
715.0598089
1150.276427
290.4068717
306.6006771
296.8797952
295.3609638
292.9233058
294.2960714
291.9496416
293.1723202
293.4908912
297.2737441
296.1734094
295.5309639
302.8760271
313.7001347
321.8879617
347.6343423
386.8810648
459.1577775
665.6093071
901.0306005
286.4172331
306.3809894
296.795857
297.1088018
296.9117455
294.7412017
294.4103274
292.9566547
296.713892
295.8004914
298.7785186
300.9654694
306.345386
310.5585658
327.4488618
336.7652613
380.116193
472.3036648
566.2349612
752.1302304
287.256332
302.5925002
295.6224576
296.9365752
298.8268836
301.1309063
299.9594466
300.0671561
301.8279211
301.5321895
302.602145
301.9686125
295.147654
301.6581089
310.8654108
332.9712776
360.4568834
426.2925028
505.6484938
611.1504846
289.4777829
306.4962008
302.4328461
303.5307333
300.4859007
295.0915922
297.7696364
298.8833238
299.7119062
303.4637864
301.1076654
297.6819272
299.4093698
300.8185996
318.2542724
328.7021517
352.0976182
425.0721881
452.2262063
540.0074237
287.418309
302.9067028
297.3819965
298.827262
304.5678945
306.4495383
306.0862777
301.7257309
299.9433411
298.3139538
299.8599694
300.18403
300.3625901
301.845564
302.2203452
316.2764431
343.9157219
368.7561039
407.3103338
459.0764177
286.8442094
303.0396727
298.1723276
303.303664
295.9310987
297.9746509
298.5992677
302.8324784
303.9087247
302.8516484
299.2423725
299.2291011
298.9067016
300.6619413
313.0285511
315.8786447
324.635772
347.5100214
365.04011
393.7275176
289.933463
309.2034923
299.7042905
303.0622939
304.4862726
305.2292701
305.2719132
303.8674161
303.1169096
303.4207218
305.0356024
305.8323189
306.5542532
312.2920476
307.9927751
313.996728
324.2253633
336.7535278
354.4093505
378.2280229
292.5121967
303.5897285
297.8337431
296.1292846
296.7549356
298.1868868
296.6104295
294.6998727
297.4235928
299.7231646
302.0803826
306.168409
313.7108705
309.4793306
309.2100888
314.8376313
313.1901802
316.2641664
341.0994919
365.2460579
291.4140564
305.2040022
302.2954551
299.7198571
300.1713751
297.0161516
297.0756044
302.7815011
300.5380703
301.6188296
301.9481617
298.1814402
303.1849971
304.5040544
310.1943579
306.0665777
311.0989357
310.5966154
326.4943036
344.8802609
293.1702211
309.9795098
300.6645992
297.7575539
297.3838828
298.4168645
299.7738307
297.8284357
304.1046008
303.2932262
303.113218
302.6397805
303.0437371
303.9017955
303.816977
307.9784965
311.5933185
312.4185928
316.4799272
337.7081531
290.9067746
307.8385708
298.9833458
299.1606733
299.3065306
299.8427456
299.7442477
298.1453291
295.910598
298.7201785
300.9938744
302.1371795
302.4682968
304.028668
306.3249568
304.629939
308.1932432
307.4678284
314.1366868
315.4617335
290.3491948
304.4235578
300.7571255
301.0704678
299.1503414
302.9511858
301.1212302
303.5807053
301.7657358
298.9583201
304.6865658
299.4668787
300.3663722
297.70409
303.8537248
300.7292522
299.9451096
308.217997
309.8776411
316.9879151
292.8191115
312.2497718
303.5008069
300.2391496
303.2733219
301.1642248
301.0517203
298.9255094
300.7692967
300.4919784
296.9764664
299.6468445
297.0107163
295.9314173
297.9912131
299.3912013
304.6477013
308.560238
310.919858
309.7178399
290.8511736
305.5291338
299.8618736
301.2169953
300.2794189
299.1376712
301.7128716
300.1263511
301.9291472
302.9531027
304.6444278
302.02938
301.5853458
302.9064009
299.9429757
299.8081835
299.5661098
300.1912379
304.0118504
308.9385989
290.6746268
305.3554624
299.0679002
300.3384078
301.5981417
301.9455635
301.4892528
300.6873737
300.3247868
298.1055138
297.0767142
298.2248384
297.690549
298.163061
299.02826
304.767027
302.8997563
302.9948389
301.4368347
309.3979049
291.7937502
303.3804289
298.6073873
296.9061446
300.6373053
301.8023105
299.6525899
297.5950676
296.6946407
297.1980952
298.1312109
297.3761487
298.1510164
297.8726048
301.0661138
298.0304893
296.7587425
299.8577675
297.1633981
302.7201536
285.0886203
301.5575359
295.6598991
295.7968885
296.0110683
297.1386981
302.9855408
303.7265121
304.1324359
306.8932024
303.6646402
306.2845296
304.1848777
300.8556225
301.7355066
306.8567272
306.0576131
301.0710499
305.1101146
299.9699847
290.041577
307.7453555
300.6373675
300.8816753
300.194721
298.295569
297.4303251
295.8097699
295.2068187
293.5918328
294.8068377
295.2320552
299.7957402
300.9493971
301.3812067
302.9227734
299.1959127
301.5654503
305.9073657
308.6153373
287.5492563
304.4810803
296.4646836
298.9339739
298.9587535
298.2012729
298.8303829
297.2197257
298.6871499
302.4140779
302.2143134
306.0657409
299.854278
299.0323471
298.1198828
300.564362
303.8492133
304.7017101
301.13329
303.9677253
293.0891094
309.607893
299.7744389
298.8816007
297.5092444
297.740124
295.5662333
298.0532938
300.0327293
297.3455892
298.5847189
298.4465632
299.3651736
300.8497804
304.8239243
299.482729
298.1970157
300.5624493
301.1113122
303.6509247
1392.143427
1241.642144
1187.78136
1122.20714
1078.766343
1049.976691
1029.420594
992.7594387
982.5072176
950.7143732
1329.202301
1304.285168
1251.089806
1203.215797
1162.856724
1147.070461
1110.922346
1083.668638
1073.991448
1062.632646
1129.908997
1185.476982
1186.269431
1172.998811
1150.478394
1128.036396
1110.335231
1093.160912
1074.331406
1046.599455
922.7219636
1039.754977
1076.636419
1116.601047
1088.765035
1066.866025
1077.83168
1047.579743
1047.436515
1044.913534
751.0662298
879.2456255
950.163056
1015.741398
1002.312689
1007.852701
1043.365022
1014.990832
1015.979332
1005.234683
620.910708
748.051701
843.2297013
883.8758894
921.969297
941.3315325
977.2983173
986.3755192
1001.639247
984.4207727
526.7074291
627.3078603
695.1050511
772.6776456
805.0676382
853.6003098
875.071916
917.8842264
929.140523
942.1017745
466.8795448
540.1579574
579.5344556
684.2885178
710.1978306
763.0473911
798.3896894
838.1496999
878.6370379
892.1338902
433.7885051
471.9995196
511.3557795
565.6514615
615.7108229
676.4007256
712.7683913
760.4304355
811.0704004
831.6103219
391.3329352
434.1018876
469.4154825
499.6568151
520.2080805
598.055909
636.6987414
670.7547215
725.6476644
763.3800302
370.5169545
410.7077677
426.9362612
460.5184428
485.9599549
540.2065221
575.637335
623.9448719
637.3674345
664.3950186
345.3984027
371.5598017
392.538561
428.5941916
437.2155634
470.8424646
494.2900843
536.8182335
569.5111039
595.5800616
341.809603
357.3200288
375.0700322
377.0452686
398.397304
430.3871641
446.9084458
479.9790031
506.4391745
543.8349428
334.5907466
338.3980633
354.6020638
361.3753461
377.7267837
395.9491651
419.0187696
433.3815646
469.1353381
481.8446405
326.750834
323.6674589
328.2100893
335.1218543
356.7249376
369.2849045
376.71833
403.2334737
426.1724067
440.2882529
307.1370033
321.6744566
323.6056018
333.2097919
338.9173347
354.9729049
370.7166324
375.3979975
396.3432613
411.9066747
311.0145577
317.8146694
319.3481945
318.668683
315.0764319
327.3707286
344.1886649
352.2743019
365.1910023
390.2914786
309.9545512
309.8856384
310.284268
312.7020322
317.9368766
320.0934194
333.3946083
331.9524404
341.0381316
358.1720004
307.0075504
312.7612643
315.4346505
316.7047112
312.7835881
317.8385386
322.0598326
330.4118244
329.4287378
343.1818574
307.8274564
305.9449066
308.9358593
309.1498686
310.3814517
313.8492424
316.3353194
320.4776779
332.78495
329.2399075
303.5751372
301.1098787
301.184702
299.9415803
305.6981417
309.9492686
311.5598326
317.643826
332.652553
330.2241545
299.1954389
298.7865497
302.5636382
304.2309828
)
;

boundaryField
{
    flow
    {
        type            calculated;
        value           nonuniform List<scalar> 
42
(
286.1429762
286.6339434
290.4068717
286.4172331
287.256332
289.4777829
287.418309
286.8442094
289.933463
292.5121967
291.4140564
293.1702211
290.9067746
290.3491948
292.8191115
290.8511736
290.6746268
291.7937502
285.0886203
290.041577
287.5492563
293.0891094
286.1429762
298.1662337
290.7351377
296.553533
295.3981765
297.5407848
299.3075599
299.643597
297.9242192
296.9476858
294.6063531
295.6848377
292.4469493
300.9192161
308.7968083
323.7517682
367.5051435
457.70082
697.3216238
1323.094589
)
;
    }
    obstacle
    {
        type            calculated;
        value           nonuniform List<scalar> 10(1201.737086 1085.715773 994.2711548 945.9586825 879.677732 830.8308642 891.371985 836.924037 811.7378915 843.4542913);
    }
    frontAndBack
    {
        type            empty;
    }
    procBoundary0to1
    {
        type            processor;
        value           nonuniform List<scalar> 
21
(
936.8069307
1030.006877
1024.951687
1025.240597
997.2633487
968.3968698
944.0108143
907.4893071
853.2162439
788.6164092
701.235783
643.4691068
568.2615215
516.1493433
463.7351625
429.3619388
396.2756189
371.9181119
357.2981578
347.3391459
339.6506713
)
;
    }
    procBoundary0to2
    {
        type            processor;
        value           nonuniform List<scalar> 
31
(
284.3724846
300.6555284
298.4253302
299.8065954
298.9399613
297.5089545
298.8951595
301.6715297
302.7381645
302.2699658
303.2137086
302.2670573
303.2839856
302.5128484
300.2448952
298.9485711
300.1032134
300.4531109
300.0862915
301.6287455
306.7838227
311.3867306
302.4520384
308.4292854
311.9689067
319.8233232
299.594547
307.3723405
304.3259411
306.7838227
303.4050347
)
;
    }
}


// ************************************************************************* //
