/*--------------------------------*- C++ -*----------------------------------*\
| =========                 |                                                 |
| \\      /  F ield         | OpenFOAM: The Open Source CFD Toolbox           |
|  \\    /   O peration     | Version:  2406                                  |
|   \\  /    A nd           | Website:  www.openfoam.com                      |
|    \\/     M anipulation  |                                                 |
\*---------------------------------------------------------------------------*/
FoamFile
{
    version     2.0;
    format      ascii;
    arch        "LSB;label=32;scalar=64";
    class       volVectorField;
    location    "0.003";
    object      UMean;
}
// * * * * * * * * * * * * * * * * * * * * * * * * * * * * * * * * * * * * * //

dimensions      [0 1 -1 0 0 0 0];

internalField   nonuniform List<vector> 
654
(
(1707.673311 -5.45181326 -7.085901335)
(1744.616447 -4.909835675 -7.478035356)
(1736.852822 -6.627541733 -4.014263653)
(1737.131862 -5.369850094 -4.357146048)
(1735.07723 -5.378948471 -6.210341667)
(1736.116358 -5.969588705 -3.139791674)
(1734.369539 -5.652954355 0.09262157484)
(1734.984041 -9.376690805 -1.759288223)
(1731.541199 -7.30314567 0.1900468561)
(1732.063105 -8.229510889 -0.2974827194)
(1732.012222 -7.515918686 -0.5606043547)
(1730.085271 -1.737423379 -1.804888703)
(1732.403968 -0.756554369 -0.1269979949)
(1732.168279 -0.5070104824 0.2902142959)
(1728.831169 -2.852248257 -0.3010852246)
(1722.11775 -5.379827151 -1.207658601)
(1704.728203 -12.41600042 3.086701067)
(1667.175071 -18.17863466 0.4824165356)
(1568.081204 -22.04555664 -2.377823597)
(1181.227895 10.10514644 7.380481743)
(1711.940348 1.670284814 -1.679359135)
(1748.815013 -3.888643092 -1.382056345)
(1736.469342 -0.4364517363 -2.326770045)
(1737.292462 -1.992473477 -4.445922755)
(1737.953962 -1.562836438 -4.30057007)
(1737.400737 -3.80569621 -6.326280101)
(1737.469876 -6.153588641 -11.08502453)
(1739.047284 -0.7692322124 -5.827183263)
(1741.094952 -1.117019631 -2.810250257)
(1743.618872 -1.819127304 -0.5422682909)
(1745.033471 0.3955040807 -0.7158858263)
(1743.10347 -2.387930318 -0.225696573)
(1738.997077 -1.543474555 0.5090006159)
(1729.855002 -3.354132365 0.5458106548)
(1726.155494 0.7087262314 -3.661475575)
(1716.482648 -1.534180863 -2.85334086)
(1702.627343 4.766918082 1.620411941)
(1662.603286 4.273955146 -1.351243204)
(1561.854781 19.58835756 3.877793307)
(1307.129763 71.08844889 -3.605132435)
(1707.075262 1.366781954 5.119482495)
(1743.864276 -1.738231795 5.027924217)
(1737.994189 -4.36137515 2.367524372)
(1739.060254 -5.711840072 2.385530001)
(1740.076823 -7.525635096 3.116899734)
(1737.504327 -4.636763253 4.06683659)
(1737.290854 -2.741755561 6.133073594)
(1737.937037 -2.15559874 3.247348297)
(1732.644462 3.022811512 0.2896963082)
(1728.758885 0.7935557803 -0.9285549825)
(1725.950931 2.594302724 -4.304166475)
(1726.28946 -1.342554199 -3.609975486)
(1727.802662 -1.092065652 -4.110027625)
(1721.170247 -1.156549108 -3.925103709)
(1721.330628 -0.1984632196 -6.790725322)
(1712.459349 1.066865872 -2.008513032)
(1699.494532 7.018652464 3.67517196)
(1675.270936 11.66221083 0.9302019677)
(1580.922666 30.56324387 3.647865835)
(1453.025229 64.24907665 2.361803383)
(1709.584631 -7.035827114 0.3217631881)
(1742.093571 -1.843047961 1.642936101)
(1731.032238 0.1359276652 3.157874742)
(1731.678018 -1.538964335 4.802429719)
(1732.232267 2.952543084 5.079704381)
(1735.589015 -0.2062941259 2.660043369)
(1737.599424 -2.774880442 -0.9240343769)
(1735.421494 -4.095904152 -2.408373704)
(1735.652355 -6.119319994 -0.9310636699)
(1735.621921 -0.4911674705 0.8090204552)
(1736.54929 -2.015495894 2.560094791)
(1734.890389 4.52659636 1.084570032)
(1733.591154 7.46784837 -3.177003283)
(1727.67375 6.426950597 1.078468882)
(1718.676642 4.87098963 0.5481317383)
(1712.789101 3.228280549 1.446149206)
(1694.811981 4.419000682 -1.860819205)
(1660.748452 9.660979598 1.549243901)
(1618.548455 20.51427685 -5.777460469)
(1525.716061 58.97410403 -10.09718106)
(1708.326527 -0.1954669605 -0.214190653)
(1747.258739 -4.016610691 1.123710557)
(1743.223216 -3.617982794 3.647252282)
(1740.680845 1.02209035 4.339659372)
(1741.153071 0.780491998 3.630190677)
(1738.496277 1.827695689 4.971097362)
(1736.72384 6.659897574 10.49486693)
(1734.770457 4.494526 9.502000491)
(1734.197678 0.9390230048 5.566775788)
(1734.30871 1.23398448 7.108424562)
(1732.928126 -5.276384302 6.683602707)
(1731.013616 -5.083111997 6.785461588)
(1732.119143 -6.808739357 7.477330336)
(1730.829404 -3.421359289 2.755461171)
(1725.304021 0.525679889 1.488553266)
(1719.696796 2.559692836 -2.914800129)
(1705.818202 7.169621914 -2.354017023)
(1679.298894 15.70850673 -6.109782054)
(1643.930052 24.70413685 -6.172034969)
(1595.114436 45.71924246 -4.832574252)
(1709.736455 1.560358144 2.42801263)
(1744.20022 4.569647166 0.4984800574)
(1731.614822 4.539563482 1.062709279)
(1731.509484 1.040407883 -0.733889662)
(1731.217431 3.198155763 -0.4068702786)
(1733.453682 -0.50306856 0.4437421783)
(1735.818159 -1.77711979 -1.354415169)
(1736.297779 -1.788090818 -2.666791794)
(1737.942845 0.4214451619 1.228367055)
(1736.501205 0.5457334112 2.166905186)
(1737.447423 3.190015912 1.263359903)
(1738.999301 -0.3749151063 1.833276743)
(1738.136916 -2.033130958 0.6473849027)
(1737.660569 -4.30598044 1.153985298)
(1731.40921 -5.460427248 5.030528372)
(1725.44474 -5.687506645 5.524911404)
(1717.6144 1.583333156 0.8047668058)
(1683.870394 11.91052994 -4.077453434)
(1669.121193 14.51348164 -2.940569121)
(1635.804522 37.37735936 -8.934288032)
(1709.351376 3.12918038 -5.023890066)
(1746.310009 1.946043782 -3.554850632)
(1737.909831 1.835755459 -4.768747009)
(1737.081104 6.240255679 -3.766659699)
(1735.808228 2.114864562 -6.287954001)
(1734.281998 0.7510293593 -5.54847816)
(1735.170672 -4.27105061 -2.766063277)
(1732.359684 -5.987964886 -1.134470088)
(1732.669473 -6.443485482 -1.476720196)
(1730.158991 -6.593367225 0.8086329319)
(1729.459485 -4.471856084 -2.790702959)
(1726.2913 -4.206398962 -2.16967439)
(1726.572542 -2.464872901 -1.555438603)
(1728.408855 0.5367874698 -3.819437606)
(1725.148834 0.9204634878 -2.822804464)
(1721.143266 4.857720416 -2.415352154)
(1711.360993 2.953417786 -1.510762599)
(1700.715406 3.200475332 -3.911409488)
(1688.939234 8.013733576 0.7662855962)
(1661.788255 22.80864004 3.681219862)
(1708.988901 -4.587594845 -0.0884798109)
(1742.369552 -1.270713941 -2.85555121)
(1731.282376 -3.344486692 -3.655286567)
(1728.37627 -6.504550996 -5.282334568)
(1730.763721 -5.382527533 -2.572765026)
(1732.124263 -2.658331895 -4.847423519)
(1733.061393 5.537767297 -4.119573991)
(1732.042261 3.870384756 -2.312647504)
(1730.359056 2.943017341 -4.96973466)
(1734.631521 -0.1476181238 -7.090142662)
(1734.202223 -3.999596898 -5.103621353)
(1737.953431 -2.121051748 -6.366458525)
(1738.571517 -0.3984031595 -3.863673834)
(1738.707292 -0.9457574578 -3.31500486)
(1732.296244 -1.860718054 -2.174059488)
(1731.232283 -3.475237929 -1.238207022)
(1730.140105 -1.291794986 -1.168314187)
(1719.999185 3.029999948 -3.898145624)
(1713.01415 9.137673965 -3.421387386)
(1702.635802 13.17911701 -2.783760491)
(1704.575119 -4.17870644 -4.247356701)
(1742.662562 -3.04648165 -3.296047716)
(1735.769685 -1.845057302 -2.281673525)
(1736.662829 0.1290323037 0.0103180331)
(1737.145647 -3.337823475 0.5386945687)
(1735.573407 -1.74747053 1.170712234)
(1733.4052 -4.469777865 0.5810995083)
(1735.066494 -2.799804534 -3.028482551)
(1738.377675 -0.830991966 -3.05757284)
(1735.171384 3.863956624 -0.9058016605)
(1735.734135 6.339521747 0.05970585353)
(1736.599834 2.883998241 -1.546349667)
(1733.102441 -2.531928499 -0.9089493239)
(1736.53908 -3.339601526 -1.074310113)
(1738.023836 -3.813957474 1.088928812)
(1734.765207 -0.8359891954 0.3996227354)
(1731.860771 3.718904211 0.9177159316)
(1725.209595 4.974419411 2.016864901)
(1716.152669 10.57074391 1.760118597)
(1707.043503 16.59694377 1.804583215)
(1710.753474 -4.925200039 9.061296845)
(1747.66221 -9.018559773 8.723531645)
(1736.137349 -9.084380405 6.821940712)
(1737.097941 -8.556310511 6.040074354)
(1733.125639 -2.410183146 4.305309211)
(1733.794045 0.1054727073 4.582232088)
(1737.438475 -2.506309881 5.761629585)
(1735.425526 -1.605079785 4.766982763)
(1735.632537 -0.3855529068 7.034753929)
(1739.789162 -0.6153392428 4.198719884)
(1734.563109 -0.6273623847 5.641935524)
(1736.519499 3.294180386 6.351021363)
(1735.749584 3.411558432 9.125188922)
(1737.033607 5.339767544 5.404841156)
(1736.442409 5.591758328 2.57443678)
(1735.632145 4.146352368 1.267808572)
(1732.309755 5.107424024 4.441223723)
(1734.910531 7.757775399 6.132375774)
(1721.567584 9.819388774 6.277712682)
(1711.084223 12.38184282 2.464018765)
(1697.495117 1.707882551 -1.038033592)
(1736.582846 2.632191731 -3.85082833)
(1731.963819 0.09151928257 -2.532954221)
(1734.777961 -3.999253784 -0.4306898375)
(1735.649052 -3.101066914 1.902728069)
(1739.930554 -7.683545337 4.329284122)
(1735.587375 -2.818392213 3.036592651)
(1738.12298 -0.4905478411 0.09806697795)
(1736.929463 -0.5187410454 -2.291582384)
(1731.647823 0.2327544695 -3.073337276)
(1734.526563 -4.061652285 -4.044940075)
(1733.180464 -1.458820555 -3.22482384)
(1730.531065 3.125776567 -3.293150106)
(1729.70755 3.588450063 -3.342238714)
(1731.043496 4.743931633 -5.55126131)
(1730.831109 2.193202245 -1.066657242)
(1729.231738 3.749015721 -1.603791767)
(1731.476959 -1.923724402 -4.426836051)
(1722.573933 1.939089421 -3.62675684)
(1717.350108 13.22461743 -0.01231071519)
(1711.572151 -1.387285563 1.452423968)
(1746.332993 -1.113581242 2.021855488)
(1734.923662 1.376862683 4.554140154)
(1732.066337 -0.9914332388 0.2666196691)
(1733.543025 -0.8624111568 -3.943245557)
(1732.3795 -1.151027605 -5.945681914)
(1729.634527 -0.2659257417 -5.191702129)
(1729.99962 -3.390986511 -3.66610404)
(1727.480483 -1.741534496 -1.975522405)
(1729.89353 -0.09308498051 0.6084565914)
(1730.967692 6.190586892 -0.02433089178)
(1731.045592 3.408417836 -2.076724038)
(1731.155756 -0.7927185034 -1.620494814)
(1731.532936 -2.918565448 -0.8601052494)
(1729.63082 -1.690348868 1.882863716)
(1727.195916 -0.5285132371 2.068694999)
(1727.367961 -2.124594998 1.349579262)
(1724.500125 0.5057707776 2.146915869)
(1721.469726 0.6397744799 -0.07052367704)
(1715.985278 5.40008554 2.345657263)
(1703.476282 4.05637975 0.9584726574)
(1740.257282 1.608169354 -3.482660285)
(1733.302651 1.08885066 -4.293063737)
(1734.005671 2.323279208 -4.242803611)
(1732.849513 -0.03707714615 -4.825271508)
(1733.215231 3.0760826 -5.019781789)
(1734.635791 -1.692627245 -3.893889094)
(1734.938277 -0.3980745824 -4.574087806)
(1735.721259 -0.3882386077 -3.404115719)
(1736.950552 -3.267719586 -2.807972692)
(1739.221357 -5.185819685 -2.108158484)
(1737.147062 -6.308309284 0.60825511)
(1736.398688 -5.840128157 -1.122761237)
(1735.828651 -0.9686636918 -2.667558587)
(1736.048078 -2.414967701 -1.849608327)
(1735.905249 -4.616994556 -2.674728498)
(1735.828691 -0.966775627 -2.576025573)
(1738.028056 -0.7823018547 -0.9885184074)
(1735.85403 0.5859423579 4.311306175)
(1732.717143 4.230260654 1.275881731)
(1705.572094 4.755994576 -4.4873999)
(1744.706308 3.310552328 -2.181690806)
(1738.167241 3.30924871 -0.2546140987)
(1738.554891 4.85544813 -0.9389170217)
(1739.342391 4.793194181 0.6600655716)
(1736.759455 2.759050682 0.1300015604)
(1738.230683 2.602939806 1.417634971)
(1740.07959 2.35115485 1.671076751)
(1740.297679 -1.353040379 1.986680552)
(1737.747268 -5.271294675 3.388840528)
(1734.759094 -4.923033504 -0.6036553086)
(1735.779232 -4.650608496 -1.461458559)
(1735.66809 -5.674947019 -0.07992273044)
(1735.940432 -5.888103841 4.347953527)
(1735.103248 -2.412212427 1.764392068)
(1733.506259 -0.4202016462 -0.3273716777)
(1733.037849 -3.201037412 -3.028358899)
(1728.526023 -1.127922628 0.1744879097)
(1729.276493 3.174538413 -4.39304293)
(1725.415604 0.4760122731 -1.836253639)
(1710.149306 6.866033954 4.927162235)
(1744.127132 4.261289265 3.600721251)
(1734.75466 1.550209418 3.453939645)
(1735.055674 -0.6444063591 4.424312963)
(1734.833179 3.00989448 2.164198111)
(1735.49928 1.7484538 2.135537652)
(1732.979759 1.75419662 2.957031665)
(1732.6832 -2.109404045 0.9127567401)
(1732.912604 -2.158842292 3.479120452)
(1732.884312 1.874930475 1.83472605)
(1735.538044 -1.323742035 0.9571439919)
(1737.782493 -6.232671709 4.021107667)
(1739.147742 -2.442649402 1.733846057)
(1738.993164 -4.171650836 -1.447059654)
(1737.58072 -2.849728446 -1.967495714)
(1738.994108 2.065290837 -0.000786254926)
(1734.831328 4.968568445 -0.3383009644)
(1732.652034 5.51331295 -2.52123622)
(1732.527841 3.216685742 -0.06604099378)
(1732.07154 -0.9382447434 -2.661946939)
(1706.761409 -7.984237089 -0.1263293957)
(1744.487841 -6.873711192 -0.488839872)
(1735.249823 -1.485509847 0.3639720377)
(1733.941523 2.249234456 0.410321963)
(1733.126035 0.9725935199 1.324941173)
(1733.662313 0.9043782655 1.944751409)
(1735.250259 3.837727649 1.016939529)
(1736.551482 3.512434929 2.295960076)
(1733.863692 2.385616659 -1.500855399)
(1733.683249 1.684131538 -1.82190913)
(1734.976127 0.6919584446 -0.04810635165)
(1735.816677 6.55904926 -0.4601297513)
(1738.334024 9.62897902 3.868764092)
(1737.424932 8.043942444 7.430547767)
(1735.837336 1.389906845 7.525182615)
(1736.970688 -5.793070679 4.136727771)
(1738.876499 -7.515637349 -0.601487966)
(1739.749197 -3.298890716 0.1159986362)
(1736.328137 -0.8329336895 -1.194313637)
(1735.000016 1.330622701 -2.184739349)
(1707.66828 6.605702863 0.3697978374)
(1744.949173 3.42850204 0.1504627093)
(1734.908476 -2.131210373 -1.016052969)
(1733.672241 -2.108502715 -1.655160396)
(1732.475042 1.802190517 -1.442615528)
(1731.958111 2.899782372 -0.8968451708)
(1731.942659 4.538146321 -0.02112078641)
(1734.176654 5.110452041 0.1265435279)
(1732.40837 5.325027475 0.547117515)
(1734.584205 5.538244526 -1.125403919)
(1732.805583 7.400322302 -1.665502957)
(1736.979668 4.249783484 -2.285497632)
(1733.650937 -1.425688316 -4.862321553)
(1735.651958 -3.737767165 -8.213989123)
(1734.332541 -0.03725926965 -8.314800377)
(1729.120503 1.109224726 -5.746148953)
(1728.278788 1.66247089 -3.191663773)
(1732.805701 -3.380591565 0.4991086803)
(1732.430704 1.594783815 1.281662193)
(1730.188057 -0.7213399207 4.003290325)
(1711.793422 -4.067599418 1.934621359)
(1746.389085 -1.73355308 1.725526048)
(1737.403479 4.840210005 1.626227975)
(1736.047343 5.703769938 -0.2810303719)
(1735.640453 2.846085038 1.918061051)
(1735.980206 -1.158479491 0.8750612376)
(1734.965542 -1.789204525 2.094792618)
(1736.574315 -0.2504656149 2.380235)
(1738.254925 -4.002975739 2.779828887)
(1733.670475 -6.02225618 1.972177255)
(1731.944716 -3.412271994 1.747458297)
(1733.138078 -3.029705023 1.620024269)
(1728.016962 0.8442991512 0.9138521089)
(1731.763306 3.436952828 0.5828801222)
(1735.187287 2.399226176 4.111597262)
(1736.320865 4.804046759 3.451914457)
(1740.563389 2.352098746 2.645956857)
(1736.428475 1.776359016 0.1021911371)
(1735.598376 2.381680941 0.1577302916)
(1733.75327 2.864837242 -2.08135127)
(1704.779631 6.910491054 -3.297585083)
(1738.806891 2.732240065 -2.822510325)
(1734.044026 1.223414404 -0.2920041082)
(1735.054594 -5.210245158 0.81038679)
(1735.999758 -3.469212201 -5.837413013)
(1734.565065 -3.356211853 -6.863401244)
(1732.112811 -2.057846022 -7.806537813)
(1733.071222 -4.152345182 -3.859791547)
(1734.378231 0.6264690091 -4.764865616)
(1736.002381 3.496496951 -2.43098088)
(1733.663022 1.261921185 -0.3823416111)
(1731.644232 0.4315596475 -0.6695527166)
(1733.866813 3.272663366 0.08133909196)
(1733.253204 -0.8703914565 -0.4503092964)
(1732.311 1.56809835 -3.502590091)
(1729.819878 -1.365121605 -4.071006821)
(1730.254179 0.694772916 -1.700413688)
(1732.41919 -0.2492171085 0.6893624157)
(1730.571782 -0.7014572366 0.8108762092)
(1732.86325 -1.471688329 1.762454063)
(1712.106091 -2.274914242 -4.614082398)
(1747.700574 -2.348684328 -6.472440635)
(1737.557351 -1.990307582 -9.485799392)
(1736.017692 0.04087923483 -7.489908449)
(1735.716107 0.5461978061 -4.085034444)
(1734.425467 0.6322946987 0.1595047977)
(1736.256945 -2.243708545 -1.856635611)
(1734.474057 3.268684734 -4.985234786)
(1735.163082 1.282226318 -5.185805349)
(1733.233264 2.824720835 -9.963820611)
(1734.150984 -0.791098838 -8.808121828)
(1738.346509 -0.8668536652 -7.009670116)
(1737.326692 2.34331858 -7.253851233)
(1736.480375 4.120169281 -4.224944127)
(1734.577736 -0.09470230776 -4.505665391)
(1737.249313 5.150257204 -3.976437265)
(1735.4068 4.779694034 1.551445193)
(1737.524626 2.89554551 0.3316851711)
(1730.654792 6.014266195 -4.210408116)
(1731.187873 2.551411919 -1.881294951)
(1707.373748 -8.85799756 -1.766679559)
(1743.045513 -5.757782588 -0.07980397179)
(1733.798315 0.539753676 0.7738407986)
(1734.288154 -1.06786872 0.3255437264)
(1735.257717 -0.5164080531 -0.9355251871)
(1735.907747 -0.4980764997 -1.191017614)
(1738.40691 1.904307742 0.2125611006)
(1738.862005 -2.36729376 -2.52155688)
(1742.205453 -0.76331688 3.531706948)
(1742.691405 -1.668666928 2.503940623)
(1740.970564 1.756232926 3.944397084)
(1737.325373 2.108330368 -1.024498787)
(1734.675358 -2.377779052 -0.1911410571)
(1734.267463 -0.6786015196 0.05738328293)
(1735.372024 5.904613722 1.809816178)
(1735.472973 1.639384644 3.632172579)
(1735.252368 0.5139470182 -0.4004068031)
(1734.412863 2.181190527 0.3700649535)
(1735.095274 4.454028368 1.467847694)
(1734.017572 1.580102445 -1.429270534)
(1711.762661 3.719371601 1.057163461)
(1750.402349 3.663429831 -0.1861101683)
(1742.144739 -6.818136428 -0.4602329094)
(1746.591133 -2.651087757 1.425556456)
(1743.353514 -0.5946930378 0.4899870079)
(1742.329278 1.640231814 -0.3885675684)
(1738.118375 3.543415652 2.504278667)
(1738.843075 6.049798719 3.713987348)
(1733.813974 4.73452228 2.431657136)
(1731.758538 -0.0455992853 1.768006119)
(1732.808396 2.411179314 4.644164464)
(1730.866783 -0.4156203085 1.204698227)
(1733.825014 -0.712457373 1.84414535)
(1735.272646 0.1820110627 -1.380931394)
(1733.787737 -3.583282421 -4.33471231)
(1734.74185 -3.262063695 -6.002419134)
(1733.222031 -1.855333605 -4.242323346)
(1733.093992 0.8292355183 -6.297758871)
(1734.817105 2.656840941 -5.088944336)
(1735.134932 8.620271997 -4.860631445)
(673.3488973 151.7802033 -3.716639322)
(601.7895685 172.9869964 -1.550279319)
(575.3903124 164.1932038 -4.386847682)
(523.1584629 151.4490338 8.430985208)
(499.3908701 146.3185314 7.450851813)
(474.5218468 137.5372822 1.462482303)
(446.7892276 123.2288094 1.4890966)
(424.0261861 124.8898998 -3.275929797)
(412.8279071 115.5116121 -2.500236047)
(393.8361765 117.2149478 -1.737347327)
(1061.840683 159.7264855 -15.53270878)
(941.6710172 221.67992 -8.532275163)
(895.6423134 248.776023 2.485190385)
(871.0574942 249.0381234 -2.412637161)
(827.4428872 239.9386113 1.700617229)
(784.4191304 238.7534372 -6.906333019)
(753.1569769 234.1241242 -7.949767886)
(721.5638932 225.0399874 -15.72385729)
(697.7777564 206.8090665 -3.707020214)
(665.4808366 202.984201 -0.9901279473)
(1282.641899 138.1471602 -6.834560607)
(1169.381895 199.6411775 -17.25351177)
(1105.648565 237.8904244 -9.790815303)
(1060.935953 267.4103401 -15.26515375)
(1015.661134 287.3463816 -8.736156658)
(998.5615234 299.3733341 -8.525047308)
(958.606862 297.9384496 -5.202991635)
(921.2288089 282.05879 -10.53642188)
(891.9808863 277.9080958 -8.271355294)
(848.2372574 273.453774 0.8305076101)
(1423.581806 103.8552132 -3.309954665)
(1319.416702 162.2908477 -5.236884617)
(1246.88784 215.2753732 3.37380859)
(1185.704549 246.4840698 1.146977295)
(1153.457498 270.9387399 8.193548233)
(1128.559997 293.5971736 -1.870947048)
(1084.379838 315.3983431 3.359047668)
(1071.451361 317.3172326 -7.54009993)
(1054.528583 325.4316711 -7.245228152)
(1015.711008 317.9396581 -2.79881705)
(1520.322762 86.05733246 -5.370759388)
(1436.913848 131.0519598 4.433474006)
(1379.573531 169.4724187 3.386391501)
(1315.885949 207.7795879 -3.442628032)
(1298.61831 238.5761335 1.393458648)
(1263.999148 270.0824357 8.929497639)
(1204.710474 304.7708123 4.216718816)
(1191.118417 323.8623912 3.946291874)
(1156.225132 342.0729446 -4.570318875)
(1128.132067 338.5922405 0.165462853)
(1594.868394 59.55929218 -3.947185786)
(1527.699648 92.48713349 -1.721943729)
(1476.667591 138.9276007 4.568445804)
(1433.446141 174.4149616 -1.280570018)
(1390.472276 212.0480596 -1.533960579)
(1352.001728 236.6993646 -1.314818222)
(1301.764903 274.4072654 -0.4873001122)
(1264.137669 299.1286209 7.114580051)
(1234.180952 321.6837879 8.699266411)
(1220.007922 329.3772025 1.28073886)
(1636.535241 43.18943366 1.155255527)
(1593.894043 71.46102297 -4.232635806)
(1557.452083 101.4842783 -3.211937615)
(1511.539152 142.1750535 -5.852587954)
(1474.723071 167.4843843 -3.387369188)
(1444.995036 200.0974378 -8.81544185)
(1407.580985 229.4561615 -7.241251588)
(1359.781501 268.15283 -2.154116727)
(1328.991668 298.2290603 3.06057211)
(1296.558893 319.7543658 1.566297126)
(1672.549208 32.27747691 -4.744348526)
(1636.327404 53.22318389 -6.26407253)
(1619.011357 72.68310508 0.9329205503)
(1565.073666 99.62199824 3.163885845)
(1549.328982 126.7630915 5.394023463)
(1515.29157 162.7219114 5.106976605)
(1481.31987 188.5700691 3.166382767)
(1443.013803 220.5191083 -4.1838609)
(1390.743583 257.7219193 -6.529936823)
(1365.746843 284.9905991 8.553279966)
(1679.599323 26.91097706 -0.7306010812)
(1667.776942 34.12659117 4.346705871)
(1643.96593 51.1823921 -0.4841283727)
(1616.055875 71.0735828 0.91879003)
(1592.545341 101.1720966 10.1746312)
(1562.892832 128.5320439 11.15951246)
(1539.413629 153.0481514 -0.9321226387)
(1506.887753 183.4098597 -2.768469156)
(1475.030194 207.2976046 2.683798027)
(1439.680097 232.5855948 -2.926712995)
(1702.915053 13.50223083 2.529455786)
(1685.850019 31.06139904 1.325313859)
(1673.059722 43.64733361 2.44586161)
(1658.862768 51.55741906 -0.214439272)
(1647.503952 69.6768289 3.945297715)
(1607.604556 93.32962219 1.435503088)
(1585.090489 114.703943 -5.891987253)
(1566.467535 136.868342 -1.921575776)
(1539.725675 173.8643213 -2.758323837)
(1516.745819 199.2171569 -0.6657543514)
(1709.888059 16.31026185 -0.01366151856)
(1691.475098 26.44583905 1.375986817)
(1686.438168 33.51899042 -2.474289399)
(1672.041808 44.67304598 -0.3647853129)
(1662.562083 50.60889836 -2.861846856)
(1637.546932 70.8394577 -2.587167552)
(1621.498491 94.87602496 5.468555694)
(1586.352852 116.6283152 5.949145475)
(1573.909821 133.8729356 12.23584959)
(1553.041125 161.4980497 6.85933905)
(1716.749055 9.469888373 1.94438655)
(1706.787513 10.05321518 4.301693582)
(1701.424047 17.96260721 2.260239932)
(1683.362211 32.629928 5.163750363)
(1679.666293 41.59340357 6.166243067)
(1667.245594 53.53890863 5.021658683)
(1650.91121 67.54984034 4.476201046)
(1625.436256 88.8333231 -2.716921408)
(1605.74125 103.366214 -1.579049597)
(1598.692211 122.5716198 0.514933659)
(1720.942486 9.704056317 2.164440655)
(1710.060417 17.30294628 2.892850367)
(1702.102836 23.06501915 4.900777055)
(1702.708626 22.62125127 0.1946970618)
(1690.074402 32.76998784 -3.835327645)
(1676.451601 42.11116746 -5.708974158)
(1669.881732 46.48807263 -2.928541506)
(1664.841165 60.6300708 -0.8964235948)
(1650.182683 79.23138591 -2.772489673)
(1631.134817 97.90287663 -1.048551673)
(1721.362446 5.714312329 -1.35125595)
(1718.028123 4.216458216 -2.470508455)
(1709.703585 15.32815415 -4.463165476)
(1708.67181 20.17609334 -0.2476981515)
(1704.481445 23.22740164 -5.857051274)
(1699.841454 31.03066896 -4.411968031)
(1691.990203 33.6891022 -1.59303287)
(1690.13381 45.94466977 -1.948839819)
(1671.411916 56.79539741 -6.141971633)
(1665.13767 72.48992156 -1.695989946)
(1727.915772 4.448351753 -1.293829947)
(1724.917591 5.652865292 -4.43135565)
(1730.56003 5.501880089 -3.238089502)
(1725.132866 6.198394854 -2.268905895)
(1721.45375 13.19003652 1.373643847)
(1719.083027 19.66394673 0.09319512298)
(1710.671031 30.82422277 -2.016290408)
(1696.739971 39.56658587 -2.571477694)
(1690.09765 52.34463249 0.3198585432)
(1682.310372 61.44251155 2.106739103)
(1737.549536 0.8080956279 -3.196473479)
(1733.972083 2.438675871 -1.53664994)
(1733.481629 3.021537195 -4.818122047)
(1729.15592 5.92295808 -0.8939587372)
(1724.76839 8.326997089 -0.8893130814)
(1714.184564 16.7542006 -3.1538376)
(1705.599044 22.84924474 -2.419264517)
(1700.94344 28.85331033 0.1553689359)
(1686.714668 31.77380581 2.657967072)
(1678.373885 38.989016 -2.113019253)
(1727.407911 -0.8202029038 2.072543912)
(1723.716287 -0.8293319661 4.126027154)
(1722.386709 -1.803695539 3.379666719)
(1720.017391 1.135355741 5.682411779)
(1724.048786 3.077052507 4.177404832)
(1723.416361 10.55402542 8.057375489)
(1710.945855 12.62385268 9.102788353)
(1711.380259 22.12634964 6.585713123)
(1706.984177 34.04846127 3.865955228)
(1703.586787 42.21625888 4.365664173)
(1729.911954 4.493792164 0.3573110139)
(1729.208643 9.710282352 -1.457676207)
(1730.546112 9.244849321 1.470243465)
(1728.471228 8.518216425 0.1828702372)
(1725.624112 9.559867054 -1.127868682)
(1726.366824 5.683687607 -8.137989505)
(1725.066841 11.77069998 -10.63730426)
(1728.479941 15.49344306 -5.064598528)
(1722.220906 14.76582426 -6.596038072)
(1712.515189 25.21065171 -4.242736169)
(1728.847329 2.84538119 -2.942569368)
(1729.301154 4.038624943 -4.278228883)
(1728.860348 7.626885399 -5.942327993)
(1728.232722 5.593656047 -5.547683038)
(1736.364524 8.291772172 -8.203000844)
(1734.128418 14.45608488 -2.525793226)
(1731.212399 13.85852639 -5.686371671)
(1726.972341 14.10979359 -4.077080804)
(1722.203122 16.69772924 -1.631814954)
(1720.473396 16.97112973 -2.28786164)
(1735.576243 1.377506675 -0.05947433046)
(1738.868175 -2.236971421 -0.003232621484)
(1737.800667 0.5135079536 3.749813484)
(1737.36687 6.897217006 3.981874026)
(1733.893688 10.54145139 2.44745621)
(1731.754562 8.825965806 2.154837334)
(1729.093991 10.21298886 2.823065988)
(1727.131672 12.13235235 2.667163698)
(1723.57864 14.83649325 -0.2229161193)
(1723.420784 13.0015305 1.693829151)
(1734.33735 4.2706173 -1.398349641)
(1732.596907 10.40320981 -1.947806888)
(1733.832965 8.564457715 -3.124011768)
(1734.915902 6.064562959 -2.173101357)
(1734.061068 4.149487009 1.885593756)
(1731.298727 5.262571601 -0.1211567105)
(1730.622571 4.091386281 0.8071624393)
(1726.489842 7.651791756 -1.719874279)
(1724.269029 13.52302185 2.761124397)
(1723.960852 12.02154631 10.22786315)
(1738.819284 3.20736217 -3.494723075)
(1736.043632 4.086071633 -0.7613584542)
(1731.681936 6.452756425 -3.120811308)
(1732.140215 5.394024508 -4.537668372)
)
;

boundaryField
{
    flow
    {
        type            calculated;
        value           nonuniform List<vector> 
42
(
(1707.673311 -5.45181326 -7.085901335)
(1711.940348 1.670284814 -1.679359135)
(1707.075262 1.366781954 5.119482495)
(1709.584631 -7.035827114 0.3217631881)
(1708.326527 -0.1954669605 -0.214190653)
(1709.736455 1.560358144 2.42801263)
(1709.351376 3.12918038 -5.023890066)
(1708.988901 -4.587594845 -0.0884798109)
(1704.575119 -4.17870644 -4.247356701)
(1710.753474 -4.925200039 9.061296845)
(1697.495117 1.707882551 -1.038033592)
(1711.572151 -1.387285563 1.452423968)
(1703.476282 4.05637975 0.9584726574)
(1705.572094 4.755994576 -4.4873999)
(1710.149306 6.866033954 4.927162235)
(1706.761409 -7.984237089 -0.1263293957)
(1707.66828 6.605702863 0.3697978374)
(1711.793422 -4.067599418 1.934621359)
(1704.779631 6.910491054 -3.297585083)
(1712.106091 -2.274914242 -4.614082398)
(1707.373748 -8.85799756 -1.766679559)
(1711.762661 3.719371601 1.057163461)
(1707.673311 -5.45181326 -7.085901335)
(1744.616447 -4.909835675 -7.478035356)
(1736.852822 -6.627541733 -4.014263653)
(1737.131862 -5.369850094 -4.357146048)
(1735.07723 -5.378948471 -6.210341667)
(1736.116358 -5.969588705 -3.139791674)
(1734.369539 -5.652954355 0.09262157484)
(1734.984041 -9.376690805 -1.759288223)
(1731.541199 -7.30314567 0.1900468561)
(1732.063105 -8.229510889 -0.2974827194)
(1732.012222 -7.515918686 -0.5606043547)
(1730.085271 -1.737423379 -1.804888703)
(1732.403968 -0.756554369 -0.1269979949)
(1732.168279 -0.5070104824 0.2902142959)
(1728.831169 -2.852248257 -0.3010852246)
(1722.11775 -5.379827151 -1.207658601)
(1704.728203 -12.41600042 3.086701067)
(1667.175071 -18.17863466 0.4824165356)
(1568.081204 -22.04555664 -2.377823597)
(1181.227895 10.10514644 7.380481743)
)
;
    }
    obstacle
    {
        type            calculated;
        value           nonuniform List<vector> 10((437.8368088 117.3180193 8.874550021) (348.0501438 93.25975499 -3.052465924) (307.9409726 82.51253491 -13.33438604) (280.3339828 75.11526428 -1.960774127) (261.8985117 70.17549467 23.09813945) (244.3096731 65.46257974 24.05584834) (224.6567165 60.19658557 12.3388785) (223.3111665 59.83604682 6.858324388) (213.4247213 57.18698181 -24.52695858) (205.748354 55.13010512 -10.82541255));
    }
    frontAndBack
    {
        type            empty;
    }
    procBoundary0to1
    {
        type            processor;
        value           nonuniform List<vector> 
21
(
(370.656514 103.5371988 8.214392002)
(642.4517749 200.6323853 -3.494965904)
(836.0127491 265.7544943 -6.785443489)
(1005.326097 312.7538774 2.569662203)
(1117.663382 338.9097733 -5.826188867)
(1196.513196 346.674748 -5.437094102)
(1274.389089 336.0262894 2.346215269)
(1339.315005 307.8992487 -3.606880319)
(1419.853459 274.9905004 1.32534774)
(1478.034501 226.3518422 5.11970129)
(1529.25406 184.4278796 -0.3215572876)
(1569.242175 146.2320767 5.123827065)
(1621.914004 108.6654025 -2.921006659)
(1644.316513 92.59754102 0.6464563234)
(1671.182305 70.35299713 -3.206190498)
(1677.210656 52.41180336 -0.9872581024)
(1698.739653 49.42891757 5.297257769)
(1708.814749 29.62246376 -1.272012149)
(1707.643848 26.066831 -1.511968115)
(1717.881857 17.31048066 -1.465519721)
(1719.649355 14.6665626 7.011405337)
)
;
    }
    procBoundary0to2
    {
        type            processor;
        value           nonuniform List<vector> 
31
(
(1710.949415 -4.783864566 0.8264095367)
(1747.194845 -2.481901415 -1.949474545)
(1735.516593 5.052574999 -2.109000919)
(1731.980427 6.368550674 -5.061438209)
(1733.43505 2.267143634 -1.731003878)