/*--------------------------------*- C++ -*----------------------------------*\
| =========                 |                                                 |
| \\      /  F ield         | OpenFOAM: The Open Source CFD Toolbox           |
|  \\    /   O peration     | Version:  2406                                  |
|   \\  /    A nd           | Website:  www.openfoam.com                      |
|    \\/     M anipulation  |                                                 |
\*---------------------------------------------------------------------------*/
FoamFile
{
    version     2.0;
    format      ascii;
    arch        "LSB;label=32;scalar=64";
    class       Cloud<dsmcParcel>;
    location    "0.005/lagrangian/dsmc";
    object      coordinates;
}
// * * * * * * * * * * * * * * * * * * * * * * * * * * * * * * * * * * * * * //

6852
(
(0.0848864048 0.4575567976 0.1129700746 0.344586723) 469 2618 2
(0.2630387926 0.2173104814 0.3684806037 0.1511701223) 537 1043 1
(0.647637089 0.03890187573 0.1761814555 0.1372795798) 469 914 1
(0.4767766763 0.2616116619 0.1598847959 0.101726866) 486 949 1
(0.1534430415 0.4232784792 0.3766742965 0.04660418272) 475 925 2
(0.01320939694 0.4933953015 0.2562189363 0.2371763652) 449 2616 2
(0.2173438735 0.3913280632 0.3660797639 0.02524829932) 448 1306 2
(0.3333536985 0.3333231508 0.09171663848 0.2416065123) 498 969 2
(0.4291893393 0.2854053304 0.1545242286 0.1308811018) 457 894 1
(0.02014913977 0.4899254301 0.2544178328 0.2355075973) 499 2621 2
(0.1954603119 0.402269844 0.009309608204 0.3929602358) 459 2617 2
(0.6178027714 0.1910986143 0.03923871853 0.1518598957) 477 913 1
(0.4969030948 0.007977879601 0.243570573 0.2515484526) 458 877 2
(0.3479474092 0.3260262954 0.2995073496 0.02651894581) 568 1105 1
(0.5708159276 0.2145920362 0.07372988885 0.1408621473) 495 965 2
(0.36349305 0.318253475 0.3005535021 0.01769997291) 468 915 1
(0.2456489368 0.3771755316 0.1979031855 0.1792723461) 477 931 2
(0.3050910433 0.3474544783 0.3015477953 0.045906683) 442 864 2
(0.7870475962 0.05229910008 0.0541771018 0.1064762019) 445 870 1
(0.0488976924 0.2213376341 0.2542135197 0.4755511538) 556 1081 1
(0.02335746569 0.4883212672 0.1289424017 0.3593788654) 482 941 1
(0.1263775524 0.3273200915 0.1094911323 0.4368112238) 468 896 2
(0.91333381 0.03733351156 0.04333309499 0.005999583433) 478 931 1
(0.1850075961 0.2010823468 0.4074962019 0.2064138551) 498 972 2
(0.07769551557 0.3880595028 0.07309273938 0.4611522422) 457 893 1
(0.03922109158 0.4803894542 0.2485753878 0.2318140664) 496 967 2
(0.3165595163 0.2242812992 0.1174389426 0.3417202419) 466 910 1
(0.04502599508 0.233462544 0.4774870025 0.2440244585) 459 895 1
(0.2148563459 0.3825143902 0.0100574369 0.3925718271) 519 992 2
(0.3802061359 0.2041181463 0.1057787858 0.309896932) 467 894 2
(0.1495880987 0.0615061867 0.4252059507 0.363699764) 498 969 1
(0.9434830728 0.0282584636 0.02612850628 0.002129957319) 449 876 2
(0.6653077666 0.1673461167 0.1095460882 0.05780002849) 457 893 2
(0.5355699865 0.2322150067 0.04458194662 0.1876330601) 460 119 2
(0.204943938 0.397528031 0.3839287101 0.01359932088) 478 915 1
(0.8278824623 0.08605876886 0.03290554007 0.05315322879) 488 952 2
(0.09308294658 0.4534585267 0.1074353583 0.3460231684) 479 935 1
(0.1494365457 0.0167591297 0.4252817271 0.4085225974) 488 950 1
(0.5889271712 0.2055364144 0.006422302093 0.1991141123) 488 953 1
(0.4450716984 0.2774641508 0.08779257605 0.1896715748) 458 895 2
(0.1761084881 0.1909253227 0.4119457559 0.2210204333) 487 951 2
(0.1835279613 0.02310373981 0.3851322795 0.4082360194) 444 1302 1
(0.2255851751 0.3764623422 0.01074507026 0.3872074125) 499 2621 1
(0.7017539937 0.03965447997 0.1094685232 0.1491230032) 444 1302 1
(0.4028761995 0.2985619003 0.2702869756 0.02827492466) 477 932 1
(0.002106183122 0.2553397255 0.2436071829 0.4989469084) 476 911 2
(0.6544271413 0.1041142287 0.1727864293 0.0686722006) 458 896 2
(0.01572275302 0.1393928262 0.3527457973 0.4921386235) 478 933 1
(0.5709542239 0.1284145368 0.08610835125 0.214522888) 448 876 1
(0.1859394791 0.1415430505 0.4070302605 0.2654872099) 545 1058 1
(0.0418539644 0.02272873153 0.4563442863 0.4790730178) 456 891 1
(0.166109907 0.4169450465 0.113668428 0.3032766185) 464 888 1
(0.1925606552 0.3425743891 0.06114528327 0.4037196724) 448 876 1
(0.06261141904 0.4686942905 0.04735303711 0.4213412534) 468 915 1
(0.1163201373 0.1939402644 0.247899667 0.4418399313) 468 896 2
(0.254360751 0.1675194228 0.3728196245 0.2053002017) 445 871 2
(0.1537153172 0.406918047 0.01622429443 0.4231423414) 449 2616 1
(0.09683785106 0.4515810745 0.08806286261 0.3635182119) 457 894 1
(0.3188739688 0.3405630156 0.3364554059 0.004107609733) 488 934 1
(0.2709392993 0.1867974497 0.1777329007 0.3645303503) 456 891 1
(0.11711822 0.44144089 0.2555397028 0.1859011872) 455 871 1
(0.2811873157 0.2797069952 0.07969934696 0.3594063422) 452 865 2
(0.429571094 0.06677387884 0.2184405742 0.285214453) 449 1307 1
(0.03211800489 0.4750176665 0.4839409976 0.008923331078) 498 972 2
(0.416722584 0.1745180229 0.291638708 0.1171206851) 468 915 2
(0.08308991583 0.4584550421 0.02748436741 0.4309706747) 447 874 2
(0.3133310643 0.1612013948 0.3433344679 0.1821330731) 469 914 1
(0.2694482232 0.3652758884 0.04089167271 0.3243842157) 475 925 2
(0.5074662995 0.2462668503 0.09049959896 0.1557672513) 466 911 1
(0.06475408451 0.4676229577 0.4056587931 0.0619641646) 459 897 1
(0.03244020669 0.2433078372 0.4837798967 0.2404720595) 487 948 1
(0.4056846405 0.2714604503 0.02569722942 0.2971576797) 493 961 1
(0.5447807081 0.04593617697 0.2276096459 0.181673469) 477 932 2
(0.5389192892 0.2305403554 0.180877112 0.04966324344) 477 932 1
(0.5407382281 0.0280395728 0.2296308859 0.2015913131) 456 889 1
(0.14048769 0.429756155 0.3564405946 0.0733155604) 459 895 2
(0.4983922966 0.07216600815 0.2508038517 0.1786378436) 453 886 2
(0.1215994076 0.03696631042 0.4022339858 0.4392002962) 457 893 1
(0.1142883595 0.3837221735 0.4428558202 0.05913364671) 456 892 2
(0.3140641288 0.3429679356 0.3320520404 0.01091589519) 448 874 2
(0.2929494696 0.3501261048 0.003399160431 0.3535252652) 488 952 1
(0.07455997045 0.4627200148 0.3009814615 0.1617385532) 457 875 1
(0.3544375753 0.3227812124 0.03943871002 0.2833425023) 506 986 2
(0.2442014819 0.004953375109 0.372945884 0.3778992591) 467 894 2
(0.008107069997 0.483383343 0.01256312198 0.495946465) 588 1124 2
(0.02042641053 0.4897867947 0.4306347613 0.05915203348) 534 1021 1
(0.9255374792 0.0372312604 0.02689569118 0.01033556922) 496 965 2
(0.1238974587 0.4380512706 0.282935943 0.1551153276) 468 915 1
(0.2663765712 0.3668117144 0.188410789 0.1784009254) 448 874 2
(0.1775065137 0.4112467432 0.08712365033 0.3241230928) 447 872 2
(0.592594005 0.2037029975 0.07035364005 0.1333493575) 488 934 1
(0.5772412933 0.08776613829 0.123613215 0.2113793533) 458 895 1
(0.0344021437 0.4827989281 0.3854406679 0.0973582602) 466 910 2
(0.2360602429 0.3819698785 0.2887747408 0.09319513777) 519 992 1
(0.113884769 0.265234337 0.4430576155 0.1778232785) 466 911 2
(0.3229210007 0.3385394996 0.2629073396 0.07563216003) 449 1307 2
(0.04381675721 0.4780916214 0.4297626778 0.04832894365) 465 908 2
(0.7233065954 0.1383467023 0.03218869042 0.1061580119) 447 1305 2
(0.1140082038 0.4429958981 0.2045651421 0.238430756) 447 872 2
(0.2196140977 0.009354576426 0.3808383747 0.3901929511) 457 893 1
(0.4911249814 0.2544375093 0.05276714288 0.2016703664) 457 875 1
(0.3458439227 0.06743708244 0.3270780387 0.2596409562) 446 870 1
(0.4493698452 0.06054640495 0.2753150774 0.2147686725) 467 913 2
(0.1778088693 0.4110955654 0.3147895966 0.09630596871) 475 928 1
(0.004594349298 0.4977028254 0.06993545199 0.4277673734) 499 971 2
(0.1324120392 0.2233191018 0.2104748786 0.4337939804) 445 870 1
(0.1736424744 0.2660010647 0.4131787628 0.1471776981) 477 929 1
(0.4164935747 0.01530388139 0.2917532127 0.2764493313) 444 866 1
(0.6088159109 0.04535927304 0.1955920445 0.1502327715) 498 969 1
(0.7430736256 0.07098236837 0.1284631872 0.05748081882) 487 951 2
(0.76398845 0.118005775 0.04222884191 0.07577693307) 457 875 1
(0.2988453259 0.02968073864 0.3208965984 0.3505773371) 465 908 1
(0.1192320926 0.1297403857 0.4403839537 0.310643568) 445 871 2
(0.009966794464 0.4950166028 0.3967554867 0.09826111603) 449 1307 2
(0.7032839403 0.0615924008 0.08676562903 0.1483580298) 449 1307 1
(0.8226502211 0.08867488943 0.01964558552 0.06902930391) 468 915 1
(0.2390117749 0.3804941125 0.1792400535 0.201254059) 449 1307 2
(0.4671332912 0.2664333544 0.08203734082 0.1843960136) 482 940 2
(0.4539674427 0.2730162786 0.2606243827 0.01239189596) 459 878 1
(0.0588984321 0.2706216224 0.4705507839 0.1999291615) 445 871 2
(0.6322092613 0.1838953693 0.1405428435 0.04335252588) 499 973 1
(0.05160332089 0.4741983396 0.3798458386 0.094352501) 445 1303 2
(0.05463751573 0.4726812421 0.4456447553 0.02703648683) 468 914 2
(0.1703664056 0.4148167972 0.2223422952 0.192474502) 447 872 2
(0.1453387586 0.09753044047 0.4273306207 0.3298001802) 475 928 2
(0.3280560205 0.3306121722 0.005359817503 0.3359719897) 445 1303 1
(0.8632710933 0.06836445337 0.05890971698 0.009454736387) 459 878 1
(0.2898464742 0.3550767629 0.2692795532 0.08579720966) 444 868 2
(0.2362091835 0.3818954082 0.09073514889 0.2911602594) 479 935 1
(0.07858935561 0.4607053222 0.3219757696 0.1387295526) 467 910 2
(0.07527385749 0.4623630713 0.07234483379 0.3900182375) 483 940 2
(0.1673319655 0.4163340172 0.1822353531 0.2340986642) 535 1039 2
(0.7653819219 0.1173090391 0.09185413468 0.02545490438) 587 1122 1
(0.2650662138 0.3674668931 0.2005136754 0.1669532177) 478 915 1
(0.5520299175 0.0756886183 0.1482964229 0.2239850412) 466 910 1
(0.2611705371 0.004772017826 0.3694147315 0.3646427136) 466 911 2
(0.00341228676 0.4982938566 0.05698277364 0.441311083) 457 893 2
(0.7163179122 0.1418410439 0.08839229848 0.05344874543) 445 871 1
(0.3488772173 0.3255613913 0.286383279 0.03917811238) 487 951 1
(0.2742440058 0.1054094285 0.3628779971 0.2574685686) 489 954 2
(0.3582055646 0.1718480616 0.3208972177 0.1490491561) 457 894 2
(0.4168081289 0.2915959356 0.2516559288 0.03994000675) 466 908 2
(0.449686141 0.2570197505 0.01813717895 0.2751569295) 466 910 1
(0.1149703702 0.4169517689 0.4425148149 0.02556304597) 475 925 1
(0.1277702861 0.436114857 0.4343588614 0.001755995554) 448 876 2
(0.7450527617 0.003292851052 0.1241807681 0.1274736191) 457 893 1
(0.3313247216 0.08971154825 0.3343376392 0.2446260909) 453 883 1
(0.2172707069 0.3913646466 0.3450502738 0.04631437279) 455 889 2
(0.3855902886 0.2167362573 0.3072048557 0.09046859844) 519 1011 2
(0.6834286841 0.158285658 0.1568050394 0.001480618529) 539 1047 2
(0.3371868015 0.05775535378 0.3314065992 0.2736512455) 446 870 1
(0.373891182 0.2049265996 0.313054409 0.1081278094) 454 888 2
(0.4364053562 0.1061363306 0.1756609913 0.2817973219) 467 912 1
(0.3980261634 0.3009869183 0.06006213807 0.2409247802) 455 889 2
(0.457965638 0.271017181 0.1436756561 0.1273415249) 488 953 1
(0.5565424778 0.2217287611 0.1064930956 0.1152356655) 448 876 2
(0.1173965854 0.4413017073 0.1764568341 0.2648448731) 489 954 1
(0.9809339015 0.002833351383 0.009533049268 0.006699697885) 469 914 1
(0.2792511367 0.1682200949 0.1921543367 0.3603744316) 466 910 1
(0.08712982231 0.4564350888 0.3370891434 0.1193459454) 479 916 1
(0.6762595714 0.1084422122 0.1618702143 0.05342800211) 469 916 2
(0.05296399022 0.07408876978 0.4735180049 0.3994292351) 448 874 1
(0.04909602404 0.475451988 0.005901461665 0.4695505263) 499 2621 2
(0.1665014428 0.4167492786 0.09527038313 0.3214788955) 506 987 1
(0.1923772483 0.4038113759 0.2953234504 0.1084879255) 59 78 1
(0.1200416776 0.02222268059 0.4399791612 0.4177564806) 477 932 2
(0.01145500757 0.2767735813 0.4942724962 0.2174989149) 446 873 2
(0.4275564608 0.2862217696 0.2100837777 0.07613799187) 457 891 2
(0.8420701692 0.07213066426 0.006834251127 0.07896491539) 467 912 1
(0.04690404049 0.2099506017 0.4765479798 0.266597378) 481 939 2
(0.543924816 0.228037592 0.08203697908 0.1460006129) 488 953 1
(0.04806433209 0.4067329151 0.0692349188 0.475967834) 469 2618 1
(0.1730944631 0.4134527685 0.1871522176 0.2263005509) 579 1106 1
(0.7751105277 0.1124447361 0.01849940465 0.09394533149) 455 889 2
(0.03627169221 0.250112886 0.4818641539 0.2317512679) 457 894 2
(0.06448283632 0.381609533 0.4677585818 0.08614904886) 487 951 2
(0.6459280764 0.1770359618 0.1745635385 0.002472423319) 469 897 1
(0.3686472768 0.3156763616 0.0211276886 0.294548673) 517 1005 2
(0.4245503914 0.2756085227 0.2877248043 0.01211628158) 497 967 1
(0.3557966945 0.3221016527 0.04639554356 0.2757061092) 469 914 2
(0.3141115246 0.3429442377 0.03399932102 0.3089449167) 478 933 2
(0.3802079247 0.09330167766 0.21659436 0.3098960376) 597 1141 2
(0.8539410895 0.07302945524 0.03484935341 0.03818010183) 448 1306 2
(0.2752040394 0.3623979803 0.3294569105 0.03294106982) 465 906 2
(0.1651629721 0.4174185139 0.04287386182 0.3745446521) 499 971 2
(0.3749705568 0.3120699499 0.3125147216 0.0004447717177) 447 875 2
(0.2711436304 0.3644281848 0.2292210019 0.1352071829) 476 930 1
(0.5123133071 0.1933437116 0.2438433465 0.05049963483) 453 883 1
(0.2571277884 0.2988683731 0.07256773272 0.3714361058) 496 949 2
(0.142608534 0.428695733 0.2536987548 0.1749969782) 519 992 1
(0.09335348427 0.450845872 0.002477385824 0.4533232579) 470 917 1
(0.7648024719 0.1175987641 0.1143734925 0.003225271611) 508 990 2
(0.08998833309 0.2027282909 0.2522775426 0.4550058335) 618 1181 2
(0.6434706532 0.1401704414 0.1782646734 0.03809423202) 524 1021 2
(0.5842671054 0.1859517404 0.02191470683 0.2078664473) 457 893 1
(0.1111652906 0.4444173547 0.2840188952 0.1603984596) 509 992 1
(0.1504162662 0.4247918669 0.2129365317 0.2118553352) 458 895 2
(0.02207131986 0.2911765917 0.1977877484 0.4889643401) 519 992 2
(0.8649703927 0.06751480365 0.06023838604 0.007276417608) 455 890 1
(0.3485588245 0.09984888535 0.3257205878 0.2258717024) 478 934 2
(0.2552590863 0.1692603779 0.3723704569 0.203110079) 497 967 1
(0.2405741894 0.3621306914 0.3797129053 0.0175822139) 519 1011 2
(0.1157416203 0.4421291899 0.2023704109 0.239758779) 647 2660 1
(0.110372487 0.4448137565 0.2872491377 0.1575646188) 609 2632 2
(0.3297448501 0.06001903547 0.2751085395 0.335127575) 475 927 1
(0.550590813 0.2247045935 0.04983094086 0.1748736526) 458 895 2
(0.1606012984 0.4196993508 0.4183433992 0.001355951577) 458 877 1
(0.1348130535 0.2831099763 0.4325934733 0.1494834969) 444 866 1
(0.2173398626 0.3913300687 0.2359821308 0.1553479379) 462 884 1
(0.7438862627 0.1280568687 0.02581337657 0.1022434921) 445 870 2
(0.3928489291 0.3035755354 0.08178138817 0.2217941473) 499 973 1
(0.2369047055 0.1185321424 0.3815476473 0.2630155048) 445 871 2
(0.5437648151 0.2281175924 0.178458623 0.04965896945) 526 1022 2
(0.6365133817 0.1817433091 0.09067670597 0.09106660316) 498 953 1
(0.2676861958 0.03796245387 0.3661569021 0.3281944482) 475 925 1
(0.2498176761 0.375091162 0.1912830236 0.1838081384) 488 952 2
(0.3179812661 0.3354081092 0.005601257808 0.341009367) 518 991 2
(0.08443094806 0.06540062265 0.3923839033 0.457784526) 509 973 2
(0.5237331096 0.08894927677 0.2381334452 0.1491841684) 494 961 1
(0.2300763502 0.3849618249 0.357073547 0.02788827792) 588 1142 2
(0.06479048494 0.4676047575 0.3966887821 0.07091597542) 458 893 2
(0.7310515206 0.0894449339 0.1344742397 0.04502930579) 455 890 2
(0.3317949835 0.3166793448 0.01742316343 0.3341025082) 456 891 1
(0.3496649566 0.1762337978 0.3251675217 0.1489337239) 452 884 2
(0.1767654458 0.01461595839 0.3970013187 0.4116172771) 440 1298 1
(0.6686970349 0.1656514826 0.137616081 0.02803540158) 457 891 2
(0.5371879333 0.2314060334 0.1595602354 0.07184579792) 499 954 1
(0.1518846635 0.4240576682 0.3544213804 0.06963628784) 446 1304 2
(0.514920687 0.02299101803 0.2425396565 0.2195486385) 449 878 2
(0.06491824641 0.4675408768 0.2925676854 0.1749731914) 217 434 2
(0.2470821566 0.3764589217 0.3154187586 0.0610401631) 497 951 1
(0.6892071362 0.02504594977 0.1553964319 0.1303504821) 477 929 1
(0.09354000002 0.45323 0.1336071777 0.3196228222) 462 902 2
(0.2559193711 0.1283594886 0.2436808258 0.3720403145) 469 897 2
(0.1385146119 0.430742694 0.1698938671 0.2608488269) 454 887 2
(0.9157569547 0.04212152263 0.02295337302 0.01916814961) 448 877 1
(0.4172398224 0.2913800888 0.04982873344 0.2415513554) 458 877 1
(0.3186951809 0.2018933585 0.3406524095 0.138759051) 578 1121 1
(0.5709077501 0.214546125 0.001938718611 0.2126074064) 449 876 2
(0.5473942603 0.09155117274 0.2263028698 0.1347516971) 509 992 2
(0.3950794268 0.3024602866 0.1093635314 0.1930967552) 457 891 2
(0.7582237144 0.1208881428 0.08141210407 0.03947603872) 488 952 2
(0.5848481393 0.04614147035 0.2075759303 0.16143446) 497 970 2
(0.3833725675 0.3083137163 0.2124547805 0.09585893572) 569 1087 1
(0.4301263002 0.2125808982 0.07235595165 0.2849368499) 559 2627 1
(0.196909956 0.01385657349 0.3876884485 0.401545022) 518 991 2
(0.03968510969 0.3823538696 0.09780357558 0.4801574452) 445 1303 1
(0.8590040266 0.07049798668 0.05303662717 0.01746135951) 485 946 2
(0.8400753912 0.003243063734 0.0799623044 0.07671924067) 529 1030 2
(0.3243688665 0.3378155667 0.3048840811 0.03293148562) 519 1009 2
(0.0414560426 0.1388563766 0.3404156021 0.4792719787) 468 914 1
(0.4996639066 0.1016976124 0.2501680467 0.1484704343) 476 927 1
(0.3172886145 0.2789555856 0.3413556928 0.06240010714) 447 872 1
(0.1489294148 0.4255352926 0.2377244763 0.1878108163) 456 889 2
(0.3503098047 0.3248450976 0.2933610718 0.03148402578) 548 1064 2
(0.1619325628 0.1606178613 0.2584158574 0.4190337186) 569 1087 2
(0.291918736 0.2898377229 0.06420290914 0.354040632) 629 2634 1
(0.3576271073 0.2684707152 0.3211864464 0.05271573112) 487 948 1
(0.4062681191 0.2968659404 0.1937698405 0.1030961) 459 895 2
(0.3732365993 0.07420062797 0.2391810724 0.3133817004) 465 908 1
(0.5900781933 0.1125944066 0.09236649671 0.2049609034) 516 987 2
(0.1387307414 0.4306346293 0.0591486971 0.3714859322) 458 895 2
(0.7730745109 0.1134627446 0.06013907444 0.05332367014) 452 865 1
(0.1062900738 0.4468549631 0.003641981161 0.443212982) 505 984 2
(0.3909013594 0.1239372319 0.3045493203 0.1806120884) 508 988 1
(0.443208086 0.2448119691 0.278395957 0.03358398787) 476 927 1
(0.07321274063 0.3553729844 0.4633936297 0.1080206453) 469 914 1
(0.6949907853 0.09364787069 0.1525046073 0.05885673665) 541 1053 2
(0.7696947708 0.02157592051 0.1151526146 0.09357669409) 515 1004 2
(0.3165757051 0.2387627806 0.3417121474 0.1029493668) 569 1106 2
(0.09924141342 0.09302852225 0.357350771 0.4503792933) 529 2624 1
(0.1945058108 0.4027470946 0.03207703737 0.3706700572) 469 914 2
(4.410623979e-05 0.4999779469 0.03462841963 0.4653495273) 588 1124 1
(0.7328806501 0.003695800131 0.1298638748 0.133559675) 506 968 2
(0.4140757021 0.2517631994 0.04119894959 0.292962149) 638 1219 2
(0.2023036939 0.3988481531 0.05066458864 0.3481835644) 599 1163 1
(0.1044835648 0.4477582176 0.4298005981 0.01795761948) 456 891 2
(0.7785287793 0.09140952855 0.1107356104 0.01932608182) 466 911 2
(0.1145223274 0.1420635296 0.4427388363 0.3006753067) 468 915 2
(0.5295961134 0.06595622847 0.2352019433 0.1692457148) 458 893 1
(0.2465571349 0.3767214326 0.02671851056 0.350002922) 446 870 2
(0.2134869873 0.3932565063 0.06042825551 0.3328282508) 459 878 1
(0.3408910375 0.3295544813 0.2297335487 0.09982093257) 449 1307 2
(0.5221039372 0.2389480314 0.07336948406 0.1655785474) 446 1304 2
(0.2013206959 0.399339652 0.07556011385 0.3237795382) 459 895 2
(0.5196086478 0.2401956761 0.02001404827 0.2201816278) 529 1011 1
(0.3806791924 0.175122399 0.3096604038 0.1345380048) 473 924 2
(0.5306931323 0.05226068367 0.2346534339 0.1823927502) 546 1063 2
(0.03630165614 0.4818491719 0.4723443654 0.009504806503) 498 953 1
(0.3324450468 0.1006383255 0.233139151 0.3337774766) 507 970 2
(0.407762625 0.08202942224 0.2140892653 0.2961186875) 459 878 2
(0.3741684546 0.1134810603 0.3129157727 0.1994347124) 455 887 1
(0.191936748 0.07069530666 0.404031626 0.3333363193) 488 953 2
(0.1996003897 0.4001998051 0.08906588954 0.3111339156) 446 870 2
(0.5933212765 0.2033393617 0.04207340214 0.1612659596) 465 909 1
(0.283975842 0.1518137041 0.2061983749 0.358012079) 475 927 1
(0.2504237539 0.2827039255 0.09208419757 0.374788123) 469 897 2
(0.3152718174 0.003425090477 0.3389390008 0.3423640913) 506 968 2
(0.2841340483 0.07457727147 0.3579329758 0.2833557044) 37 75 2
(0.7394731088 0.05622332581 0.1302634456 0.0740401198) 446 873 2
(0.01096319869 0.4374271556 0.4945184007 0.05709124506) 76 150 1
(0.257797876 0.03766763488 0.3334334271 0.371101062) 446 872 1
(0.5291887628 0.2354056186 0.1080115078 0.1273941108) 466 908 2
(0.1286753884 0.4356623058 0.004647895784 0.43101441) 449 2616 2
(0.252011704 0.02667214128 0.373994148 0.3473220067) 447 875 2
(0.3806239605 0.1686063586 0.3096880198 0.1410816611) 448 877 2
(0.6150285845 0.1924857077 0.01123561714 0.1812500906) 477 929 2
(0.4890159375 0.2554920312 0.06319703715 0.1922949941) 519 1009 2
(0.2019710767 0.08195530699 0.3170591546 0.3990144616) 489 935 2
(0.369689083 0.3151554585 0.3129776017 0.002177856795) 626 1214 2
(0.03285113324 0.4532082339 0.0303661995 0.4835744334) 478 915 2
(0.04423472271 0.2288894392 0.4778826386 0.2489931994) 558 1086 2
(0.3463073278 0.1057370902 0.2211092459 0.3268463361) 605 1156 2
(0.173896691 0.4130516545 0.2218955966 0.1911560579) 489 2620 2
(0.09100479909 0.1223927491 0.3321048514 0.4544976005) 446 1304 1
(0.1331358589 0.02969552254 0.4334320705 0.403736548) 509 992 2
(0.5905195307 0.098545189 0.1061950456 0.2047402347) 454 887 1
(0.103683443 0.4481582785 0.05746705034 0.3906912282) 498 953 1
(0.1085176556 0.3182952808 0.4457411722 0.1274458914) 447 875 2
(0.02857914337 0.2406244015 0.2450860268 0.4857104283) 446 872 1
(0.1765989123 0.4117005439 0.1446740576 0.2670264862) 458 877 1
(0.1417892215 0.4291053892 0.2398890223 0.1892163669) 459 895 2
(0.3955983743 0.3022008128 0.1241909555 0.1780098573) 441 860 2
(0.615328287 0.1923358565 0.1157061093 0.07662974721) 505 985 1
(0.2215906148 0.3892046926 0.3560446785 0.0331600141) 511 995 2
(0.260919388 0.369540306 0.1189319639 0.2506083421) 549 1068 1
(0.0746926805 0.4626536597 0.1897391745 0.2729144853) 459 2617 2
(0.8038142898 0.09809285509 0.0256848523 0.07240800279) 454 887 2
(0.4274651975 0.1497966504 0.2862674012 0.1364707509) 539 1047 1
(0.2261110419 0.386944479 0.3230950477 0.06384943131) 468 912 2
(0.4096571647 0.156491883 0.2951714177 0.1386795347) 498 972 2
(0.08855039899 0.4557248005 0.361245329 0.09447947154) 452 884 1
(0.07246540813 0.4637672959 0.238831104 0.224936192) 552 1074 1
(0.8073386214 0.08084366079 0.01548702853 0.09633068931) 569 1087 2
(0.1080011396 0.1504803921 0.4459994302 0.2955190381) 558 1083 1
(0.007689392642 0.4961553037 0.4443802818 0.05177502189) 468 896 1
(0.3885127604 0.3057436198 0.05460652652 0.2511370933) 465 890 1
(0.6511045499 0.03823690872 0.174447725 0.1362108163) 495 966 2
(0.3882027722 0.3058986139 0.06736817775 0.2385304361) 479 2619 2
(0.3541893009 0.3229053495 0.2286147152 0.09429063428) 445 870 2
(0.280538826 0.1301960925 0.2295344945 0.359730587) 444 1302 1
(0.3943210438 0.3028394781 0.1537629254 0.1490765527) 559 1085 2
(0.6701834308 0.1649082846 0.02155878777 0.1433494968) 498 969 2
(0.1506117846 0.3373053016 0.4246941077 0.08738880613) 444 869 2
(0.2054019919 0.3972990041 0.1760605966 0.2212384074) 588 1142 2
(0.08556323602 0.3937909421 0.06342743993 0.457218382) 539 2625 1
(0.3222430173 0.2055842289 0.1332942625 0.3388784914) 558 1067 2
(0.7823738573 0.09067728848 0.1088130714 0.01813578288) 538 1048 2
(0.3598599089 0.3200700455 0.08479482314 0.2352752224) 636 1231 2
(0.01104121394 0.494479393 0.2010736084 0.2934057846) 598 1161 2
(0.05347034069 0.4732648297 0.2858358934 0.1874289363) 565 1098 2
(0.2270821165 0.3864589417 0.2473895242 0.1390694175) 599 1144 1
(0.08674003406 0.3917881093 0.456629983 0.06484187368) 449 876 1
(0.2955882359 0.352205882 0.2414946986 0.1107111834) 476 911 1
(0.3186174169 0.3406912915 0.1819809769 0.1587103147) 487 948 2
(0.217908185 0.1653104749 0.3910459075 0.2257354326) 449 878 2
(0.2266354275 0.3866822863 0.2735169165 0.1131653698) 472 903 1
(0.1644231105 0.4177884448 0.2768370843 0.1409513605) 485 928 1
(0.08794926801 0.0789332199 0.3770921461 0.456025366) 488 934 2
(0.4416777928 0.2791611036 0.2695789404 0.009582163168) 446 870 2
(0.02994338224 0.4498052568 0.4850283089 0.03522305204) 498 972 2
(0.3174711531 0.2410631892 0.3412644235 0.1002012342) 489 952 1
(0.2089500589 0.129383867 0.3955249705 0.2661411035) 457 891 1
(0.5131061155 0.01031372178 0.2331332205 0.2434469423) 496 967 1
(0.4462643567 0.1563369191 0.1205309025 0.2768678217) 442 864 1
(0.516048409 0.2419757955 0.199370174 0.04260562148) 580 599 2
(0.2679263934 0.3050682351 0.3660368033 0.0609685682) 457 891 1
(0.7872689817 0.09725580925 0.1063655091 0.009109699896) 457 891 1
(0.407947345 0.2960263275 0.1415449238 0.1544814037) 508 988 2
(0.03936330445 0.1826033243 0.4803183478 0.2977150235) 529 1028 1
(0.5746771018 0.06138744818 0.1512740009 0.2126614491) 558 1085 1
(0.05537346816 0.3092931601 0.4723132659 0.1630201058) 527 1024 1
(0.5147128677 0.2426435662 0.1574150395 0.08522852666) 546 1062 2
(0.1039747517 0.4480126241 0.1027560599 0.3452565642) 577 1122 1
(0.1756702593 0.4121648703 0.1286591224 0.2835057479) 638 1235 2
(0.5901657667 0.2049171167 0.2044526225 0.000464494147) 549 1049 1
(0.3897637453 0.3051181274 0.2250809456 0.08003718179) 579 2629 2
(0.3014766053 0.3492616974 0.1194505783 0.229811119) 548 1066 2
(0.05317813814 0.4734109309 0.1631158638 0.3102950671) 616 1195 2
(0.1630706665 0.4184646668 0.09480330528 0.3236613615) 639 1220 1
(0.2904326935 0.3547836533 0.2990525857 0.05573106758) 608 1178 2
(0.3891786535 0.1287179303 0.3054106732 0.176692743) 483 943 2
(0.8790444623 0.05506249631 0.06047776887 0.005415272553) 545 1058 1
(0.565644175 0.2171779125 0.1489133664 0.06826454608) 445 1303 2
(0.05784300018 0.4710784999 0.2193975389 0.251680961) 217 435 1
(0.1232809496 0.2245899219 0.4383595252 0.2137696033) 473 921 1
(0.6985786428 0.1507106786 0.03112390832 0.1195867703) 447 875 1
(0.3606902612 0.263892591 0.0557622784 0.3196548694) 443 866 1
(0.6604176606 0.1697911697 0.0155511383 0.1542400314) 444 869 1
(0.04803386143 0.3509446989 0.4759830693 0.1250383704) 464 904 1
(0.2878480549 0.06927120839 0.2868047642 0.3560759726) 489 935 2
(0.08400593604 0.411897592 0.457997032 0.04609943998) 479 935 2
(0.682950932 0.09918400724 0.158524534 0.05934052675) 474 926 2
(0.07132088425 0.4643395579 0.09741317443 0.3669263834) 558 1083 2
(0.01714376053 0.4836330159 0.4914281197 0.007795103831) 446 870 1
(0.6893430391 0.1553284805 0.03278852638 0.1225399541) 488 952 2
(0.5255734747 0.2372132626 0.07745264662 0.159760616) 447 874 2
(0.1704845584 0.4147577208 0.1665579226 0.2481997982) 475 927 2
(0.2301961952 0.3849019024 0.3325686518 0.05233325057) 440 861 1
(0.5689634886 0.2155182557 0.1072930155 0.1082252403) 497 967 2
(0.3271160285 0.3364419858 0.1346681726 0.2017738132) 479 916 1
(0.2605988643 0.1107122412 0.3697005679 0.2589883267) 443 867 2
(0.1720587452 0.4139706274 0.2113656287 0.2026049987) 499 954 1
(0.0009870705688 0.4916461944 0.007860270332 0.4995064647) 466 892 2
(0.6149413543 0.1156336666 0.07689565625 0.1925293228) 508 990 1
(0.4695010646 0.2652494677 0.2138116415 0.0514378262) 486 948 2
(0.1394981674 0.4302509163 0.4079311748 0.02231974148) 489 935 1
(0.1648938751 0.4175530624 0.02647657651 0.3910764859) 519 1011 1
(0.2538921826 0.3730539087 0.3136311199 0.05942278886) 526 1024 2
(0.07586259111 0.4620687044 0.1777886528 0.2842800516) 519 1009 2
(0.1718828327 0.4140585836 0.1706018397 0.243456744) 569 1087 1
(0.5928647096 0.2035676452 0.1730309765 0.03053666871) 483 924 1
(0.7227471893 0.1179119024 0.1386264054 0.02071450301) 556 1079 1
(0.1170490103 0.2754542045 0.4414754948 0.1660212904) 559 1085 1
(0.01413989986 0.3347027237 0.4929300501 0.1582273264) 528 1026 1
(0.3537196751 0.09378708549 0.3231401624 0.229353077) 356 713 2
(0.5448528366 0.2275735817 0.03483877759 0.1927348041) 608 1162 1
(0.1360888227 0.4319555886 0.4275075827 0.004448005934) 587 1138 2
(0.1729039844 0.1611376534 0.2524103544 0.4135480078) 525 1022 1
(0.03130269775 0.3171955902 0.4843486511 0.1671530609) 457 894 2
(0.4559568364 0.04330098824 0.2287205936 0.2720215818) 469 2618 1
(0.4296461979 0.2509331373 0.03424376375 0.2851769011) 472 903 2
(0.3998571386 0.3000714307 0.2346361597 0.06543527105) 448 874 2
(0.1075578212 0.3724141899 0.4462210894 0.07380689956) 443 864 1
(0.5440876838 0.1629276377 0.2279561581 0.06502852043) 459 897 2
(0.139567409 0.05825137827 0.3719649172 0.4302162955) 537 1027 2
(0.02910274394 0.05923075598 0.4262178721 0.485448628) 525 1004 2
(0.2724337207 0.3637831396 0.1773522197 0.1864309199) 453 867 1
(0.03216371623 0.4839181419 0.1694452966 0.3144728453) 486 946 2
(0.1271608263 0.005508208897 0.4364195868 0.4309113779) 489 954 2
(0.08507934029 0.1421393706 0.4574603299 0.3153209593) 466 911 2
(0.08022316484 0.4598884176 0.3841506348 0.07573778282) 487 948 2
(0.6841024741 0.1579487629 0.04190106811 0.1160476948) 468 915 1
(0.07726958827 0.09862393399 0.3627412719 0.4613652059) 468 896 2
(0.09902792106 0.4504860395 0.09793259742 0.352553442) 444 869 1
(0.3319297091 0.03214855632 0.3018865892 0.3340351455) 496 949 2
(0.6572753304 0.06576558436 0.1055967504 0.1713623348) 488 934 2
(0.2581934121 0.2718753929 0.09902790102 0.3709032939) 509 2622 1
(0.04186346965 0.4790682652 0.3689958663 0.1100723989) 523 1000 1
(0.2763664909 0.3618167545 0.2989158622 0.06290089229) 518 1007 2
(0.160664319 0.4196678405 0.04374714061 0.3759206999) 457 893 2
(0.3519948922 0.3240025539 0.2601866746 0.06381587927) 529 2624 2
(0.6106605757 0.1946697122 0.1542551039 0.0404146083) 509 992 1
(0.06996867036 0.03976953674 0.4252461281 0.4650156648) 508 972 2
(0.5485611622 0.1436764807 0.08204293819 0.2257194189) 579 1106 2
(0.2190081847 0.1806824033 0.2098135044 0.3904959076) 519 992 2
(0.02380237386 0.4880988131 0.2052291336 0.2828696795) 469 914 2
(0.4148327505 0.2925836247 0.02206524923 0.2705183755) 629 2634 2
(0.234542829 0.3827285855 0.1790925736 0.2036360118) 579 1125 1