/*--------------------------------*- C++ -*----------------------------------*\
| =========                 |                                                 |
| \\      /  F ield         | OpenFOAM: The Open Source CFD Toolbox           |
|  \\    /   O peration     | Version:  2406                                  |
|   \\  /    A nd           | Website:  www.openfoam.com                      |
|    \\/     M anipulation  |                                                 |
\*---------------------------------------------------------------------------*/
FoamFile
{
    version     2.0;
    format      ascii;
    arch        "LSB;label=32;scalar=64";
    class       scalarField;
    location    "0.005/lagrangian/dsmc";
    object      Ei;
}
// * * * * * * * * * * * * * * * * * * * * * * * * * * * * * * * * * * * * * //


6852
(
2.735714442e-21
3.445111411e-20
2.503289705e-20
5.292970095e-21
3.480485119e-21
2.682905919e-21
8.861332686e-22
2.317436399e-21
2.655870488e-20
3.278542669e-22
8.707259122e-21
2.32034912e-20
1.855503166e-21
2.761838566e-21
5.065331688e-21
2.857226237e-21
6.48462284e-21
2.270472978e-20
2.218512572e-20
1.553468237e-20
2.787448528e-21
2.318740495e-20
9.144663124e-21
4.049890804e-21
1.157940928e-21
2.524882337e-20
9.164270695e-21
1.043232009e-20
2.029017328e-20
5.06767591e-20
1.749035633e-21
1.562324015e-22
3.775531976e-21
2.893870516e-20
5.098287402e-21
5.285845599e-21
7.958063895e-21
1.855686525e-21
1.863701785e-20
1.383265509e-20
5.564234835e-21
1.627298552e-21
1.981287901e-21
1.301038107e-20
4.810939272e-21
8.596404042e-21
7.488680263e-21
1.290482596e-21
1.54094021e-20
2.617111875e-20
1.958717675e-21
1.226104918e-20
3.393571547e-21
3.641183449e-21
2.015175398e-20
9.119357078e-21
9.544112506e-21
2.499632174e-20
5.368628673e-21
4.168326705e-20
1.214073561e-20
5.10296128e-21
5.263823593e-21
3.705448515e-20
2.480248567e-21
1.354182606e-22
4.910449788e-21
1.209486592e-21
7.411382417e-21
8.584711154e-21
3.615468008e-20
2.62624221e-20
6.271096634e-21
3.866946479e-20
9.965516418e-23
2.127425378e-21
1.473965613e-20
8.723353062e-21
2.452763269e-21
6.728554447e-22
4.004522697e-21
4.478275528e-20
2.343169271e-21
9.956103339e-21
1.032599977e-21
1.213041618e-23
1.357555419e-20
1.541108144e-20
1.135928541e-20
6.636085315e-21
2.006803327e-21
7.82826566e-21
3.04588554e-22
1.172855859e-20
1.869090799e-20
7.321968031e-21
1.901246965e-21
2.683164122e-20
4.317552779e-21
2.099270322e-22
2.82015576e-20
3.299124002e-23
3.906471019e-21
4.238211896e-21
2.711956348e-21
1.083355053e-21
7.444444763e-22
1.22711502e-21
3.295965562e-20
2.877651635e-20
1.413651091e-20
2.244293229e-20
3.347335645e-21
2.612120218e-23
1.612589919e-20
2.792587973e-21
1.170629759e-20
8.462459429e-21
3.041107785e-20
1.652587589e-21
8.172808456e-21
9.263761305e-21
4.852946538e-21
1.029076645e-21
5.044248781e-21
2.844008683e-22
1.241068911e-20
1.315739089e-20
6.489210731e-21
1.05694129e-20
6.583740014e-22
1.401357215e-20
3.229500612e-21
7.046822302e-22
9.714725125e-22
6.412885698e-23
1.792358738e-21
1.987701628e-20
8.392543954e-20
2.325932674e-20
4.426969549e-21
2.100306641e-20
5.719405094e-21
2.090801953e-20
1.017317749e-20
3.826842051e-20
1.12265082e-23
1.747400158e-20
8.484158004e-21
1.382750402e-20
3.497950389e-20
7.981753831e-21
2.524245545e-21
4.340211316e-21
3.814314389e-21
1.492432811e-20
4.618642885e-20
3.469116621e-21
4.158281527e-22
3.923553571e-21
5.363718524e-21
2.334792066e-20
7.88989923e-21
6.751717317e-21
4.730095517e-21
1.710777883e-21
3.866522678e-22
5.415753424e-21
8.40161281e-21
1.250311982e-20
1.393936484e-21
4.798461808e-21
3.553097285e-21
2.021733908e-20
4.927859891e-20
1.013637687e-20
7.735361439e-21
4.144699818e-21
3.141495519e-21
9.936306281e-21
3.525635269e-20
3.289049127e-21
2.040304953e-20
5.359104354e-22
1.486430922e-20
3.636801397e-20
1.999414772e-22
4.712855439e-20
4.576912744e-21
4.702948645e-21
4.007726857e-21
1.764600037e-21
4.906269921e-20
1.363539421e-20
3.445283082e-20
8.541245606e-21
1.945127402e-20
4.111117463e-21
2.256635361e-21
1.032318875e-21
3.796564229e-21
1.827173098e-21
3.107162942e-21
4.982719484e-21
1.142445224e-20
8.591238734e-21
4.72285337e-21
1.315008392e-20
1.97679736e-20
4.794485609e-22
2.141880321e-20
1.717294498e-20
1.476515866e-20
1.115812939e-21
5.966755658e-21
2.730578344e-21
2.315071398e-20
2.544516715e-20
8.296778435e-22
4.71986444e-21
2.358342984e-21
1.127980177e-21
1.588403446e-20
7.023287427e-22
1.045751015e-20
3.524509484e-21
8.131398802e-21
7.406058158e-21
5.295279988e-21
2.912480019e-20
3.396434195e-21
1.271600005e-20
1.678116629e-20
9.226159671e-21
1.382845776e-21
3.435599312e-21
2.116891777e-20
7.95415726e-21
1.092589201e-21
8.635108415e-21
7.890230141e-21
1.453613841e-21
5.820224606e-21
3.707230369e-20
6.30025979e-21
2.951879237e-21
2.061021834e-21
1.312366099e-21
6.867570034e-21
4.414085603e-21
7.051315752e-22
3.06862977e-20
1.278624773e-20
3.399109213e-20
1.115896472e-20
1.694912622e-21
3.160149685e-21
7.563718299e-21
5.526560633e-21
3.35364371e-21
1.806479188e-20
2.761444037e-22
1.087179961e-20
2.031264213e-21
9.192503781e-21
3.502342881e-21
2.522716469e-20
1.184689791e-20
1.324651661e-21
1.919155776e-21
1.047224017e-20
2.211110281e-20
3.880033942e-21
1.460126414e-20
1.007730101e-21
1.012623733e-20
1.887476368e-20
6.290511056e-21
2.754368757e-20
1.142746923e-20
3.83203674e-21
7.978473018e-21
4.942475482e-21
5.689480618e-21
1.037030244e-20
1.99908857e-21
5.433011533e-21
1.513078687e-21
5.74877408e-21
7.494594175e-21
8.721258167e-21
9.832589986e-21
2.047229331e-21
6.630456694e-21
2.999200701e-20
4.922619434e-21
3.264281422e-21
1.022911333e-20
1.418010661e-20
6.19586692e-21
1.182467276e-20
3.223650783e-21
1.709380339e-20
6.786514995e-21
4.237719715e-20
3.469216446e-21
4.27792294e-20
3.079821721e-21
1.180769038e-21
4.881936919e-21
3.15443566e-21
1.48398397e-20
2.485402711e-21
1.415945697e-20
7.718266758e-21
8.513858439e-21
1.249376507e-20
1.263847821e-20
3.611638321e-21
1.705481985e-21
3.07337545e-22
1.289889569e-21
1.129522538e-20
2.558071655e-20
2.39010592e-21
1.164931132e-21
2.894002994e-20
4.099822363e-21
9.375958108e-21
9.123705589e-22
6.731615197e-21
8.421923708e-24
4.196120594e-21
1.108082414e-22
1.655099879e-21
2.453976854e-20
1.556506176e-21
8.22170958e-21
4.549756685e-20
3.611237957e-21
1.603999957e-21
3.233078502e-24
4.833764067e-21
1.885016828e-20
1.737240645e-20
3.673571661e-21
4.665115939e-23
9.15984397e-22
1.299199449e-22
1.857265747e-20
9.641705647e-22
1.373906836e-21
2.439424377e-20
2.873742909e-20
9.260631435e-22
1.272607319e-20
5.67856146e-20
1.891119037e-20
2.946611471e-21
2.622908066e-21
1.100572905e-21
2.330290655e-21
1.615232457e-21
5.425437799e-21
1.727499121e-20
5.416390788e-21
7.72611896e-21
5.223752457e-21
4.733089278e-21
1.795627685e-21
5.868337293e-23
7.015727329e-21
1.59749139e-21
9.522989878e-22
7.354262216e-21
1.033144055e-20
5.649253112e-21
4.936316285e-21
6.700516292e-21
4.305858312e-21
8.742696747e-21
3.626134609e-20
2.654464322e-21
4.402333315e-21
4.164861127e-22
5.140656495e-21
1.653529875e-20
1.471941748e-20
5.86042967e-21
1.16106242e-21
2.46471456e-22
7.600633437e-21
5.836921246e-21
6.096181626e-21
1.930407268e-21
1.842764366e-21
2.592171725e-21
2.754957672e-21
7.439889902e-21
6.259632379e-21
4.208154368e-21
1.774376417e-21
1.116547107e-20
1.841431198e-22
8.470974572e-21
3.420769807e-21
3.753812595e-23
2.760684027e-21
4.898244146e-21
4.762947362e-21
5.464930103e-22
3.812611862e-20
3.43215899e-21
4.208120638e-21
8.557913109e-21
2.775022289e-21
3.580774811e-21
2.107150217e-20
1.202504978e-20
4.286199275e-21
1.412841416e-21
1.073416898e-20
9.437916343e-21
9.437784198e-21
2.566499227e-20
3.247871522e-21
5.175587725e-20
2.263832411e-22
2.837977726e-20
4.258434206e-21
1.943835149e-20
2.080048907e-20
1.458431977e-20
2.441055369e-21
2.681217293e-20
2.867734044e-21
6.090925769e-22
6.549556996e-22
1.895660651e-20
1.004906823e-21
2.826410894e-21
9.531964927e-21
3.24077887e-22
1.083928637e-21
4.802780825e-21
1.968424831e-21
1.376733076e-20
3.074542855e-22
4.150384445e-21
1.005110748e-21
4.24748975e-21
1.414974368e-20
3.882168761e-22
1.520247553e-21
2.383763477e-22
2.201938635e-21
5.74957227e-21
2.66725176e-21
2.760644344e-20
2.124307498e-21
7.877324768e-21
2.852407116e-20
4.983572988e-20
3.080845239e-20
5.282539646e-21
3.140533961e-21
3.306707863e-21
4.608462504e-21
3.339036962e-22
5.130534646e-21
3.283229709e-21
7.215578459e-22
1.300093436e-20
6.756497728e-21
3.043938255e-21
1.351894755e-20
7.371353826e-22
1.500954887e-21
3.701358767e-21
3.908567566e-22
1.896642342e-21
6.015384507e-21
8.603265808e-21
3.222442391e-21
5.026524407e-21
7.754647281e-21
2.120732439e-21
1.692416532e-20
2.131980705e-20
7.434076452e-21
1.500257125e-21
6.753751664e-21
3.239407733e-20
7.218667488e-21
8.157447836e-23
4.871354878e-21
3.323904463e-21
4.337152867e-20
3.731765578e-20
2.288753983e-20
9.594861685e-21
6.321165826e-21
6.782201984e-21
1.369365992e-20
5.766886082e-24
3.511689212e-21
6.193459865e-21
1.014151849e-20
1.752734521e-20
5.613981562e-21
9.109769578e-21
2.041367549e-21
3.900193548e-21
3.455288517e-21
3.301786516e-23
1.036521726e-20
3.317258029e-20
2.699498092e-20
2.055533187e-20
1.817356668e-20
7.340585744e-21
2.848655581e-21
6.759791767e-21
1.469378932e-20
5.089923647e-22
4.290720881e-22
1.32928432e-20
9.477028394e-21
1.893561585e-21
6.452758716e-22
1.788538718e-20
3.466415406e-21
1.116951423e-20
7.677473794e-21
9.140612445e-21
1.635467663e-22
9.016912932e-22
3.557158078e-21
1.043938819e-21
6.203456426e-21
1.611280272e-21
1.61039176e-20
9.514856919e-21
7.524352938e-21
1.12866495e-21
1.418418165e-21
8.414457735e-21
1.604357786e-21
5.371804348e-21
1.424549131e-21
9.538258649e-21
1.122796457e-20
2.28262672e-21
5.130455736e-21
1.410013627e-22
1.314075971e-20
7.245439704e-21
6.829849509e-21
1.860244523e-21
1.079008469e-20
5.79278781e-20
1.569658059e-21
9.71126145e-22
6.651395668e-21
8.595217067e-23
8.661725694e-21
9.277417131e-22
3.45137854e-21
6.018862154e-20
1.037718135e-20
2.071609936e-21
1.523225882e-21
1.041258022e-20
2.334712594e-21
4.331039166e-24
6.095497579e-22
2.112892886e-21
4.13692812e-21
2.005099007e-21
1.906422949e-21
9.541324502e-24
8.013786945e-21
6.280819721e-22
2.08576579e-21
3.634087159e-21
3.083415582e-21
2.217576932e-21
3.372222598e-21
1.424176543e-21
4.605531797e-22
1.813581027e-21
9.554218517e-21
2.92417966e-20
8.528840496e-21
8.280914224e-21
1.126752238e-20
1.389556698e-21
5.435808314e-22
9.563384124e-21
1.617540915e-20
2.246514234e-20
3.076800608e-22
3.046476304e-21
3.118152628e-21
1.442164146e-20
9.556737186e-22
6.38573571e-21
1.085618222e-20
2.142098643e-22
8.246427536e-21
8.554967483e-21
2.285251905e-21
1.274767377e-21
2.492660423e-20
5.850171435e-21
1.460331086e-20
3.125608614e-20
3.016403175e-21
2.801439868e-21
1.501612352e-20
3.017797803e-21
1.484440666e-21
2.109952553e-21
1.710588843e-21
9.246841262e-22
2.730467184e-21
2.069723476e-21
6.607917452e-23
5.085256232e-22
5.528242515e-22
2.407355159e-22
5.530962078e-21
1.676739929e-21
1.297226532e-20
4.228740066e-21
3.950154706e-21
6.93960677e-21
1.050953885e-20
5.76491346e-21
7.18915692e-22
1.031543957e-21
8.570052475e-21
1.342480522e-20
3.239786543e-21
1.400160299e-21
8.856490568e-22
2.774751841e-22
1.355530771e-22
1.069736493e-20
3.625464867e-21
2.012350468e-22
3.293483882e-20
4.716899073e-21
2.813664787e-21
7.988406769e-21
5.115663827e-22
1.29994471e-21
2.935812957e-20
4.480633564e-20
7.988860248e-22
1.928919187e-21
2.881939548e-20
4.946598464e-21
1.857387796e-21
6.808605359e-21
7.809513342e-21
8.089102151e-22
1.033840103e-21
1.947477774e-21
1.567107902e-21
2.403629615e-21
6.210392579e-21
7.543745309e-22
4.215800618e-21
2.585049188e-21
1.629993702e-21
6.715469315e-21
2.109555886e-21
3.51645008e-21
8.371559686e-21
1.783240094e-21
3.934742813e-22
1.954003161e-21
3.517284511e-21
2.711914535e-20
4.382666014e-21
7.908649911e-23
5.913831019e-22
7.980255203e-21
4.325745507e-21
2.305163983e-21
2.705474731e-21
4.487202195e-21
8.367776175e-21
5.692020793e-21
3.196045545e-21
3.766880015e-21
8.166151369e-22
4.46336721e-21
9.012875028e-21
4.774409979e-21
2.35120113e-21
1.337446704e-21
4.745898705e-21
2.602199041e-20
4.971879604e-21
1.464221136e-20
1.328967372e-20
1.283729162e-20
9.965102799e-21
3.848837545e-20
9.855843757e-21
2.114586755e-22
1.076761932e-20
4.671688576e-21
1.245298817e-21
2.5247099e-21
1.79316672e-22
1.744640978e-21
2.163746776e-22
7.097944402e-21
4.530982612e-21
2.993908242e-21
1.583727506e-20
1.901705519e-20
2.490880834e-21
7.25268536e-21
2.963102465e-21
4.772971527e-21
2.544426426e-21
8.079889339e-21
2.199398166e-21
9.468466121e-21
5.802417456e-22
2.032626373e-21
2.854545241e-21
5.85365776e-22
1.059761399e-20
3.12676094e-22
2.574150272e-21
3.139980224e-21
9.044875773e-22
1.493894489e-22
2.372457611e-21
6.532306708e-21
5.255701688e-21
4.890085321e-22
3.846018987e-20
5.18170423e-20
3.090666016e-21
1.780948463e-21
1.267445326e-21
1.667509099e-21
5.612168711e-21
1.735256575e-21
5.323203924e-21
1.074860678e-21
2.004237372e-21
3.197180045e-21
5.61305157e-21
1.967702528e-22
2.718987982e-22
3.352850947e-21
1.428463351e-21
1.420398389e-21
5.982975038e-21
7.192205477e-21
1.58915291e-21
4.993049351e-21
1.003043452e-21
4.055073163e-21
2.025952555e-21
1.547089996e-21
7.449059944e-22
3.329867648e-21
2.757939893e-22
1.952079937e-21
3.624002811e-21
1.166679462e-21
1.44307416e-21
8.999045992e-21
2.091849419e-21
2.191248026e-21
4.79162233e-21
6.744771213e-21
5.362959754e-21
6.114347299e-22
2.735163198e-21
2.276694649e-21
3.119186141e-21
4.8156204e-22
6.860448255e-21
6.771802564e-22
2.384040689e-21
1.10449627e-21
7.260485927e-21
9.883822126e-22
1.611622164e-21
2.265938345e-21
1.020281247e-21
6.123500208e-21
5.746645953e-21
3.731935446e-21
2.201891029e-22
1.341964742e-21
9.579726949e-22
6.205045983e-23
3.377896397e-21
9.583584581e-21
5.161147544e-21
1.162072464e-22
5.613284998e-22
7.053214856e-21
2.11425299e-21
1.007502834e-20
3.674377409e-21
1.640134634e-22
1.198589196e-20
2.314013328e-22
4.439502409e-21
1.34179395e-20
2.262868059e-20
2.452885055e-20
1.571196257e-20
1.868378242e-20
7.07286282e-22
4.673223403e-21
1.206703422e-20
2.647243632e-20
3.750146428e-20
4.716997794e-22
2.379929207e-20
5.064078028e-21
2.230307914e-20
5.364487869e-21
7.303228027e-22
1.580784306e-21
4.012370772e-21
2.417548376e-21
4.901190304e-21
9.260040279e-21
5.782315496e-21
4.022259148e-21
4.582024755e-22
8.601523483e-21
3.200123617e-21
6.543994507e-21
2.950747516e-21
3.308108865e-22
9.535929565e-21
1.538472869e-21
5.980372259e-22
8.609055968e-22
7.580407569e-21
3.538799891e-21
2.511077006e-20
2.039173468e-22
6.165684944e-21
6.140737256e-21
1.028734278e-20
1.043398302e-20
5.45051739e-22
1.3495321e-20
1.129253735e-20
1.073563375e-21
1.018210146e-20
3.919986921e-21
1.478530571e-20
1.395137476e-21
8.344128272e-21
9.52147676e-21
1.941199053e-20
6.046488854e-20
1.077937984e-20
1.499747447e-20
4.123068006e-21
1.003106092e-21
3.643789768e-20
2.031696547e-21
1.472169198e-20
6.33699352e-21
4.310750294e-21
2.188763949e-21
1.121672544e-20
3.121682069e-21
9.514544048e-21
1.059347073e-20
7.413751251e-21
2.846919874e-20
5.514261697e-21
5.62659567e-21
1.036433985e-20
2.755425063e-21
2.534613404e-22
2.183040969e-20
1.761971764e-21
1.21101844e-20
2.696868234e-20
8.009162952e-21
4.337604261e-22
4.89762439e-21
3.557294017e-20
6.67400423e-22
4.962469147e-22
5.536706624e-21
9.036727237e-21
3.434452668e-22
4.503112046e-21
1.262716828e-21
7.233047213e-21
2.814039922e-21
1.546860253e-20
2.322238665e-21
1.260555332e-21
5.359403388e-21
4.381332281e-22
4.763509114e-21
3.379987315e-21
9.320760618e-21
2.231156561e-21
5.58648988e-21
9.672789372e-22
9.604214459e-21
1.077911194e-21
8.220503949e-21
1.169595243e-22
4.108256895e-21
2.029545027e-22
3.820088758e-21
8.584864536e-21
5.260108411e-21
3.185417434e-21
9.338729698e-22
1.03388312e-21
5.70734588e-21
2.943056684e-21
2.076790209e-22
1.983862333e-21
7.729747121e-21
2.627502622e-22
4.807949268e-21
6.434125767e-21
6.828363744e-22
4.15501574e-21
1.60317325e-22
1.109752468e-20
9.734406181e-21
1.248851933e-20
1.012873896e-20
3.505181049e-21
2.360008796e-21
6.720026135e-21
5.707761388e-21
2.006905788e-21
1.863151517e-21
2.852606023e-21
1.043784299e-20
1.113688167e-21
2.559275448e-20
4.768910521e-20
4.246530454e-21
3.234837213e-21
4.090091701e-22
1.175622853e-20
7.518470121e-21
6.491964493e-21
5.902782934e-21
7.377066923e-21
4.287233001e-21
1.012032745e-20
7.672565252e-21
5.661313862e-22
1.933533556e-20
5.015041294e-21
2.593252473e-20
4.285709079e-21
3.781237103e-21
3.611838019e-22
2.247341446e-21
1.638537241e-20
3.16000186e-21
2.064328339e-21
1.023500535e-21
6.449317687e-21
2.084055354e-22
2.27994713e-21
1.037022419e-20
6.725529406e-21
2.786045605e-21
1.416172705e-21
8.974388689e-21
1.206102185e-21
9.120480639e-21
6.01236435e-21
1.228981814e-20
1.499915075e-20
2.761609167e-22
7.468196121e-21
3.450860848e-21
9.896996531e-22
2.011480886e-22
1.128750147e-21
5.875904649e-21
2.086546776e-22
2.74616102e-21
2.767125301e-21
2.570896327e-21
4.364192396e-21
7.324754269e-22
4.190806091e-21
6.401009114e-21
6.255642076e-21
7.026148266e-21
1.399865034e-20
2.543310852e-21
7.18672118e-21
1.609318895e-21
2.208275697e-23
3.616162531e-21
2.863812281e-21
1.196338792e-21
1.016170004e-20
8.267967528e-21
3.931026803e-22
1.350541805e-21
6.554079297e-21
2.903875679e-21
1.016226642e-22
1.150398635e-21
1.437723364e-21
4.610485105e-21
8.460286427e-22
2.467243453e-21
1.00211312e-21
2.949403016e-21
1.592006476e-21
4.364950771e-21
1.269445097e-20
3.152262374e-21
4.343362157e-21
7.558335579e-22
4.603446779e-21
3.472320717e-20
1.785877445e-22
7.258648761e-22
4.788963466e-22
1.117821154e-20
3.081053863e-20
1.978645e-21
9.752253363e-21
8.967462773e-22
6.555545571e-21
3.440159301e-22
3.30783541e-21
2.234488419e-22
5.815815779e-22
1.775461991e-21
4.264293229e-21
4.460740925e-21
1.214140991e-21
4.417746344e-22
5.615242575e-21
6.835951759e-23
3.397257642e-21
3.581583256e-22
6.236348998e-21
1.344337173e-23
7.968303906e-21
1.63861166e-21
2.23867925e-21
1.836500206e-21
1.023457688e-21
9.011138568e-21
8.049268069e-21
1.380671599e-20
4.815944216e-21
3.142223924e-21
1.175237798e-20
3.181880779e-21
4.162390817e-21
3.543407929e-21
1.308148977e-21
4.925331565e-23
4.702732916e-21
9.193367893e-21
1.369442379e-21
9.758867362e-21
3.442364312e-20
4.091918934e-21
4.838336395e-21
7.354892376e-22
1.546672229e-23
1.899036293e-20
1.554978791e-21
7.344070883e-21
5.111073551e-21
2.643870924e-20
1.48998677e-21
2.162467322e-21
3.190992305e-22
4.538023507e-21
4.281488066e-21
2.006942049e-20
1.338407071e-20
1.613870588e-20
1.014788296e-20
4.194900187e-21
9.781339912e-21
2.433914015e-21
1.949249557e-20
8.193439541e-21
5.886188812e-22
1.374818965e-21
2.108698456e-20
1.357565926e-21
1.539101232e-22
3.028574133e-21
4.182665781e-22
7.869538837e-21
4.277933259e-21
5.820938947e-23
3.825108859e-21
4.050840555e-21
3.870812252e-21
4.98408762e-21
1.002038411e-21
4.933618657e-22
2.594449868e-21
7.047669049e-21
6.663511879e-21
8.318391889e-21
1.307317735e-21
3.534920516e-21
1.97888363e-20
5.729595821e-22
4.44334816e-23
3.590798879e-22
5.140693879e-22
4.009419315e-22
2.26042267e-21
2.123084015e-21
1.52419952e-22
2.11300425e-22
9.025605392e-22
7.871182687e-21
1.698848374e-21
1.677981309e-21
2.102674165e-21
2.671461506e-21
9.718155262e-22
1.620802169e-20
7.759654957e-21
2.818689263e-21
6.12348732e-21
7.507533455e-21
3.197235057e-21
1.307265031e-21
3.506963732e-21
6.379952634e-22
6.92764263e-21
7.162675975e-22
1.065637108e-20
1.105702285e-21
5.50251033e-21
4.426603315e-21
2.911329664e-22
2.485989677e-21
2.995341195e-21
2.939517836e-21
2.491027274e-21
1.1029511e-20
1.069873444e-21
1.165635583e-20
2.679641066e-20
4.55932887e-22
5.263018646e-21
5.096245327e-22
5.035676796e-21
4.462703932e-24
5.197899438e-21
4.867279503e-23
1.907268007e-20
1.155620128e-21
4.367104477e-21
1.424238806e-20
2.619669262e-22
3.412136751e-21
1.866587713e-22
7.21447665e-22
1.830705311e-21
5.564389388e-21
2.006043138e-22
1.377949174e-21
1.044370248e-21
1.290165473e-21
2.364522485e-21
4.827963412e-22
2.376039914e-21
8.575097209e-22
2.56249442e-21
6.119808398e-21
6.015110022e-21
6.090671202e-22
2.341275237e-21
1.647898322e-22
7.691784254e-21
4.280774076e-21
3.390628705e-22
3.295095039e-21
1.130179273e-20
2.663548909e-21
4.553454565e-22
5.08405518e-21
2.258071269e-21
2.559239236e-21
3.404038394e-21
2.178264686e-21
2.586573697e-21
4.276583738e-21
4.781262429e-21
8.815744535e-22
4.451894316e-21
1.382235405e-21
1.021747938e-20
7.518194389e-21
1.307959367e-20
8.350323997e-21
6.676618954e-21
5.054929916e-22
2.264647056e-21
6.717160332e-21
1.29866442e-20
1.735761861e-20
4.581349904e-21
1.859572128e-21
1.074108295e-21
1.27857351e-20
9.090535293e-22
1.635045874e-20
1.20717256e-20
5.950823582e-22
3.672088731e-21
4.348849654e-20
1.60944445e-20
2.646161601e-21
8.768342382e-21
2.387586006e-21
2.391708096e-21
2.19081294e-20
1.096650331e-20
7.38330234e-21
1.52536754e-22
7.432259926e-21
6.419079899e-21
2.510911419e-21
2.729653021e-21
4.276579444e-21
1.805456815e-21
2.006018063e-22
6.646468566e-21
2.396826016e-21
2.186948065e-21
6.00973752e-21
9.103144931e-21
4.605856439e-21
1.454523837e-20
2.380015995e-21
1.063836192e-20
2.06010324e-21
2.754893218e-21
9.232338289e-21
5.377907055e-22
2.338928834e-21
5.528652567e-21
5.000892367e-23
9.423666269e-22
3.078610177e-21
5.237566416e-21
3.771056739e-21
3.029918259e-22
3.999020626e-21
8.28573167e-21
1.24665753e-20
1.061423711e-20
4.514486391e-21
2.970788642e-21
2.101565265e-21
1.186856345e-21
5.374317687e-21
1.892917663e-21
3.844687426e-21
1.25469627e-21
3.984821589e-22
1.951292341e-21
1.306904279e-20
4.389826295e-21
4.917070648e-21
5.212562438e-22
2.977410644e-22
6.78889813e-22
2.063578538e-21
1.051816533e-21
2.663841635e-21
5.027304862e-22
5.466755856e-21
2.092581667e-22
3.789195202e-21
1.954098767e-21
1.095520426e-22
6.599379652e-22
2.104389317e-21
6.834904374e-22
1.31319956e-21
1.074972597e-20
1.12028152e-20
1.231028796e-20
8.584207239e-21
7.314310453e-21
2.513391189e-21
3.656088239e-21
3.506280092e-21
3.88874248e-21
2.907555594e-21
3.028091108e-21
1.901974858e-21
4.720432322e-21
2.563066556e-21
8.017861237e-22
1.476459612e-21
1.129095399e-21
8.753032231e-21
2.324569485e-21
1.522897768e-20
2.561602349e-20
9.921857467e-22
9.046485339e-21
3.748106581e-20
3.662534747e-21
6.614344276e-22
3.714291626e-21
1.849483808e-20
6.147041217e-21
8.239762679e-21
8.614528504e-21
6.182994194e-22
9.995191088e-22
3.134891973e-21
1.009881259e-21
8.968479921e-21
1.000296914e-23
1.295972918e-21
3.785003997e-21
4.15664078e-22
6.161922413e-21
5.533759331e-21
5.383117974e-23
3.455011714e-21
4.915212183e-21
7.0227136e-21
2.488744685e-21
2.653110269e-21
4.93580354e-21
2.310053257e-22
2.627161526e-22
9.494819499e-21
6.566831964e-21
1.269219086e-20
1.350419762e-21
5.210558978e-21
8.796054072e-21
3.485011446e-21
2.516830171e-21
2.520761317e-21
4.899689601e-21
5.371787315e-21
9.645219757e-21
3.143263798e-21
9.394264754e-21
8.911368363e-23
2.142964012e-21
8.245721411e-21
6.343615867e-22
1.336913746e-21
2.37626508e-21
1.375949319e-21
5.892124421e-22
8.131945154e-22
2.814637247e-21
4.558510604e-21
7.018015975e-21
2.394669451e-21
1.527340173e-22
2.490699982e-21
1.786986169e-20
6.989151703e-21
1.430498513e-21
2.286000607e-21
1.763206734e-20
1.513205397e-20
5.555773795e-21
5.22874243e-21
1.556243197e-21
8.5967335e-22
2.61619351e-21
2.085357632e-21
6.327589444e-23
6.084880302e-21
3.116850434e-22
5.004008311e-21
1.310030955e-21
1.18642087e-20
2.337242317e-20
2.197126582e-22
1.11041177e-20
1.071885422e-20
5.528578491e-21
6.601320803e-21
5.445788302e-21
1.814136239e-21
1.897296296e-21
1.136800368e-20
9.729207547e-21
1.224205403e-21
1.944473051e-21
2.144477302e-20
1.253797306e-21
2.740908736e-21
2.113810259e-21
2.783192276e-21
8.301669176e-21
1.300109415e-20
4.258800169e-21
4.622752987e-21
4.591019981e-21
9.75792437e-22
3.34693255e-21
5.562053595e-23
8.843129796e-21
5.84952851e-21
1.544531924e-21
6.713245569e-21
2.191719254e-21
2.826725585e-21
6.658534381e-22
2.317274176e-22
2.733246996e-22
9.812841134e-22
6.651917336e-21
2.706526447e-21
5.52235252e-21
4.092651987e-21
7.776775711e-22
9.979864362e-21
4.922442668e-21
1.068123399e-21
4.224026052e-22
1.564695184e-20
7.999856225e-21
1.364606816e-21
9.719433556e-22
2.775720869e-21
2.129113461e-23
2.571871254e-21
7.579498736e-21
2.206502795e-21
3.283769881e-21
7.888665973e-21
5.590932237e-22
1.336758746e-20
4.986191231e-22
1.994436531e-21
1.451996187e-21
2.086052618e-21
6.193967698e-22
2.867207185e-22
6.963524111e-22
2.787388683e-21
3.712987348e-21
1.045373179e-21
1.079212706e-21
1.649280576e-21
2.517290642e-20
9.069197317e-21
1.322546832e-21
2.261492367e-22
1.778807116e-21
7.445762951e-22
1.58733944e-21
6.657579595e-21
2.47938446e-22
1.826066255e-20
5.871211433e-21
4.829476942e-21
1.262460805e-21
2.430602413e-21
7.605740646e-22
2.467492963e-21
8.400538792e-22
4.010636847e-21
4.081598327e-21
1.416168932e-21
1.487769116e-21
5.547207478e-21
9.826058236e-21
1.258766074e-20
2.270172997e-21
1.767459184e-21
2.082798343e-21
3.957460086e-21
1.422121466e-20
3.408750719e-21
5.605705053e-21
1.548539868e-21
1.655169674e-20
8.793592412e-22
4.482553826e-21
2.638448126e-21
1.499353457e-20
5.535948668e-21
4.697780663e-22
5.058248835e-23
7.078772258e-22
1.303636831e-20
2.565045431e-22
7.095097075e-22
7.684264807e-22
1.338335736e-20
1.214238228e-21
9.705410978e-22
4.023615011e-21
1.596164509e-21
6.894804701e-21
2.251879615e-21
7.956570351e-21
6.419044293e-21
5.872506413e-21
3.56108382e-20
1.184148666e-20
1.77220734e-21
6.578073685e-22
6.371783206e-21
3.616169071e-21
7.812619634e-21
7.350320229e-22
7.846169974e-21
1.085554049e-21
7.458915945e-21
2.692969023e-21
2.912206657e-21
7.21222973e-22
2.406365533e-21
6.818742834e-22
1.240565239e-22
2.239666895e-21
1.580077414e-21
1.171000869e-20
1.353444076e-21
9.279400049e-21
4.718766695e-22
5.771583714e-21
1.72439733e-22
3.984764288e-21
1.060872732e-21
4.169916732e-22
2.654321031e-21
2.588942644e-21
2.240937266e-21
2.239254361e-20
1.76843421e-21
1.11545261e-21
1.615417494e-22
3.404946341e-21
3.610850095e-21
5.285049651e-20
1.343406906e-21
1.78859975e-21
3.006364793e-21
2.149585217e-21
4.791237087e-21
1.633935881e-20
2.187380518e-21
4.836863457e-21
3.925026606e-21
3.118287938e-21
5.959010615e-22
1.533183801e-21
2.382508193e-21
7.504109137e-22
9.025906663e-22
1.702148959e-21
7.749031817e-21
2.053379516e-20
1.125326428e-20
2.076987843e-21
1.006824786e-21
6.603676923e-22
3.403254675e-21
3.68608421e-21
1.721334099e-21
6.517180739e-21
9.950240299e-23
2.982822698e-21
2.619913846e-21
5.61085025e-21
7.569042814e-22
2.773656076e-22
7.111091379e-22
3.430425621e-21
3.985234726e-21
2.15267993e-21
8.903814095e-22
1.611466829e-21
2.720659564e-20
1.986898458e-21
1.252342286e-20
1.969493848e-21
5.913481532e-21
5.075132162e-22
1.862485112e-21
6.075064853e-22
8.901301366e-21
1.405842414e-21
5.632662333e-21
2.160351143e-21
3.181007735e-21
6.695188777e-21
1.071870199e-21
2.494249523e-21
2.083906607e-21
6.402723609e-21
1.130245225e-20
3.575342421e-22
4.564484656e-22
6.326669237e-21
1.178527028e-21
1.077755071e-20
2.152668299e-20
6.80409461e-22
1.926177797e-21
1.284691978e-20
2.865797539e-21
5.620758605e-21
5.137416839e-23
1.452672626e-20
2.312135714e-21
9.641997234e-22
9.578524979e-21
8.807617948e-22
1.128587223e-21
2.689017404e-21
2.009985337e-21
1.666593888e-21
6.474947643e-21
6.180694204e-21
2.32710373e-21
2.377192602e-21
3.131279423e-21
2.91381509e-21
3.953261671e-22
2.553148354e-21
2.577248488e-21
5.227396197e-21
1.11096162e-20
6.34725598e-22
6.743963732e-21
4.692424246e-22
8.532784064e-21
9.71661901e-22
1.147794195e-21
6.841934136e-21
7.475842256e-22
3.834528046e-21
1.202328854e-20
1.0113752e-21
1.236338065e-20
2.169309323e-20
6.966501354e-21
4.578411304e-21
5.057774573e-21
3.380166966e-21
3.000635988e-21
4.784928977e-23
5.268368107e-21
9.642838309e-23
3.651811212e-21
7.682292479e-22
6.38802446e-21
1.02515426e-20
1.4092742e-21
5.802465748e-21
3.727177486e-21
4.687064745e-21
8.912763653e-21
4.903662869e-21
3.755581753e-21
5.402647376e-23
4.420358432e-21
2.367816868e-21
3.48868563e-21
1.461784332e-20
1.292571543e-20
5.458665454e-20
1.667709372e-20
4.813313883e-21
2.160604202e-21
5.104749229e-21
6.937469261e-21
7.386961196e-21
5.018974798e-22
5.587022494e-21
2.274474393e-21
4.998008275e-22
8.30163799e-21
7.568522837e-23
5.425374366e-22
9.799199073e-21
1.598281706e-20
1.747885633e-21
3.457203706e-21
9.523844225e-22
5.501554701e-22
1.30639532e-21
8.330965464e-21
2.512307054e-22
7.539930336e-21
2.38995316e-20
3.369191544e-21
9.456552416e-21
9.759333907e-24
7.046093986e-21
7.714247861e-21
2.646722935e-21
1.782760061e-22
1.621647131e-22
3.499974018e-22
1.219762754e-20
1.638542706e-21
6.495066335e-21
8.709502199e-21
5.332101552e-21
4.146871441e-22
5.803450034e-21
4.590924356e-22
3.348298997e-21
2.920483776e-21
6.429542936e-21
7.447333974e-22
8.539269996e-21
3.804316034e-21
9.164215745e-21
1.795774094e-21
2.657463446e-21
8.589304618e-21
5.869112956e-21
9.340442593e-21
4.310169016e-22
1.924678067e-21
9.453462797e-22
3.36680056e-21
3.166119381e-20
1.460073524e-21
1.764828494e-21
6.937918124e-21
3.220348943e-21
8.132957988e-22
7.371365846e-21
8.571942995e-21
5.725434003e-21
7.164979436e-21
4.520401356e-21
7.303902428e-21
8.563254204e-22
9.928450417e-22
1.800537757e-21
1.704667494e-21
1.420367851e-21
9.899431782e-22
4.578614633e-21
5.63847511e-21
3.377296313e-21
1.068865607e-22
5.04991995e-21
1.478995447e-21
3.494927954e-21
7.114327418e-21
7.455795093e-22
7.015704838e-21
2.131628081e-21
2.756346886e-21
5.412450903e-22
3.293206703e-21
8.405703688e-21
1.216957768e-20
4.375268295e-21
2.48320062e-21
2.867896449e-21
4.403252991e-22
2.465955149e-20
6.936840833e-21
1.214310505e-21
1.153800901e-23
4.449142312e-22
1.023010041e-20
4.070762745e-22
1.390460786e-20
8.483917262e-21
4.46205292e-22
1.207174445e-21
4.621978524e-21
1.079840199e-20
3.376955975e-21
6.89379473e-21
1.954649522e-21
5.219248081e-21
4.087136321e-22
6.121839332e-21
6.626731366e-22
1.720763587e-20
2.493922001e-21
7.555511208e-21
7.958078091e-21
4.112534155e-22
1.215535171e-20
6.94063296e-22
4.496458106e-21
8.046249329e-21
3.745423541e-22
3.570508085e-21
1.839335021e-20
8.27330227e-21
2.929330196e-21
1.82551376e-20
3.537711004e-21
1.488283264e-21