/*--------------------------------*- C++ -*----------------------------------*\
| =========                 |                                                 |
| \\      /  F ield         | OpenFOAM: The Open Source CFD Toolbox           |
|  \\    /   O peration     | Version:  2406                                  |
|   \\  /    A nd           | Website:  www.openfoam.com                      |
|    \\/     M anipulation  |                                                 |
\*---------------------------------------------------------------------------*/
FoamFile
{
    version     2.0;
    format      ascii;
    arch        "LSB;label=32;scalar=64";
    class       Cloud<dsmcParcel>;
    location    "0.005/lagrangian/dsmc";
    object      positions;
}
// * * * * * * * * * * * * * * * * * * * * * * * * * * * * * * * * * * * * * //

6852
(
(0.07587619058 0.03540177027 -2.168404345e-19) 469
(0.05434097986 0.0834322353 2.168404345e-19) 537
(0.0710445049 0.03756307862 1.084202172e-19) 469
(0.04830952197 0.04711760988 3.252606517e-19) 486
(0.03868392906 0.03297943958 -2.439454888e-19) 475
(0.07614961116 0.0222414163 -2.168404345e-19) 449
(0.06457661098 0.0180711434 0) 448
(0.06222854846 0.05498098014 0) 498
(0.05597057076 0.027720093 0) 457
(0.07612313868 0.05719643395 -4.33680869e-19) 499
(0.07545439309 0.02796315292 0) 459
(0.05599001398 0.03857580546 0) 477
(0.06662372841 0.02666107677 0) 458
(0.06248615792 0.107572278 2.303929617e-19) 568
(0.04354262846 0.05029964563 1.084202172e-19) 495
(0.06247811493 0.03670113947 1.219727444e-19) 468
(0.06002295881 0.03965449588 5.421010862e-19) 477
(0.02169626177 0.009153556829 5.421010862e-20) 442
(0.04271781496 0.01544286213 2.168404345e-19) 445
(0.05315347869 0.09821350085 0) 556
(0.01806735621 0.04164989131 -2.168404345e-19) 482
(0.06560374272 0.03214604801 -2.168404345e-19) 468
(0.06443561225 0.04204728854 -3.04931861e-20) 478
(0.06634202492 0.05945620212 0) 498
(0.06066362624 0.02741356359 0) 457
(0.05319039029 0.05188685187 -2.168404345e-19) 496
(0.05213247683 0.03268463156 2.168404345e-19) 466
(0.068751341 0.03069912519 2.168404345e-19) 459
(0.07246564493 0.06927273704 2.168404345e-19) 519
(0.05795430281 0.0311053694 -2.168404345e-19) 467
(0.06152924448 0.05804901833 4.33680869e-19) 498
(0.07217031115 0.02266229149 5.590417452e-20) 449
(0.05842214745 0.02590723865 2.710505431e-20) 457
(0.002038199144 0.01892763585 3.252606517e-19) 460
(0.06466543307 0.03925160449 1.423015351e-19) 478
(0.06542197022 0.04893343495 -3.794707604e-19) 488
(0.07157091248 0.04693313783 0) 479
(0.06152866776 0.0512789166 2.168404345e-19) 488
(0.06471836058 0.05059285335 0) 488
(0.06688223523 0.02716359999 0) 458
(0.05883337366 0.05066711109 2.168404345e-19) 487
(0.03722388975 0.01064126566 2.168404345e-19) 444
(0.07533947817 0.05873652217 2.168404345e-19) 499
(0.03512102152 0.01196164106 -1.084202172e-19) 444
(0.05508857846 0.04185117124 -1.76182853e-19) 477
(0.05138627721 0.03524379194 0) 476
(0.06529028023 0.02930761249 -1.626303259e-19) 458
(0.06852002419 0.04548693765 -4.33680869e-19) 478
(0.06640204537 0.02192622431 0) 448
(0.03880759458 0.08834226293 -2.168404345e-19) 545
(0.05318034714 0.02822479556 4.33680869e-19) 456
(0.0319782916 0.0237439665 0) 464
(0.06784546061 0.02213239673 2.168404345e-19) 448
(0.06440888265 0.03824272402 -2.168404345e-19) 468
(0.06665846189 0.03237899498 4.33680869e-19) 468
(0.0434732455 0.01793925396 -4.33680869e-19) 445
(0.0756136344 0.02387075525 0) 449
(0.05647851997 0.02903209804 0) 457
(0.0647372373 0.04673826769 -4.404571326e-20) 488
(0.05230649614 0.02600939374 -2.168404345e-19) 456
(0.04049290711 0.0185015457 3.252606517e-19) 455
(0.01965607277 0.01367167341 0) 452
(0.07405253234 0.02134906045 -4.33680869e-19) 449
(0.06483784845 0.05965378638 3.591419696e-19) 498
(0.06566054806 0.03730185104 0) 468
(0.06064304901 0.01673984909 0) 447
(0.06977234361 0.03755930425 1.084202172e-19) 469
(0.03912538796 0.03552004859 0) 475
(0.0488380984 0.03278584868 6.505213035e-19) 466
(0.0692985808 0.03241294532 2.168404345e-19) 459
(0.05346344945 0.048181488 0) 487
(0.02893254547 0.04812397245 -2.168404345e-19) 493
(0.05853187078 0.04217655464 -1.084202172e-19) 477
(0.05576926205 0.04153119818 2.439454888e-19) 477
(0.04777776754 0.02502213299 -1.084202172e-19) 456
(0.06911460898 0.02656517748 2.710505431e-19) 459
(0.02802901388 0.02031037572 -4.33680869e-19) 453
(0.06049615247 0.02970452493 -4.33680869e-19) 457
(0.0499800816 0.02731289306 2.168404345e-19) 456
(0.06215514368 0.01784144496 -3.388131789e-20) 448
(0.06746251873 0.04981685021 4.33680869e-19) 488
(0.05591721266 0.02237372672 2.168404345e-19) 457
(0.05198799015 0.05839266465 -2.168404345e-19) 506
(0.05999073549 0.03113976083 4.33680869e-19) 467
(0.0648656938 0.1163261046 0) 588
(0.03383917044 0.07460131663 2.168404345e-19) 534
(0.04924211271 0.05243667604 -1.151964808e-19) 496
(0.06261345978 0.03758119477 6.505213035e-19) 468
(0.06197367284 0.01881208063 1.084202172e-19) 448
(0.05401549141 0.01742019251 4.33680869e-19) 447
(0.0637511596 0.0474675448 -1.084202172e-19) 488
(0.0663780628 0.0292392866 1.084202172e-19) 458
(0.05320877227 0.03142076974 -1.626303259e-19) 466
(0.07167876233 0.06917316412 3.252606517e-19) 519
(0.05088449842 0.03470369894 -2.168404345e-19) 466
(0.07181219089 0.02037468171 -1.084202172e-19) 449
(0.04555286143 0.02984532109 -2.710505431e-20) 465
(0.05633778185 0.01766962131 -1.084202172e-19) 447
(0.05377385204 0.01651740663 0) 447
(0.06012227012 0.02945637018 -2.168404345e-19) 457
(0.05561103512 0.02377612554 -1.084202172e-19) 457
(0.04703610151 0.01806353234 0) 446
(0.05878449076 0.03547078546 1.084202172e-19) 467
(0.03951050494 0.03888630054 -1.084202172e-19) 475
(0.06859748324 0.05661091458 -2.168404345e-19) 499
(0.04521491562 0.01722795918 2.168404345e-19) 445
(0.05400078702 0.04050463352 -1.084202172e-19) 477
(0.03206498367 0.01425131446 0) 444
(0.06327679591 0.05693905604 0) 498
(0.05758461972 0.04835673221 -2.439454888e-19) 487
(0.0565691004 0.02499743222 -5.421010862e-20) 457
(0.04458005755 0.03225706081 -2.168404345e-19) 465
(0.04427656866 0.01863688874 2.168404345e-19) 445
(0.07164120424 0.0192311619 -1.084202172e-19) 449
(0.07304790457 0.02203993411 -1.084202172e-19) 449
(0.06461652704 0.0356089137 -1.626303259e-19) 468
(0.07085533972 0.01982397799 -3.252606517e-19) 449
(0.02107816838 0.03740775891 -1.084202172e-19) 482
(0.0722934762 0.02797901985 1.829591166e-19) 459
(0.04343319577 0.01863434017 2.168404345e-19) 445
(0.07131614241 0.05902522862 5.421010862e-20) 499
(0.04119080225 0.01122331177 -5.421010862e-20) 445
(0.06837158044 0.03573474979 3.252606517e-19) 468
(0.05398832012 0.01644717816 5.421010862e-19) 447
(0.04442242483 0.04018803652 0) 475
(0.0419493689 0.01242446469 0) 445
(0.07231396617 0.02942002791 -4.065758147e-19) 459
(0.03699439271 0.01291712816 5.421010862e-20) 444
(0.07169750676 0.04646164345 0) 479
(0.05363906753 0.02992448775 2.168404345e-19) 467
(0.02314646014 0.03872283396 0) 483
(0.0387367835 0.07784410627 0) 535
(0.05695254791 0.1176429404 -1.219727444e-19) 587
(0.06349660059 0.03917432248 -4.33680869e-19) 478
(0.05123426985 0.03267940525 0) 466
(0.05230739652 0.03452847847 -2.168404345e-19) 466
(0.06094698365 0.02383867226 -2.168404345e-19) 457
(0.04123323455 0.01568654955 1.897353802e-19) 445
(0.05496617055 0.04914560925 -2.168404345e-19) 487
(0.07435064335 0.05396999457 -2.168404345e-19) 489
(0.05828412322 0.02856161458 -4.33680869e-19) 457
(0.04730615425 0.02882307213 -2.710505431e-20) 466
(0.05162466242 0.03184778568 2.168404345e-19) 466
(0.03853752091 0.03585776267 -2.710505431e-19) 475
(0.06809260911 0.02175492937 -5.175371308e-19) 448
(0.05811795584 0.02711933059 0) 457
(0.02412088035 0.01926803688 -2.168404345e-19) 453
(0.0448912231 0.02249432243 1.626303259e-19) 455
(0.0730775891 0.07431238566 -1.626303259e-19) 519
(0.07118070551 0.08468901784 -2.879912021e-20) 539
(0.04700315703 0.01815560153 -2.168404345e-19) 446
(0.03511226699 0.02257873219 -1.626303259e-19) 454
(0.05929530811 0.03489084727 0) 467
(0.04420173325 0.02091652673 2.168404345e-19) 455
(0.06367309076 0.05081048123 1.084202172e-19) 488
(0.06645702023 0.02052318774 1.626303259e-19) 448
(0.07104485649 0.05374508546 0) 489
(0.07231282576 0.03696232296 2.40557357e-19) 469
(0.05227479045 0.03325404996 0) 466
(0.07148018131 0.04052219024 3.252606517e-19) 479
(0.07279399672 0.03817019308 1.084202172e-19) 469
(0.06116154985 0.02276594605 -2.168404345e-19) 448
(0.0760127173 0.05553505855 4.33680869e-19) 499
(0.0488032868 0.06269159973 -2.168404345e-19) 506
(-0.00463728648 0.01572141468 -1.084202172e-19) 59
(0.06033275769 0.04412232213 2.168404345e-19) 477
(0.05118728993 0.02083164704 2.168404345e-19) 446
(0.05496704293 0.02392549747 3.252606517e-19) 457
(0.05774787768 0.0333048697 1.084202172e-19) 467
(0.01346126722 0.04048197352 -2.168404345e-19) 481
(0.06414238317 0.05061680904 2.168404345e-19) 488
(0.07601665281 0.03832948458 0) 469
(0.07066479002 0.1108879754 1.084202172e-19) 579
(0.04276334878 0.02160289686 -5.421010862e-20) 455
(0.05891577947 0.02986803734 -1.084202172e-19) 457
(0.05780616208 0.05082350658 5.421010862e-19) 487
(0.07236817563 0.03568707273 1.185846126e-20) 469
(0.05474286722 0.06801709097 -2.168404345e-19) 517
(0.0549556035 0.05403712235 7.453889936e-20) 497
(0.06993394145 0.03599091918 0) 469
(0.06738179422 0.04054993591 -2.168404345e-19) 478
(0.05879871747 0.1236999256 0) 597
(0.0644751505 0.02029310413 -2.168404345e-19) 448
(0.03914729177 0.02619705008 -5.421010862e-20) 465
(0.06920850779 0.05694265599 -2.168404345e-19) 499
(0.05715168146 0.02109653336 9.592648128e-20) 447
(0.04778210991 0.04055104838 2.168404345e-19) 476
(0.02480964558 0.01801944893 2.168404345e-19) 453
(0.05008180345 0.05016353357 0) 496
(0.0710558641 0.06870768042 0) 519
(0.007263918397 0.02804450841 -4.33680869e-19) 470
(0.06566259434 0.06346246742 2.439454888e-19) 508
(0.06669194209 0.1380932156 -2.168404345e-19) 618
(0.03457740927 0.07234124426 -8.131516294e-20) 524
(0.05873128145 0.02655227329 0) 457
(0.07022526238 0.06763394356 -1.084202172e-19) 509
(0.06800622405 0.02729729093 -3.252606517e-19) 458
(0.07389704066 0.06891295457 0) 519
(0.04144709994 0.02242819665 6.776263578e-21) 455
(0.06648954349 0.04480275237 1.084202172e-19) 478
(0.05431137461 0.05525244652 -3.252606517e-19) 497
(0.0725228649 0.07470212727 -9.486769009e-20) 519
(0.05560741036 0.1641656033 4.33680869e-19) 647
(0.07577897085 0.1345778302 0) 609
(0.04446219163 0.03910022528 -2.168404345e-19) 475
(0.06647972338 0.027163978 1.084202172e-19) 458
(0.06475893095 0.02498571742 1.143494479e-19) 458
(0.0309930367 0.01304135726 -1.084202172e-19) 444
(0.01786529317 0.02034880156 1.084202172e-19) 462
(0.04288245342 0.01436117729 -5.421010862e-20) 445
(0.07176501066 0.05996703095 1.084202172e-19) 499
(0.04391311449 0.01811718003 -2.168404345e-19) 445
(0.04778928516 0.07255023266 2.710505431e-20) 526
(0.06407315272 0.05477115662 -2.168404345e-19) 498
(0.03911868254 0.03819235625 0) 475
(0.06762704871 0.04853792433 -1.084202172e-19) 488
(0.06481122297 0.06795049705 -2.168404345e-19) 518
(0.07537957523 0.06246435805 2.168404345e-19) 509
(0.03247308819 0.04984315256 2.168404345e-19) 494
(0.06770235372 0.1201184041 0) 588
(0.06120655455 0.02422206141 2.168404345e-19) 458
(0.04224984102 0.02311593512 8.131516294e-20) 455
(0.05207436081 0.02480448307 0) 456
(0.02018333765 0.01884876535 0) 452
(0.006834383504 0.002491884811 0) 440
(0.05588469031 0.02467977401 -2.981555974e-19) 457
(0.07184005294 0.05622751484 5.421010862e-20) 499
(0.0489986847 0.01367353102 -2.710505431e-19) 446
(0.07406058144 0.02504224856 2.168404345e-19) 449
(-0.01548937098 0.07743770106 -4.33680869e-19) 217
(0.05668374869 0.05166908542 -1.626303259e-19) 497
(0.05596274039 0.04086414667 0) 477
(0.02250320135 0.02205463109 0) 462
(0.07424566542 0.03479701404 2.168404345e-19) 469
(0.03757164179 0.01904997572 0) 454
(0.06459089461 0.02113896127 1.355252716e-20) 448
(0.06292746474 0.0254139697 0) 458
(0.06217276675 0.113270712 -2.168404345e-19) 578
(0.07075252065 0.02245745502 -3.252606517e-19) 449
(0.0734142787 0.06680880432 -1.084202172e-19) 509
(0.05484345334 0.02461303705 1.084202172e-19) 457
(0.06568768959 0.04909291995 -5.421010862e-20) 488
(0.05837746706 0.05621462585 1.084202172e-19) 497
(0.07165778354 0.104785152 -3.794707604e-19) 569
(0.0745592314 0.1009901222 2.168404345e-19) 559
(0.06772328273 0.06816647714 2.168404345e-19) 518
(0.04265508507 0.01157264468 0) 445
(0.04244333789 0.0437176217 2.57498016e-19) 485
(0.07297071905 0.07970653446 3.794707604e-19) 529
(0.06981434664 0.06930262476 1.626303259e-19) 519
(0.06842186231 0.0383344643 0) 468
(0.04762146011 0.03896167707 0) 476
(0.05454742462 0.01862894375 -1.084202172e-19) 447
(0.04628674764 0.02147727636 -2.168404345e-19) 456
(0.06229307344 0.0889794791 0) 548
(0.07435838062 0.104514975 -2.168404345e-19) 569
(0.0750864408 0.1500129011 -4.33680869e-19) 629
(0.05470093057 0.04713468189 0) 487
(0.07012600437 0.02797131736 -1.626303259e-19) 459
(0.04429629279 0.03159793867 -2.168404345e-19) 465
(0.0502311645 0.06571891667 1.084202172e-19) 516
(0.0680507995 0.02618489163 2.168404345e-19) 458
(0.01864027477 0.01521949488 -8.131516294e-20) 452
(0.0453145576 0.05573056793 0) 505
(0.06244754107 0.06404453026 1.084202172e-19) 508
(0.04740661871 0.03808268502 0) 476
(0.06885860226 0.03680797422 -5.421010862e-20) 469
(0.01187545378 0.08222734412 0) 541
(0.04261959862 0.06635758616 -5.421010862e-20) 515
(0.07317301144 0.1096240816 -1.084202172e-19) 569
(0.07582143167 0.08224680297 0) 529
(0.06932016843 0.03593754883 -2.168404345e-19) 469
(0.0612240364 0.1156633611 -4.33680869e-19) 588
(0.05051624879 0.05913215286 1.084202172e-19) 506
(0.06508203658 0.1531182679 0) 638
(0.07200300109 0.1308662963 4.33680869e-19) 599
(0.05294144517 0.02477539112 2.168404345e-19) 456
(0.0496737444 0.03202144529 -1.355252716e-20) 466
(0.06706062051 0.03871655998 4.33680869e-19) 468
(0.06297533187 0.02869163782 0) 458
(0.0466582678 0.01590356375 2.168404345e-19) 446
(0.06985286231 0.02649790994 0) 459
(0.07162778941 0.02038830237 -3.794707604e-19) 449
(0.04826593063 0.01480410087 2.168404345e-19) 446
(0.06934610165 0.02860244712 -2.168404345e-19) 459
(0.07070981515 0.07697986617 1.084202172e-19) 529
(0.02769349425 0.03528485701 0) 473
(0.05091743307 0.09048931323 0) 546
(0.06469740685 0.05279692222 -4.133520783e-19) 498
(0.0589250063 0.05960361031 0) 507
(0.07401947614 0.0282678722 -2.168404345e-19) 459
(0.03952390186 0.02288811797 -1.084202172e-19) 455
(0.06730914232 0.05260287422 0) 488
(0.04647957493 0.01540777119 2.168404345e-19) 446
(0.04158673677 0.03066571951 0) 465
(0.04463677704 0.03864719066 0) 475
(0.0730905245 0.03448369474 0) 469
(0.05211128959 0.05799867365 -2.168404345e-19) 506
(-0.01689304618 0.01393449732 2.168404345e-19) 37
(0.05009084197 0.01793589447 5.421010862e-20) 446
(-0.03044222473 0.02667818434 1.355252716e-19) 76
(0.05235662439 0.01998516531 0) 446
(0.04773381631 0.02996384162 1.084202172e-19) 466
(0.07570915223 0.02077002892 -2.168404345e-19) 449
(0.05979544597 0.02222477931 0) 447
(0.06584329629 0.02335681786 0) 448
(0.05568045793 0.03978382201 2.168404345e-19) 477
(0.07044089123 0.07114065105 3.252606517e-19) 519
(0.07480505755 0.04874798394 -2.168404345e-19) 489
(0.05192981293 0.1462135157 -1.016439537e-20) 626
(0.06500123975 0.03872681805 -4.33680869e-19) 478
(0.06666712527 0.102348097 2.168404345e-19) 558
(0.0435932976 0.1282585192 2.168404345e-19) 605
(0.07553665012 0.05037689003 1.084202172e-19) 489
(0.05206022746 0.01427566812 -2.168404345e-19) 446
(0.07546585734 0.06871535647 2.168404345e-19) 509
(0.03584748788 0.02126446605 0) 454
(0.06179245723 0.05235390572 0) 498
(0.05812064348 0.02229787417 -6.505213035e-19) 447
(0.05323098423 0.0195854827 0) 446
(0.06273444809 0.02451334114 -6.505213035e-19) 458
(0.0691195618 0.02738704795 1.084202172e-19) 459
(0.009125502494 0.005239513462 -1.084202172e-19) 441
(0.04102555674 0.05934791542 -5.421010862e-20) 505
(0.01439477222 0.05913855257 5.963111949e-19) 511
(0.07148253286 0.09547123395 -4.33680869e-19) 549
(0.07591507577 0.02892103008 0) 459
(0.03503388391 0.01976069719 1.084202172e-19) 454
(0.0702066673 0.08655484872 1.084202172e-19) 539
(0.06182044587 0.03198816687 1.084202172e-19) 468
(0.06582485891 0.05854470981 -1.084202172e-19) 498
(0.01629692128 0.01882199425 3.252606517e-19) 452
(0.01722978839 0.09296457285 0) 552
(0.07250428085 0.106431009 0) 569
(0.06137098893 0.1000622849 0) 558
(0.06437543906 0.03141404678 -5.421010862e-20) 468
(0.039994591 0.02658308487 0) 465
(0.04294500308 0.05243076198 -1.084202172e-19) 495
(0.07471915375 0.0428518829 2.168404345e-19) 479
(0.04436894852 0.01481171438 -3.252606517e-19) 445
(0.03603780212 0.01067610496 2.168404345e-19) 444
(0.07008054122 0.09854675897 -1.084202172e-19) 559
(0.06351032466 0.05577474115 1.084202172e-19) 498
(0.03495523123 0.01608457161 1.626303259e-19) 444
(0.06779647621 0.1187731807 3.252606517e-19) 588
(0.07587360873 0.08719516224 0) 539
(0.06578422411 0.09641796094 0) 558
(0.06490460582 0.08527916546 8.131516294e-20) 538
(0.04708943905 0.1521065169 2.168404345e-19) 636
(0.06853788233 0.1254326075 0) 598
(0.04551603793 0.1007864262 0) 565
(0.07132924181 0.125241886 -4.33680869e-19) 599
(0.06891007875 0.02244012072 -2.168404345e-19) 449
(0.04868504419 0.03562615844 -1.626303259e-19) 476
(0.0545524813 0.04542301415 -4.33680869e-19) 487
(0.07410909715 0.02609671098 -1.084202172e-19) 449
(0.01818668347 0.02784304974 3.252606517e-19) 472
(0.0408352124 0.04044109472 -1.084202172e-19) 485
(0.06764303872 0.04662313938 -2.168404345e-19) 488
(0.04740079522 0.01435296303 8.131516294e-20) 446
(0.0650382623 0.05970711511 5.421010862e-19) 498
(0.06978809822 0.05105142922 3.794707604e-19) 489
(0.05413514812 0.02711247746 4.33680869e-19) 457
(0.05138274554 0.05479006823 0) 496
(0.02115777077 0.01023386701 0) 442
(0.001963906586 0.1075901935 8.131516294e-20) 580
(0.05435957936 0.02570487476 -5.421010862e-20) 457
(0.05633590942 0.02584416064 1.355252716e-20) 457
(0.06251240808 0.0617744636 0) 508
(0.06872979231 0.08034876544 -4.33680869e-19) 529
(0.06638784413 0.09998941545 0) 558
(0.05355072073 0.07621413903 -1.084202172e-19) 527
(0.05137661655 0.08829390223 -1.626303259e-19) 546
(0.0563665253 0.1144471828 0) 577
(0.06162849787 0.1538006646 2.168404345e-19) 638
(0.0723837337 0.0916164111 4.091169135e-19) 549
(0.07471319923 0.1139533892 -4.33680869e-19) 579
(0.06742999123 0.0904570027 -1.084202172e-19) 548
(0.05313715083 0.1370425655 -2.168404345e-19) 616
(0.06992294696 0.1529082728 2.168404345e-19) 639
(0.06206521631 0.1313995408 -2.710505431e-19) 608
(0.02801467573 0.04264353468 -1.084202172e-19) 483
(0.04144521265 0.08697932575 1.863472484e-19) 545
(0.04138728452 0.01313146309 -5.421010862e-20) 445
(-0.02072452864 0.08228308875 -4.33680869e-19) 217
(0.02332915463 0.03352460004 0) 473
(0.05690965434 0.01988171223 -3.252606517e-19) 447
(0.02910417325 0.01185779092 0) 443
(0.03416855599 0.01402582376 0) 444
(0.03066279486 0.02736482446 2.168404345e-19) 464
(0.0745741223 0.04899351114 0) 489
(0.07274088958 0.04724712093 0) 479
(0.03473913002 0.03589485018 5.421010862e-20) 474
(0.06123140541 0.09724910055 0) 558
(0.04578524021 0.01592084257 1.219727444e-19) 446
(0.06595044092 0.04857058362 0) 488
(0.05895517148 0.01821656256 -1.084202172e-19) 447
(0.04506968839 0.03548421944 -4.33680869e-19) 475
(0.001274828625 0.006972748045 -1.355252716e-19) 440
(0.05550515971 0.05331122462 -2.168404345e-19) 497
(0.07085097211 0.04120800365 2.168404345e-19) 479
(0.02864233732 0.01402885293 2.168404345e-19) 443
(0.07084535491 0.05471359168 -2.168404345e-19) 499
(0.0495898908 0.02762673041 0) 466
(0.06623425263 0.06415485129 2.168404345e-19) 508
(0.05154907796 0.04564121932 2.710505431e-19) 486
(0.07221927902 0.04790528523 3.794707604e-19) 489
(0.0721874866 0.07489568866 -4.33680869e-19) 519
(0.05237152274 0.07437647589 0) 526
(0.06886868595 0.0699915744 4.33680869e-19) 519
(0.07053406543 0.1038325706 0) 569
(0.02643468585 0.03854512975 2.439454888e-19) 483
(0.04847039868 0.0956526826 2.168404345e-19) 556
(0.0690254159 0.1005967941 2.168404345e-19) 559
(0.06101380816 0.07774661509 2.168404345e-19) 528
(-0.0249256002 0.1336735512 -1.084202172e-19) 356
(0.06329886149 0.1321015343 0) 608
(0.05385787864 0.1148963201 7.453889936e-20) 587
(0.04506045951 0.07507398004 -2.168404345e-19) 525
(0.05842356376 0.02976042564 0) 457
(0.07446069771 0.03905335916 0) 469
(0.01930904852 0.02886957148 0) 472
(0.06248162151 0.01861866982 5.421010862e-20) 448
(0.02326931912 0.0104493073 1.084202172e-19) 443
(0.07288300337 0.03164407735 -1.626303259e-19) 459
(0.05998373705 0.08045292472 2.168404345e-19) 537
(0.04515764952 0.0697850151 0) 525
(0.02524819027 0.01509339604 2.168404345e-19) 453
(0.04584239832 0.04343260292 2.168404345e-19) 486
(0.07567295715 0.05479592071 -2.168404345e-19) 489
(0.051932361 0.03506665697 2.168404345e-19) 466
(0.0536452849 0.04376324325 -3.794707604e-19) 487
(0.0644475758 0.03605653848 5.421010862e-20) 468
(0.06753373405 0.03246382843 6.505213035e-19) 468
(0.03354331211 0.01590322295 2.168404345e-19) 444
(0.05182887489 0.0508412433 0) 496
(0.06557163224 0.04813508367 1.084202172e-19) 488
(0.07521509012 0.06632098761 0) 509
(0.02583106298 0.06569037904 0) 523
(0.0620116886 0.06763067997 -1.084202172e-19) 518
(0.06034713724 0.02414769662 2.168404345e-19) 457
(0.07485727307 0.07909958766 1.626303259e-19) 529
(0.07121175455 0.06610000847 2.981555974e-19) 509
(0.06801005454 0.06073695801 2.168404345e-19) 508
(0.07301263256 0.1126295897 2.168404345e-19) 579
(0.07398776698 0.06962377723 0) 519
(0.06867057707 0.0345552751 2.168404345e-19) 469
(0.07461757048 0.1476058198 0) 629
(0.07102423088 0.1165474036 0) 579
(0.0637918678 0.1115212407 -1.084202172e-19) 578
(0.0482683568 0.1307927337 1.084202172e-19) 606
(0.0571232478 0.1109248907 5.929230631e-20) 577
(0.07266614916 0.1218124311 -2.710505431e-19) 589
(0.02905281318 0.1472071534 -2.168404345e-19) 633
(0.07128555024 0.152381428 0) 629
(0.03748097056 0.1157477256 2.168404345e-19) 584
(0.04681942419 0.04038705799 3.117081246e-19) 476
(0.06487007017 0.04944148007 6.776263578e-21) 488
(0.06147154502 0.04321634328 0) 478
(0.05712786415 0.01547039403 1.151964808e-19) 447
(0.04387519043 0.01599184665 2.168404345e-19) 445
(0.03613786973 0.02157387294 0) 454
(0.03352339021 0.03648945749 -2.168404345e-19) 474
(0.04111113234 0.01479804991 -1.355252716e-20) 445
(0.05870434965 0.04998103158 1.084202172e-19) 487
(0.0353883058 0.02129852472 0) 454
(0.01894342816 0.01741968261 -2.168404345e-19) 452
(0.04799304137 0.01735523899 -3.252606517e-19) 446
(0.04451854382 0.02664015336 -4.33680869e-19) 465
(0.02134297534 0.02922437618 0) 472
(0.04397538829 0.05352751711 -4.33680869e-19) 495
(0.06323366803 0.06190586764 -3.252606517e-19) 508
(0.05952252204 0.1017230673 4.33680869e-19) 567
(0.02843409838 0.058393123 -1.084202172e-19) 503
(0.06923185972 0.06786959003 2.168404345e-19) 519
(0.0584728106 0.09417128319 0) 557
(0.06678223415 0.0681476397 -2.168404345e-19) 518
(0.07237260249 0.1054112684 -2.439454888e-19) 569
(0.05446801497 0.1548778243 0) 637
(0.07510037027 0.1451323205 2.168404345e-19) 619
(0.03985787768 0.1061554894 0) 575
(0.05484756842 0.0322964646 0) 467
(0.01023633831 0.00958533642 2.168404345e-19) 441
(0.04206373509 0.01240426178 2.168404345e-19) 445
(0.05750861847 0.06211770199 -1.084202172e-19) 507
(0.05574237751 0.02297472992 0) 457
(0.05950575971 0.04840645 2.168404345e-19) 487
(0.03774056172 0.02086153862 -3.252606517e-19) 454
(0.0678087952 0.02391686046 0) 448
(-0.00649382719 0.03113968325 6.437450399e-20) 99
(0.03588691962 0.01389586816 1.084202172e-19) 444
(0.0360595312 0.0210639614 0) 454
(0.05468224424 0.02527836549 0) 457
(0.06466189491 0.0389737626 -6.708500942e-19) 478
(0.06529112653 0.04364382315 0) 478
(0.03861006609 0.04424238579 1.084202172e-19) 485
(0.03791971255 0.06870995437 -2.168404345e-19) 524
(0.0402945098 0.05866351956 0) 505
(0.07042114788 0.04062555744 -2.168404345e-19) 479
(0.03589626081 0.02075053346 -2.168404345e-19) 454
(0.03910207882 0.0255258367 2.168404345e-19) 465
(0.05070679729 0.09007054405 1.084202172e-19) 546
(0.04339359581 0.065124771 -1.084202172e-19) 515
(0.05612570106 0.1053572943 -4.607859233e-19) 567
(0.07474934874 0.07921528955 8.131516294e-20) 529
(0.02418685607 0.09150645444 -1.626303259e-19) 553
(0.06896872579 0.09602136008 2.168404345e-19) 559
(0.06920227713 0.06563825877 0) 509
(0.06945448857 0.1066799397 -1.626303259e-19) 569
(0.04231111015 0.1360149063 0) 615
(0.03812384797 0.1293420902 -2.168404345e-19) 605
(0.05291753092 0.08213403271 0) 536
(0.04388182111 0.1220474189 -2.168404345e-19) 595
(0.05492268814 0.1191380312 1.084202172e-19) 587
(0.04552878354 0.05992089191 0) 505
(0.03841680672 0.03612740913 1.084202172e-19) 475
(0.05361778326 0.01998533076 0) 447
(0.0509786648 0.04774415159 -7.589415207e-19) 486
(0.02920810811 0.02252252061 0) 463
(0.02856428332 0.04996186973 -2.168404345e-19) 493
(0.05023662257 0.01838817077 -1.084202172e-19) 446
(0.04057924154 0.03916676942 -2.168404345e-19) 475
(0.05037480151 0.03185692863 0) 466
(0.02475650534 0.01373520806 -4.33680869e-19) 443
(0.06453456021 0.0302525269 -2.168404345e-19) 458
(0.07355263238 0.0460178515 1.084202172e-19) 479
(0.03172331984 0.01099443791 0) 444
(0.04499697611 0.0158048422 0) 445
(0.06907340262 0.02797485375 2.168404345e-19) 459
(0.03402853254 0.02836384797 2.168404345e-19) 464
(0.05526147959 0.02487302656 0) 457
(0.0627772889 0.05578614898 -3.388131789e-19) 498
(0.02610002933 0.06929351399 3.388131789e-20) 523
(0.06864440143 0.06208232274 0) 509
(0.06593179488 0.07222204342 1.084202172e-19) 518
(0.05852664615 0.09857811928 1.084202172e-19) 557
(0.07448128811 0.1038211791 0) 559
(0.07433668414 0.08880431557 -6.505213035e-19) 539
(0.0618447807 0.0875713821 -6.505213035e-19) 548
(0.072025385 0.06825208095 0) 509
(0.07099153499 0.08818649574 0) 539
(0.05461816072 0.04051467409 2.168404345e-19) 477
(0.05304557131 0.08828106282 0) 546
(0.04806471352 0.1058082063 4.33680869e-19) 566
(0.07026820465 0.1388241839 -2.168404345e-19) 619
(0.05905621767 0.1129847109 0) 577
(0.07256904474 0.1280488735 -5.421010862e-20) 599
(0.06868025091 0.1322324805 0) 609
(0.07379393825 0.156315054 2.710505431e-20) 639
(0.07518121196 0.1514172933 0) 629
(0.06459203078 0.1471931466 -6.776263578e-20) 628
(0.05632208154 0.0372233125 1.626303259e-19) 477
(0.001596509127 0.01358434762 0) 450
(0.008877059942 0.01970507158 0) 461
(0.07500799277 0.062216068 4.33680869e-19) 509
(0.04947644216 0.0224770748 -7.115076757e-20) 456
(0.04320245367 0.01537216116 1.084202172e-19) 445
(0.05720049972 0.03675721975 0) 477
(0.06140936267 0.01806860796 0) 448
(0.06693480978 0.06642332447 2.168404345e-19) 508
(0.04954138833 0.01914310175 3.337309812e-19) 446
(0.05199376837 0.06367206708 -2.168404345e-19) 506
(0.05747326993 0.05535819429 -2.710505431e-20) 497
(0.02410573005 0.04984480255 0) 493
(0.03923353406 0.01147358351 2.168404345e-19) 445
(0.04495166102 0.02896271887 2.168404345e-19) 465
(0.04759186261 0.01480226177 -1.626303259e-19) 446
(0.009803740832 0.01412426159 -8.131516294e-20) 451
(0.01073256995 0.005547012753 1.084202172e-19) 441
(0.03819545523 0.01923547878 0) 455
(0.04708572672 0.05941321183 -5.421010862e-20) 506
(0.04925474915 0.02626841049 2.168404345e-19) 456
(0.04839463345 0.01648953653 1.084202172e-19) 446
(0.05837723716 0.04165408191 2.168404345e-19) 477
(0.04185610451 0.05626640368 1.626303259e-19) 505
(0.04424575768 0.09322649104 0) 555
(0.05462314345 0.05966449453 1.084202172e-19) 507
(0.0654770464 0.05217302664 4.878909776e-19) 488
(0.03182775948 0.1053497819 2.710505431e-19) 574
(0.05891715902 0.1119884292 0) 577
(0.05930500971 0.08721779482 0) 547
(0.03728464185 0.07054683543 1.084202172e-19) 524
(0.06747529345 0.07303141195 0) 518
(0.02879469307 0.05868408931 -2.168404345e-19) 503
(0.05991301398 0.1079795244 -4.33680869e-19) 567
(0.06262391876 0.1149897478 0) 578
(0.07564236227 0.1176216244 2.168404345e-19) 579
(0.07236688863 0.1198064729 2.710505431e-20) 589
(0.05780688517 0.1432704288 -1.626303259e-19) 617
(0.06902388005 0.1030969558 -6.505213035e-19) 569
(0.06474787527 0.1224352019 -2.168404345e-19) 588
(0.06203886526 0.1522721369 -5.759824041e-20) 638
(0.04371305357 0.03030780653 0) 465
(0.06845147648 0.04014331085 -2.168404345e-19) 478
(0.06946367404 0.07068863196 0) 519
(0.04410946234 0.02609999462 0) 455
(0.07213302042 0.03096724132 -1.084202172e-19) 459
(0.05602094068 0.05194512914 1.084202172e-19) 497
(0.01753353785 0.007038815684 -2.710505431e-20) 442
(0.01930891486 0.01253988232 -1.626303259e-19) 442
(0.06419984572 0.01803832304 2.168404345e-19) 448
(0.07225651406 0.09448324468 2.168404345e-19) 549
(0.05664622488 0.05946626889 5.421010862e-20) 507
(0.06297310025 0.0520207711 2.168404345e-19) 488
(0.05496345705 0.04225441252 0) 477
(0.01801007666 0.01751878789 1.626303259e-19) 452
(0.05590093107 0.05573956491 -1.355252716e-19) 497
(0.04981273161 0.03996121921 2.710505431e-19) 476
(0.03764698608 0.04661320783 0) 494
(0.06255409787 0.03076512098 2.168404345e-19) 458
(0.05238367124 0.02968373355 0) 466
(0.07176804102 0.07957355677 4.878909776e-19) 529
(0.06098820707 0.02142299528 0) 448
(0.07367405478 0.02426484858 -1.084202172e-19) 449
(0.05502472144 0.07692383338 0) 527
(0.05283702034 0.05097021604 4.33680869e-19) 496
(0.06588696018 0.06720755682 -4.33680869e-19) 518
(0.0583917952 0.07404874564 -2.168404345e-19) 527
(0.06884013514 0.0771113699 0) 529
(0.07277861941 0.07473027329 8.402566837e-19) 519
(0.0617794589 0.1038768662 -3.252606517e-19) 568
(0.01963468702 0.08348577836 1.084202172e-19) 542
(0.07405724705 0.112943786 0) 579
(0.04676854545 0.1075586312 2.710505431e-19) 576
(0.04010576697 0.07829675224 5.421010862e-20) 535
(0.06851133017 0.1092126273 0) 568
(0.05260663699 0.1202422152 0) 586
(0.05123691212 0.1296987072 2.168404345e-19) 606
(0.07237091664 0.07709811011 2.710505431e-20) 529
(0.06459095045 0.1101110875 2.981555974e-19) 578
(0.06609957865 0.1297584534 -2.168404345e-19) 598