/*--------------------------------*- C++ -*----------------------------------*\
| =========                 |                                                 |
| \\      /  F ield         | OpenFOAM: The Open Source CFD Toolbox           |
|  \\    /   O peration     | Version:  2406                                  |
|   \\  /    A nd           | Website:  www.openfoam.com                      |
|    \\/     M anipulation  |                                                 |
\*---------------------------------------------------------------------------*/
FoamFile
{
    version     2.0;
    format      ascii;
    arch        "LSB;label=32;scalar=64";
    class       vectorField;
    location    "0.005/lagrangian/dsmc";
    object      U;
}
// * * * * * * * * * * * * * * * * * * * * * * * * * * * * * * * * * * * * * //


6852
(
(499.9606459 330.0156904 -157.8915432)
(55.33749421 1197.929549 -406.8676899)
(1012.813071 15.9530984 891.286383)
(-916.3847411 166.7982528 -864.2055084)
(466.3769619 190.9974146 701.8425448)
(513.6581678 122.461518 302.7283369)
(-184.213802 923.7360301 -342.071082)
(141.6065231 347.1342733 -1022.126758)
(-195.1630862 447.9437661 -108.1932953)
(1554.009403 193.7499379 259.3559084)
(341.9955972 473.7922589 87.70410494)
(462.9137389 120.2512794 573.2708211)
(56.67744421 531.6638224 -115.7225622)
(865.476374 839.8853723 -737.0790547)
(1531.646035 -102.4640942 1172.41234)
(1096.159061 244.4685602 1080.780164)
(1700.747734 515.7124316 241.5611131)
(-353.3313178 -218.3220648 220.6939378)
(-130.0132884 88.05934159 -137.9318196)
(33.60241182 366.5161793 1354.985359)
(347.0743054 53.65121095 1124.30059)
(1620.628449 164.5101774 -1099.521703)
(1622.945811 280.1824295 -411.5135634)
(923.4186499 899.8973966 462.6002894)
(960.0236744 419.2866989 -154.9352495)
(42.33694232 539.1460704 949.6620923)
(723.6713569 -504.0792433 817.4546254)
(-49.68074434 -280.0843379 206.877936)
(705.0633304 1038.459964 -144.9933159)
(-487.5040927 765.3699107 -483.9254469)
(682.4351432 1719.259382 -796.875905)
(136.0895174 469.1412933 -461.0328234)
(933.8342029 297.3881381 -1193.962377)
(-924.322657 604.8604091 -427.864998)
(278.2900162 -1082.75877 -131.9871175)
(802.7684184 -838.0089664 -333.1417341)
(1763.227842 450.3674312 -357.7895193)
(106.8392936 -282.76018 506.5148214)
(1146.178912 697.0499644 748.215926)
(388.0065101 -297.901892 -116.1045046)
(1273.82063 757.5617376 824.0374935)
(226.8753229 378.7585713 -198.783773)
(1658.878393 -13.78177374 67.55094241)
(417.9286686 868.2463224 499.859938)
(659.7702173 565.053589 -86.69089708)
(1013.294115 671.6957598 -82.74667396)
(125.5078856 395.0178735 114.6219758)
(1475.208431 340.6150111 189.6693361)
(659.7133819 272.0478311 505.9272224)
(420.1010182 1309.792763 703.4343193)
(208.7443319 433.76588 -205.1540339)
(28.85584282 201.4735596 -33.15659539)
(-105.6764695 142.702771 -256.4874967)
(732.7522956 -59.46503499 713.6090049)
(751.4338572 339.7544452 -385.8684164)
(86.48146593 269.8917385 -211.173705)
(290.7134337 -3.482523014 429.0793362)
(1171.574484 -480.2007934 -290.5840516)
(-93.3254094 422.1566619 -505.3948089)
(1650.77702 -114.0477417 -716.31066)
(218.0727991 640.3851743 951.5038736)
(949.7113482 -387.640259 -969.9505389)
(1055.772495 362.4489848 -52.18635791)
(857.7668146 868.1969184 -526.4862399)
(782.2843893 277.7835743 1283.211905)
(-279.0971154 -513.3067683 541.9622764)
(737.4091744 -370.8290807 -233.5372748)
(11.3538947 684.289986 91.88847136)
(1203.408955 177.0694773 -166.6602325)
(-244.8292254 273.4331592 30.8059157)
(1543.164498 -188.0860193 735.6516354)
(1527.227109 716.1860319 833.8000569)
(286.5734198 1324.915303 604.1660248)
(1821.884369 254.3337731 -565.6731414)
(-286.366454 -422.8233364 -436.161659)
(67.43150748 -995.5291563 47.63391998)
(-6.958770358 -28.03599099 -820.9375658)
(886.469425 827.7713294 428.7993137)
(336.0277526 867.3305548 -823.55897)
(-85.50368247 -377.8576799 -166.2102531)
(820.3368478 586.1246746 475.8000705)
(813.7471569 222.6388014 826.7683335)
(-182.8107935 608.75833 -12.7162857)
(883.9274062 592.5949344 -564.1675114)
(221.1350788 435.4414481 1164.264016)
(2122.08094 718.95949 -112.9747179)
(541.113618 187.8880196 1002.144639)
(505.2679019 979.9141809 484.5103455)
(67.73954109 -12.88870475 42.48661079)
(-873.1688687 196.8248627 -634.7426943)
(718.7699416 148.5421163 371.4119087)
(-444.9691532 435.4487998 714.1885802)
(967.3041149 -8.960185316 351.361964)
(1289.369918 319.4131641 303.3821385)
(301.4824634 -213.2420274 224.4582036)
(571.5155191 -46.76152802 -480.4401633)
(-87.56785302 414.895233 40.95571311)
(264.9185412 -67.43449416 406.1938617)
(-128.2609133 146.4319917 -270.2010406)
(-142.9076899 -52.95637732 993.7722266)
(-180.7832547 36.46638553 403.5539466)
(-287.8291352 266.1268503 157.8387743)
(741.2948861 833.788381 -40.61097106)
(36.77599216 907.5592912 379.2733777)
(817.7016046 298.7245963 -224.3625579)
(43.56672184 -212.4976918 -72.33055306)
(468.1887172 708.70381 8.631968952)
(719.809553 1088.387949 -751.6660172)
(596.2322304 1063.376186 135.787265)
(1635.129753 307.663197 182.7603861)
(-297.093891 289.1143856 -578.0361164)
(1706.492486 797.2426179 -240.3963723)
(909.6430889 276.5259908 661.5850775)
(913.0314737 -597.2484699 -183.5818695)
(674.4760378 -523.1827918 56.99392344)
(1996.05778 221.1500739 -1124.129168)
(1142.099793 -227.9802704 -204.7944592)
(924.0263176 -1005.95601 -60.94430473)
(754.6721824 -609.2116406 280.0091148)
(-403.0278008 33.05935297 1107.517852)
(-535.707769 923.8046114 701.3123374)
(-226.1310851 -206.741075 -62.92629504)
(358.6832551 331.7221635 -314.0469372)
(241.9324699 -252.3156177 597.2154078)
(438.2559727 152.033461 16.08593536)
(-246.9115609 335.711421 153.1715143)
(1270.2906 416.8028915 27.66447288)
(475.6367837 -356.3229803 423.8597659)
(699.7850679 -88.74502783 -166.4948423)
(-756.984508 291.0126175 -161.3167636)
(2161.926027 -31.74890407 -141.6853994)
(1384.784044 1210.429723 -364.2228799)
(1439.557918 -398.5144662 -278.7260486)
(1654.699898 625.1364215 -367.0597183)
(1405.682561 -298.559385 503.7636934)
(879.2245235 -22.25806932 65.95221626)
(634.167563 716.6581505 -734.7866966)
(521.7099058 927.1611712 -17.1587096)
(78.34941468 344.1228408 32.45527147)
(845.8392735 900.9366481 232.6433812)
(588.6572134 462.6679762 -40.61899135)
(-109.8304428 277.3933163 -288.3150819)
(381.9561788 799.6139765 23.85814897)
(400.1396907 681.8888038 -100.1474524)
(-579.0512438 -77.74083207 654.9828871)
(598.2851025 335.0217736 222.5772421)
(584.0973547 911.6824478 244.5966549)
(-232.5962331 12.99788763 -194.7005111)
(247.3246529 -611.1406547 -216.7388722)
(555.9728804 1027.102235 469.268157)
(-303.0444339 86.98960669 50.47788158)
(859.834974 698.6952591 844.5264672)
(-197.9075425 -153.0685967 -364.7074882)
(-449.2759353 -381.0027828 556.5713977)
(410.5598683 -286.9855897 -1157.596891)
(1806.431704 -360.6488431 232.356398)
(286.0686958 590.7192884 -26.36559121)
(-458.4057475 923.5299733 974.8700959)
(1320.567716 617.2921075 -332.761271)
(1717.161316 -494.2080598 712.8396355)
(1262.368065 -220.3620712 -740.613032)
(929.7347709 413.119351 349.9972613)
(989.7755444 293.6370009 520.7581019)
(754.1861857 -639.4440583 742.7068194)
(872.7288397 288.1874713 258.0047584)
(2229.166844 -207.473947 -35.47963315)
(617.3951903 328.6043653 781.6725387)
(324.9017033 -76.9713644 -93.90098494)
(1246.926096 698.7676647 -207.8526082)
(-83.78599519 136.9373863 -37.73949347)
(-236.2547485 906.8866379 226.0764641)
(1041.471986 -23.92470037 60.14104012)
(1535.84526 1057.348489 -684.9201496)
(823.6757814 565.1583022 160.2024433)
(1048.128111 155.7941411 165.1949673)
(820.0467098 1369.637447 -900.6624988)
(-0.2727749573 587.7825561 42.87497914)
(724.2673802 7.901246728 6.283993512)
(582.604366 1278.526112 -652.4958484)
(1371.308682 743.2634119 396.1907477)
(-16.18586693 494.7434222 -335.6051193)
(1312.509168 -33.20283353 52.62423637)
(550.4806517 -543.9391083 28.43853845)
(30.12916683 -4.256279418 -1643.988347)
(334.6222108 874.2779617 -788.191779)
(578.6777221 111.846391 757.5621236)
(-194.6377957 -422.5794774 480.3119297)
(1036.493567 -289.3850206 163.3211232)
(-310.490216 537.3626525 -683.8142272)
(251.6583667 593.4850965 358.1692519)
(76.8836766 1213.982954 1027.590085)
(1301.710471 -200.9354043 -207.7217543)
(1496.264083 806.7172859 -379.958629)
(211.4344144 -134.3004401 75.59732148)
(890.7931571 1315.664818 0.380592098)
(729.0868721 588.4363361 58.81725429)
(-21.14936126 -456.5444849 671.553135)
(1520.122195 1139.744643 -131.9174747)
(-977.0952697 551.7882596 -105.4833959)
(140.4562982 81.0198207 -436.7564215)
(1255.025186 -340.4766268 -260.7487412)
(1330.378123 -474.5737826 14.05714009)
(1451.065069 307.4012596 -93.36672718)
(1303.758724 190.8659692 -10.2520304)
(1093.983976 571.4556731 784.8069778)
(847.3177658 624.7326005 -135.755114)
(288.4513013 381.7486402 -341.9576105)
(-561.5830458 661.2406502 -165.3785232)
(1266.659488 559.6419175 -206.0921674)
(1698.925178 630.4557354 47.1641858)
(662.4662667 953.0543265 259.5497257)
(-700.5788009 207.7657194 275.1284459)
(990.2690794 332.250127 -345.5566589)
(925.1371883 -377.5863105 -471.0893961)
(482.2541717 610.8327474 204.484951)
(-143.7631664 1553.604232 -695.4258484)
(630.486016 1092.735678 276.3865146)
(1140.879666 236.9905924 147.5725163)
(2010.479112 230.3822553 397.5181583)
(1583.0604 11.55225406 82.69402226)
(309.8009961 92.67133801 762.0076219)
(311.2017477 127.6925974 153.3586838)
(283.9945117 226.5531663 969.0300532)
(148.2744379 717.1463645 -225.2550999)
(-4.078328652 -27.23977414 -320.7099684)
(499.8127607 -160.008827 266.7314029)
(705.4497718 1311.863038 -378.4647127)
(1287.701534 86.43497003 216.9826304)
(935.7969403 -72.94707453 -991.4908498)
(870.5875972 394.8732539 409.3573516)
(988.4937601 1425.887015 -34.33551474)
(2361.492562 440.2201267 864.1798881)
(1157.048249 -173.6841153 113.3091101)
(671.1801738 534.5144042 -80.18242612)
(1543.390104 354.0237158 221.5004495)
(713.5710237 -587.7719482 77.23657249)
(1468.809785 -408.1628187 -62.68380271)
(1686.436469 602.3507902 -287.3111143)
(402.7818711 -461.1518617 -457.5088452)
(1317.396842 949.4968503 -218.9081439)
(190.5230787 429.9887444 -258.4617823)
(1144.604629 -133.9790228 -118.6068477)
(1630.471304 -177.4907389 814.0867092)
(1050.875838 748.6483617 197.4378294)
(1962.621814 443.9698887 -68.96939964)
(842.1310238 221.4772603 93.39258719)
(253.9191142 -83.31374873 463.593319)
(904.5351484 1436.623565 472.7795799)
(1468.44034 469.8644073 -302.9342835)
(1037.164473 891.4188431 -832.6685401)
(1360.66862 -448.3105401 1156.214036)
(262.9856884 919.3908789 -541.5693983)
(125.5300768 -129.5043784 -38.79923917)
(-300.4903709 -95.55252329 -250.0342802)
(1079.222375 -84.75271222 322.4222493)
(1285.420801 -186.4047548 260.2787198)
(1324.64458 387.0690331 -377.1154585)
(1552.240096 1240.789465 292.6033142)
(621.3737226 471.435014 121.6848044)
(701.8358086 1126.987803 -591.329174)
(959.0134858 43.65391129 1773.030241)
(940.6876405 -352.1473933 -188.4231773)
(149.1024772 303.8327274 352.3012277)
(263.9461209 77.50345087 -182.6047895)
(1168.060134 238.4088709 -102.3269582)
(1709.405687 -930.0260678 145.3199627)
(13.30409839 260.5644624 375.2664023)
(368.0990137 797.810207 -271.5894144)
(1201.466402 527.5538241 -845.6720249)
(1264.662084 603.2355923 -791.6147509)
(1700.72912 92.98769754 162.3985148)
(1055.017724 -6.89261068 901.6808131)
(1246.393056 106.1519181 116.5707425)
(1230.496669 -447.2540432 193.4232455)
(1487.809446 400.4870705 55.59151587)
(2163.933506 -95.9297973 239.3691359)
(907.6775442 1221.275621 -156.633618)
(1481.799306 332.4860794 -888.7439695)
(698.5464897 399.6914831 304.6456148)
(-210.2420392 482.0293632 277.6578661)
(48.47607613 422.6706674 706.5434659)
(30.80488029 -431.5154897 844.3399215)
(271.3540018 327.0157214 -315.0315371)
(582.8053248 72.26894926 -139.2190513)
(633.7865216 316.9925295 -229.1038555)
(1477.859895 1019.309973 -719.9586749)
(43.28783168 240.2592161 106.0479199)
(667.1716106 919.7297125 708.4053126)
(987.0059623 -352.8447675 -89.67816162)
(1361.953872 960.8679279 -960.675538)
(851.2212184 159.9345683 -589.139441)
(743.0590142 55.70405421 92.59120942)
(838.9099647 584.450888 580.524378)
(657.4545449 -152.5147256 251.6479761)
(425.8837076 1044.563918 756.1821351)
(759.7105405 799.9749513 -651.5573617)
(1677.221694 142.4467625 -886.6153419)
(1285.316018 -738.0264414 -398.5702547)
(-203.3680102 536.4151161 -12.20541313)
(-367.2540577 263.8371293 -344.5250217)
(-245.5088132 631.2996738 893.8411525)
(1380.426625 1417.697687 -500.9532949)
(739.396237 256.2101573 -1699.180913)
(476.742557 206.1866869 569.6742691)
(436.575546 47.16108189 -834.2378918)
(602.5441561 41.69022019 -177.2306251)
(-180.2175892 1095.35061 105.3628267)
(1260.445868 352.2035022 -277.5948652)
(295.0630449 283.4199141 310.7805246)
(433.8269584 952.5458307 95.26942577)
(535.1086931 -140.4818404 349.8782404)
(1302.661097 469.9888787 44.54620134)
(1213.585695 44.50836086 -267.1679882)
(1367.771049 804.5136029 560.492627)
(545.8547082 -156.1117786 -549.7630096)
(915.6576516 275.9245569 277.1804493)
(-18.88912598 605.7057877 -257.9039054)
(1375.121384 362.8180695 -642.8673889)
(1352.241788 283.6807533 -305.3729563)
(931.5547688 320.0089737 317.2082813)
(484.5190271 1425.125224 333.1335637)
(1414.987201 196.6481869 42.78479319)
(-103.9502264 497.2515588 -118.3774629)
(112.9780513 699.2496455 -78.67976566)
(44.29541186 1176.946992 537.7260441)
(1313.888167 911.2461493 372.9470048)
(203.1841993 -389.7927569 -280.2608387)
(590.9588792 698.2351355 555.5341207)
(1829.938968 38.28222762 333.2423547)
(403.5203871 75.70166756 -266.8096435)
(1486.303573 747.7508568 -1249.872314)
(639.0623525 142.3908981 -1176.605149)
(1104.948314 -103.141764 230.0342584)
(1202.93458 202.2786462 453.4897602)
(1881.853531 -243.2138873 -481.8066837)
(1153.45292 475.176754 503.7765277)
(1273.67608 -149.3177865 -836.6157563)
(273.4305585 905.5693645 -653.6958233)
(520.2313612 60.47365082 724.8776538)
(475.2740927 138.4848863 -619.6932975)
(224.05299 327.7653113 -536.6606121)
(827.8848953 642.6055186 338.7607941)
(1061.24715 433.3374813 488.6859026)
(562.8737661 1325.00036 345.5166655)
(430.8028497 40.26602027 483.052413)
(1523.208947 242.3247322 -731.8434516)
(1379.859762 958.8026484 -577.731617)
(1338.927513 32.62586836 358.71713)
(1378.008946 -204.3288575 -65.9725436)
(1364.508799 -26.9302997 79.75344135)
(1372.100959 -303.024426 135.097859)
(2083.847187 -372.8161531 -155.4705041)
(1090.272971 -806.728003 1001.153077)
(336.2492312 1523.549576 -260.1789337)
(573.1007495 885.1302227 890.3797298)
(604.2371643 755.0667579 -18.22890512)
(341.2192036 396.9946646 642.5104235)
(980.1112973 337.9474387 133.5148145)
(2134.612816 773.2836865 36.77954007)
(552.0702922 201.1140788 -339.7373175)
(1231.144539 844.0704795 277.084949)
(746.8794125 269.6485901 -1555.088548)
(-919.4619595 600.3650938 82.93499268)
(1221.124529 -106.1371497 240.6038952)
(576.8841153 957.5621777 -1.310318773)
(208.3544848 1212.549724 1607.541013)
(-113.6195194 -205.4935832 -208.0541926)
(-304.4166007 300.3758944 481.5421387)
(1185.814182 828.9087137 599.5695315)
(1513.376117 -65.63464691 -244.9369402)
(1404.188524 166.1095049 -56.27833194)
(2076.481524 298.2183453 258.6402276)
(1404.469713 39.76210839 -112.6432595)
(1867.912035 153.472707 -267.3742719)
(1641.82453 406.184701 305.3516291)
(1588.588965 -99.2440477 243.3335155)
(1313.809013 119.8838861 60.03695843)
(1674.52083 182.9310143 217.2987226)
(1509.157333 2.157707752 401.8510489)
(1322.99352 -353.1067244 153.9752497)
(1480.821346 16.4804997 50.90338388)
(420.0697217 368.4928441 249.8800923)
(1041.571161 -139.0353361 834.3837583)
(382.8340751 -264.8978735 1283.289976)
(-490.7980934 667.2071808 439.6693724)
(80.56251619 -132.6812267 444.4992144)
(754.7779955 -683.8914841 744.5101256)
(1086.406749 -65.94106285 -1292.555594)
(-297.5120626 906.4599871 -523.5213326)
(-312.4538841 581.0923369 16.01365703)
(1082.056213 822.8569723 -476.7582032)
(1797.27978 582.4717804 -423.0460968)
(133.1465423 -330.6874187 -1149.726243)
(1731.405223 4.699460771 -231.6029901)
(2008.333903 26.49260096 588.4001912)
(510.2030392 -230.9916664 -15.15479467)
(351.1032529 86.06916264 -130.1642208)
(1965.266865 403.902265 -303.2607842)
(-164.0403531 -85.88709033 -81.56251363)
(1873.343242 -65.83483428 462.6596852)
(1215.026748 851.8401293 109.2851378)
(826.1984343 574.2911954 202.879463)
(679.0670442 143.1185849 -229.1775083)
(503.4548756 506.175988 -925.7014724)
(1745.377285 222.4868095 -344.6134889)
(1575.613836 795.8307328 110.32196)
(845.9178481 -233.2010325 418.0935043)
(1831.551339 -23.33234137 1.97826983)
(1504.778476 660.9512613 -7.69862637)
(1480.64136 594.2446635 -614.9701882)
(1354.816952 -345.6006748 -58.8869761)
(617.3780823 1441.946347 -84.07349742)
(1923.04542 -666.2853693 79.1343545)
(1418.069266 -250.8725924 52.50208363)
(1645.284154 130.2581546 29.47562746)
(1262.086925 311.1579813 -501.1062563)
(1463.585503 51.92689989 133.3846019)
(1306.606156 247.8795875 -347.8450384)
(960.5359472 29.19683775 -690.3679443)
(138.6635425 -412.7330786 -406.200672)
(1318.191369 807.0751992 -136.9302722)
(36.93117769 505.351831 343.7286926)
(836.4702445 -170.3312811 -554.1714277)
(123.2216692 213.7282548 1095.620235)
(1646.070312 90.16361035 747.24868)
(894.2480259 1450.754624 758.8292522)
(1033.515826 524.9978571 -145.6789051)
(1476.639992 -98.28321657 639.6706381)
(1450.637287 510.9873772 352.5070957)
(828.1538098 29.06349436 87.68801251)
(1574.813232 1003.306451 912.1165976)
(865.2808378 145.6333176 582.0206325)
(519.6299388 -81.07170257 -259.6119999)
(320.841862 905.579356 -553.6921293)
(859.2685146 312.8221302 684.9425044)
(1002.900079 -253.7806534 267.3463864)
(1544.129271 -54.19983632 51.35255223)
(209.7829269 1170.307106 243.2903976)
(1141.804501 8.165720977 -555.5481746)
(1159.058025 702.3473483 -131.0015892)
(513.4456502 82.78353992 -785.246762)
(1380.396083 195.5353283 199.2489395)
(2029.427718 239.5810992 67.39597814)
(1343.025905 73.38872058 -673.172738)
(1671.480839 49.15233686 -65.89630397)
(1536.326874 -72.63298235 463.5048469)
(1639.191573 -52.65043271 434.602614)
(1576.649795 424.4559596 28.06128809)
(1004.813034 570.2824765 -620.9528129)
(2086.020823 -493.2055536 176.112006)
(2584.350051 -57.61358938 -372.7063696)
(1470.271811 -315.6739738 -453.9786971)
(1224.189218 -105.3127259 50.95354817)
(1480.955406 212.632866 10.16200403)
(1289.888714 134.2812897 439.8345121)
(1927.187803 -73.21227372 542.28431)
(1070.430231 -407.4056985 509.9500978)
(542.8706053 804.1239069 346.7042553)
(1037.674971 -196.2613495 -387.3317845)
(112.4886012 199.8783584 -639.6973022)
(-504.0982089 691.0639363 305.1692151)
(1354.802161 714.1906224 -376.999042)
(1212.481522 748.9226114 304.2624586)
(184.8986869 711.6979431 -631.0454557)
(625.3848025 641.5508534 -58.10060704)
(1155.111378 -124.4235236 164.1417687)
(316.7047182 289.4339667 297.999553)
(630.3086627 972.6178826 59.95814623)
(2107.146993 103.7242771 54.44962005)
(767.1532237 477.0823372 -393.1255128)
(1255.586097 109.6608104 124.4913815)
(1146.884112 251.3150306 -44.09534785)
(1971.785631 84.3024978 403.1215755)
(1730.149592 -544.8449671 -61.25678173)
(1121.135185 -231.0355265 100.3473576)
(1445.741649 93.13069879 271.4128173)
(1564.893547 -265.6263542 367.5383684)
(1530.52325 -141.0785586 11.0515876)
(1430.917367 86.73024909 -176.844799)
(1405.97024 20.15549008 -33.3180412)
(1354.069561 -256.1483646 596.9148218)
(1465.743373 1091.206044 -390.9435278)
(601.4343333 1176.127906 -78.64228618)
(-124.9783066 1200.915119 129.472062)
(1765.490863 723.6983591 -295.328556)
(1141.130828 176.3788545 611.3104299)
(1795.596752 199.9455635 -169.5261549)
(2458.832886 179.2982684 276.6893218)
(204.940606 -72.51130623 -185.0613665)
(-430.1794615 879.2529352 -64.73681136)
(-224.6220367 724.1518147 667.3126877)
(888.8908947 839.2951177 412.2039032)
(823.4532066 837.5562834 537.4574381)
(1185.904555 443.2952943 -67.7228804)
(1085.031098 967.1575462 952.0330496)
(-140.9711551 600.4166543 479.7804521)
(63.92532855 512.8102114 9.684195829)
(206.9600206 743.0252506 -269.3264121)
(169.3337735 297.2731422 -767.658069)
(1063.210633 628.5502695 -51.94886378)
(1407.642986 -369.3261656 -253.1648961)
(-177.3160024 912.3733377 -316.8180968)
(1528.718887 150.3612806 -610.3806272)
(1333.717005 285.6411929 170.3191533)
(1770.784823 587.8652246 174.3724038)
(1754.264109 317.6062313 1104.172133)
(1399.477185 66.65898197 148.0315143)
(340.8016226 893.8353647 564.3610786)
(1323.893588 149.2583823 -136.6504485)
(2300.753608 593.4515327 -24.03341702)
(1440.410963 308.3064142 -277.190533)
(1619.784253 246.4769397 356.2095792)
(1356.97141 -146.435504 467.7995157)
(1529.488099 -367.8460239 92.42569761)
(1286.587165 428.0063708 41.13495937)
(1118.956795 551.4374901 178.1372739)
(1364.871567 397.8124673 929.571014)
(1285.628114 251.8075752 -380.3689274)
(255.3222307 719.6598489 -33.83777153)
(837.6235831 268.7575995 207.8779654)
(405.1303671 938.7455993 -916.5524498)
(-186.5296963 861.2278926 343.3469364)
(542.1119353 -498.9677352 -1107.593377)
(1413.551968 1098.735447 -558.9985223)
(300.2461444 249.5949176 300.8964193)
(1251.854944 178.4680581 -398.8582123)
(325.6299249 132.6071702 -145.8354079)
(84.44391402 58.45329965 -251.5846571)
(1014.309138 -215.8675188 -696.3685828)
(1530.338159 64.53788218 403.560301)
(1158.813127 -414.4990873 -680.9976006)
(925.8993024 442.2119718 -299.6355879)
(989.3173974 -545.9271256 25.95868448)
(1407.551484 450.8487406 -90.36340413)
(1818.184895 -108.6166626 -163.9845013)
(1450.248045 243.0811189 -320.8726909)
(1644.212233 212.1231778 79.60960877)
(1558.664863 -296.686779 74.1203789)
(1716.417317 -30.09235235 562.5255966)
(1405.688638 -845.6736896 119.6144635)
(1787.337143 226.435627 170.6064274)
(352.3176398 -41.77402336 -828.6990422)
(1330.549467 -399.2218287 205.9222013)
(1454.706523 94.55164128 -302.7471815)
(1619.582598 62.65328371 560.1087525)
(1242.202456 0.08175437862 -119.3035741)
(1691.672503 432.689627 246.4127539)
(1581.697672 26.11957732 197.5427073)
(1332.098733 -119.4297207 281.2432376)
(841.6535282 384.2660336 -386.3171972)
(1511.566079 -69.94601434 207.5477039)
(307.1012106 1125.156955 -54.21368405)
(1538.872753 -828.687343 -389.4638329)
(-83.8773529 377.9497332 -493.8267409)
(1672.264653 335.2766772 -41.86990211)
(635.4553954 92.38062482 -700.9006377)
(1005.615774 -328.7282696 -6.125128139)
(905.0372286 145.9809171 -893.4318507)
(-83.58902239 377.853353 247.2164478)
(1061.76313 402.8799662 425.6167295)
(1239.145123 -141.4914116 808.7925127)
(1350.415925 182.0870322 222.6443895)
(46.54352187 714.5843286 545.5869527)
(356.4471376 980.4976236 -256.9394429)
(834.617313 108.0536331 520.4509238)
(1567.571651 70.43820385 -370.3162968)
(1747.996022 -121.9138666 277.5385197)
(-710.6234191 796.4962132 -17.9405188)
(1612.201541 318.4995455 -567.4913154)
(-318.9928061 717.2765104 -505.2748092)
(551.7197837 702.7250823 -562.6676867)
(1113.024367 895.4220551 -142.7590842)
(-304.4544608 806.9940839 193.7680211)
(1349.738562 -206.2968223 22.77876208)
(1806.50594 304.8143623 224.2778529)
(1716.801468 396.9324998 -93.23306284)
(1459.489447 69.15546603 766.9840894)
(1949.640579 369.2295618 -182.6204369)
(1425.342812 23.86112118 353.9714549)
(1689.000333 730.9397986 -249.1932033)
(1644.677829 -87.50008249 -70.60228888)
(1739.167435 -52.7413999 422.7009717)
(1425.022007 57.51670692 -248.477066)
(1268.057258 -534.637905 119.8387696)
(1567.642923 35.88200697 -78.71788723)
(1874.353614 -57.15783378 -100.0931506)
(1958.823857 -322.5598597 595.9949292)
(1597.159093 -84.37792747 -224.7483399)
(1539.072386 275.0237676 61.44608182)
(2150.974319 -463.5693867 -366.6370176)
(1266.630105 216.9071492 -215.5993548)
(1481.572556 -48.42828159 -271.2477555)
(406.6515925 -327.1672303 1022.518309)
(989.5994571 212.6445643 -781.6738526)
(1157.032769 -408.7057977 -245.9008493)
(1533.603083 490.5646526 -288.9452136)
(1225.4022 789.7241413 -171.6987743)
(1431.305741 172.6298651 -505.40006)
(140.6080122 210.4426196 483.4855339)
(-182.6067505 746.6099858 175.4079187)
(1156.376271 121.4532064 -1130.401905)
(617.6237272 1242.568574 516.7858319)
(1813.400762 305.1357382 23.48651095)
(1717.226014 89.62835254 111.6643671)
(0.8216020003 627.5040781 -456.4342633)
(1315.834502 -521.2461621 -227.7571211)
(1115.6359 619.7824934 -1002.681121)
(1848.456348 896.7154873 36.26779164)
(2121.085589 217.5594886 225.5686903)
(1223.945106 -32.15885973 -643.2884772)
(2112.825512 323.6241575 141.0253845)
(1677.2839 177.8331727 -298.786244)
(850.8623872 983.0214599 152.9745173)
(2020.50906 682.6659385 250.5144122)
(1463.339765 393.4932875 -65.55699584)
(1261.720898 814.7239159 -1572.348575)
(2469.499238 971.2734729 612.9413389)
(589.6891756 -617.2204034 329.117395)
(1556.213925 -485.983726 -493.4459768)
(1573.797023 872.1346488 609.4776304)
(1920.279041 -163.7027492 21.85686262)
(1304.028647 -170.1427955 -390.8864538)
(1735.068957 532.9532348 30.34015714)
(1373.032675 -28.41638419 -251.382838)
(1952.527519 -298.4795605 -233.904321)
(1847.278672 -118.0028735 -249.8094975)
(1466.666113 55.57367789 312.3486421)
(1697.488738 -372.7350165 -108.3166438)
(1489.280042 -131.5034476 19.20475076)
(1334.5852 -30.64279218 90.3023219)
(1767.731142 -107.7007369 -189.370618)
(1626.954338 176.2441983 213.5452649)
(1677.311051 -359.5855715 -273.4982456)
(1365.655783 517.1876021 13.05762455)
(2109.750624 9.011834086 217.1773021)
(1283.300512 -556.9681166 382.1702781)
(1752.549558 140.9187366 464.7537624)
(1245.303852 77.07124067 -385.7586129)
(1480.141478 444.7166012 318.3838604)
(2092.436553 -301.7233245 68.93525417)
(1664.12604 -248.0053799 17.86919881)
(2208.980203 2.109928652 171.6982099)
(994.3483761 516.502969 48.28198024)
(2042.303887 207.6308722 484.4901884)
(615.2517953 933.525725 -225.3988103)
(1353.307366 727.3119952 -965.4165219)
(1.439683223 604.4999929 -821.5420015)
(832.247565 670.6435037 -124.802859)
(982.0431378 207.61765 -479.0304595)
(1163.393721 -35.1204545 -45.95638098)
(1566.415513 346.3309988 -184.8623499)
(1402.559512 -45.44792428 -1144.56957)
(1345.927159 389.9596298 342.9256254)
(682.2272709 141.7760523 608.6552327)
(1878.306708 -375.0011312 156.1155923)
(976.1956802 -356.209688 -287.560182)
(-249.734903 565.0246409 -606.0849878)
(1559.867276 125.194796 -229.3496067)
(460.3520628 -61.6911948 -15.63052268)
(-2.721667099 447.011185 629.7746781)
(2108.774366 -551.6560662 -281.9266784)
(1971.997264 -2.131365572 -15.04584835)
(1152.176611 299.7051581 1246.711226)
(1557.313666 922.7924169 35.40352601)
(1231.271298 337.0859967 135.8859338)
(293.4227489 471.2856654 -482.7911929)
(1485.609365 -301.8990389 19.77771916)
(1664.092759 97.95326905 -564.0629605)
(1373.727673 6.726149256 -7.076625052)
(1602.398464 35.42709276 -578.1884019)
(1278.659008 -402.2096671 -373.7796641)
(1765.419659 706.8165041 -845.9503339)
(1561.784441 364.3214813 -113.2784331)
(1627.721293 -107.9998172 486.8347695)
(543.4960073 1833.063421 -434.7869107)
(1536.340595 38.26848119 509.0292219)
(1412.053382 180.4390643 61.55380572)
(1589.838414 66.61132161 404.8975943)
(2123.599808 421.8117629 154.8334712)
(2207.097266 1116.662467 347.8297201)
(2426.729363 -699.9393832 643.6767503)
(1847.992224 -174.1983383 46.55103421)
(2230.428275 -287.5484679 -195.602489)
(861.0619466 478.5660113 -284.4571961)
(1985.621865 419.0729144 54.31386875)
(1629.798878 -124.8605863 -211.1650165)
(2024.150716 325.720643 -205.3600836)
(1785.703966 -133.14176 -205.0033677)
(1293.337737 30.50363753 -189.8188176)
(1856.840802 -175.5251175 -72.4945057)
(145.8484768 645.9219684 -418.5461657)
(366.2110679 782.5529276 -419.0971495)
(896.1657064 1019.302898 -290.2850088)
(1231.47513 -77.78818774 -874.7562505)
(1629.264294 65.47094966 -183.8968639)
(996.7522001 1036.397253 -137.9382005)
(123.4129703 985.3144549 204.6332538)
(1510.284442 -118.4283729 -609.239932)
(906.7305375 -173.010119 -275.4474039)
(748.1628592 186.0160423 350.0655844)
(2046.535541 502.2495571 284.4318787)
(1520.243515 46.48804241 204.4799208)
(1355.328396 305.5901742 -51.50660824)
(1529.658517 1298.06344 385.2946987)
(236.27571 -717.3727506 -493.7754266)
(-489.7387241 -504.1593486 231.6672221)
(18.34085274 -25.74877381 141.3122057)
(1629.799282 18.18625971 203.0768075)
(543.4428068 7.223074875 -345.092684)
(1195.011927 686.7944657 -340.5308202)
(605.1337685 1.761191336 596.5397757)
(-361.4677617 446.9108698 1033.884275)
(904.2349482 -328.4033145 115.3135196)
(404.1010331 377.9393919 740.6596301)
(1179.368088 340.7426119 -43.87913552)
(1999.558564 -253.1327044 -74.70207161)
(1615.925461 -210.8359262 -275.3813042)
(987.1254294 -610.2450808 -658.5336967)
(1745.868938 417.3981797 -410.3604226)
(1143.976098 142.8963568 582.8532192)
(1789.214415 204.7702164 175.9394228)
(679.8935922 313.4215392 549.2784393)
(1369.708648 -904.0343206 -251.5431359)
(1108.497597 164.3057648 -309.1679943)
(1558.897205 79.35668507 -303.5593579)
(1756.829044 169.8169659 -115.3697031)
(1814.277737 -249.852845 177.5647133)
(1666.733116 191.1207345 36.77687671)
(1109.071895 904.8895402 1085.481424)
(1753.651642 -215.8893854 115.5476482)
(1357.084828 107.5668482 604.3478214)
(2002.127822 -148.1091303 -40.70486158)
(1601.600291 333.8788424 323.4777334)
(1573.067579 119.1713396 294.0345144)
(1925.767507 -338.3763849 -273.6206072)
(1505.503971 131.8526346 40.62016823)
(1898.651036 144.8125294 263.0861562)
(1048.3518 -485.2683646 7.642591087)
(2032.538807 345.8406846 214.347573)
(1651.718942 -138.1522685 156.00967)
(1861.56862 39.51806335 -216.6169207)
(1018.850809 153.0837989 123.201153)
(1147.443927 46.76879332 98.9320184)
(847.1307484 164.7998661 -474.6612305)
(1688.018328 -776.7186021 -572.6771391)
(695.233625 1218.712737 649.7846715)
(1891.535909 897.015404 -27.98373183)
(1073.68672 -389.2192719 -110.3718704)
(872.0770487 946.763509 -390.4899509)
(1379.325786 94.2007071 38.9197641)
(762.2017118 1496.271515 754.7743117)
(617.0506487 78.83462874 -154.9974706)
(-904.8852466 -183.7883482 289.2367839)
(1108.202449 206.5113151 598.4601811)
(2060.941819 -217.8911675 -386.7456364)
(1528.476165 128.3862385 -555.6816896)