/*--------------------------------*- C++ -*----------------------------------*\
| =========                 |                                                 |
| \\      /  F ield         | OpenFOAM: The Open Source CFD Toolbox           |
|  \\    /   O peration     | Version:  2406                                  |
|   \\  /    A nd           | Website:  www.openfoam.com                      |
|    \\/     M anipulation  |                                                 |
\*---------------------------------------------------------------------------*/
FoamFile
{
    version     2.0;
    format      ascii;
    arch        "LSB;label=32;scalar=64";
    class       volScalarField;
    location    "0.01";
    object      dsmcRhoNMean;
}
// * * * * * * * * * * * * * * * * * * * * * * * * * * * * * * * * * * * * * //

dimensions      [0 -3 0 0 0 0 0];

internalField   nonuniform List<scalar> 
654
(
17.0464
17.7476
17.8952
17.7502
17.5098
17.448
15.1496
15.633
16.2664
16.645
17.0774
17.4678
17.4774
17.5092
17.641
17.5162
17.3308
11.3898
11.9648
12.3772
12.926
13.5342
14.1502
14.7612
15.2152
15.82
16.233
16.6782
17.1136
17.1544
17.256
17.3536
17.1984
9.334
9.4464
9.509
9.7322
9.9614
10.2612
10.5596
11.0044
11.511
11.9658
12.5252
13.042
13.5914
14.1682
14.7024
15.2652
15.7344
16.2244
16.6946
16.9186
16.9792
17.0636
9.024
8.987
8.951
8.971
9.023
9.013
9.0572
9.0816
9.2318
9.3946
9.5
9.655
9.8822
10.127
10.394
10.6934
11.1476
11.561
12.065
12.6506
13.2248
13.7896
14.2996
14.8928
15.4262
15.9028
16.2922
16.6056
16.7758
9.0812
9.0324
9.0058
9.0088
8.9826
8.9328
8.9482
9.007
9.0434
9.062
9.062
9.1784
9.2604
9.4292
9.5796
9.8732
10.1028
10.4126
10.7476
11.1414
11.6904
12.125
12.6886
13.2066
13.822
14.4498
14.8546
15.3566
15.7338
16.0376
8.984
8.9088
8.8934
8.851
8.8258
8.813
8.8304
8.815
8.794
8.8972
8.9402
8.9562
9.0326
9.1586
9.298
9.3814
9.5328
9.7006
10.0492
10.325
10.6276
11.1626
11.706
12.2994
12.9002
13.3398
13.9876
14.552
15.124
15.5028
8.9922
8.9846
8.918
8.899
8.8558
8.7804
8.7158
8.6988
8.6846
8.6432
8.6082
8.7172
8.7594
8.788
8.8896
9.0314
9.187
9.4346
9.52
9.7882
10.1644
10.4784
10.8188
11.3364
11.8518
12.3334
12.9352
13.459
13.9874
14.4684
9.0148
8.9476
8.9178
8.8708
8.7748
8.7272
8.6968
8.6538
8.6242
8.6176
8.5774
8.6268
8.6064
8.5924
8.6372
8.7086
8.7862
8.9312
9.1368
9.385
9.6072
9.9566
10.2416
10.512
10.9398
11.5
11.982
12.5468
13.115
13.696
8.929
8.8664
8.7918
8.715
8.7278
8.6906
8.7038
8.6536
8.6216
8.53
8.5638
8.4974
8.4516
8.4778
8.5
8.5224
8.6106
8.7788
8.9212
9.0212
9.2152
9.448
9.804
10.0898
10.4456
10.8706
11.288
11.7412
12.2158
12.6942
8.9304
8.85
8.8294
8.7746
8.7208
8.6556
8.5718
8.4928
8.485
8.4742
8.4358
8.3956
8.3852
8.4024
8.3804
8.38
8.3532
8.445
8.5436
8.6846
8.8418
9.0488
9.253
9.5546
9.832
10.1326
10.4738
10.8866
11.406
12.0186
9.066
8.9592
8.8324
8.7806
8.7062
8.6674
8.6084
8.557
8.5262
8.418
8.4178
8.433
8.3802
8.319
8.3518
8.4196
8.4238
8.4078
8.4706
8.4392
8.5522
8.6232
8.74
8.924
9.1432
9.4486
9.8266
10.2162
10.6948
11.1494
8.816
8.8424
8.78
8.7142
8.6242
8.5866
8.5194
8.4368
8.3674
8.3622
8.3014
8.2396
8.2768
8.2754
8.2374
8.2556
8.254
8.278
8.2808
8.3364
8.3576
8.3872
8.4748
8.5898
8.7676
8.9884
9.2252
9.6204
9.9374
10.3524
8.895
8.798
8.7312
8.685
8.629
8.5148
8.5084
8.419
8.3962
8.4054
8.3174
8.3018
8.2512
8.2446
8.2558
8.218
8.1864
8.1504
8.0978
8.153
8.154
8.2456
8.3382
8.451
8.5528
8.7376
8.9044
9.0984
9.4022
9.7158
8.8144
8.7396
8.6864
8.6512
8.59
8.6052
8.6002
8.5478
8.4688
8.3944
8.3554
8.3112
8.2254
8.179
8.0704
8.0664
7.987
7.917
7.9448
7.9314
7.9138
7.95
7.9666
8.0396
8.1442
8.284
8.4636
8.6974
8.82
9.081
8.9052
8.8206
8.7566
8.7142
8.6408
8.6078
8.5084
8.5034
8.486
8.4076
8.3184
8.2594
8.1954
8.098
8.021
7.9656
7.8782
7.8788
7.8568
7.8584
7.8528
7.887
7.9416
7.9888
7.9836
7.9774
8.0728
8.2248
8.4988
8.6996
8.9228
8.9434
8.9306
8.789
8.7008
8.6114
8.512
8.435
8.3288
8.25
8.1884
8.1178
8.0958
8.0772
8.0636
8.0484
8.0522
8.027
8.0374
7.9696
8.0124
7.9354
7.8038
7.8218
7.8546
7.8596
7.9262
8.0198
8.0906
8.3324
9.0048
8.9066
8.8442
8.7928
8.706
8.664
8.6042
8.544
8.4144
8.35
8.266
8.2422
8.1774
8.1532
8.1082
8.0304
7.984
7.9574
7.8648
7.8272
7.7812
7.7222
7.788
7.7524
7.8306
7.8294
7.8914
7.8954
7.9424
8.0236
8.9034
8.767
8.7158
8.6662
8.6202
8.5524
8.4576
8.4658
8.425
8.3538
8.3428
8.3008
8.221
8.1208
8.03
7.9854
7.8814
7.867
7.7884
7.751
7.7352
7.7658
7.7196
7.736
7.6854
7.661
7.663
7.7
7.7592
7.7554
8.8722
8.7936
8.7848
8.6994
8.6714
8.6072
8.5634
8.4362
8.4048
8.3116
8.2714
8.1394
8.0798
8.0942
8.0516
8.0196
7.9962
7.908
7.9044
7.8512
7.7614
7.7002
7.5972
7.6342
7.6424
7.6564
7.572
7.5454
7.6134
7.6426
8.926
8.8908
8.7568
8.7034
8.6098
8.569
8.5684
8.5488
8.4854
8.4146
8.355
8.298
8.268
8.16
8.0838
8.048
7.9752
7.8606
7.7998
7.7508
7.7426
7.7648
7.7452
7.6664
7.5486
7.5696
7.6194
7.6826
7.6888
7.6974
9.0008
8.933
8.9006
8.84
8.7648
8.6726
8.5544
8.4408
8.4064
8.3566
8.2644
8.2478
8.1592
8.0994
8.0604
8.0096
7.9596
7.9054
7.8338
7.7752
7.6782
7.5838
7.5346
7.501
7.5062
7.5262
7.4582
7.4264
7.3952
7.4306
8.9422
8.8538
8.7758
8.7524
8.7146
8.6556
8.5878
8.486
8.427
8.3698
8.2962
8.2748
8.2404
8.1946
8.0662
8.0056
7.9296
7.8976
7.8528
7.7944
7.716
7.6272
7.6132
7.5546
7.495
7.3992
7.4388
7.3966
7.391
7.3824
8.7302
8.7076
8.653
8.6038
8.5088
8.4174
8.404
8.3802
8.302
8.2234
8.2076
8.0436
7.969
7.9062
7.8458
7.8384
7.7872
7.6946
7.5946
7.573
7.5582
7.57
7.4548
7.3968
7.3086
7.2592
7.2064
7.1778
7.1442
7.181
)
;

boundaryField
{
    flow
    {
        type            calculated;
        value           nonuniform List<scalar> 
55
(
17.0464
17.448
17.3308
17.1984
17.0636
16.7758
16.0376
15.5028
14.4684
13.696
12.6942
12.0186
11.1494
10.3524
9.7158
9.081
8.6996
8.3324
8.0236
7.7554
7.6426
7.6974
7.4306
7.3824
7.181
8.7302
8.7076
8.653
8.6038
8.5088
8.4174
8.404
8.3802
8.302
8.2234
8.2076
8.0436
7.969
7.9062
7.8458
7.8384
7.7872
7.6946
7.5946
7.573
7.5582
7.57
7.4548
7.3968
7.3086
7.2592
7.2064
7.1778
7.1442
7.181
)
;
    }
    obstacle
    {
        type            calculated;
        value           nonuniform List<scalar> 0();
    }
    frontAndBack
    {
        type            empty;
    }
    procBoundary3to1
    {
        type            processor;
        value           nonuniform List<scalar> 
36
(
16.7682
18.12
17.9518
17.6644
17.4132
17.4132
16.185
16.718
17.2652
17.5124
17.7694
17.709
17.709
12.3094
12.8446
13.3724
13.9874
14.524
14.524
9.6334
9.7528
10.0768
10.323
10.612
10.9688
10.9688
9.1008
9.0592
9.0484
9.1036
9.0768
9.1358
9.2288
9.2288
9.0246
9.0246
)
;
    }
    procBoundary3to2
    {
        type            processor;
        value           nonuniform List<scalar> 
19
(
9.1128
9.0056
9.0768
9.0424
8.981
9.0186
9.1
8.8906
8.9268
8.9098
8.9534
9.0166
9.0634
8.951
8.9064
9.0318
9.0042
9.0078
8.833
)
;
    }
}


// ************************************************************************* //
