/*--------------------------------*- C++ -*----------------------------------*\
| =========                 |                                                 |
| \\      /  F ield         | OpenFOAM: The Open Source CFD Toolbox           |
|  \\    /   O peration     | Version:  2406                                  |
|   \\  /    A nd           | Website:  www.openfoam.com                      |
|    \\/     M anipulation  |                                                 |
\*---------------------------------------------------------------------------*/
FoamFile
{
    version     2.0;
    format      ascii;
    arch        "LSB;label=32;scalar=64";
    class       volScalarField;
    location    "0.01";
    object      dsmcSigmaTcRMax;
}
// * * * * * * * * * * * * * * * * * * * * * * * * * * * * * * * * * * * * * //

dimensions      [0 3 -1 0 0 0 0];

internalField   nonuniform List<scalar> 
654
(
8.124279642e-16
8.510499318e-16
8.513747686e-16
8.185395861e-16
8.402283938e-16
7.917000784e-16
7.830478741e-16
7.986518121e-16
8.40417898e-16
8.568965137e-16
8.055575481e-16
8.230871767e-16
7.929385819e-16
7.910027318e-16
8.172885682e-16
7.999520081e-16
7.977650323e-16
8.124940744e-16
8.211519486e-16
8.184417067e-16
7.809011999e-16
7.940586292e-16
8.10342325e-16
8.156094701e-16
8.685466556e-16
7.920225089e-16
7.876259676e-16
8.40866519e-16
7.996465454e-16
8.001152999e-16
8.451752102e-16
8.387103865e-16
7.872184959e-16
7.774696925e-16
7.811862649e-16
7.806318211e-16
7.731761726e-16
7.682004693e-16
7.803754902e-16
8.040960098e-16
7.921187674e-16
7.898652712e-16
8.07509858e-16
7.724942862e-16
7.862093325e-16
8.14296574e-16
8.266781427e-16
7.662920944e-16
8.430100193e-16
7.861896767e-16
7.85774042e-16
8.25612385e-16
8.206452148e-16
7.819473362e-16
8.284380091e-16
7.189008835e-16
7.479743664e-16
7.473423118e-16
8.151752588e-16
8.236928249e-16
7.008734348e-16
8.225295936e-16
7.905387882e-16
7.77212447e-16
7.96002977e-16
8.304123611e-16
7.981687983e-16
7.721892378e-16
7.673533397e-16
7.810769586e-16
8.756887126e-16
7.935106557e-16
7.942835111e-16
7.879088938e-16
7.777776797e-16
8.030711168e-16
7.943617335e-16
7.841818483e-16
7.812810947e-16
8.098893667e-16
8.024926195e-16
8.213817557e-16
7.789847636e-16
8.875727362e-16
7.179725086e-16
8.02889152e-16
7.819321801e-16
7.145344506e-16
7.631919199e-16
7.722200618e-16
7.705432606e-16
7.704676489e-16
7.378028544e-16
7.780053481e-16
7.430277498e-16
7.362568252e-16
7.426681653e-16
8.003382787e-16
7.556623164e-16
7.660206336e-16
7.998801478e-16
7.615869871e-16
7.776340459e-16
7.955840623e-16
7.929113111e-16
7.949570556e-16
7.789046725e-16
7.897886731e-16
8.523151854e-16
7.852207439e-16
8.476150242e-16
8.076937562e-16
7.882226968e-16
8.09618241e-16
8.198887675e-16
7.639359055e-16
8.668047777e-16
7.700524771e-16
7.810660781e-16
7.449490081e-16
7.628297732e-16
7.257193537e-16
7.303948842e-16
7.497519677e-16
7.04519408e-16
7.922861133e-16
7.766919712e-16
7.571244155e-16
7.632097768e-16
8.095887534e-16
7.960811139e-16
7.500179722e-16
8.499441142e-16
7.432543381e-16
7.632827371e-16
7.948581676e-16
8.179019992e-16
7.593048261e-16
8.065983942e-16
7.879843611e-16
7.97024637e-16
7.875587594e-16
7.783956023e-16
8.019041272e-16
7.574267963e-16
8.379967347e-16
6.98996923e-16
7.586661846e-16
7.627246987e-16
7.533315524e-16
8.18399439e-16
7.325232218e-16
7.900941958e-16
7.349284883e-16
7.47484149e-16
8.001567303e-16
8.530392231e-16
7.192823672e-16
7.565653375e-16
7.292690328e-16
7.969678024e-16
7.803114451e-16
7.340214333e-16
8.060680753e-16
7.646069738e-16
7.775761043e-16
8.267208508e-16
8.063935645e-16
7.7284634e-16
8.355860571e-16
8.073887605e-16
7.89605287e-16
8.34235873e-16
8.011036862e-16
8.322312955e-16
7.75759303e-16
6.904224688e-16
7.080776451e-16
6.321234115e-16
7.6234496e-16
7.594553177e-16
7.534139057e-16
7.471462572e-16
6.884147843e-16
7.525439818e-16
7.504792184e-16
7.65838131e-16
7.417265763e-16
7.476242428e-16
7.470087562e-16
7.865095624e-16
8.310798364e-16
7.627906218e-16
8.020256074e-16
7.551345046e-16
7.701017911e-16
7.595260866e-16
8.065400032e-16
7.69521172e-16
7.883296513e-16
7.67861637e-16
8.334450724e-16
7.660419462e-16
7.960629249e-16
6.584566072e-16
6.374506369e-16
6.766980366e-16
7.761464287e-16
6.836891921e-16
7.70853229e-16
7.430541408e-16
7.280618122e-16
6.803491915e-16
7.65122697e-16
7.296989548e-16
7.622380429e-16
7.341943228e-16
8.015913739e-16
7.728898836e-16
7.535155818e-16
7.746791011e-16
7.986191416e-16
7.4126475e-16
7.596696512e-16
7.62123313e-16
7.501482347e-16
8.743898655e-16
7.672897395e-16
7.729611687e-16
7.860336847e-16
7.651140004e-16
7.445798955e-16
8.010809895e-16
7.690208841e-16
7.630959559e-16
6.746627918e-16
6.672772338e-16
7.524495959e-16
8.481367734e-16
7.390506954e-16
7.3252128e-16
7.205600263e-16
7.041987318e-16
7.29426917e-16
7.468405026e-16
7.375527462e-16
7.927192131e-16
7.69066977e-16
7.153061841e-16
7.75002524e-16
7.75002524e-16
7.044646689e-16
7.565951095e-16
7.561948064e-16
7.845597305e-16
7.481963739e-16
8.000760064e-16
7.272370841e-16
7.567841002e-16
7.494074763e-16
7.845561816e-16
7.704786098e-16
8.479143683e-16
7.533223205e-16
7.099477119e-16
6.586028773e-16
6.854493504e-16
7.121237231e-16
6.93067852e-16
6.469203393e-16
7.482196234e-16
8.167280312e-16
7.638122663e-16
6.762248489e-16
7.301306637e-16
7.532329257e-16
7.30940785e-16
7.124081785e-16
7.796311137e-16
7.315204159e-16
7.768028988e-16
7.486039807e-16
7.552158207e-16
7.083304775e-16
7.608048883e-16
7.277097411e-16
7.873294841e-16
7.560594252e-16
7.271909446e-16
7.470319765e-16
7.872382599e-16
7.663764282e-16
7.844657049e-16
8.091448356e-16
6.960814672e-16
7.220392638e-16
6.674057853e-16
7.484446952e-16
7.054848047e-16
6.716896204e-16
6.619909839e-16
7.726980826e-16
7.336179146e-16
7.21060676e-16
7.04676338e-16
7.209674548e-16
7.779737925e-16
7.07667166e-16
7.719890447e-16
7.576086401e-16
6.999789529e-16
7.22772863e-16
7.41563275e-16
8.236326513e-16
7.526979471e-16
7.24942972e-16
7.677134118e-16
7.323150316e-16
7.601506575e-16
7.28420348e-16
8.058054556e-16
7.59390291e-16
7.649429734e-16
8.102582565e-16
6.135014973e-16
5.999135469e-16
7.080656746e-16
7.685124251e-16
6.749325646e-16
7.720898593e-16
7.192860708e-16
7.491588049e-16
7.237820614e-16
7.248306355e-16
7.378670401e-16
7.379592788e-16
6.848276524e-16
7.593762697e-16
6.927071262e-16
7.310400896e-16
7.673183524e-16
7.111306778e-16
7.592504132e-16
7.172056132e-16
7.533732756e-16
7.16227441e-16
7.755008625e-16
8.098588566e-16
8.026067681e-16
8.013473723e-16
7.188569489e-16
7.74460213e-16
7.532297207e-16
7.410195004e-16
6.358749212e-16
6.302179625e-16
6.499295387e-16
6.847271205e-16
6.86004284e-16
7.1531369e-16
7.733181195e-16
6.310012968e-16
6.952102598e-16
7.222934949e-16
7.310597286e-16
7.009752031e-16
6.694801556e-16
7.316326165e-16
6.662740283e-16
6.889751822e-16
7.280282386e-16
7.566857691e-16
7.342280211e-16
7.143139726e-16
7.381009543e-16
6.855123112e-16
7.555932126e-16
7.369394647e-16
7.747831909e-16
7.489367237e-16
7.698142257e-16
7.743663123e-16
7.67058214e-16
7.190056788e-16
7.036707498e-16
6.606559732e-16
6.097252474e-16
6.494192602e-16
7.581511416e-16
6.314067262e-16
6.899441402e-16
6.235573443e-16
6.568042171e-16
6.72893633e-16
7.063116608e-16
7.480850758e-16
6.558491137e-16
7.470551486e-16
6.682993992e-16
6.987949917e-16
6.727696542e-16
6.951438677e-16
7.229554178e-16
7.843156408e-16
7.014909734e-16
7.547680637e-16
7.323739867e-16
7.66577936e-16
7.198721638e-16
7.585052823e-16
7.347271085e-16
7.30716702e-16
7.173973927e-16
7.585689384e-16
6.30590047e-16
6.475427186e-16
6.251952348e-16
6.307757767e-16
6.069466606e-16
6.227035141e-16
7.44877223e-16
6.249612116e-16
6.283598251e-16
6.573274123e-16
6.662653558e-16
6.338013113e-16
7.141246567e-16
6.975329372e-16
6.954913285e-16
6.660639382e-16
6.766572042e-16
7.606241297e-16
6.975172072e-16
6.968292302e-16
6.975367817e-16
7.116987606e-16
7.42181208e-16
8.067281162e-16
8.010586811e-16
8.162597109e-16
7.474626808e-16
7.776503417e-16
7.286728756e-16
7.51857428e-16
6.387144063e-16
7.308779202e-16
6.001897568e-16
6.115736487e-16
6.376901806e-16
6.902280454e-16
7.173888634e-16
7.034699384e-16
6.563232986e-16
6.197441859e-16
7.876973092e-16
5.913976507e-16
6.77544909e-16
6.901972293e-16
7.47846255e-16
6.871670796e-16
6.951555179e-16
7.449299299e-16
6.963533594e-16
7.260377097e-16
7.661445487e-16
6.762951461e-16
7.530627155e-16
7.317699369e-16
7.446701754e-16
6.822847271e-16
8.118661912e-16
7.041863078e-16
8.069007597e-16
7.238392324e-16
5.99830332e-16
6.961231063e-16
6.303176913e-16
6.457391279e-16
6.729712846e-16
6.700880219e-16
6.047990397e-16
7.157467606e-16
6.063646477e-16
5.979849794e-16
7.12601792e-16
5.825144672e-16
8.048274018e-16
6.98115521e-16
6.80092576e-16
6.92783865e-16
6.200411193e-16
7.309405655e-16
6.781081904e-16
6.634351927e-16
6.660786117e-16
7.439801358e-16
7.300160348e-16
7.186375492e-16
7.566156779e-16
7.566156779e-16
6.992887832e-16
7.055623619e-16
7.732172886e-16
7.38441106e-16
6.277589394e-16
7.035264782e-16
6.677695979e-16
6.305156261e-16
6.033159769e-16
6.612175701e-16
6.771487158e-16
6.67580738e-16
6.141043684e-16
6.340092006e-16
6.162593654e-16
6.512514317e-16
7.374880644e-16
6.450808105e-16
7.766104371e-16
6.583452333e-16
7.277776014e-16
6.469832473e-16
6.95344839e-16
6.460354296e-16
6.663328091e-16
7.264438123e-16
7.247223964e-16
8.149310574e-16
7.906143848e-16
6.960570938e-16
7.244533121e-16
7.036924895e-16
7.201442949e-16
7.294353685e-16
6.78260548e-16
6.114019378e-16
6.17714522e-16
6.455145347e-16
6.868512737e-16
7.512879472e-16
6.887917649e-16
7.104233535e-16
7.206665709e-16
6.228833838e-16
7.698799848e-16
6.719033704e-16
6.138231911e-16
6.040309879e-16
6.338969114e-16
7.456244091e-16
6.375361821e-16
6.663257122e-16
6.654186507e-16
6.236350824e-16
6.842053109e-16
6.519250135e-16
7.508268734e-16
7.066265089e-16
6.848167348e-16
6.518426379e-16
6.979956692e-16
6.942742877e-16
7.42075013e-16
7.182364161e-16
5.892368893e-16
6.072089781e-16
6.107051437e-16
6.373759277e-16
6.157471992e-16
6.283519662e-16
6.198731634e-16
5.965372474e-16
6.140228978e-16
6.661129289e-16
6.285176066e-16
7.060335158e-16
6.468963248e-16
6.126464786e-16
7.021762078e-16
6.981448114e-16
7.778972823e-16
6.073317798e-16
6.7627072e-16
7.453306644e-16
7.415263684e-16
6.702547908e-16
6.377588971e-16
6.764399055e-16
6.655517891e-16
7.303935944e-16
6.777503784e-16
6.841881501e-16
6.963022885e-16
7.075054988e-16
6.191007236e-16
6.124368291e-16
5.796386032e-16
6.22808044e-16
6.010631387e-16
6.136663007e-16
7.055688118e-16
6.96285709e-16
6.146260499e-16
6.109129821e-16
6.017383551e-16
6.945101377e-16
7.140667935e-16
6.7624509e-16
6.63947808e-16
6.590388026e-16
6.80404213e-16
6.81501371e-16
5.994680899e-16
6.783900925e-16
6.331146687e-16
6.651910269e-16
6.444267775e-16
7.278023922e-16
6.866488824e-16
7.088591101e-16
6.894142417e-16
7.04374288e-16
6.927876053e-16
6.773586846e-16
5.912136849e-16
5.836362889e-16
6.131650695e-16
5.678321649e-16
6.17667817e-16
6.336952962e-16
6.531595195e-16
6.181781404e-16
6.203222422e-16
5.962897261e-16
6.546040122e-16
7.025713414e-16
7.015880133e-16
6.26528598e-16
6.555221479e-16
6.791072652e-16
6.760892443e-16
7.082725433e-16
7.097820828e-16
5.980605662e-16
5.895375094e-16
6.481307862e-16
6.97824877e-16
6.644839764e-16
6.295815987e-16
7.570368798e-16
6.744462925e-16
7.037489137e-16
7.411722302e-16
6.557405024e-16
)
;

boundaryField
{
    flow
    {
        type            zeroGradient;
    }
    obstacle
    {
        type            zeroGradient;
    }
    frontAndBack
    {
        type            empty;
    }
    procBoundary3to1
    {
        type            processor;
        value           nonuniform List<scalar> 
36
(
8.304869851e-16
7.991803543e-16
8.443678858e-16
8.550175374e-16
8.243590926e-16
8.243590926e-16
8.255629763e-16
8.176765487e-16
8.479082261e-16
8.310782531e-16
8.263047111e-16
8.353340971e-16
8.353340971e-16
8.657158626e-16
8.281277951e-16
7.994717007e-16
8.214704785e-16
8.270868592e-16
8.270868592e-16
8.182816647e-16
8.242071759e-16
7.736324327e-16
8.104432876e-16
8.00664566e-16
8.10557908e-16
8.10557908e-16
7.866401713e-16
7.552573687e-16
7.904459706e-16
7.618253115e-16
7.884482978e-16
7.619876632e-16
7.468976282e-16
7.468976282e-16
7.716533731e-16
7.716533731e-16
)
;
    }
    procBoundary3to2
    {
        type            processor;
        value           nonuniform List<scalar> 
19
(
7.218952126e-16
7.350401675e-16
6.51638199e-16
6.318932112e-16
8.138014578e-16
7.303780413e-16
6.364221294e-16
6.027433136e-16
6.223769369e-16
6.432487934e-16
6.345620479e-16
6.586513849e-16
6.16807994e-16
6.013441489e-16
6.17957798e-16
5.930087405e-16
6.048617585e-16
6.049944151e-16
6.047924544e-16
)
;
    }
}


// ************************************************************************* //
