/*--------------------------------*- C++ -*----------------------------------*\
| =========                 |                                                 |
| \\      /  F ield         | OpenFOAM: The Open Source CFD Toolbox           |
|  \\    /   O peration     | Version:  2406                                  |
|   \\  /    A nd           | Website:  www.openfoam.com                      |
|    \\/     M anipulation  |                                                 |
\*---------------------------------------------------------------------------*/
FoamFile
{
    version     2.0;
    format      ascii;
    arch        "LSB;label=32;scalar=64";
    class       volScalarField;
    location    "0.01";
    object      iDof;
}
// * * * * * * * * * * * * * * * * * * * * * * * * * * * * * * * * * * * * * //

dimensions      [0 -3 0 0 0 0 0];

internalField   nonuniform List<scalar> 
654
(
5.982840782e+20
4.12005508e+20
3.880206291e+20
5.034425464e+20
5.92766434e+20
3.988560485e+20
3.648909471e+20
4.205999001e+20
3.977284053e+20
5.081918661e+20
4.856893048e+20
3.266727904e+20
4.394725342e+20
4.157363846e+20
5.873496375e+20
6.492203801e+20
5.413046422e+20
3.49989062e+20
2.772559923e+20
3.303869505e+20
3.587804668e+20
2.842792145e+20
5.473364252e+20
1.314374688e+20
5.03789309e+20
5.616857467e+20
2.698273915e+20
3.266727904e+20
4.944066053e+20
4.711679067e+20
4.475044857e+20
5.645394661e+20
9.401606943e+20
2.621444564e+20
2.161649468e+20
1.694580927e+20
2.684142977e+20
2.705714302e+20
2.727635134e+20
3.249898433e+20
3.276661753e+20
2.795581911e+20
1.537630572e+20
3.101227794e+20
4.691455034e+20
3.680249126e+20
3.712131782e+20
4.546979854e+20
4.317238265e+20
3.53895526e+20
4.944066096e+20
1.940103128e+20
5.034425419e+20
3.104967035e+20
6.552635142e+20
2.033959531e+20
1.82141302e+20
1.835063599e+20
2.080035373e+20
1.630114445e+20
2.11193016e+20
1.655303355e+20
2.14481828e+20
1.921466208e+20
2.17874694e+20
3.172168997e+20
1.96779222e+20
2.975601988e+20
3.499890648e+20
1.764356314e+20
2.54143806e+20
2.818989336e+20
4.134970358e+20
2.085091126e+20
3.417374159e+20
2.121218125e+20
3.744571613e+20
3.237928699e+20
5.716773832e+20
6.592088013e+20
4.988836615e+20
4.475044857e+20
5.92766434e+20
4.55835484e+20
1.121695102e+20
9.039820007e+19
1.138383121e+20
1.146914741e+20
1.155575207e+20
2.095861414e+20
1.173294515e+20
1.65530333e+20
1.191565702e+20
1.200916371e+20
1.936663917e+20
1.952103968e+20
3.44363633e+20
2.231701456e+20
2.249929703e+20
3.024610873e+20
1.524862861e+20
3.84407643e+20
3.10122782e+20
3.388273137e+20
3.417374217e+20
2.651522702e+20
1.337347016e+20
4.047410908e+20
2.177818641e+20
4.12005508e+20
3.880206291e+20
3.91566425e+20
4.516315688e+20
5.982840782e+20
1.121695102e+20
1.581968513e+20
3.870502667e+20
2.064446549e+20
1.848920332e+20
1.862987924e+20
1.173294524e+20
3.074134802e+20
2.383131422e+20
1.441099645e+20
1.936663917e+20
9.760519915e+19
1.229870137e+20
2.975601965e+20
2.499921872e+20
3.780763531e+20
2.541438081e+20
2.050174096e+20
1.809049547e+20
2.345727517e+20
1.840124547e+20
2.916674947e+20
2.407224629e+20
2.968101307e+20
2.177818603e+20
3.570714372e+20
5.543151844e+20
3.356283643e+20
3.951776263e+20
1.709383081e+20
2.916407287e+20
1.807964015e+20
1.138383129e+20
2.752595399e+20
1.61780529e+20
2.794481907e+20
2.815906858e+20
3.783550498e+20
1.429878853e+20
1.921466194e+20
1.936663932e+20
2.684142998e+20
2.459740275e+20
2.727635134e+20
2.499921872e+20
2.268458137e+20
2.795581911e+20
2.306445858e+20
3.618099093e+20
3.127636689e+20
1.577249625e+20
2.386370432e+20
3.477102242e+20
3.50775609e+20
3.53895526e+20
4.39472538e+20
3.603048667e+20
3.076593339e+20
4.516315688e+20
3.418766161e+20
1.346034123e+20
9.039820073e+19
2.049089647e+20
3.670127198e+20
1.386690249e+20
2.095861414e+20
1.877271239e+20
2.364719079e+20
2.14481828e+20
1.441099656e+20
1.936663932e+20
1.708090972e+20
2.705714281e+20
1.735767813e+20
2.249929703e+20
2.016407233e+20
2.54143806e+20
2.050174079e+20
1.550613897e+20
2.345727537e+20
4.205999036e+20
3.712131751e+20
3.209632811e+20
3.50775609e+20
2.450045928e+20
3.570714372e+20
4.711679067e+20
3.356283643e+20
3.104967035e+20
3.988560485e+20
8.973560819e+19
2.485950502e+20
2.504442866e+20
2.52321243e+20
2.542265475e+20
1.862987952e+20
1.877271253e+20
1.891775263e+20
2.383131422e+20
2.88219929e+20
1.210414957e+20
1.464077999e+20
2.213766247e+20
1.487800982e+20
2.749914059e+20
1.26025452e+20
2.287294291e+20
1.537630572e+20
1.809049547e+20
2.085091126e+20
2.102999483e+20
3.446979483e+20
2.139755226e+20
2.428446524e+20
3.266727904e+20
2.197362671e+20
2.217260698e+20
3.635973914e+20
3.951776227e+20
2.848971801e+20
2.692068265e+20
2.485950538e+20
2.504442902e+20
2.52321243e+20
1.386690239e+20
1.164367452e+20
3.05056574e+20
2.128247139e+20
1.668191983e+20
1.921466194e+20
2.420829896e+20
1.22006498e+20
2.459740255e+20
1.487800982e+20
9.999687487e+19
2.268458118e+20
1.27071904e+20
2.050174096e+20
1.033742598e+20
1.824454736e+20
3.417374188e+20
1.325761351e+20
3.209632838e+20
2.698273915e+20
4.627864571e+20
2.746703387e+20
2.217260738e+20
3.91566425e+20
4.798585462e+20
3.703663341e+20
2.243390221e+20
2.033959516e+20
1.138383137e+20
2.064446549e+20
3.697840664e+20
2.794481886e+20
2.581247953e+20
2.364719079e+20
2.383131422e+20
1.681282919e+20
7.262489744e+19
2.440129998e+20
9.838961099e+19
9.918673216e+19
2.499921892e+20
2.268458155e+20
2.033150464e+20
1.537630559e+20
3.876534743e+20
2.60636393e+20
2.628749375e+20
2.916674947e+20
2.674694032e+20
2.428446545e+20
2.722273277e+20
2.19736269e+20
1.940103145e+20
1.118761224e+20
2.540427597e+20
3.41876613e+20
1.794712164e+20
2.033959502e+20
1.366059755e+20
9.175317996e+19
9.24460166e+19
2.328734922e+20
1.407953429e+20
1.418831437e+20
1.429878853e+20
2.642016016e+20
1.694580927e+20
1.708090985e+20
1.229870128e+20
1.735767799e+20
9.999687487e+19
2.52050902e+20
2.287294272e+20
1.793902334e+20
2.842792168e+20
1.824454751e+20
2.891624313e+20
1.856065891e+20
2.139755226e+20
1.888791741e+20
2.450045949e+20
3.021373699e+20
3.603048667e+20
4.475044857e+20
3.104967035e+20
2.564074621e+20
2.467729243e+20
1.807964028e+20
1.366059755e+20
2.752595379e+20
2.542265456e+20
2.794481886e+20
2.581247953e+20
1.891775263e+20
2.621444564e+20
2.40183276e+20
2.90499592e+20
1.708090985e+20
1.229870128e+20
2.479668304e+20
2.249929685e+20
2.268458137e+20
1.779006671e+20
2.306445858e+20
1.292178248e+20
1.042545572e+20
2.891624313e+20
1.85606586e+20
2.94216341e+20
1.888791741e+20
2.722273253e+20
1.922692354e+20
2.217260738e+20
2.517212732e+20
2.258157844e+20
1.709383065e+20
1.346034123e+20
1.581968501e+20
1.366059755e+20
2.293829499e+20
1.848920332e+20
2.328734922e+20
2.581247973e+20
3.547078618e+20
1.906505138e+20
1.441099645e+20
2.178746906e+20
1.708090985e+20
2.95168833e+20
2.479668304e+20
1.74994531e+20
3.528712629e+20
2.541438081e+20
3.331532906e+20
1.292178248e+20
2.085091126e+20
1.577249625e+20
1.060609081e+20
1.337347016e+20
1.349136958e+20
2.722273253e+20
2.197362671e+20
2.771575897e+20
2.237522429e+20
1.975888131e+20
2.564074644e+20
1.794712164e+20
2.033959516e+20
2.504442902e+20
2.064446549e+20
2.773380518e+20
2.561608414e+20
2.346589031e+19
3.074134779e+20
1.668191995e+20
3.362565839e+20
1.694580927e+20
1.952103983e+20
2.95168833e+20
2.479668304e+20
1.249960946e+20
1.764356343e+20
2.795581889e+20
1.793902319e+20
1.809049547e+20
3.127636689e+20
1.314374688e+20
1.856065891e+20
2.139755226e+20
1.349136958e+20
1.088909311e+20
3.570714403e+20
2.771575897e+20
2.237522409e+20
2.258157844e+20
3.988560485e+20
2.019051199e+20
1.807964015e+20
1.821413007e+20
3.211361299e+20
1.386690249e+20
2.561608395e+20
2.581247953e+20
4.25649431e+20
3.098070825e+20
2.161649468e+20
1.452497949e+20
1.952103983e+20
1.475844153e+20
1.983734643e+20
1.74994531e+20
2.268458118e+20
1.27071904e+20
1.025087048e+20
2.325920846e+20
2.345727537e+20
2.891624313e+20
1.32576134e+20
2.407224629e+20
3.777583514e+20
2.450045949e+20
1.922692354e+20
2.217260738e+20
4.195354554e+20
2.540427574e+20
1.4244859e+20
1.570373143e+20
3.163937025e+20
2.73211951e+20
2.293829482e+20
2.080035373e+20
1.630114445e+20
2.111930144e+20
2.128247155e+20
2.14481828e+20
2.40183276e+20
1.936663932e+20
2.440129979e+20
2.705714302e+20
2.479668324e+20
2.499921892e+20
3.024610849e+20
1.779006671e+20
3.075261119e+20
7.753069422e+19
2.345727517e+20
2.365874438e+20
1.856065875e+20
2.674694009e+20
2.158619132e+20
2.450045949e+20
1.648022018e+20
1.940103128e+20
2.517212732e+20
3.104967035e+20
2.848971775e+20
2.692068246e+20
1.807964001e+20
1.366059755e+20
2.293829499e+20
2.080035373e+20
1.862987924e+20
1.173294524e+20
2.601190987e+20
2.621444564e+20
1.681282919e+20
3.389161881e+20
1.464077999e+20
7.379220824e+19
1.735767813e+20
1.749945324e+20
2.268458137e+20
2.54143806e+20
2.306445839e+20
2.842792145e+20
2.085091126e+20
1.314374677e+20
1.32576134e+20
1.069877613e+20
3.237928699e+20
1.088909301e+20
2.472033026e+20
8.314727766e+19
1.957832125e+20
2.82269733e+20
2.279177462e+20
2.019051213e+20
1.355973021e+20
2.73211953e+20
1.605680649e+20
2.542265456e+20
1.862987924e+20
1.877271239e+20
2.837662895e+20
9.532525688e+19
1.441099645e+20
2.178746906e+20
1.952103968e+20
1.229870128e+20
1.983734643e+20
9.999687487e+19
1.764356329e+20
2.033150481e+20
2.050174096e+20
1.033742598e+20
2.345727537e+20
1.314374699e+20
2.386370432e+20
2.407224629e+20
1.349136958e+20
2.177818603e+20
1.373351681e+20
2.217260738e+20
2.237522429e+20
2.540427574e+20
3.41876613e+20
2.243390205e+20
1.355973001e+20
1.821413007e+20
1.605680649e+20
1.848920332e+20
1.164367461e+20
1.407953429e+20
2.601190967e+20
1.906505138e+20
7.205498226e+19
1.210414957e+20
1.464077999e+20
1.475844153e+20
2.975601941e+20
2.999906246e+20
1.26025451e+20
1.524862848e+20
2.050174096e+20
1.809049562e+20
1.824454751e+20
1.840124547e+20
2.121218143e+20
2.674694032e+20
2.158619132e+20
2.722273277e+20
1.648022018e+20
1.940103128e+20
3.356283643e+20
1.129078922e+20
3.133868981e+20
1.794712164e+20
9.039820073e+19
1.593736381e+20
1.835063586e+20
1.848920346e+20
9.314939689e+19
2.111930144e+20
2.128247155e+20
2.383131404e+20
3.602749141e+20
1.452497949e+20
7.320389936e+19
3.197662357e+20
1.487800982e+20
2.499921872e+20
1.512305424e+20
2.795581911e+20
1.28135881e+20
2.067485196e+20
2.345727517e+20
3.154499251e+20
1.32576134e+20
1.069877604e+20
1.888791757e+20
2.177818622e+20
2.472033026e+20
1.662945538e+20
2.796903011e+20
1.693618383e+20
1.709383065e+20
1.346034132e+20
2.48595052e+20
1.366059755e+20
3.899510148e+20
1.848920332e+20
2.561608414e+20
2.111930144e+20
2.837662873e+20
1.906505138e+20
1.681282919e+20
1.452497949e+20
1.464077987e+20
2.951688306e+20
1.735767813e+20
1.499953135e+20
3.276661753e+20
2.287294254e+20
2.306445839e+20
7.753069486e+19
1.824454751e+20
1.577249625e+20
1.590913608e+20
1.337347016e+20
1.349136958e+20
2.722273277e+20
1.098681345e+20
1.108630359e+20
2.517212732e+20
1.693618398e+20
2.279177462e+20
3.589424328e+20
1.355973011e+20
2.276766275e+20
2.523212449e+20
2.773380498e+20
1.630114433e+20
1.173294524e+20
1.891775263e+20
2.14481828e+20
1.200916371e+20
1.936663917e+20
1.708090985e+20
3.197662357e+20
2.479668304e+20
7.499765615e+19
2.520509041e+20
1.779006671e+20
1.28135881e+20
2.584356495e+20
1.824454736e+20
1.577249625e+20
2.916674972e+20
1.069877613e+20
8.094821746e+19
2.177818603e+20
2.19736269e+20
1.385787961e+20
8.390709107e+19
2.822697305e+20
8.546915325e+19
)
;

boundaryField
{
    flow
    {
        type            zeroGradient;
    }
    obstacle
    {
        type            calculated;
        value           nonuniform List<scalar> 0();
    }
    frontAndBack
    {
        type            empty;
    }
    procBoundary3to1
    {
        type            processor;
        value           nonuniform List<scalar> 
36
(
3.703663341e+20
4.120055008e+20
5.543151795e+20
3.91566425e+20
5.363124879e+20
5.363124879e+20
3.909545862e+20
5.257498707e+20
2.651522657e+20
6.151796221e+20
4.587065696e+20
5.716773932e+20
5.716773932e+20
3.249898459e+20
2.016407249e+20
5.591163777e+20
2.306445839e+20
4.134970393e+20
4.134970393e+20
2.859757706e+20
2.161649468e+20
3.147078889e+20
3.41618197e+20
2.951688306e+20
2.727635134e+20
2.727635134e+20
2.259955002e+20
2.276766258e+20
2.064446549e+20
9.244601728e+19
1.862987938e+20
1.642612334e+20
1.891775263e+20
1.891775263e+20
4.26244142e+20
4.26244142e+20
)
;
    }
    procBoundary3to2
    {
        type            processor;
        value           nonuniform List<scalar> 
19
(
2.449773118e+20
2.672479765e+20
1.336239882e+20
2.227066455e+20
1.113533235e+20
2.227066471e+20
2.672479784e+20
2.004359824e+20
1.781653177e+20
6.681199412e+19
3.117893059e+20
1.55894653e+20
1.781653177e+20
8.908265819e+19
2.004359838e+20
1.781653177e+20
1.55894653e+20
8.908265883e+19
1.55894653e+20
)
;
    }
}


// ************************************************************************* //
