/*--------------------------------*- C++ -*----------------------------------*\
| =========                 |                                                 |
| \\      /  F ield         | OpenFOAM: The Open Source CFD Toolbox           |
|  \\    /   O peration     | Version:  2406                                  |
|   \\  /    A nd           | Website:  www.openfoam.com                      |
|    \\/     M anipulation  |                                                 |
\*---------------------------------------------------------------------------*/
FoamFile
{
    version     2.0;
    format      ascii;
    arch        "LSB;label=32;scalar=64";
    class       volScalarField;
    location    "0.01";
    object      iDofMean;
}
// * * * * * * * * * * * * * * * * * * * * * * * * * * * * * * * * * * * * * //

dimensions      [0 -3 0 0 0 0 0];

internalField   nonuniform List<scalar> 
654
(
4.856471291e+20
4.874739303e+20
4.959790544e+20
4.964558826e+20
4.942486527e+20
4.970885953e+20
3.948537066e+20
4.109523899e+20
4.313072888e+20
4.452028216e+20
4.607950296e+20
4.755212474e+20
4.800523293e+20
4.85280767e+20
4.934016645e+20
4.944293053e+20
4.937496049e+20
2.847361013e+20
3.015738633e+20
3.145588741e+20
3.312568796e+20
3.497719768e+20
3.688057088e+20
3.880349528e+20
4.034344787e+20
4.231365959e+20
4.380108047e+20
4.540261777e+20
4.700598267e+20
4.7544722e+20
4.826335878e+20
4.898396039e+20
4.899775662e+20
2.224414869e+20
2.268867281e+20
2.301967148e+20
2.374783298e+20
2.450245677e+20
2.54443724e+20
2.6398175e+20
2.773668969e+20
2.925449398e+20
3.06649665e+20
3.236958198e+20
3.399219809e+20
3.572838426e+20
3.756730394e+20
3.932442154e+20
4.118969097e+20
4.283333665e+20
4.456361443e+20
4.627035098e+20
4.731968328e+20
4.792714208e+20
4.861371522e+20
2.039383423e+20
2.046129851e+20
2.053206784e+20
2.073333037e+20
2.10121752e+20
2.114980725e+20
2.141773364e+20
2.164264632e+20
2.217323968e+20
2.274272889e+20
2.318123498e+20
2.374879235e+20
2.450457831e+20
2.5316709e+20
2.619817076e+20
2.717661375e+20
2.856815047e+20
2.98777452e+20
3.144578055e+20
3.325525657e+20
3.506585683e+20
3.688296051e+20
3.858423768e+20
4.054227111e+20
4.237119504e+20
4.407581718e+20
4.556770364e+20
4.687258237e+20
4.77937807e+20
2.037267513e+20
2.041281756e+20
2.050410142e+20
2.066465104e+20
2.076013972e+20
2.080212316e+20
2.099774797e+20
2.129902442e+20
2.155161054e+20
2.176540831e+20
2.193756052e+20
2.239648882e+20
2.277817848e+20
2.338128819e+20
2.394825175e+20
2.488549006e+20
2.567564085e+20
2.668455349e+20
2.77756301e+20
2.903854333e+20
3.073113196e+20
3.214971276e+20
3.393812269e+20
3.56350246e+20
3.762726156e+20
3.96893146e+20
4.117065169e+20
4.295092116e+20
4.441175486e+20
4.569067015e+20
2.01546176e+20
2.013348727e+20
2.024819319e+20
2.03026849e+20
2.039775133e+20
2.052314072e+20
2.072131993e+20
2.084499868e+20
2.095725772e+20
2.136958627e+20
2.164270344e+20
2.185429212e+20
2.221785001e+20
2.271029013e+20
2.324427356e+20
2.364590332e+20
2.422702093e+20
2.485989854e+20
2.597071529e+20
2.691070735e+20
2.793729663e+20
2.959788706e+20
3.130996834e+20
3.31871502e+20
3.511786942e+20
3.664047352e+20
3.876769537e+20
4.070053298e+20
4.269047443e+20
4.416704004e+20
2.017301354e+20
2.030479186e+20
2.030420149e+20
2.041278871e+20
2.046708584e+20
2.044722411e+20
2.045240083e+20
2.057021817e+20
2.069654315e+20
2.075952076e+20
2.083898807e+20
2.127110122e+20
2.154584896e+20
2.179132506e+20
2.222330547e+20
2.276372535e+20
2.334819184e+20
2.417821566e+20
2.460307384e+20
2.55116112e+20
2.671966015e+20
2.778371548e+20
2.893697979e+20
3.058871242e+20
3.226383843e+20
3.387619125e+20
3.585088855e+20
3.764351796e+20
3.948219628e+20
4.12200636e+20
2.022371402e+20
2.022117352e+20
2.030374629e+20
2.034810272e+20
2.027988266e+20
2.032333526e+20
2.040781564e+20
2.046380596e+20
2.055260201e+20
2.0698034e+20
2.076442651e+20
2.105051314e+20
2.116950853e+20
2.130630194e+20
2.159232536e+20
2.195010503e+20
2.232958308e+20
2.288814342e+20
2.361274843e+20
2.446072548e+20
2.525492121e+20
2.640015071e+20
2.739314616e+20
2.83642554e+20
2.978112494e+20
3.158708867e+20
3.32090227e+20
3.509218301e+20
3.701967515e+20
3.901951743e+20
2.003123114e+20
2.003766503e+20
2.001687344e+20
1.999072394e+20
2.017125874e+20
2.023810387e+20
2.042424191e+20
2.046333302e+20
2.054640587e+20
2.048763329e+20
2.073150322e+20
2.073476064e+20
2.078874091e+20
2.102213195e+20
2.124933591e+20
2.148078625e+20
2.188330691e+20
2.249758544e+20
2.305556117e+20
2.351253009e+20
2.422445104e+20
2.505158627e+20
2.622270029e+20
2.722504415e+20
2.84357775e+20
2.985831331e+20
3.128554845e+20
3.283899763e+20
3.448150574e+20
3.616541784e+20
2.003437203e+20
2.000060206e+20
2.010248015e+20
2.012743617e+20
2.015508039e+20
2.015659784e+20
2.011449186e+20
2.008308589e+20
2.022086996e+20
2.035361102e+20
2.042163684e+20
2.048635509e+20
2.062541399e+20
2.083516496e+20
2.095034525e+20
2.112186559e+20
2.122914057e+20
2.16421503e+20
2.207970815e+20
2.263522799e+20
2.324287623e+20
2.399309862e+20
2.474894388e+20
2.578092795e+20
2.676539086e+20
2.783124674e+20
2.902893189e+20
3.044876459e+20
3.219568575e+20
3.424065249e+20
2.033857574e+20
2.0247389e+20
2.010931045e+20
2.01411993e+20
2.012133774e+20
2.018407691e+20
2.020037717e+20
2.023490116e+20
2.031905513e+20
2.021862802e+20
2.037806206e+20
2.057761627e+20
2.061311545e+20
2.062836062e+20
2.087884766e+20
2.122167809e+20
2.14085661e+20
2.154681703e+20
2.189105013e+20
2.199562647e+20
2.248159041e+20
2.286461037e+20
2.337682584e+20
2.407939663e+20
2.489028903e+20
2.595250139e+20
2.723516795e+20
2.857372105e+20
3.018818341e+20
3.176432591e+20
1.977772804e+20
1.998342611e+20
1.999000775e+20
1.998888902e+20
1.993182341e+20
1.999591528e+20
1.999153074e+20
1.995066177e+20
1.994061386e+20
2.008460576e+20
2.00962773e+20
2.010569497e+20
2.035877815e+20
2.052024692e+20
2.059285643e+20
2.080831427e+20
2.097702992e+20
2.121417646e+20
2.140053944e+20
2.172769226e+20
2.197003578e+20
2.22388512e+20
2.266749698e+20
2.317763328e+20
2.386780318e+20
2.468846851e+20
2.556834197e+20
2.690732596e+20
2.80502722e+20
2.949369567e+20
1.995495601e+20
1.988308439e+20
1.987890155e+20
1.992190905e+20
1.994291693e+20
1.982871197e+20
1.996571826e+20
1.990856992e+20
2.000924804e+20
2.018836508e+20
2.013501089e+20
2.025747106e+20
2.029580879e+20
2.04438733e+20
2.063885499e+20
2.07135433e+20
2.080522887e+20
2.088717369e+20
2.092760203e+20
2.124968512e+20
2.143482241e+20
2.186339522e+20
2.230213359e+20
2.280311286e+20
2.328305868e+20
2.39995953e+20
2.467922064e+20
2.544734258e+20
2.65395646e+20
2.768003997e+20
1.977413862e+20
1.975110273e+20
1.977690243e+20
1.984437776e+20
1.985278206e+20
2.003922975e+20
2.018113529e+20
2.021314574e+20
2.018226339e+20
2.016194477e+20
2.022700211e+20
2.028040828e+20
2.023234766e+20
2.028120706e+20
2.017536947e+20
2.033143396e+20
2.029846595e+20
2.02890354e+20
2.053219548e+20
2.06721147e+20
2.080339681e+20
2.107960548e+20
2.130821748e+20
2.169304297e+20
2.217073783e+20
2.275369046e+20
2.345750977e+20
2.432578446e+20
2.489619045e+20
2.587151316e+20
1.997783845e+20
1.993415923e+20
1.993673156e+20
1.998888902e+20
1.997018865e+20
2.004528446e+20
1.996571811e+20
2.010815206e+20
2.022325325e+20
2.019364896e+20
2.013743141e+20
2.015400955e+20
2.015855545e+20
2.008035393e+20
2.005187349e+20
2.007736698e+20
2.002195749e+20
2.019113942e+20
2.030477211e+20
2.048185013e+20
2.06430431e+20
2.091255955e+20
2.124135012e+20
2.155597066e+20
2.173354094e+20
2.19115516e+20
2.23743779e+20
2.300396788e+20
2.398953986e+20
2.478491485e+20
2.001732226e+20
2.021168171e+20
2.033288875e+20
2.016046747e+20
2.010885753e+20
2.005366776e+20
1.997416598e+20
1.994640528e+20
1.984862484e+20
1.981512012e+20
1.982272367e+20
1.980848714e+20
1.991356516e+20
2.002877683e+20
2.015837e+20
2.02860648e+20
2.046416771e+20
2.057093434e+20
2.07715069e+20
2.077167797e+20
2.10625915e+20
2.104089307e+20
2.087277729e+20
2.110535909e+20
2.138236768e+20
2.158798975e+20
2.196806507e+20
2.243060297e+20
2.283731482e+20
2.373877263e+20
2.020128012e+20
2.012851536e+20
2.013617614e+20
2.016918387e+20
2.012087551e+20
2.017615937e+20
2.019052149e+20
2.020415966e+20
2.005262104e+20
2.005530355e+20
2.001058008e+20
2.011203931e+20
2.011428012e+20
2.021723178e+20
2.026986668e+20
2.02406958e+20
2.02908418e+20
2.039256902e+20
2.03254468e+20
2.040053158e+20
2.045482464e+20
2.047558843e+20
2.083051694e+20
2.09180987e+20
2.131703312e+20
2.150503931e+20
2.187161404e+20
2.208266823e+20
2.241899107e+20
2.285900993e+20
1.997380035e+20
1.98130255e+20
1.984383935e+20
1.98787852e+20
1.992257881e+20
1.99162724e+20
1.984651154e+20
2.001923878e+20
2.007788223e+20
2.006443036e+20
2.019649981e+20
2.025503109e+20
2.02215248e+20
2.013689036e+20
2.007437279e+20
2.012727289e+20
2.003008992e+20
2.016089935e+20
2.012800213e+20
2.020192665e+20
2.0333902e+20
2.059119482e+20
2.064756805e+20
2.087384701e+20
2.092175886e+20
2.104249446e+20
2.123858629e+20
2.153615337e+20
2.190187313e+20
2.209491611e+20
1.990380686e+20
1.987314059e+20
2.000093637e+20
1.995494034e+20
2.004090971e+20
2.004388707e+20
2.009478066e+20
1.994924309e+20
2.002974297e+20
1.996307302e+20
2.00236524e+20
1.986119379e+20
1.987420932e+20
2.007093119e+20
2.012837094e+20
2.02134743e+20
2.032184734e+20
2.026597094e+20
2.042778748e+20
2.046308448e+20
2.040277557e+20
2.041725511e+20
2.03201855e+20
2.059916273e+20
2.080470111e+20
2.102985963e+20
2.098637288e+20
2.110375217e+20
2.149032366e+20
2.177355169e+20
2.002450097e+20
2.009280793e+20
1.993718677e+20
1.996411566e+20
1.989854284e+20
1.995492955e+20
2.01065136e+20
2.021551031e+20
2.022182337e+20
2.021046179e+20
2.022603394e+20
2.024819872e+20
2.033713243e+20
2.02340932e+20
2.020886843e+20
2.02850566e+20
2.026847698e+20
2.014449812e+20
2.015746396e+20
2.020140555e+20
2.035335474e+20
2.05885433e+20
2.071604022e+20
2.068604715e+20
2.054935206e+20
2.079144577e+20
2.111774539e+20
2.148748726e+20
2.170315504e+20
2.192967554e+20
2.019230655e+20
2.018817818e+20
2.026458576e+20
2.027745262e+20
2.025677131e+20
2.019618649e+20
2.007366136e+20
1.996012065e+20
2.003355583e+20
2.007115565e+20
2.000670675e+20
2.012570404e+20
2.006951285e+20
2.008382546e+20
2.015037025e+20
2.018826921e+20
2.022883071e+20
2.025930787e+20
2.024533191e+20
2.026500066e+20
2.018406345e+20
2.010861769e+20
2.015274948e+20
2.023975281e+20
2.043392767e+20
2.067223885e+20
2.067096736e+20
2.077092052e+20
2.087441111e+20
2.116956967e+20
2.006084403e+20
2.000918974e+20
1.998044533e+20
2.007651331e+20
2.014075141e+20
2.015659799e+20
2.015203743e+20
2.006700595e+20
2.008264849e+20
2.010285968e+20
2.008368914e+20
2.019158755e+20
2.02692436e+20
2.031988988e+20
2.016486996e+20
2.017818718e+20
2.015258724e+20
2.023931851e+20
2.029443469e+20
2.031504301e+20
2.028343018e+20
2.022369378e+20
2.03629806e+20
2.038438012e+20
2.040343821e+20
2.032340752e+20
2.061719879e+20
2.068757299e+20
2.086255597e+20
2.103224962e+20
1.958524517e+20
1.967878432e+20
1.970085858e+20
1.973565024e+20
1.966511665e+20
1.960189319e+20
1.972073436e+20
1.981681882e+20
1.978475706e+20
1.975123137e+20
1.986920345e+20
1.96274295e+20
1.960167025e+20
1.960475355e+20
1.961388702e+20
1.975675807e+20
1.979068678e+20
1.9719087e+20
1.962715384e+20
1.973799387e+20
1.986861353e+20
2.007202685e+20
1.993930907e+20
1.99585925e+20
1.98960063e+20
1.993886905e+20
1.997308472e+20
2.007561061e+20
2.016591409e+20
2.045846632e+20
)
;

boundaryField
{
    flow
    {
        type            calculated;
        value           nonuniform List<scalar> 
55
(
4.856471291e+20
4.970885953e+20
4.937496049e+20
4.899775662e+20
4.861371522e+20
4.77937807e+20
4.569067015e+20
4.416704004e+20
4.12200636e+20
3.901951743e+20
3.616541784e+20
3.424065249e+20
3.176432591e+20
2.949369567e+20
2.768003997e+20
2.587151316e+20
2.478491485e+20
2.373877263e+20
2.285900993e+20
2.209491611e+20
2.177355169e+20
2.192967554e+20
2.116956967e+20
2.103224962e+20
2.045846632e+20
1.958524517e+20
1.967878432e+20
1.970085858e+20
1.973565024e+20
1.966511665e+20
1.960189319e+20
1.972073436e+20
1.981681882e+20
1.978475706e+20
1.975123137e+20
1.986920345e+20
1.96274295e+20
1.960167025e+20
1.960475355e+20
1.961388702e+20
1.975675807e+20
1.979068678e+20
1.9719087e+20
1.962715384e+20
1.973799387e+20
1.986861353e+20
2.007202685e+20
1.993930907e+20
1.99585925e+20
1.98960063e+20
1.993886905e+20
1.997308472e+20
2.007561061e+20
2.016591409e+20
2.045846632e+20
)
;
    }
    obstacle
    {
        type            calculated;
        value           nonuniform List<scalar> 0();
    }
    frontAndBack
    {
        type            empty;
    }
    procBoundary3to1
    {
        type            processor;
        value           nonuniform List<scalar> 
36
(
4.777212895e+20
4.977026449e+20
4.975477619e+20
4.940561398e+20
4.915219271e+20
4.915219271e+20
4.218399985e+20
4.394743169e+20
4.577906897e+20
4.684031137e+20
4.794670893e+20
4.820873788e+20
4.820873788e+20
3.077253853e+20
3.237493069e+20
3.398512659e+20
3.584575614e+20
3.753519374e+20
3.753519374e+20
2.295765824e+20
2.342459437e+20
2.439421889e+20
2.518946177e+20
2.610276359e+20
2.719898569e+20
2.719898569e+20
2.056739848e+20
2.062568089e+20
2.075548684e+20
2.103978907e+20
2.113746114e+20
2.143796823e+20
2.182351943e+20
2.182351943e+20
2.024569939e+20
2.024569939e+20
)
;
    }
    procBoundary3to2
    {
        type            processor;
        value           nonuniform List<scalar> 
19
(
2.029481133e+20
2.005606981e+20
2.021463694e+20
2.013802571e+20
2.000128397e+20
2.008502167e+20
2.026630503e+20
1.979995716e+20
1.988057697e+20
1.984271684e+20
1.993981694e+20
2.008056754e+20
2.018479425e+20
1.993447184e+20
1.983514496e+20
2.011441895e+20
2.005295192e+20
2.006096936e+20
1.967167814e+20
)
;
    }
}


// ************************************************************************* //
