/*--------------------------------*- C++ -*----------------------------------*\
| =========                 |                                                 |
| \\      /  F ield         | OpenFOAM: The Open Source CFD Toolbox           |
|  \\    /   O peration     | Version:  2406                                  |
|   \\  /    A nd           | Website:  www.openfoam.com                      |
|    \\/     M anipulation  |                                                 |
\*---------------------------------------------------------------------------*/
FoamFile
{
    version     2.0;
    format      ascii;
    arch        "LSB;label=32;scalar=64";
    class       volScalarField;
    location    "0.01";
    object      internalT;
}
// * * * * * * * * * * * * * * * * * * * * * * * * * * * * * * * * * * * * * //

dimensions      [1 2 -2 0 0 0 0];

internalField   nonuniform List<scalar> 
654
(
703.5517791
653.7288348
662.5886336
679.6774994
684.7304278
692.4566267
538.5639359
558.7160793
575.8722059
589.4368473
607.2024453
619.0610831
632.2329861
643.237586
653.6744317
665.1272477
675.9054435
432.2974881
443.8473365
464.5016526
476.8542926
500.9102871
518.6659971
533.5617519
547.1824899
566.6155253
581.2505361
594.8178012
608.7572855
618.3629701
629.4864882
642.0908222
651.4170986
345.455873
350.7414635
359.1089299
366.2043485
377.1233161
389.7527822
403.3298542
419.5668452
432.5923608
451.9159994
468.9028559
480.8993221
501.2678825
516.9757489
529.9528209
548.2439553
566.7191205
581.9416393
598.1214022
610.1993426
616.0731283
630.8964845
308.3079235
312.063313
311.9682862
315.9644626
318.3738789
322.1529238
326.4862683
334.8221772
339.782653
346.8474258
352.0013869
364.8220209
375.2669059
389.1444812
397.1433911
407.6107687
421.1877501
438.2838779
457.5367526
472.0925102
491.3341985
510.3373591
525.5911814
539.7256534
555.9873188
572.2221222
585.1871359
602.0644261
608.3875435
303.7869581
304.8213357
306.3170826
307.8823947
310.9954151
316.9718402
319.5620928
324.7470357
329.7094514
335.1633494
337.5035239
344.1352557
351.5229481
357.973067
368.1953565
379.2218245
392.494152
403.4758044
415.8324709
434.5874896
444.9179822
460.4709196
479.1320298
501.6843416
518.6256121
527.5982801
540.7231663
556.3583326
572.1883573
589.1920352
303.6059201
305.8551658
309.4115604
310.2348475
310.0661397
312.6410515
314.3592225
316.8269002
318.9063556
325.796168
326.3666606
329.9859337
337.9890112
344.663293
352.4671231
360.6332383
368.4984408
375.5177537
388.4478733
397.5974171
418.7009723
437.0164669
456.0308301
469.8579028
485.8781241
503.0585467
520.5998166
532.3922446
545.6841781
565.8532966
305.7364796
303.9160315
303.431333
306.1704365
309.0409503
310.4173929
310.9882271
312.636824
314.154353
313.1633943
321.731045
323.9918131
325.2778298
330.0560797
333.3027895
343.9936164
353.5075294
369.6880393
381.0266128
388.4718319
394.6013372
407.1769589
422.5799139
439.5167815
456.3754022
471.0424391
491.6715311
510.8922497
523.8592083
540.5704986
300.1491256
302.0609585
303.9318056
305.0399647
303.9923713
305.1756539
308.3023892
309.847355
310.8995659
313.2438075
315.7854569
321.2936898
325.7319765
330.8425645
335.3274297
339.9109118
347.2584271
355.1010862
357.492439
372.8990682
381.9134056
392.3669225
403.1942381
414.0480362
433.5539589
451.2877264
463.2229272
480.2116223
500.0119432
515.5364841
299.4645404
300.2793331
299.3160007
300.594245
301.8007212
302.2302958
302.9297197
305.5174153
309.033329
312.834566
313.1905955
314.9745184
316.3882245
319.7590138
324.4599212
329.3933796
333.1454242
338.4641287
345.8834362
351.933998
363.6097523
371.8463608
384.5082717
398.9353235
409.6602393
428.4617184
446.3718464
460.9111821
476.5937042
491.7458803
299.46514
301.2230747
300.3573934
301.4931267
299.3030947
299.8411669
301.6250276
306.8021349
308.2142232
308.7630706
311.8208642
312.9189964
316.290855
316.0248598
319.4344627
323.4392853
325.567697
331.2956371
336.1479625
339.0098821
348.515743
357.9150549
362.6572037
374.2991746
388.4540603
401.0584771
412.6090528
431.715192
451.4823323
467.6858719
299.4180744
301.2296495
303.3512821
303.2510743
306.3931298
306.0109722
305.1013742
303.165866
303.349309
305.0871681
306.3777098
308.6739322
308.8200203
310.9841012
312.4716904
315.366298
318.3634585
321.7126701
328.7346217
335.6046582
340.8116874
342.7715641
353.8304761
362.6464796
370.8648355
380.6851001
395.9387573
412.0779134
428.0628496
439.8528417
303.0198355
302.6098389
303.2858774
302.3080372
300.6055277
300.6912273
300.1494033
304.5477648
301.1795387
301.8202374
302.2960332
303.9305074
303.5616545
305.6690151
309.9337772
312.4837999
313.5441972
318.507002
321.6063452
324.7801717
329.7499537
335.3428042
339.9338087
347.9118497
360.2261002
368.7353597
378.713891
386.7386104
403.9686318
417.5926588
300.5151804
300.752172
299.6892336
301.4978589
301.851589
299.6147967
300.4376075
301.798757
302.1774484
304.1079616
305.9944028
305.8888905
307.6471485
308.1141641
310.9673757
312.1001062
312.8097724
313.8733723
314.111938
320.556803
324.9642196
327.864587
334.9085866
339.8982767
346.3805329
355.1483431
363.0319755
372.2357853
379.8324695
393.5016592
303.0864238
303.4026096
301.9904993
302.8116209
302.5273778
303.4575147
303.6112104
302.7224319
302.3549477
302.3356954
301.8126221
302.1534955
304.3919825
305.375131
306.7573599
307.3230333
310.6914442
313.9545038
315.8931385
319.3856795
320.4374586
322.3548451
326.4689809
333.4866723
334.4583003
341.789842
348.6869092
360.087387
373.0188981
383.549544
301.020149
299.9732518
301.4769918
302.3988666
302.6632582
301.867084
301.4399376
300.7649303
302.0894113
299.817275
301.1857755
303.6158832
301.2477148
300.984451
301.727437
304.8386903
306.4448781
308.3552143
311.1617145
312.8528536
318.4751605
321.9943598
323.6075273
328.7870799
336.3000972
337.8866696
342.8121963
349.7334496
358.3612963
367.3710103
300.7072631
302.7046345
302.3838021
303.3903663
301.0406675
303.645634
304.139684
304.9749815
305.0851319
304.9627624
303.3389358
302.5911261
304.1716219
305.7403037
308.2262183
308.4270074
309.843468
310.5391373
311.3773457
311.8605182
311.5329541
312.8125973
316.277732
316.7818819
321.3346077
328.3103292
334.2743878
340.3460991
345.922943
355.9200838
302.8417421
301.5728415
300.7115893
301.2567586
303.5501721
303.3969598
304.7319505
303.4766471
303.0374524
303.6534993
304.4806683
305.3921629
303.0588664
303.2499703
300.8816935
302.125473
301.518787
302.631321
302.6659001
306.6811119
305.8201194
307.8492566
313.2807088
314.6763469
318.8249289
319.9291943
322.596721
328.5115517
334.3886381
338.3596475
302.7489775
303.4817139
303.6278658
304.4366057
301.981918
299.5814098
302.4445392
303.3741341
303.6368124
304.6570033
302.7225976
300.8473552
302.9955132
301.7978784
304.3558806
303.849266
302.4945668
304.8952791
307.1625859
306.959509
310.9970368
310.3023973
310.2214975
315.5304463
318.3508081
320.21345
322.7349198
327.6537276
331.3766768
336.2715529
302.3698603
302.4296859
301.328397
300.7127927
302.120188
305.0269527
305.0686268
304.9316913
302.9165287
300.7019658
303.0317814
303.3825743
304.6185173
303.2767243
301.2789923
302.432296
304.1071981
302.4045
303.2811568
306.2052694
308.4082113
309.7080467
310.0379231
311.6672028
312.4600229
313.7494536
317.7730964
322.5129526
326.7824859
331.6381885
299.1580388
300.4498507
300.5916377
300.4255353
300.8690654
300.7663595
299.6219507
300.1443923
301.6665642
302.8135597
301.9149518
301.3050997
301.3403308
302.3064027
302.4893841
302.4856019
303.6252124
303.1356881
302.2910805
303.1179953
304.0235945
304.5745353
304.088461
303.7541393
306.4899911
307.9040054
308.5513125
312.2662397
316.5204153
319.6406488
299.2006137
299.9836642
299.5302912
297.5070103
298.2944955
299.3814687
302.2377579
301.9338204
301.6299622
302.6423391
305.0926298
304.3734233
300.7836202
301.2153824
300.6279879
299.1520793
299.6120307
301.8052133
303.1413212
301.3691125
301.2762032
304.2740685
304.0340836
308.0339321
307.8033434
311.7021993
314.7354084
314.3652285
313.6265235
319.0022542
301.6979021
301.7820756
299.8532314
300.1343054
300.5921786
299.9278467
297.6472896
297.9810045
298.7329427
298.5139427
297.8910654
301.1838914
301.3987931
300.784291
302.5322338
302.7902193
302.0677444
302.0152874
302.0022268
305.9861561
304.5559314
303.662343
306.8824662
305.2635328
305.5836624
305.6977427
307.3754594
309.7056382
312.4219759
312.9156251
300.9521707
301.271356
302.2082884
303.4047459
302.7610904
300.6739214
301.6107277
303.3235446
302.2238734
301.9015315
300.9110594
299.9095925
299.2183662
299.296947
299.9553619
301.7224828
302.0763605
302.0996316
301.8129174
301.8710269
302.1358618
301.1825794
303.9568425
304.2859559
306.2656443
307.3694316
308.7049775
309.4125619
308.1452327
311.1760239
)
;

boundaryField
{
    flow
    {
        type            calculated;
        value           nonuniform List<scalar> 
55
(
703.5517791
692.4566267
675.9054435
651.4170986
630.8964845
608.3875435
589.1920352
565.8532966
540.5704986
515.5364841
491.7458803
467.6858719
439.8528417
417.5926588
393.5016592
383.549544
367.3710103
355.9200838
338.3596475
336.2715529
331.6381885
319.6406488
319.0022542
312.9156251
311.1760239
300.9521707
301.271356
302.2082884
303.4047459
302.7610904
300.6739214
301.6107277
303.3235446
302.2238734
301.9015315
300.9110594
299.9095925
299.2183662
299.296947
299.9553619
301.7224828
302.0763605
302.0996316
301.8129174
301.8710269
302.1358618
301.1825794
303.9568425
304.2859559
306.2656443
307.3694316
308.7049775
309.4125619
308.1452327
311.1760239
)
;
    }
    obstacle
    {
        type            calculated;
        value           nonuniform List<scalar> 0();
    }
    frontAndBack
    {
        type            empty;
    }
    procBoundary3to1
    {
        type            processor;
        value           nonuniform List<scalar> 
36
(
726.6738251
683.0051382
689.3836198
700.8303705
702.6141898
702.6141898
574.9476127
585.0208845
601.6997762
622.5329665
629.5224915
641.8668414
641.8668414
454.7582481
468.8288739
490.0191808
512.3986402
527.0773428
527.0773428
360.8679246
366.6955664
375.8712616
389.8932697
400.624919
418.1239358
418.1239358
317.0323367
315.2270213
319.2382578
324.8508287
330.2168937
332.6600548
337.4935202
337.4935202
307.6653687
307.6653687
)
;
    }
    procBoundary3to2
    {
        type            processor;
        value           nonuniform List<scalar> 
19
(
303.3759577
302.0583687
306.1981451
299.5829942
297.2889836
300.2497669
300.5685047
300.2845242
300.503153
302.7103213
301.0687695
298.7840848
304.9015203
302.3267312
303.0341041
300.0661807
300.2910754
300.4901641
299.2592723
)
;
    }
}


// ************************************************************************* //
