/*--------------------------------*- C++ -*----------------------------------*\
| =========                 |                                                 |
| \\      /  F ield         | OpenFOAM: The Open Source CFD Toolbox           |
|  \\    /   O peration     | Version:  2406                                  |
|   \\  /    A nd           | Website:  www.openfoam.com                      |
|    \\/     M anipulation  |                                                 |
\*---------------------------------------------------------------------------*/
FoamFile
{
    version     2.0;
    format      ascii;
    arch        "LSB;label=32;scalar=64";
    class       volScalarField;
    location    "0.01";
    object      internalEMean;
}
// * * * * * * * * * * * * * * * * * * * * * * * * * * * * * * * * * * * * * //

dimensions      [1 -1 -2 0 0 0 0];

internalField   nonuniform List<scalar> 
654
(
2.358687975
2.199898471
2.268615627
2.329362908
2.336246819
2.376183504
1.468003493
1.585025604
1.714614599
1.8115436
1.931500831
2.032155943
2.095170323
2.154855211
2.226464166
2.270191771
2.303808131
0.8497258843
0.9240190376
1.008655374
1.090446102
1.209479645
1.320501849
1.429253085
1.523908195
1.655093981
1.757526134
1.864311388
1.97538117
2.029548287
2.097285511
2.171220642
2.20337771
0.5304713966
0.5493508537
0.5706619654
0.6003452578
0.6378912094
0.6845963335
0.7350009061
0.8033584972
0.8736249688
0.9566516243
1.047788362
1.128462198
1.236336974
1.340706766
1.438643383
1.558891853
1.675727411
1.790249012
1.910494264
1.993274753
2.038296695
2.117242103
0.4340474135
0.4407877412
0.4421776012
0.4522316029
0.4618086291
0.4703510226
0.4827163787
0.5002397286
0.5200965298
0.5445460995
0.5632932479
0.5981032697
0.6348061146
0.6800983589
0.7182438399
0.7647061672
0.8306373546
0.9039760332
0.9932120187
1.083779707
1.189364716
1.299381673
1.399947004
1.510548715
1.626257082
1.741079565
1.840795378
1.948118854
2.007267725
0.4272388983
0.4295383232
0.433576325
0.4392042492
0.4456951006
0.4551787155
0.4632138934
0.4774836539
0.4905290459
0.5035898197
0.5111169048
0.5320625683
0.5527468484
0.5777931503
0.6087033945
0.6514680516
0.6956777028
0.7432433599
0.797325989
0.8711754908
0.9438698594
1.021957668
1.122526549
1.234130856
1.347132068
1.445541525
1.536796347
1.649607722
1.754246231
1.858394866
0.4224140937
0.4250973777
0.4324903418
0.4348081288
0.4366065402
0.4429384964
0.4496734266
0.4559083241
0.4613719958
0.4806131923
0.4876080848
0.4978353975
0.5183919069
0.5403452239
0.5655723813
0.5886745532
0.616295889
0.6444413932
0.6964184383
0.7386220516
0.8074989197
0.8929190979
0.9856674939
1.076440671
1.177901859
1.272427982
1.393245332
1.49584095
1.608147739
1.725264741
0.4257666517
0.4259962275
0.425304464
0.431438796
0.4366421364
0.4381612892
0.4390781701
0.4439485374
0.4488430414
0.4487887034
0.4628318071
0.4757487019
0.483806475
0.4965065447
0.5113299201
0.5405642519
0.5697777984
0.6170399006
0.647140055
0.684149514
0.7278520076
0.7809569945
0.8441422797
0.9280903559
1.016463678
1.101560146
1.2168263
1.327617962
1.427806935
1.53820635
0.4190362547
0.4216523778
0.4259964006
0.4284836599
0.425580504
0.4281524829
0.4343371868
0.4377113458
0.4411035263
0.4475743521
0.452653276
0.4668942061
0.4760195307
0.486612272
0.4998297448
0.5150570201
0.5352873864
0.5610688639
0.5827294977
0.6296717848
0.6658317835
0.7150763188
0.7624473047
0.8107290183
0.8913286295
0.9840489978
1.061939422
1.163313194
1.277810884
1.388656723
0.4141013523
0.4153614209
0.4135992845
0.4148229589
0.4202491803
0.4222419886
0.4271116626
0.4315846052
0.4383235296
0.4424458512
0.4482219366
0.450845821
0.4540483476
0.4640375819
0.4759485652
0.4884483438
0.5032692615
0.5256566456
0.5505022061
0.5712341843
0.6080552863
0.6430612905
0.696044009
0.7497641774
0.8041601043
0.883142729
0.964038036
1.044866339
1.134457224
1.227687457
0.4141671126
0.4158961574
0.4168133018
0.4189087921
0.416437033
0.4172170922
0.4188225357
0.4253460701
0.4302353729
0.4338308415
0.4395915354
0.4425376511
0.4503424759
0.4545396698
0.4619835959
0.471605265
0.4771196705
0.4949595714
0.5123625912
0.5297254431
0.5591983377
0.592815987
0.6195931119
0.6661484416
0.7177395148
0.7705378264
0.8268436783
0.9074456221
1.00344146
1.10547744
0.4203897823
0.4210370797
0.4211110284
0.4216394872
0.4255880993
0.4263826188
0.4254585383
0.4234820342
0.4255005446
0.4258231082
0.4309964048
0.4384788201
0.4394431352
0.4428498514
0.4503714001
0.4620070515
0.4705051655
0.4785252849
0.496781761
0.5095865042
0.5289262392
0.5410310534
0.5709977273
0.602813081
0.6372343786
0.682022502
0.7444091028
0.8128300295
0.8920683265
0.96449648
0.4137148029
0.4174520469
0.418522443
0.4171497156
0.4136162518
0.4150645546
0.4142257901
0.4194365997
0.4145888224
0.4184709059
0.4193741571
0.42183925
0.4266308168
0.4329997061
0.4405945312
0.4488673402
0.4540423541
0.4664431963
0.4751195829
0.4871432735
0.5001141115
0.5148194453
0.5319263794
0.556662428
0.5935280194
0.6284381448
0.6684476532
0.7183592261
0.782236947
0.8502284861
0.4139718322
0.4128061225
0.4112606198
0.4146377001
0.4155619239
0.4101203915
0.414088181
0.4147736067
0.4173942089
0.4238210681
0.4253230827
0.4277623263
0.4310353197
0.4348389573
0.4430513149
0.446274338
0.4492689572
0.452572075
0.4537927068
0.4702308289
0.4808493535
0.4948410476
0.5156158948
0.5350528738
0.5567331868
0.58839275
0.6184860681
0.6539042502
0.695888216
0.7519117688
0.4137306155
0.4136797492
0.4122922322
0.4148237615
0.4146098922
0.4197904195
0.4229772395
0.4224079784
0.4212506179
0.4207997254
0.4214271584
0.4230170948
0.4251410978
0.4275442468
0.4272382128
0.4313370093
0.4353575826
0.4397255684
0.4477433917
0.4557786178
0.4601835957
0.4690836353
0.4802226563
0.4994046252
0.5118889167
0.5368643903
0.5646393619
0.604683844
0.641087537
0.6850099859
0.4151429478
0.4127946459
0.4149174843
0.4172750496
0.417249161
0.417716456
0.4154696728
0.4174966142
0.4217354661
0.4179506997
0.4186895608
0.4224152112
0.419214958
0.4172237528
0.4176604589
0.4225036312
0.423557624
0.4297993219
0.4361520087
0.4423468167
0.4538401205
0.4648459556
0.474519795
0.4892557386
0.5045579853
0.5110904801
0.5294937463
0.5553842068
0.5934670594
0.6285588065
0.4155310683
0.4223525515
0.4244350193
0.422236707
0.4178940301
0.4203532969
0.419368056
0.4199353687
0.4180277069
0.4171546834
0.4150926921
0.4137719985
0.4181396146
0.4227277144
0.428922266
0.4319204929
0.4377135923
0.4409851465
0.4464867939
0.4471833024
0.4529699581
0.4543620027
0.4557245834
0.4615371691
0.4743150405
0.4892719871
0.5069306029
0.5270057176
0.5453533778
0.5832629062
0.4223263978
0.4190420185
0.4180043189
0.4194485774
0.4216294706
0.4225745385
0.4247360554
0.423272127
0.419489461
0.4203984747
0.420603618
0.4240017008
0.4208090682
0.423229624
0.4210176073
0.4221496006
0.4223456677
0.4260292485
0.42467549
0.4318989168
0.4318325907
0.4351390931
0.4504922272
0.45440166
0.4691725914
0.4749498059
0.4870733677
0.5007901691
0.517512898
0.5339364649
0.4174428157
0.4150848936
0.415930656
0.417772947
0.4153173691
0.4118855152
0.4143654438
0.4192564097
0.4208486395
0.4219797417
0.4220603481
0.420661449
0.4229642871
0.4195291957
0.4217715521
0.4221790984
0.4182674601
0.4243402256
0.4267982071
0.4280825086
0.4365465685
0.4410829597
0.442175217
0.45467112
0.4597881249
0.4651471805
0.4731786766
0.4871209973
0.5010220028
0.5129040022
0.4154590748
0.4149010414
0.4160485292
0.4142437258
0.417975455
0.4220595824
0.4231890471
0.4199354967
0.4188436632
0.4143976312
0.4188756146
0.4159580971
0.4179263568
0.4202040212
0.4186307049
0.4220099928
0.4266222346
0.4230671128
0.4276813976
0.4325510384
0.4343789654
0.4365192958
0.4349066905
0.4431944091
0.4487552503
0.4554838192
0.4603711632
0.4698513087
0.4847918724
0.498479626
0.4135385312
0.4167409975
0.4137084329
0.4140383055
0.413287636
0.414317292
0.4158761365
0.418859668
0.4211153685
0.4224790296
0.4215498649
0.4211593807
0.4230586497
0.422264618
0.4219934748
0.4235791092
0.424827429
0.4215480864
0.4206441239
0.4227142699
0.4271662116
0.4328852738
0.4348708404
0.4337638116
0.4347784709
0.4419301483
0.449809423
0.4631954316
0.474218182
0.4838912971
0.4170633358
0.4180693568
0.4190174222
0.4164512794
0.4171277338
0.4173956209
0.4188214478
0.416033714
0.4171441159
0.4193297405
0.4213673922
0.4228744172
0.4167202593
0.4176160551
0.4181826806
0.4169123065
0.4183922483
0.4220898835
0.4236660287
0.4215984086
0.4197851139
0.4223774856
0.4229705992
0.4303852367
0.4341889697
0.444816596
0.4491175306
0.4507584209
0.45193983
0.4661861678
0.4178064049
0.4168468705
0.4135875897
0.4159657096
0.4179332717
0.4173377068
0.4140706946
0.4127858113
0.4141500378
0.4142629214
0.4130042968
0.4198129278
0.4217282101
0.4219199902
0.4211343647
0.4217718498
0.4202316554
0.4219669271
0.4230977396
0.4291144366
0.4264440557
0.4239406105
0.4313869717
0.4295621792
0.430414695
0.428886483
0.4374742051
0.4422952311
0.4499483785
0.4543249408
0.4068928834
0.4092698097
0.4110031271
0.4133590127
0.4110079185
0.4068622361
0.4106042775
0.4149479878
0.4127747194
0.4116357581
0.4127358643
0.4063566622
0.4048880209
0.4050580573
0.406138257
0.411506743
0.4126969006
0.411235502
0.4089297918
0.4113183108
0.4144035245
0.4173252664
0.4183845428
0.4192426147
0.4206469975
0.4230724999
0.4256399444
0.4288054601
0.4289700459
0.4394736109
)
;

boundaryField
{
    flow
    {
        type            calculated;
        value           nonuniform List<scalar> 
55
(
2.358687975
2.376183504
2.303808131
2.20337771
2.117242103
2.007267725
1.858394866
1.725264741
1.53820635
1.388656723
1.227687457
1.10547744
0.96449648
0.8502284861
0.7519117688
0.6850099859
0.6285588065
0.5832629062
0.5339364649
0.5129040022
0.498479626
0.4838912971
0.4661861678
0.4543249408
0.4394736109
0.4068928834
0.4092698097
0.4110031271
0.4133590127
0.4110079185
0.4068622361
0.4106042775
0.4149479878
0.4127747194
0.4116357581
0.4127358643
0.4063566622
0.4048880209
0.4050580573
0.406138257
0.411506743
0.4126969006
0.411235502
0.4089297918
0.4113183108
0.4144035245
0.4173252664
0.4183845428
0.4192426147
0.4206469975
0.4230724999
0.4256399444
0.4288054601
0.4289700459
0.4394736109
)
;
    }
    obstacle
    {
        type            calculated;
        value           nonuniform List<scalar> 0();
    }
    frontAndBack
    {
        type            empty;
    }
    procBoundary3to1
    {
        type            processor;
        value           nonuniform List<scalar> 
36
(
2.396446372
2.346645684
2.367823567
2.390247189
2.384039324
2.384039324
1.674285952
1.77483699
1.901517854
2.012962709
2.08364465
2.136113398
2.136113398
0.9660453413
1.047796153
1.149623343
1.26794179
1.365735541
1.365735541
0.5719123435
0.5929681131
0.6329649175
0.6779821003
0.721901677
0.7850753472
0.7850753472
0.4501285148
0.448833572
0.4574055798
0.471822842
0.4818431747
0.4923091178
0.5084448236
0.5084448236
0.4299965783
0.4299965783
)
;
    }
    procBoundary3to2
    {
        type            processor;
        value           nonuniform List<scalar> 
19
(
0.425030191
0.4182060457
0.4272893838
0.4164737656
0.4104783856
0.4163020842
0.4205054677
0.4104410622
0.4124123091
0.4146502825
0.4144197802
0.4141780177
0.4248518545
0.4160398044
0.4149353999
0.416656483
0.4156945582
0.4161364681
0.4063896391
)
;
    }
}


// ************************************************************************* //
