/*--------------------------------*- C++ -*----------------------------------*\
| =========                 |                                                 |
| \\      /  F ield         | OpenFOAM: The Open Source CFD Toolbox           |
|  \\    /   O peration     | Version:  2406                                  |
|   \\  /    A nd           | Website:  www.openfoam.com                      |
|    \\/     M anipulation  |                                                 |
\*---------------------------------------------------------------------------*/
FoamFile
{
    version     2.0;
    format      ascii;
    arch        "LSB;label=32;scalar=64";
    class       volScalarField;
    location    "0.01";
    object      internalE;
}
// * * * * * * * * * * * * * * * * * * * * * * * * * * * * * * * * * * * * * //

dimensions      [1 -1 -2 0 0 0 0];

internalField   nonuniform List<scalar> 
654
(
2.336897759
2.339818888
2.18974481
1.426847951
2.957380658
1.6345318
1.059441444
1.159122972
1.32099124
1.512087519
2.23157408
1.053036245
1.646023263
2.411760538
3.126882839
2.19564532
2.900581443
1.148911591
0.4852740162
1.824161616
0.6395451379
1.626166872
1.932748789
0.9231632228
1.870268183
3.111098742
1.690775855
1.518151037
2.322842819
2.451189758
2.945041082
1.633027483
5.683727295
0.5077595217
0.7906187955
0.2229542796
0.3975082467
0.560368519
0.6905417981
1.037155615
1.212293201
0.8194263024
0.5859068714
0.7070100218
1.78503781
1.612131271
2.169690585
1.530405723
2.106018784
0.9740546369
1.840004953
0.3494547539
1.718627721
1.009657285
2.089631945
0.2221549261
0.3552609632
0.4838522528
0.3802439453
0.4824087639
0.4874360207
0.207303909
0.2808036425
0.342623704
0.4816873013
0.8816226159
0.2988723567
1.398425057
0.6199651635
0.4631273963
0.7604166427
0.6773329223
1.296057767
0.4399188579
1.091926561
0.6057806972
1.373684239
0.6780403978
2.463381563
2.82436853
1.547816428
1.081299312
3.379153063
1.768917075
0.3688613099
0.1881711719
0.3057503973
0.2014178556
0.1160512294
0.330479736
0.3678301547
0.1786000061
0.5169169627
0.2504962226
0.4018706012
0.4899358411
1.043064575
0.6000249146
0.4180341286
0.3788051447
0.9883264319
0.958020008
0.8347424973
1.908650123
1.108478739
0.7053631769
0.5419574556
1.051965671
0.8959288647
1.927904038
1.499597577
1.173386329
1.990659767
2.692880397
0.2251435439
0.2741678972
0.5934031358
0.369367356
0.3974406166
0.1741002387
0.2018292335
0.7215438228
0.8557847256
0.5354943633
0.5461889676
0.2802785905
0.2250103942
0.9056282874
0.7333550979
0.7892544072
0.7006341738
0.4526793977
0.4844003112
0.7709794294
0.5551580404
0.9943466435
0.5668629308
1.339198229
0.3846621947
1.460655843
1.88299709
1.199873976
1.393630456
0.5158590856
0.6747962907
0.2910935732
0.2039505872
0.4408695324
0.2443599918
0.5932395462
0.5045966995
0.7388163864
0.3079069216
0.3552507104
0.7471772157
0.5114700323
0.2642856943
0.6971633588
0.667722759
0.3617856893
0.2709931663
0.5163567512
1.000312978
0.8551511535
0.5490456201
0.2303479502
1.193193744
1.289739805
0.8711801182
1.67641678
0.8440608077
0.5664461264
1.124059896
1.786649675
0.2218445102
0.2521668019
0.3914175018
0.8158909427
0.3362054383
0.8460800503
0.7075900911
0.4810538658
0.1773887426
0.2552085139
0.3355527281
0.2403519732
0.4335909813
0.5386018822
0.7282971352
0.547071964
0.2546671736
0.5650279801
0.4683316059
0.2557254701
1.358353322
1.046910616
0.4937475498
1.278505039
1.35197596
1.467806311
1.906159656
0.7071693619
0.647823068
1.612042074
0.08479905507
0.2806252818
0.4042665804
0.6017945396
0.5791670112
0.2142738806
0.4035311735
0.15436861
0.5195507358
0.288253224
0.51984634
0.233868289
0.2812752804
0.5598655821
0.3232085599
0.669719909
0.4441955279
0.4173318323
0.1669036274
0.5840984653
0.7721241843
0.7584158197
0.3409634608
0.5698515999
0.9528069
0.5939712423
0.7304210435
1.339980922
1.659407375
1.534222533
0.6299671041
0.416927447
0.5186579171
0.649087172
0.2721567666
0.3483331159
0.6927915239
0.548576195
0.2940718077
0.3770852012
0.7445695142
0.340260638
0.5389184204
0.5937574855
0.4864407729
0.4579656515
0.4742067382
0.284223852
0.369516532
0.4434942676
0.5733580862
0.2108745642
0.8096758625
0.3082155668
1.279409363
0.646643992
0.6301691295
1.162998979
0.926525371
1.505888476
0.4824745756
0.3613987109
0.2428688068
0.5128288637
0.8416216085
0.4629443089
0.6997842734
0.4485896704
0.6515263969
0.5599451679
0.09438058051
0.3651524868
0.09096679017
0.2204748436
0.5047111439
0.4101155996
0.4064726193
0.2447519815
0.6329403274
0.5483224212
0.5723241219
1.165090801
0.8054148199
0.3604440566
1.09583566
0.5539567591
0.2791332631
0.2531351701
0.5960904387
2.200238457
0.2940489737
0.4098676365
0.1951051438
0.09204542407
0.1588545686
0.2712945972
0.1640180096
0.1601441251
0.3420024551
0.2575604297
0.3809566758
0.5071526556
0.1892177931
0.2537392347
0.08631700802
0.4535960579
0.5464539337
0.413746328
0.4606266309
0.2726780021
0.7789607833
0.609782582
0.6072216539
0.3618784389
0.5604544305
1.126661689
0.7950568557
1.207391992
0.6907442114
0.6336959148
0.2941242133
0.4671383545
0.4862060363
0.542174071
0.3711897272
0.3542412283
0.6271357308
0.706282593
0.4772296
0.3478634936
0.4310041013
0.2516841901
0.1957541173
0.4969144119
0.5660450375
0.3580284134
0.13007622
0.4944880586
0.2609311576
0.06471885853
0.5566964292
0.338833877
0.9752825148
0.2032460725
0.6522482834
0.2486188027
0.9749336297
0.5663085287
0.7700276858
0.8654308632
0.3082316993
0.1428316255
0.3300509996
0.2631532386
0.9241527249
0.4563403018
0.6452205747
0.5836028706
0.5438526174
0.1908054108
0.648966804
0.5072637765
0.4319466212
0.7084191735
0.4714913419
0.7607963225
0.5414509769
0.8111920707
0.2347585943
0.480191665
0.3080975321
0.09275838791
0.3626010979
0.08455779465
0.5462835784
0.275630578
0.6584935325
0.4197976347
0.3167115155
1.005783681
0.3042737205
0.4359699507
0.618867964
0.4801886477
0.558132599
0.5740490799
0.006827877602
0.8226324146
0.4609064918
0.66849959
0.2430578286
0.5556045368
0.4713247506
0.4178606046
0.1429270196
0.214078584
0.698355659
0.382141944
0.2803642774
1.009263624
0.2717725506
0.3083035203
0.4002958203
0.1796803536
0.2717703936
0.7736884911
0.5185626571
0.487446161
0.6116970583
1.223550744
0.2269007525
0.2210693663
0.6771380854
0.7563940569
0.4204950501
0.5879602633
0.6806119721
0.755261734
0.6031093795
0.4661915812
0.3022521563
0.7592471749
0.3863364416
0.2601325327
0.5069080798
0.4800089236
0.2360408251
0.2005964765
0.3737647381
0.5160486585
0.7795392725
0.4874750541
0.5575986745
0.6363365016
0.4806026013
0.2961526389
0.2672590364
0.7396463252
0.4423361795
0.5083782097
0.4967009268
0.8443490865
0.3976194038
0.6912220435
0.144960903
0.2912208136
0.5510545107
0.474560766
0.4965502099
0.5264193536
0.3775698547
0.4387276653
0.3908597896
0.5591890299
0.6206328932
0.5702298913
0.2188310429
0.7680603842
0.02911294635
0.5385513933
0.7730393305
0.4626622047
0.7448965025
0.4471427068
0.6668076728
0.3548398022
0.1700722506
0.7046940894
0.869165655
0.8346618171
0.4273082035
0.3517137474
0.3541271849
0.2724874914
0.2425435891
0.2992984218
0.1394966815
0.3504195871
0.5371407758
0.2919426363
0.8479240845
0.7784134735
0.2624840349
0.2968213947
0.2906442653
0.4899642238
0.5993372781
0.5872039065
0.38655572
0.2137648065
0.459170175
0.4097757223
0.2079282247
0.4909243763
0.5739564539
0.633951893
0.1116881061
0.5530425158
0.5713530187
0.8791426262
0.351339282
0.3087643686
0.5834398641
0.5273255696
0.4494699054
0.5913491753
0.4204891771
0.7597451996
0.115736906
0.4029643772
0.4480758566
0.3883532741
0.2366118464
0.2993025727
0.4168872003
0.2853641845
0.2796364226
0.3875659629
0.2140482927
0.6961412112
0.4276876251
0.3362294606
0.6432456791
0.3060288373
0.3438602674
0.2296102206
0.8174106449
0.5781639133
0.5826251869
0.5568153333
0.671585514
0.1989710502
0.4143359918
0.4326999958
0.5265306609
0.2109759632
0.1988617169
0.3385590068
0.2846487113
0.1466921583
0.0367527776
0.3587962072
0.2359122595
0.7916123233
0.7724089087
0.1537166251
0.3844687579
0.3751104213
0.3112706977
0.2477188159
0.469593179
0.3097575171
0.6790572274
0.2059434073
0.5713102754
0.1985797189
0.7336110974
0.7829071967
0.1675765169
0.4475892639
0.1831662672
0.147209052
0.186723618
0.3202509823
0.2485297404
0.1613750364
0.3886201597
0.4128202527
0.6645941795
0.7834607816
0.2546465855
0.1035599664
0.5978155487
0.3685767584
0.3645732382
0.1485001959
0.5074139474
0.354294186
0.3968761806
0.2184268407
0.5001984861
0.5468919224
0.05010836617
0.4629470528
0.4225483443
0.546139621
0.3125075476
0.6919338688
0.7023976101
0.4406352089
0.4813623748
0.7098386528
0.4361093508
1.209385231
0.4569164142
0.4824181587
0.211878399
0.3653493728
0.2156613439
0.445510405
0.3605360465
0.2827450397
0.844608102
0.3951739911
0.4976330896
0.9720941423
0.3701737151
0.469457179
0.1663530171
0.2776513703
0.1789019083
0.2720205632
0.1131318039
0.1517260441
0.4769189865
0.2273188369
0.09439056767
0.8887664399
0.3210316898
0.3721584058
0.6878065859
0.1651508728
0.2291542792
0.5716406967
0.4981559087
0.5007167779
0.1943707972
0.3556425742
0.2967365206
0.342561292
0.2781696299
0.2434153764
0.6548914532
0.3422548015
0.2088334976
0.3484266699
0.4148877312
0.2160025231
0.6691590068
0.1305255863
0.2654075915
0.4629203957
0.2575934962
0.3543886373
0.2981778453
0.758808972
0.4389667055
0.1959283462
0.9906000853
0.09640440118
)
;

boundaryField
{
    flow
    {
        type            zeroGradient;
    }
    obstacle
    {
        type            calculated;
        value           nonuniform List<scalar> 0();
    }
    frontAndBack
    {
        type            empty;
    }
    procBoundary3to1
    {
        type            processor;
        value           nonuniform List<scalar> 
36
(
2.018789936
2.22754853
1.909840937
1.346388294
2.333931855
2.333931855
1.575856149
1.926443938
1.267818962
4.519141228
1.794583045
3.27945603
3.27945603
0.6957433421
0.6866414852
2.321551397
1.286115754
1.741937592
1.741937592
0.9856675209
0.5005992985
1.363408553
0.5211313951
0.6878753787
0.6751275688
0.6751275688
0.3366591209
0.7722126564
0.4631938435
0.1610077198
0.8718625739
0.3753631456
0.5144677449
0.5144677449
0.846446856
0.846446856
)
;
    }
    procBoundary3to2
    {
        type            processor;
        value           nonuniform List<scalar> 
19
(
0.6333980841
0.4116530238
0.2419877119
0.4911302487
0.2212336597
0.3310571204
0.3392416731
0.3349256081
0.2207932484
0.06619601647
0.5163828911
0.2279462642
0.2892099738
0.06631508049
0.4400371981
0.4146653938
0.1954651963
0.2318856056
0.3958704713
)
;
    }
}


// ************************************************************************* //
