/*--------------------------------*- C++ -*----------------------------------*\
| =========                 |                                                 |
| \\      /  F ield         | OpenFOAM: The Open Source CFD Toolbox           |
|  \\    /   O peration     | Version:  2406                                  |
|   \\  /    A nd           | Website:  www.openfoam.com                      |
|    \\/     M anipulation  |                                                 |
\*---------------------------------------------------------------------------*/
FoamFile
{
    version     2.0;
    format      ascii;
    arch        "LSB;label=32;scalar=64";
    class       volScalarField;
    location    "0.01";
    object      linearKEMean;
}
// * * * * * * * * * * * * * * * * * * * * * * * * * * * * * * * * * * * * * //

dimensions      [1 -1 -2 0 0 0 0];

internalField   nonuniform List<scalar> 
654
(
14.75464548
15.65029449
15.76908254
15.61988412
15.51524892
15.43823026
13.48873178
13.95506689
14.55147573
14.88398162
15.3008915
15.56039822
15.67574113
15.77549303
15.93155883
15.85190617
15.69837447
10.35593084
10.87317093
11.25324549
11.75535305
12.23372194
12.84705354
13.37004839
13.77158985
14.35547696
14.80554651
15.26996263
15.5914831
15.70605458
15.80127655
15.94792937
15.91271884
8.494807128
8.647907268
8.737646397
8.987894983
9.262893897
9.524197881
9.799312531
10.18300617
10.6859495
11.10812963
11.60753053
12.05520171
12.58403429
13.11086813
13.57360152
14.09631058
14.60715028
15.0731867
15.45945455
15.75228071
15.85594569
16.01366438
7.96982996
7.970207383
7.995473428
8.06844265
8.171582834
8.227426658
8.29193447
8.327867013
8.503303928
8.685358878
8.809007557
8.99195367
9.246283493
9.520076434
9.756261093
10.01921659
10.44598453
10.86276815
11.32835923
11.85234224
12.46861385
12.98839279
13.49672994
14.04556723
14.60892236
15.1052983
15.42698292
15.8065502
15.98570997
7.971639557
8.000707042
8.019705388
8.092996619
8.116979016
8.104656279
8.161757854
8.26968715
8.351059737
8.400586565
8.442504319
8.606582165
8.707586112
8.884150027
9.05139737
9.360847719
9.611790587
9.947596421
10.28639459
10.64050179
11.13764989
11.6001619
12.12530739
12.62819721
13.22866765
13.81710811
14.24653136
14.81225358
15.19463664
15.55520595
7.922086434
7.907128831
7.948941368
7.955498221
7.989236752
8.022690363
8.093010622
8.147309138
8.178379504
8.286052606
8.357552858
8.405823331
8.550275024
8.690079804
8.835090835
8.959054618
9.144461402
9.342229296
9.670519334
9.987724752
10.3235288
10.78990653
11.3214921
11.88315251
12.45025251
12.94246521
13.59746747
14.19466837
14.7795595
15.16924327
7.920220473
7.962668064
7.949037547
7.984782511
8.005640286
7.996294057
7.97472198
7.993474157
8.052003964
8.064007551
8.07273581
8.208715833
8.30922804
8.393817589
8.531067123
8.7243826
8.907097188
9.16818039
9.307804611
9.573411839
9.958724799
10.3018982
10.64713214
11.13291134
11.61805237
12.14648115
12.73322177
13.29963572
13.79717019
14.32691145
7.932131954
7.908223028
7.958056804
7.956157282
7.939468259
7.95328166
7.98051818
8.011428698
8.032177721
8.088888761
8.106131001
8.201718538
8.221953715
8.241229282
8.354937124
8.464410613
8.564914512
8.736667181
8.977363206
9.247454809
9.490364309
9.81366614
10.13145933
10.45884327
10.89590321
11.44444601
11.93847323
12.48764146
13.09529552
13.73832921
7.836817019
7.84892412
7.825501944
7.821112539
7.883880992
7.919891552
7.988116812
8.01732241
8.035201171
8.006840465
8.090473616
8.082530681
8.097843698
8.166590717
8.236458592
8.301635195
8.435803084
8.654820933
8.833794058
8.949986565
9.158237025
9.413389592
9.803748177
10.10040761
10.49207108
10.93345145
11.38809214
11.89591039
12.41451596
12.85845646
7.863248901
7.84727787
7.881611819
7.899409715
7.894822993
7.903902227
7.879507962
7.865127425
7.910994644
7.953321383
7.983669594
7.980412628
8.027268863
8.136793708
8.149105415
8.227355321
8.247253313
8.366373348
8.494820237
8.686744862
8.89530892
9.163307318
9.386774034
9.715932877
9.995275172
10.31467446
10.74673479
11.14769103
11.69287415
12.34661538
7.970255844
7.943040692
7.895878284
7.91265088
7.899527023
7.928062131
7.931543462
7.91768144
7.949846557
7.929836165
7.985404421
8.059177526
8.059541044
8.056898912
8.144698606
8.259656631
8.316244659
8.354873793
8.484367171
8.504041337
8.642112002
8.760816472
8.942727741
9.177430689
9.430341907
9.75343195
10.12585322
10.59998686
11.1210131
11.60534969
7.793250801
7.868387061
7.855128306
7.829721357
7.787728941
7.827188118
7.843717024
7.828215103
7.828863376
7.872150671
7.883202291
7.889937281
7.978602981
8.02074847
8.033422887
8.118910282
8.156443087
8.241291006
8.280796775
8.395423331
8.46413996
8.565538056
8.672308175
8.840683332
9.066282333
9.342078431
9.64306219
10.06382311
10.42266418
10.8600841
7.801854526
7.780869958
7.787541931
7.810358183
7.836969159
7.776527877
7.816368218
7.805959287
7.855300814
7.918673671
7.894838838
7.929709638
7.943973671
8.009555584
8.058513569
8.093196276
8.098916
8.122576319
8.121004739
8.215044815
8.295937924
8.438094183
8.596937425
8.739402596
8.892013567
9.144888532
9.345816391
9.572301403
9.926291841
10.32657662
7.753389715
7.768520318
7.767105083
7.8046817
7.796167151
7.86917553
7.903670336
7.910488935
7.889654337
7.890353431
7.920128866
7.941356539
7.932803418
7.952899831
7.898791814
7.925903764
7.934575624
7.913214985
8.009259966
8.063102723
8.084165101
8.157913273
8.224603519
8.353012248
8.503760298
8.687562292
8.923750844
9.205863208
9.38838011
9.715418236
7.854068542
7.805636628
7.821360677
7.827195192
7.822316484
7.877353198
7.847368695
7.888773353
7.929942557
7.912568466
7.89507511
7.890658677
7.884498586
7.83914747
7.822790023
7.827686579
7.817732495
7.895647414
7.912649075
7.996839753
8.078076712
8.165345483
8.263046897
8.365819511
8.401399561
8.465811919
8.585767135
8.783960041
9.108540435
9.340945459
7.86263391
7.927580568
7.974688949
7.916534097
7.889909768
7.859452286
7.832293161
7.814947516
7.766339136
7.768213912
7.749952604
7.746412542
7.778327464
7.830059231
7.89717441
7.95043624
7.994026967
8.014705233
8.109321363
8.103329826
8.184645041
8.174723256
8.119490963
8.202191453
8.290377572
8.378461737
8.512642714
8.652545201
8.74933056
9.008499823
7.922979832
7.90388527
7.905207973
7.924979639
7.909700569
7.925887577
7.917598379
7.922929674
7.865712904
7.868852225
7.84523152
7.887616152
7.906273485
7.938526973
7.944996629
7.925613161
7.958386665
7.990797799
7.94786344
7.964224735
7.974328502
7.993183413
8.094570584
8.143953684
8.293594875
8.328394212
8.455954828
8.5424484
8.660151655
8.811218595
7.83598355
7.784099755
7.779848464
7.787052818
7.806584569
7.79035177
7.770944422
7.838908304
7.860482116
7.845506869
7.898064658
7.912226049
7.898894428
7.886454227
7.870124439
7.884894687
7.839495343
7.881376798
7.870349906
7.919564029
7.969958463
8.051437536
8.077536231
8.135571394
8.123878456
8.175718976
8.259240118
8.33754532
8.471874717
8.528328341
7.816958696
7.784634736
7.829633748
7.80248889
7.831081999
7.818074678
7.847181747
7.79689933
7.848992509
7.799556701
7.841744127
7.789390687
7.772392407
7.825679632
7.842801039
7.892467491
7.959534738
7.914912556
7.983689893
7.989140107
7.965305117
7.949470362
7.914950092
8.029981428
8.113529769
8.1870703
8.163775531
8.218873106
8.321069331
8.408232142
7.842976971
7.869395645
7.831669835
7.840945878
7.799908152
7.839089357
7.884754097
7.9256806
7.927259272
7.91884418
7.917762091
7.900017466
7.940382216
7.909567018
7.908689652
7.938877774
7.939738535
7.905020879
7.914679075
7.915233356
7.949963225
8.066021026
8.107396155
8.088496199
8.027457614
8.111614082
8.212591245
8.347010651
8.390311052
8.467925423
7.89394462
7.904174073
7.908807449
7.919970244
7.920687856
7.899600831
7.846200889
7.81143608
7.834171092
7.867625161
7.853999674
7.91429283
7.887943281
7.91198388
7.91947327
7.917567407
7.913416997
7.916330941
7.911588571
7.939786251
7.924288444
7.874849127
7.887337785
7.927804579
8.000212385
8.062319206
8.051615971
8.085132153
8.094889131
8.19943483
7.86833698
7.843933551
7.84897082
7.87130062
7.896626976
7.899600348
7.913876925
7.896301294
7.90377782
7.909867829
7.881905219
7.929856618
7.952650426
7.975317681
7.919827052
7.924246721
7.909533444
7.937426997
7.941268532
7.95516116
7.924808164
7.897028032
7.942154134
7.952217589
7.970198435
7.928372119
8.024613247
8.026367566
8.109082935
8.169717021
7.680646583
7.732993228
7.736324581
7.752170602
7.735328703
7.706341556
7.756684159
7.773033878
7.779385639
7.761111289
7.801381606
7.715022852
7.681604029
7.69724423
7.703888728
7.747784882
7.759716726
7.747666407
7.710801602
7.748256835
7.795120232
7.866125872
7.810856579
7.819641948
7.794257333
7.824118862
7.833798697
7.874126204
7.906535961
7.994429562
)
;

boundaryField
{
    flow
    {
        type            calculated;
        value           nonuniform List<scalar> 
55
(
14.75464548
15.43823026
15.69837447
15.91271884
16.01366438
15.98570997
15.55520595
15.16924327
14.32691145
13.73832921
12.85845646
12.34661538
11.60534969
10.8600841
10.32657662
9.715418236
9.340945459
9.008499823
8.811218595
8.528328341
8.408232142
8.467925423
8.19943483
8.169717021
7.994429562
7.680646583
7.732993228
7.736324581
7.752170602
7.735328703
7.706341556
7.756684159
7.773033878
7.779385639
7.761111289
7.801381606
7.715022852
7.681604029
7.69724423
7.703888728
7.747784882
7.759716726
7.747666407
7.710801602
7.748256835
7.795120232
7.866125872
7.810856579
7.819641948
7.794257333
7.824118862
7.833798697
7.874126204
7.906535961
7.994429562
)
;
    }
    obstacle
    {
        type            calculated;
        value           nonuniform List<scalar> 0();
    }
    frontAndBack
    {
        type            empty;
    }
    procBoundary3to1
    {
        type            processor;
        value           nonuniform List<scalar> 
36
(
14.18660083
15.53985594
15.37423552
15.2112515
15.0072093
15.0072093
14.1866722
14.64762077
15.04345272
15.31505776
15.56424759
15.61106643
15.61106643
11.03395211
11.49451698
11.96841736
12.50617001
12.97957989
12.97957989
8.690102073
8.821840828
9.16030596
9.395487298
9.660472511
9.957304907
9.957304907
8.038611793
8.037417892
8.040720118
8.144423433
8.149096245
8.235696179
8.358347625
8.358347625
7.918499247
7.918499247
)
;
    }
    procBoundary3to2
    {
        type            processor;
        value           nonuniform List<scalar> 
19
(
7.961546916
7.887636882
7.92069438
7.892265292
7.83446854
7.875432936
7.924591533
7.80469254
7.7729508
7.781940956
7.836878641
7.886654802
7.924939715
7.84071044
7.77548691
7.884050531
7.839275021
7.858776857
7.746424197
)
;
    }
}


// ************************************************************************* //
