/*--------------------------------*- C++ -*----------------------------------*\
| =========                 |                                                 |
| \\      /  F ield         | OpenFOAM: The Open Source CFD Toolbox           |
|  \\    /   O peration     | Version:  2406                                  |
|   \\  /    A nd           | Website:  www.openfoam.com                      |
|    \\/     M anipulation  |                                                 |
\*---------------------------------------------------------------------------*/
FoamFile
{
    version     2.0;
    format      ascii;
    arch        "LSB;label=32;scalar=64";
    class       volScalarField;
    location    "0.01";
    object      linearKE;
}
// * * * * * * * * * * * * * * * * * * * * * * * * * * * * * * * * * * * * * //

dimensions      [1 -1 -2 0 0 0 0];

internalField   nonuniform List<scalar> 
654
(
15.53108433
15.41743727
12.49677506
17.34138304
18.60262163
9.465631338
11.21918024
12.23720683
11.4370736
19.19101269
13.58867202
8.163952019
13.41157685
13.37262874
20.90145337
19.34961297
19.65713708
10.91683294
9.525366488
13.5859901
14.04902963
10.63958806
17.09119865
4.118549036
13.24500547
17.2121973
10.01785816
11.00960163
16.94419032
16.11809608
13.52336244
14.20908914
30.76631419
8.968762891
7.545566289
5.583797339
9.480197035
9.751787187
10.46148669
12.84458829
11.44791395
9.901664046
5.449883234
10.94281166
19.23816152
14.60675616
13.74798655
17.56887817
11.72612557
9.781805231
17.66859886
7.260322285
16.22322185
8.845886233
25.6421483
7.319488256
5.503054691
8.563121517
7.94906333
7.625812208
8.75808152
7.116355134
8.968223139
7.486450842
7.580212585
12.6611056
6.877447398
11.82317317
11.80428155
8.617577908
9.089062966
11.37461208
12.63054304
7.138071873
12.62835438
8.725423803
11.58660606
11.73115366
29.83705367
22.31273875
16.65400961
13.96373041
18.98848342
10.78510737
4.675264941
4.464745144
4.656952539
3.948440258
3.927805135
6.391505101
3.346863396
5.828339708
5.031323177
4.356817201
7.185341885
8.605415136
13.53528417
9.33703302
7.856491598
10.04969792
5.840530179
13.78776617
8.900006941
14.12095774
13.67351292
9.018286836
5.007668219
10.93704541
9.913903772
9.557521203
13.95769082
13.87713008
15.95178194
20.07865093
4.24783512
6.334602537
13.30385229
7.453469915
7.169153696
6.965992299
5.290135358
10.50042989
11.18106701
5.394373922
7.037075383
4.298762331
4.74886991
11.55734662
8.628806028
13.01856622
12.33268382
7.616196473
7.32784931
10.42964213
6.964669883
11.41404989
10.20496429
9.953029222
7.24837575
13.71958795
19.17019996
13.5426499
14.18005295
4.530601981
12.24871863
8.217809592
3.613120508
9.393612991
7.253936747
13.66981464
10.3080576
13.22179736
6.60737731
6.388913943
5.176939358
11.31887882
10.12582338
10.68986939
9.328496789
7.14053869
10.59518423
8.936283199
14.71230991
11.52196196
6.510790306
10.40670427
13.47872036
13.27722307
10.69914363
12.670615
10.39214246
9.492812847
15.29213093
12.24988906
6.32517944
2.772642575
8.282066385
14.70507502
5.447666061
8.675420291
6.616061361
6.910002981
8.233082599
5.162781064
7.605968155
5.730582131
11.36716984
6.162736295
8.15884122
6.751026202
9.640271732
7.24570212
4.783909309
9.885367619
15.80750206
12.53145691
11.08439795
11.06764764
9.12559307
13.43958252
17.88016699
12.23032592
10.95276264
13.42405405
3.675530255
8.77686215
9.428618996
8.324981194
8.830453511
6.779872874
9.574117533
7.555148404
9.203454405
10.38165126
4.179851989
4.303621096
9.312555572
5.53811903
11.69657088
4.667331616
7.300642369
6.521314698
6.582328847
7.943367456
8.815810321
12.88467636
9.95305069
8.257566669
12.66027249
9.640139456
9.590903483
13.80542804
13.373841
12.05712739
11.07755594
11.99058416
11.62626676
10.36441335
6.455909
3.757584785
11.71353391
9.069396962
6.698385466
7.86063123
9.225353357
5.086263286
9.674615736
5.196153831
4.219152751
10.28179959
4.363217686
9.3439558
3.77803896
6.765705015
14.48246687
5.854692992
11.64015163
12.28146355
16.42432642
9.860740705
8.362578438
13.37959194
18.36305555
12.36250644
8.838263645
7.121730722
5.051501335
6.818295271
15.81901335
11.63882137
8.466112145
9.247924388
10.34920675
6.326917049
3.729324938
9.558734833
3.506612437
3.650555345
9.943008803
7.54959658
8.775269518
5.6472166
17.05275128
12.26132153
10.53756346
11.56792181
10.44974851
9.466707015
13.48259336
8.933043416
6.672568619
4.289933705
10.38110424
14.77330744
6.054387229
9.454148041
4.70631118
3.410818366
2.922244326
10.10598107
5.803890263
6.380702167
4.891181567
10.67644053
7.139699484
6.301859108
3.577987085
7.252112687
3.0192083
8.599373055
8.113682813
6.474733162
10.31674104
9.017939224
11.71057039
8.996505991
7.347032637
6.385288907
9.979820033
10.95252049
13.68822921
13.09297017
11.83411034
9.654325711
9.750904048
7.995169092
5.444745988
11.58377092
9.654938042
10.29587786
11.78895857
7.402974477
10.6642918
8.759105931
11.01922247
5.620999684
4.936995842
10.54816392
10.22378083
10.15173723
7.640758719
8.426319545
4.826180719
4.131893185
12.36167803
8.202407192
11.01050632
6.935567139
12.1156438
7.809573725
11.57981192
7.261222742
7.246641605
6.681577445
4.978151086
5.7631993
5.846340614
10.1592869
7.32111238
9.689984006
9.249349147
13.77330445
6.622685736
4.717774022
8.895722814
5.822647474
13.89893287
11.63146478
5.655234741
13.24441972
9.823406698
14.31559081
5.062683058
6.134141321
6.67351546
3.952745952
5.294786045
6.631169448
9.923458441
7.449949492
9.925028999
8.312974619
9.119912061
8.079208419
7.196437807
8.510721401
9.747351669
8.790384697
12.98277731
10.4655877
0.9025534462
11.38194685
6.965510005
12.36222217
5.334468258
5.978358994
11.74252703
8.822528483
5.889215095
7.604158684
12.1235146
6.732970449
7.112388886
11.14326581
5.454923376
7.546618735
9.216239539
5.289160616
4.550208986
12.63001803
12.93792894
7.600316342
6.18641961
11.12151711
5.596201277
6.20893051
6.79871123
12.24108156
6.02686149
10.22788184
10.97717192
15.86827686
13.12837334
8.301566868
5.86047425
9.435441693
6.293310118
7.840265345
6.627995148
8.541765892
4.895646316
3.701342167
9.842532762
10.07162427
12.13034707
4.341007423
8.002485021
13.5980351
10.06269533
8.528437695
7.444827028
16.24697538
10.31154212
5.913624936
5.915637188
11.63836062
11.81543196
9.430072231
7.840265711
6.502212578
7.93337577
7.176673452
9.041544585
9.076085335
7.586104935
9.4732609
9.820323848
8.963105597
10.55793663
12.78595888
7.767174496
11.35208709
2.589686527
9.847055652
9.042597966
7.947199019
9.89595066
8.205723713
8.745633357
7.070252617
7.059712712
9.4103641
11.52414468
11.4127085
9.677276534
6.099437113
4.775315353
8.198439434
7.842721654
7.890864137
5.377448919
9.716108586
8.985632546
7.242992882
14.29077067
5.065166806
2.629859351
6.160577367
6.968291808
8.546955012
9.030490792
7.597215568
11.58119483
9.5079258
6.089161218
5.469806406
4.23126311
14.31457231
3.958802862
10.02958582
3.589002744
7.372049806
9.256894504
8.410446579
9.035220443
4.854084828
11.88339187
5.534556451
10.65634907
8.446393939
7.047284093
9.840524332
3.719764206
5.763500598
8.131946431
8.202651743
6.004333325
6.90471708
4.480754265
6.016462154
8.495121256
6.813391776
3.540949546
8.902949816
6.131566449
10.62957306
9.443416485
5.026876054
8.16808484
5.294607253
8.759642923
10.8218042
10.48781156
14.83907726
8.171244545
3.952593788
6.342342302
6.684120567
8.133790986
3.573510677
5.542290681
9.295011412
7.746248416
3.458018468
5.518883529
5.642454716
5.299928357
11.02766342
11.94089009
4.367452833
6.641273941
7.574753776
6.159647546
7.561583839
7.390181956
7.045143019
11.96335261
7.960240763
12.29341678
9.037804355
8.09121624
15.93056254
5.065064064
13.09005006
8.099450281
4.214541019
5.815494513
6.994067238
7.937801467
3.495615035
7.218583905
9.158209072
10.38209294
15.18367405
5.45581561
3.653696061
13.38917924
5.01365069
11.44964477
5.173248314
12.69898252
3.869396706
7.135314974
10.47114758
15.85776368
4.860546444
4.425906177
8.641910681
10.52023699
9.724901692
5.758840883
12.55274223
6.996923712
6.030882934
5.450006643
9.641594249
5.977973032
17.4234044
6.930192765
9.754482356
7.510456478
9.420333846
6.521631902
6.934300174
5.505589643
5.28320241
12.46382258
7.602335619
5.641425942
11.83864397
8.39729939
9.349631741
3.253523659
7.002869046
6.845159992
5.877978009
6.786839889
3.813294263
9.870287005
3.594320572
4.288485899
9.146862131
7.386786206
9.951479641
12.70977235
6.433035199
8.119045971
9.600817351
11.19270778
5.516883953
4.094442637
8.187507428
8.997258576
3.806772098
9.459075321
5.835111798
12.70725132
8.920235091
2.119943689
10.15576524
8.271992119
3.795717735
9.874586296
7.035576693
6.86645308
10.27185632
4.537586525
3.914836678
8.923350443
9.551525499
6.028298361
3.599136877
11.11310357
3.084751397
)
;

boundaryField
{
    flow
    {
        type            zeroGradient;
    }
    obstacle
    {
        type            calculated;
        value           nonuniform List<scalar> 0();
    }
    frontAndBack
    {
        type            empty;
    }
    procBoundary3to1
    {
        type            processor;
        value           nonuniform List<scalar> 
36
(
10.66768704
14.00797306
17.09568534
11.37617146
17.36028171
17.36028171
11.35297254
16.99855236
8.223962891
20.84574798
12.88801181
22.00276218
22.00276218
14.48417738
5.441754833
15.64921621
7.598588408
14.31836082
14.31836082
10.69296926
7.140556914
11.82012422
12.91510342
12.56391051
9.650484109
9.650484109
8.401410834
8.04935167
9.098472154
3.708244408
8.266745664
5.584024932
7.138273504
7.138273504
16.41799475
16.41799475
)
;
    }
    procBoundary3to2
    {
        type            processor;
        value           nonuniform List<scalar> 
19
(
9.360752056
10.10720781
5.242405042
9.028486672
4.755458509
8.908619914
10.48651378
7.736927372
7.956213787
2.144719197
11.23520368
4.945023123
6.322946146
3.759273997
8.473389047
8.087512697
6.323168434
2.816919438
6.044612788
)
;
    }
}


// ************************************************************************* //
