/*--------------------------------*- C++ -*----------------------------------*\
| =========                 |                                                 |
| \\      /  F ield         | OpenFOAM: The Open Source CFD Toolbox           |
|  \\    /   O peration     | Version:  2406                                  |
|   \\  /    A nd           | Website:  www.openfoam.com                      |
|    \\/     M anipulation  |                                                 |
\*---------------------------------------------------------------------------*/
FoamFile
{
    version     2.0;
    format      ascii;
    arch        "LSB;label=32;scalar=64";
    class       volVectorField;
    location    "0.01";
    object      momentumMean;
}
// * * * * * * * * * * * * * * * * * * * * * * * * * * * * * * * * * * * * * //

dimensions      [1 -2 -1 0 0 0 0];

internalField   nonuniform List<vector> 
654
(
(0.01523819595 0.004823152009 -5.282392196e-06)
(0.01577291257 0.00511546092 -1.511780284e-05)
(0.01594565859 0.005221704022 -1.169937912e-06)
(0.01587891615 0.005160018001 -6.351884485e-06)
(0.01584515008 0.005076835092 -2.510087559e-06)
(0.01583871373 0.005053727125 -2.993099138e-06)
(0.01355937039 0.003603732715 2.565057126e-05)
(0.01400204693 0.003860562374 2.550662977e-06)
(0.01455273402 0.004236295331 -2.641033285e-05)
(0.01492471361 0.00445257768 -4.9192497e-05)
(0.01531892219 0.004758737985 -1.076745808e-05)
(0.01562883822 0.004962471381 -5.160831058e-05)
(0.01577816482 0.004998156985 -4.176056191e-05)
(0.01587634695 0.005099143802 -2.861607966e-05)
(0.01608539264 0.005214811865 -2.870585171e-05)
(0.01607995723 0.005162398751 2.301174225e-06)
(0.01599611147 0.005085199605 2.382167529e-05)
(0.01059531757 0.001628422124 6.158911203e-06)
(0.01106723917 0.001894881274 -9.527795983e-06)
(0.01141970195 0.002166415828 1.014019734e-05)
(0.01188165388 0.002454870149 -3.619574499e-05)
(0.01237168987 0.00277092857 -3.041124708e-05)
(0.01293381306 0.003142676473 -3.303974156e-05)
(0.01345594759 0.003439456739 -1.43911497e-05)
(0.01385368087 0.003718269973 -4.407882327e-05)
(0.01439962887 0.004092435205 -4.870161694e-05)
(0.01484144154 0.004341706332 -1.826295541e-05)
(0.0152746593 0.004645529667 -4.374724564e-06)
(0.01562644161 0.004908310004 -3.135854637e-05)
(0.01578266581 0.004975971936 -1.951309192e-05)
(0.01592131636 0.005020831152 -1.515994152e-05)
(0.01608663685 0.005133148559 -5.257095227e-05)
(0.01610002486 0.005105696412 -2.765054784e-05)
(0.008890099443 0.0004395378953 7.02940574e-06)
(0.00902260292 0.0005136575981 2.536974329e-06)
(0.009092060723 0.00062859413 1.020190572e-05)
(0.009304227842 0.0007516287205 3.113347392e-05)
(0.009546984411 0.0009115805672 2.864178196e-05)
(0.009803037878 0.001065484693 -9.563864184e-06)
(0.01005951433 0.001226985743 -6.402838714e-06)
(0.01041776403 0.001471623758 -1.777835058e-05)
(0.01088624751 0.001732358452 -2.764882087e-05)
(0.01126962365 0.002021063205 -2.326206945e-05)
(0.01174743518 0.002299537871 -3.830196882e-05)
(0.01218388126 0.002598831111 -6.61899396e-06)
(0.0126648834 0.002955390086 -1.731006394e-05)
(0.01318647079 0.003265659876 1.635639861e-05)
(0.0136575116 0.003572947332 -4.669213961e-06)
(0.01417139482 0.003906943086 -3.030885718e-05)
(0.01463880583 0.004220339191 -3.755922698e-05)
(0.0150851439 0.004546504652 -3.799245745e-05)
(0.01551856081 0.004750531427 8.982498439e-06)
(0.0158111097 0.004935435019 2.081684567e-05)
(0.01594745692 0.005031802632 3.069180481e-06)
(0.01615249454 0.005061439674 5.789355202e-06)
(0.008423490657 8.303860415e-05 1.203565735e-05)
(0.008425705608 9.994255914e-05 1.107365204e-05)
(0.008445221984 0.0001283301186 1.426092874e-05)
(0.00850593475 0.0001556972306 1.036217026e-05)
(0.008594576968 0.0001968431103 3.140179119e-06)
(0.008639386978 0.0002355516045 8.065197659e-06)
(0.008706020317 0.0002844383103 1.456974802e-05)
(0.008745328754 0.0003312857045 1.493890955e-05)
(0.008908756744 0.0003991176247 -4.084025294e-07)
(0.009075679355 0.0004891260816 -9.92848252e-06)
(0.009200187735 0.0005679410942 -2.588503716e-05)
(0.009359611353 0.0006892776452 -1.700626865e-05)
(0.009584407635 0.0008209433322 -3.942632985e-06)
(0.009834086553 0.0009901831272 -9.26435848e-06)
(0.01004987841 0.001176226311 -1.513593804e-05)
(0.01028856456 0.001362199911 -1.136748661e-05)
(0.01070365304 0.001577250267 -1.091436742e-05)
(0.01108265033 0.00186610335 -1.434762313e-05)
(0.01151525043 0.002135858029 -4.564572252e-06)
(0.01201403479 0.002459866423 5.553460249e-07)
(0.01255427651 0.002802020799 -3.426898328e-05)
(0.01305972202 0.003119429379 1.709741071e-06)
(0.01356336219 0.003447290501 6.756173283e-06)
(0.01409027336 0.003782667986 -1.104891423e-05)
(0.01462368046 0.004079251986 6.982701645e-07)
(0.01512269771 0.004393743823 5.24209498e-06)
(0.01546137294 0.00463948721 -1.899272819e-05)
(0.0158676683 0.004807994573 2.016527233e-05)
(0.0160827679 0.005004592347 1.86529136e-05)
(0.008437114846 5.826164192e-05 -2.021479424e-06)
(0.008455435535 7.698345398e-05 -2.43467809e-06)
(0.008474464794 9.399558698e-05 1.013795407e-05)
(0.008545091568 9.126317941e-05 4.380474871e-06)
(0.008561300573 0.0001088671622 6.775729401e-06)
(0.008548565059 0.000140125167 9.991820877e-06)
(0.008601319163 0.0001886039349 1.163202262e-05)
(0.008698388153 0.0002290463932 3.715151437e-06)
(0.008779702164 0.0002643260498 -1.178733058e-05)
(0.008818383067 0.0003033859928 -5.068086637e-06)
(0.008851471942 0.0003495191916 -1.307101036e-06)
(0.008991570114 0.0004468961412 6.474010906e-06)
(0.00909076949 0.0005233208493 7.778325403e-06)
(0.00925151355 0.0006334462853 1.866069176e-05)
(0.009401841566 0.0007451983759 3.228163239e-05)
(0.009692972951 0.0008951284289 1.951835115e-05)
(0.009917336541 0.001072846408 4.633877858e-06)
(0.01021401132 0.001283155974 -9.024779391e-07)
(0.01052863759 0.001479367787 -1.325766448e-05)
(0.01086478155 0.001725278112 -1.910147781e-05)
(0.01134088228 0.00200486904 -2.923631169e-05)
(0.01175287271 0.002299160189 -2.849868447e-05)
(0.01225385501 0.002628876223 -2.504452342e-05)
(0.01272744905 0.002936763834 2.244279696e-05)
(0.0132893412 0.003268198378 2.526927403e-06)
(0.01387769418 0.003649850084 -1.97697896e-05)
(0.01429419803 0.003917233862 -7.460511844e-06)
(0.0148305951 0.004240799821 -1.509797453e-05)
(0.01522979171 0.004501171246 -1.289755182e-05)
(0.01559036555 0.004700158314 -1.446394507e-05)
(0.008376821944 4.620639303e-05 4.695912618e-06)
(0.008360368093 4.07803855e-05 -1.523552647e-06)
(0.008396607089 6.354980155e-05 1.820828006e-06)
(0.008405034926 6.764037984e-05 5.880406786e-07)
(0.00843311802 8.723744175e-05 -9.88077083e-06)
(0.008468072113 0.0001049280713 -8.571618583e-07)
(0.008537461591 0.0001165883278 5.083657995e-06)
(0.008577411282 0.0001414489485 -2.007750601e-07)
(0.008603612786 0.0001832545361 6.148477143e-06)
(0.008716933624 0.0002417033872 -3.838821455e-06)
(0.008789984406 0.0002945542937 -1.439162477e-05)
(0.008829791478 0.0003346327772 -2.324450079e-05)
(0.008950424525 0.0004096176563 -2.214960165e-05)
(0.009082806104 0.0004951446155 -2.84637334e-05)
(0.009210692222 0.0006038109204 -3.064593501e-05)
(0.009325588857 0.0006959751744 -2.284383055e-05)
(0.009481613611 0.0008353488622 1.240613167e-05)
(0.009657327359 0.000983583561 9.425492918e-06)
(0.009972708635 0.001175482966 2.124864285e-05)
(0.01025598441 0.001359680538 1.424608634e-05)
(0.01056362384 0.001567352236 1.921778826e-05)
(0.01100939662 0.001869934256 3.197956628e-06)
(0.01152150049 0.002146062169 -2.810959286e-05)
(0.01206436129 0.002445545139 -2.624943222e-05)
(0.01260049271 0.002783185563 -3.455332074e-06)
(0.01305274922 0.003090538906 1.161096705e-05)
(0.01366658554 0.003473259077 7.655547451e-06)
(0.0142502972 0.00379322899 -4.010789857e-06)
(0.01482380189 0.004127687181 -5.156260939e-05)
(0.01524686965 0.004379398799 -4.923075138e-05)
(0.008382846762 4.015524497e-05 5.401470072e-06)
(0.008426541696 4.165463264e-05 1.02046352e-05)
(0.008420795548 3.773282697e-05 9.526247342e-07)
(0.008455132174 5.210727668e-05 -8.220103175e-06)
(0.008472258857 6.012687803e-05 -9.874663554e-06)
(0.008453541578 8.063088135e-05 -1.697095303e-05)
(0.008434383305 0.0001059224292 -1.332420554e-05)
(0.008463896273 0.0001171406088 -1.111265645e-05)
(0.008499763752 0.0001454992835 -7.644475252e-06)
(0.008503509146 0.0001703827268 -3.682839858e-06)
(0.008503498488 0.0001923939024 -3.179419461e-06)
(0.008642487929 0.0002393917372 -9.307281376e-06)
(0.00874277867 0.0002861778656 2.747486978e-06)
(0.008809848013 0.0003636821483 -8.420274246e-06)
(0.008925993235 0.0004613423814 -7.736916001e-06)
(0.009107798513 0.0005618774006 -8.780198915e-06)
(0.009271069623 0.0006609074078 -1.06283013e-05)
(0.009507404113 0.0007959949006 -1.241196228e-05)
(0.009623047414 0.0009252808549 -2.137642286e-05)
(0.009871939856 0.001097702377 -1.566720352e-05)
(0.01023926039 0.001288598435 -1.747656297e-05)
(0.01054127753 0.001498682232 -1.471584946e-05)
(0.01087827836 0.001682955315 1.429435626e-06)
(0.0113364586 0.001989357011 -2.063897123e-05)
(0.01180193072 0.0023022797 -2.149587926e-05)
(0.0123012255 0.002596440987 -2.48362881e-05)
(0.01285077491 0.002967937434 -2.707966754e-05)
(0.01336933579 0.003309406764 -6.163859205e-07)
(0.01386142623 0.003636172944 1.539095362e-05)
(0.01439116819 0.003912345804 -7.338120473e-06)
(0.008398578929 1.668027438e-05 1.818675473e-07)
(0.008382235206 2.11618455e-05 -1.091919526e-06)
(0.008421760973 3.026988143e-05 -5.371869088e-06)
(0.008431197172 4.242601572e-05 -7.903975778e-06)
(0.008408744023 6.38841657e-05 -3.438354104e-07)
(0.008413453042 7.513822031e-05 -1.774146792e-06)
(0.008433279042 8.474136777e-05 -1.72621104e-05)
(0.00845794995 9.565475908e-05 -1.024373015e-05)
(0.008475403549 0.0001065513188 -8.399166144e-06)
(0.008522614154 0.0001260433608 -1.497479822e-07)
(0.008533767761 0.0001652033382 -5.49865908e-08)
(0.008629931227 0.0002039481062 -1.026214282e-05)
(0.008649343206 0.0002428779542 -3.388539596e-06)
(0.008671413412 0.0002818438309 2.957201674e-06)
(0.008759243367 0.0003313584863 4.829416714e-07)
(0.008862254255 0.0003994137265 -1.628851764e-05)
(0.008957326929 0.0004941555807 -2.185592497e-05)
(0.009105558804 0.0006188464933 -2.360036081e-05)
(0.009334888523 0.0007284192484 -2.276926906e-05)
(0.009583164415 0.000865520951 -2.313165496e-05)
(0.00981173968 0.0009987814817 -1.469087743e-05)
(0.010115715 0.00118880255 -1.410351078e-05)
(0.01040316544 0.001400914162 -2.528308553e-05)
(0.01070554476 0.00160497592 -1.463119776e-05)
(0.01110674469 0.001863735895 -5.819906116e-06)
(0.01162572544 0.002201910518 -3.917256596e-05)
(0.01210147422 0.002474170237 -2.3503576e-05)
(0.01262752968 0.002803502271 -1.581918391e-05)
(0.01321764568 0.003136724657 -9.526738649e-06)
(0.01381684233 0.00349217833 -9.410222247e-06)
(0.008316753128 -5.544442552e-06 1.405332501e-06)
(0.00832472367 -1.804388825e-07 -1.376081217e-06)
(0.008302468418 2.213348615e-05 4.5353919e-06)
(0.008289886603 3.598818695e-05 4.355129974e-06)
(0.008354082441 4.448274067e-05 8.62351213e-06)
(0.008384654372 4.955480978e-05 1.190529547e-05)
(0.008452794557 5.481453928e-05 1.83677424e-05)
(0.008472460539 7.624722204e-05 5.69484491e-06)
(0.008491297885 9.338865699e-05 3.283329775e-06)
(0.008459953119 0.0001053390376 3.899633427e-06)
(0.00854091209 0.0001348742423 6.256755725e-06)
(0.008519201552 0.0001663320964 8.896346507e-06)
(0.008533817955 0.0001837209904 -3.194823747e-06)
(0.008597773796 0.0002281169524 -1.571396159e-05)
(0.008663388065 0.0002747176321 -1.858242715e-05)
(0.008727889697 0.0003165866609 -1.681563139e-05)
(0.008856124718 0.0003791295195 -1.147998398e-05)
(0.009059233423 0.0004485607708 6.14256987e-06)
(0.009222564974 0.0005498509971 6.063075601e-06)
(0.009332491138 0.0006699894101 -1.658273774e-05)
(0.009522470963 0.0008072760195 -2.774811473e-07)
(0.009764076742 0.0009356442212 -5.396047684e-06)
(0.01012060877 0.001143309851 5.21473722e-06)
(0.01041951144 0.00129925493 6.775553976e-06)
(0.01078183001 0.001528469162 -2.735874774e-06)
(0.0111972692 0.0017657493 1.410297353e-06)
(0.01161812786 0.002068994439 -6.772702268e-06)
(0.01207952758 0.002385038016 1.107450307e-05)
(0.01254322995 0.002733477031 2.12460558e-05)
(0.01299073425 0.003017923968 1.98006357e-05)
(0.008331994986 8.848341541e-06 6.930622232e-06)
(0.00831401682 1.321972878e-05 9.159286744e-07)
(0.008354396296 1.213503579e-05 -4.035227668e-06)
(0.008364854197 7.062225032e-06 -9.399989098e-09)
(0.008366377625 1.356306674e-05 -8.364561642e-06)
(0.008364281468 2.239813099e-05 -7.935853198e-06)
(0.008343315309 3.784315861e-05 -2.435111398e-06)
(0.008323752428 5.586434483e-05 4.401526451e-06)
(0.008370531759 7.620806423e-05 -4.999564813e-06)
(0.008415889506 8.225556396e-05 -6.690191432e-06)
(0.00843691987 0.000102439613 -7.531977715e-06)
(0.008434848974 0.0001301624286 -3.787746055e-06)
(0.008479425904 0.0001683511675 1.106362922e-05)
(0.008565856304 0.0001883597746 9.944746778e-06)
(0.008572561944 0.0002052204748 5.461464704e-06)
(0.008631650733 0.000234358926 4.206271196e-06)
(0.008651307874 0.0002760122735 1.414535382e-05)
(0.008767586417 0.0003433384564 -6.993171638e-06)
(0.008905234086 0.0004030062004 -3.939239042e-06)
(0.009081044996 0.0004906874678 6.443788372e-08)
(0.009278119999 0.000582303411 -1.585957811e-05)
(0.009527502137 0.0007170905646 -2.189346224e-05)
(0.009737693359 0.0008561618026 -1.989117926e-05)
(0.01004736975 0.001032345265 -2.843139602e-05)
(0.01032485895 0.001210702901 -2.706921481e-05)
(0.01061245836 0.001464160451 -1.921438442e-05)
(0.01099121856 0.001703448505 -1.599354508e-05)
(0.01138354084 0.001975243615 7.465211244e-07)
(0.01190121163 0.002269315557 -1.744990752e-05)
(0.01253143649 0.002593469829 -2.782180808e-05)
(0.008456770916 2.122567929e-05 -2.071075366e-05)
(0.008425045899 2.169920482e-05 -1.525924437e-05)
(0.008371784431 1.855391132e-05 -1.493786181e-05)
(0.00838232745 1.625525538e-05 -3.913967069e-06)
(0.008370733408 2.570764e-05 -3.1551426e-06)
(0.008391877285 4.155833357e-05 -1.026233184e-06)
(0.008395344383 4.228253974e-05 -6.790990437e-06)
(0.008388568583 4.455592231e-05 -5.570111933e-06)
(0.008416253796 5.612262088e-05 -1.041347525e-05)
(0.008385601314 7.623286093e-05 1.180766943e-06)
(0.008438280162 8.983206793e-05 4.394146155e-06)
(0.008507579576 0.0001099927868 -7.387314823e-06)
(0.008505922901 0.000119657048 -1.006193356e-05)
(0.008505883202 0.0001188960315 -5.009577936e-06)
(0.008591198144 0.0001615557779 -6.768532541e-06)
(0.008704414606 0.0001973771122 -7.194080298e-06)
(0.008758769819 0.0002286932506 -1.825537288e-05)
(0.008785454704 0.0002615201115 1.296071662e-05)
(0.008897805156 0.0003153957644 -1.051155708e-05)
(0.008905571988 0.0003857281681 6.038708246e-06)
(0.00904900677 0.0004522107821 5.475237901e-06)
(0.009157353594 0.0005393785344 7.530765765e-06)
(0.009301316843 0.0006676345571 9.330294931e-06)
(0.009522592617 0.0008109375857 3.265610584e-06)
(0.00975948958 0.0009583610558 -3.158430358e-06)
(0.01007171974 0.001140739766 3.688079479e-06)
(0.01043883759 0.001362690531 -2.694831729e-06)
(0.01086477356 0.0016061395 -1.868855902e-05)
(0.01136206815 0.001848416628 -3.273055051e-05)
(0.01181206255 0.002126461769 -2.983183057e-05)
(0.008248509269 -3.544786733e-07 3.928475884e-07)
(0.008329831378 8.032726938e-06 -1.203637761e-06)
(0.008319674831 1.948304146e-05 -6.270119439e-06)
(0.008302523115 2.488366907e-05 -1.974953212e-05)
(0.008268227854 2.220874156e-05 -1.191423602e-05)
(0.008301499003 1.438564103e-05 -1.100149395e-05)
(0.008307975872 2.180696649e-05 -1.16018051e-06)
(0.00828599741 3.578013942e-05 -1.04530229e-05)
(0.008283201443 5.300149789e-05 -4.168169918e-06)
(0.008329653086 5.636879441e-05 -2.698380627e-06)
(0.008340073568 5.438270555e-05 -1.757406735e-06)
(0.008337024331 5.409059854e-05 2.617051949e-06)
(0.008430633481 7.377045334e-05 -2.638814528e-06)
(0.008475161228 0.0001004192554 1.734553052e-05)
(0.008484998165 0.0001301286578 1.837812532e-05)
(0.008561750195 0.0001465274232 1.122967678e-05)
(0.008609356402 0.0001609905563 6.952677329e-06)
(0.00869135492 0.0001896415276 -5.86613857e-06)
(0.008729133995 0.000247085559 -9.809155798e-06)
(0.008835906191 0.0003010460622 -2.967603605e-06)
(0.008887098334 0.0003737687474 -7.636550823e-06)
(0.008975039699 0.0004325314293 -3.360130902e-06)
(0.009075718425 0.0005242129037 -7.567955911e-06)
(0.00922533626 0.0006410075446 -1.028424846e-05)
(0.009437163131 0.0007436823044 -6.71874238e-06)
(0.009696354205 0.0008790078564 -1.142573734e-05)
(0.00997237753 0.001049138876 -7.215492901e-06)
(0.01037222466 0.001250716296 -2.957839639e-05)
(0.01070165642 0.001479480558 -6.593199091e-06)
(0.01112471569 0.001764000964 -2.332923375e-06)
(0.008287378105 -3.643009612e-07 -1.22853674e-05)
(0.00826371335 5.480104378e-06 -1.538117458e-05)
(0.008263971306 7.619957633e-06 -1.211023633e-05)
(0.008279741907 1.28169304e-05 -8.039017589e-06)
(0.00829881656 2.405404841e-05 -5.52851933e-06)
(0.008244355139 2.834397297e-05 -6.051865446e-06)
(0.008287950794 3.193007648e-05 -7.899812971e-06)
(0.008270778662 2.272433151e-05 3.879173573e-06)
(0.008313926102 1.951351433e-05 6.023975818e-06)
(0.008380561544 2.951277943e-05 -5.008711647e-06)
(0.008350204133 4.607623288e-05 -9.585162556e-06)
(0.008390121733 5.454035467e-05 9.687387575e-07)
(0.008405923354 4.455979719e-05 7.229834169e-07)
(0.008467153312 4.443272646e-05 -1.614648976e-05)
(0.008527395328 6.213659267e-05 -1.262457172e-05)
(0.008545848013 0.0001072218013 -2.034272019e-05)
(0.008557369306 0.0001395015275 -1.383250836e-05)
(0.008575608724 0.0001714238667 -4.214185426e-06)
(0.008569456213 0.0002016898527 -5.354078043e-06)
(0.008665129144 0.0002292008887 -1.322555915e-05)
(0.008742738787 0.0002651409418 -9.226806602e-06)
(0.008876507587 0.0003441511256 -1.642881729e-05)
(0.00901923188 0.0004208601397 -6.577124506e-06)
(0.009157748187 0.0004793168914 7.37206204e-06)
(0.009302271871 0.0005869514 1.525102275e-05)
(0.009539398294 0.0006938284438 2.254247701e-05)
(0.009723513538 0.0008397955532 2.503762939e-05)
(0.009933527817 0.001004068943 2.837262329e-05)
(0.01027223227 0.001187952927 2.196212952e-05)
(0.0106249183 0.001412494959 2.222223317e-05)
(0.00823043123 4.264323055e-06 -8.963756824e-07)
(0.008231593364 -3.588317029e-06 3.586545777e-06)
(0.008235448408 2.445720738e-06 5.014853659e-06)
(0.008268848778 9.685810828e-06 2.936736476e-06)
(0.008262099636 5.388292216e-06 4.398522892e-06)
(0.008338661451 8.634202071e-06 6.273133831e-07)
(0.008381112266 8.36650583e-06 3.427982509e-06)
(0.008389265034 1.583912256e-05 -2.541010389e-06)
(0.008370764804 2.001369448e-05 -1.359792566e-05)
(0.008363000099 1.966988395e-05 -2.265727846e-05)
(0.008387335694 1.732276596e-05 -1.416939492e-05)
(0.008412230136 1.878973474e-05 -1.46383886e-05)
(0.008391047325 4.810648311e-05 -1.341310505e-05)
(0.008409202651 5.909252891e-05 -3.013716624e-06)
(0.008355173932 7.255810766e-05 4.314083691e-06)
(0.008392013111 6.723611865e-05 -3.123056493e-06)
(0.008385832322 8.278245057e-05 4.319618059e-06)
(0.008360458399 0.000117766842 -1.25551944e-05)
(0.008450429962 0.0001481176526 -2.693348546e-06)
(0.008492581572 0.0001955407512 1.013269209e-05)
(0.008517352944 0.0002125352884 1.240403087e-05)
(0.008591039041 0.0002493342773 1.388213669e-05)
(0.008649988589 0.0002915944969 -3.669685311e-06)
(0.008758394399 0.0003669543181 -5.694053104e-06)
(0.008922340892 0.0004099341895 -1.534281483e-05)
(0.009101023339 0.0005138017017 -1.800403279e-05)
(0.009323623221 0.0006463061849 -1.973720179e-05)
(0.009586411508 0.0007973456775 1.149460373e-06)
(0.00975254524 0.0009427749628 4.499967305e-06)
(0.01005128372 0.001136369593 9.942824265e-06)
(0.008323255469 1.405205303e-05 1.240937979e-05)
(0.008287970435 1.528760188e-05 1.307223138e-05)
(0.008299550498 8.095504277e-06 1.625239167e-05)
(0.008309855854 -2.525197848e-06 3.484732887e-06)
(0.008295633071 -4.596120625e-06 -3.898733406e-06)
(0.008344551188 -1.103446345e-05 -5.326269925e-06)
(0.008311013296 -1.464047987e-05 -1.164982144e-05)
(0.008363571503 -3.562239897e-06 -8.61494506e-06)
(0.008408996251 -3.58866241e-06 -7.603694674e-06)
(0.008392492843 1.806726682e-06 -8.805524285e-06)
(0.008362643001 2.092400156e-05 -1.97259242e-05)
(0.008361296092 3.124493354e-05 -2.323918336e-05)
(0.008353816969 3.575278857e-05 -1.57425119e-05)
(0.008313624675 5.525698217e-05 -2.15408864e-05)
(0.008289908908 7.388078062e-05 -2.440942332e-05)
(0.008291220317 9.629147731e-05 -1.544546909e-05)
(0.008274029671 9.854660581e-05 -1.078171837e-05)
(0.008341196898 0.0001023275122 -3.726444183e-06)
(0.008366153135 0.0001055804035 -3.950461267e-06)
(0.008437869379 0.0001182365328 -1.121918978e-05)
(0.008498493805 0.00015441617 -1.125960962e-05)
(0.008589606744 0.0001862995855 -1.036445805e-06)
(0.008690123977 0.0002268048507 1.037237331e-05)
(0.008783348959 0.0002987706651 4.629250661e-06)
(0.008825197178 0.0003479814953 1.18412433e-05)
(0.008876496054 0.0004062833311 3.201129442e-06)
(0.008996000874 0.0004741588789 2.30685834e-06)
(0.009185304441 0.000582727031 -7.863145629e-06)
(0.009492781159 0.0007384306739 -1.547679999e-05)
(0.009723373346 0.0008712285233 -1.813089119e-05)
(0.008332657352 1.591186226e-05 -1.270642646e-05)
(0.008408963516 3.995894525e-06 -1.760022102e-05)
(0.008458205071 2.936366631e-06 -1.919812765e-05)
(0.008395582138 5.986781401e-06 -2.460621038e-05)
(0.008372749016 8.409775817e-06 -1.931559293e-05)
(0.00833996438 1.09861336e-05 -9.478270493e-06)
(0.008305843956 9.721069202e-06 -5.594720672e-06)
(0.00828936991 -6.95086277e-06 -5.792024297e-06)
(0.00824047987 4.226005951e-07 -5.569985608e-06)
(0.00823467169 5.108611024e-06 -2.939669325e-06)
(0.008224085513 1.993215357e-05 2.952962886e-06)
(0.008216575165 3.671579159e-05 2.677793313e-06)
(0.008250982869 5.161707984e-05 1.781530505e-06)
(0.008302403334 4.483711046e-05 -9.791107923e-06)
(0.008364150098 4.896460921e-05 -1.275756312e-05)
(0.008414132863 4.608169437e-05 -1.120983092e-05)
(0.008462102635 6.02324234e-05 -9.052652916e-06)
(0.008494437786 7.241496604e-05 -1.09880616e-05)
(0.008581321447 8.91348753e-05 -6.315234177e-06)
(0.008572748588 9.560263371e-05 -4.739243577e-06)
(0.008664231201 0.0001207640418 -5.339527921e-06)
(0.008643761744 0.0001539754041 -1.630108585e-05)
(0.008572226846 0.0001965442374 -1.979720922e-05)
(0.008644963079 0.0002388686557 -1.935804214e-05)
(0.008723218976 0.0002838957613 -1.724415186e-05)
(0.00878937523 0.0003252080299 -1.48104043e-05)
(0.008917889382 0.0003820161279 -2.04698839e-05)
(0.009046856742 0.0004628886149 -1.62661234e-05)
(0.009144924544 0.0005508310915 -1.430406342e-05)
(0.009412568907 0.0006814182893 -5.857950342e-06)
(0.008407338955 -8.95190236e-06 -1.527965112e-05)
(0.008379433161 2.331780736e-06 -8.178699214e-06)
(0.008381982341 8.628282152e-06 -7.571941406e-06)
(0.008399224957 1.49511119e-05 -7.493010063e-06)
(0.008384011294 1.666163006e-05 -9.404420855e-06)
(0.00840387658 2.004375235e-05 -1.642143492e-05)
(0.008400330374 1.924706895e-05 -1.72921438e-05)
(0.008406543151 2.680616203e-05 -2.03411313e-05)
(0.008347442888 2.923453179e-05 -4.21699986e-06)
(0.008349159575 1.674992549e-05 1.103797717e-05)
(0.008325967738 2.568354438e-05 9.553310556e-06)
(0.008368863338 1.769467346e-05 1.40542414e-05)
(0.008373749267 2.505824836e-05 1.168835253e-05)
(0.008408670279 2.969564128e-05 9.44728472e-06)
(0.008420322064 1.136715405e-05 8.404816008e-06)
(0.008400758391 2.490314448e-05 9.205528207e-06)
(0.008424105138 4.38301005e-05 5.956693528e-06)
(0.008454182443 5.570204569e-05 -1.344414603e-06)
(0.008413934818 6.391207644e-05 -1.010464929e-05)
(0.008433427005 8.716930231e-05 -1.419110284e-05)
(0.008443899905 0.0001189083572 -2.134400309e-05)
(0.008446605062 0.0001332719986 -1.58876377e-05)
(0.008559867875 0.0001486287594 -2.328533278e-05)
(0.008594417917 0.0001673147646 -2.144039833e-05)
(0.008734904443 0.0002226999216 -1.417305899e-05)
(0.008780621396 0.0002543710064 -1.485839654e-05)
(0.008899424393 0.0003164898441 5.960633985e-06)
(0.008968178159 0.0003670844411 8.115088153e-06)
(0.009071623397 0.0004364011331 1.668208011e-05)
(0.009201459226 0.0005479120982 6.35287411e-06)
(0.008318483122 2.068387879e-06 -5.149368039e-06)
(0.008259263687 1.241608364e-05 -8.134819573e-06)
(0.008262755677 1.550749536e-05 -6.574680918e-06)
(0.00827103873 1.004092287e-05 -5.124602539e-06)
(0.008286482209 8.268977932e-07 -5.545234829e-06)
(0.008276259263 8.020151197e-06 -1.179099075e-06)
(0.008251534476 2.027365593e-05 1.414671481e-06)
(0.008321564115 1.707854137e-05 4.388435948e-06)
(0.00834690937 1.642693458e-05 -1.133874843e-05)
(0.008335110107 1.714456216e-05 -3.457561666e-06)
(0.008388345993 1.865978628e-05 5.166262301e-07)
(0.008403955854 1.509895176e-05 1.987939666e-06)
(0.008388667215 5.187307646e-06 4.171392553e-06)
(0.008363489045 1.793330629e-05 5.842617955e-06)
(0.008340008481 2.576966418e-05 9.256056218e-06)
(0.008359526341 3.532447129e-05 6.410159786e-06)
(0.008309813152 3.048110934e-05 -5.624005039e-06)
(0.008356396702 3.743990041e-05 -3.417306567e-08)
(0.008339417045 5.872387984e-05 1.15545415e-05)
(0.008378425687 5.323956785e-05 1.657864498e-05)
(0.008427535659 5.939724579e-05 1.920900084e-05)
(0.008512302327 8.539689795e-05 2.798121439e-05)
(0.008531488242 0.0001144970114 3.099506804e-05)
(0.008590643946 0.0001455998646 2.632649252e-05)
(0.008587805917 0.0001667942655 2.276870129e-05)
(0.008618612311 0.0002179724927 3.443837366e-05)
(0.008692605276 0.0002382026358 2.466495662e-05)
(0.008775258922 0.000290629021 1.845576677e-05)
(0.008899019605 0.0003549014195 1.167442087e-05)
(0.008945130832 0.0004017916808 7.545090482e-06)
(0.008293039672 4.511816188e-06 2.918431495e-06)
(0.008268576878 -8.368740179e-06 1.227525021e-07)
(0.008318542111 -9.362913494e-06 -1.102100185e-06)
(0.008291657255 -9.502263654e-06 -3.810119982e-06)
(0.008320942073 1.838319106e-06 -6.683714288e-06)
(0.008313899834 5.574810601e-06 -5.444932139e-06)
(0.008342581899 5.905809638e-06 -5.295257844e-06)
(0.008288039399 1.538546835e-05 -2.085459705e-06)
(0.008330703719 1.097303047e-05 -5.23986746e-07)
(0.008290617943 1.343505441e-05 -8.296185519e-06)
(0.008324537897 1.00408416e-05 -1.184009047e-05)
(0.008264976594 8.008301218e-06 -2.697648274e-06)
(0.008257847609 1.891823666e-05 -1.387529311e-05)
(0.008323555947 1.918464894e-05 -8.598007073e-06)
(0.008340567937 2.611335451e-05 -1.917326519e-05)
(0.008384168001 2.095113191e-05 -1.658031926e-05)
(0.008441635319 2.819347126e-05 -7.548843571e-06)
(0.008406024101 3.398521521e-05 -4.235393396e-06)
(0.008469377033 3.917196435e-05 -1.431051666e-05)
(0.008475310449 4.047531198e-05 -7.257497936e-06)
(0.008445170043 6.13378208e-05 3.744570285e-06)
(0.0084318781 6.594657627e-05 3.359959667e-06)
(0.008393510448 8.175700577e-05 1.499637141e-06)
(0.008498996114 0.0001079257556 -1.967963034e-07)
(0.008576327332 0.0001236984706 4.893096452e-06)
(0.008645870279 0.000161503215 2.606900745e-06)
(0.00861307654 0.0002134252694 -3.353597896e-06)
(0.008656024485 0.0002427462653 -1.356509457e-05)
(0.008762145409 0.000287184763 -1.762870887e-06)
(0.008850930907 0.0003302749656 4.68719775e-06)
(0.008327297932 1.38840325e-05 -7.595711635e-06)
(0.008353364109 1.608058001e-05 -4.015911387e-06)
(0.008305980045 2.288077692e-06 -1.290908328e-07)
(0.008318868101 4.616185279e-06 1.067775162e-05)
(0.008285438614 2.802278583e-06 1.355017231e-05)
(0.008318417796 1.087607592e-06 1.983764536e-05)
(0.008372294817 -8.821767817e-06 1.688428764e-05)
(0.008415687718 -3.553341597e-06 1.145622225e-05)
(0.008415323485 1.591587522e-05 6.526643882e-07)
(0.008407842701 1.226617222e-05 6.946588317e-06)
(0.008410227133 1.271475061e-05 3.102564597e-06)
(0.0084025372 1.958550464e-05 2.402347089e-06)
(0.008445554281 7.454135959e-06 2.397499525e-07)
(0.008408043226 1.161938021e-05 -4.311894641e-06)
(0.008398842592 1.38840283e-05 4.135198317e-06)
(0.008428677691 1.594341694e-05 9.644889945e-06)
(0.008423888241 1.908334602e-05 9.690025544e-06)
(0.00837727403 2.032752646e-05 1.881805969e-05)
(0.008384590834 1.520399887e-05 1.349552598e-05)
(0.008389574781 5.247538388e-05 3.759304184e-06)
(0.008437864161 5.51183174e-05 -1.248788695e-06)
(0.008545610234 5.536425007e-05 4.119878219e-06)
(0.008586654048 6.409668536e-05 1.079497388e-06)
(0.008566648748 8.2717892e-05 3.870922391e-06)
(0.008502368149 0.000106386345 1.168351758e-05)
(0.008582071744 0.0001260920558 1.011580818e-05)
(0.00868746819 0.0001484360531 -3.030902903e-06)
(0.008815669585 0.0001813328021 9.707587455e-06)
(0.008865765329 0.0002218094311 7.37934779e-06)
(0.008930582623 0.0002691642597 -4.236863162e-06)
(0.00838701708 9.203545193e-06 -3.234082012e-06)
(0.008392724375 9.82387522e-06 -3.287018092e-06)
(0.008409048016 1.150636168e-05 -6.903969038e-06)
(0.008419089378 1.012215115e-05 -9.767302929e-06)
(0.008415328364 7.996163834e-06 -3.799134331e-06)
(0.008393254243 8.810725064e-06 -4.991072054e-06)
(0.008339760518 8.842940488e-06 -3.049005164e-06)
(0.008298414849 4.282530723e-06 5.285871718e-07)
(0.008327226008 -1.197609922e-05 -3.976755233e-07)
(0.008350739474 -1.180834335e-05 1.021737195e-06)
(0.008331620151 -1.228398947e-05 -2.8779204e-07)
(0.008383992377 2.799039463e-06 9.143513742e-06)
(0.008356201 1.112327854e-05 1.523455341e-05)
(0.008373389524 1.6525435e-05 1.701142953e-05)
(0.008388282802 1.042120387e-05 1.792843626e-05)
(0.008394733478 1.637273465e-05 1.284237812e-05)
(0.008398135039 3.46795054e-05 4.390646553e-06)
(0.008406395815 3.052188132e-05 -1.58468299e-06)
(0.008405113367 2.496414724e-05 2.860681291e-06)
(0.008419963058 2.493334298e-05 -7.407692617e-06)
(0.008387925564 3.245746206e-05 2.15085985e-06)
(0.008341288707 4.490053021e-05 3.248888452e-06)
(0.008357497136 3.975749329e-05 4.053072749e-06)
(0.008391208763 4.639445783e-05 -1.016648233e-05)
(0.008465654933 5.218937912e-05 -5.259440795e-06)
(0.008533785295 8.2092343e-05 -2.70918161e-06)
(0.008521861611 0.0001115986926 1.005582071e-05)
(0.008547858757 0.0001476203886 -3.369074327e-06)
(0.008559724747 0.0001881494556 -4.616780664e-06)
(0.008659071337 0.0002188972858 2.097290434e-05)
(0.008350630171 -3.492341633e-06 2.521039181e-06)