/*--------------------------------*- C++ -*----------------------------------*\
| =========                 |                                                 |
| \\      /  F ield         | OpenFOAM: The Open Source CFD Toolbox           |
|  \\    /   O peration     | Version:  2406                                  |
|   \\  /    A nd           | Website:  www.openfoam.com                      |
|    \\/     M anipulation  |                                                 |
\*---------------------------------------------------------------------------*/
FoamFile
{
    version     2.0;
    format      ascii;
    arch        "LSB;label=32;scalar=64";
    class       volVectorField;
    location    "0.01";
    object      momentum;
}
// * * * * * * * * * * * * * * * * * * * * * * * * * * * * * * * * * * * * * //

dimensions      [1 -2 -1 0 0 0 0];

internalField   nonuniform List<vector> 
654
(
(0.01697332494 0.006146096799 -9.459938957e-06)
(0.01447908862 0.004388962 -0.0007883920426)
(0.01387226274 0.003298661888 -0.002079101257)
(0.01625342787 0.007061243588 -0.0006625950338)
(0.01883624533 0.006239340225 0.0001101999665)
(0.01092350185 0.003194384663 0.001471254853)
(0.01142070816 0.002997466055 0.0002800321006)
(0.01331708066 0.004509593514 -0.001653957352)
(0.01178097829 0.003257985008 -0.003186751036)
(0.0195059022 0.003904436475 0.001120024814)
(0.01504999471 0.004465334835 0.0008649310424)
(0.00897031809 0.003234713675 -0.001737063056)
(0.014477886 0.00228733092 0.001949994038)
(0.01331060148 0.005597110366 0.0008776308591)
(0.01993709591 0.007203566831 -0.002287387465)
(0.02064917692 0.008299100516 0.0001167339208)
(0.01919103057 0.006155495143 -0.001011477674)
(0.01144876545 0.002856611907 0.0001409067349)
(0.009940999165 0.0004597426294 -0.000463675626)
(0.01216551238 0.004094070279 0.001679342237)
(0.01348151933 0.003870416359 -0.0003610999525)
(0.01014374542 0.00478340562 -0.0003703015112)
(0.01727310822 0.005886283918 0.0005567542356)
(0.004390156815 0.001196734297 0.0001552556193)
(0.01536118767 0.001302475441 -0.0004465455512)
(0.01854988298 0.004286280368 0.0004121381907)
(0.009050968511 0.003339236426 0.0005624723993)
(0.01088563283 0.002832642648 2.623582526e-05)
(0.01716037056 0.006230338798 0.001634586072)
(0.0165643773 0.005263738475 -0.0004947776196)
(0.01371591886 0.006419769155 -0.000960069962)
(0.01576929265 0.005419393397 0.0002640329822)
(0.03286819713 0.008244329438 -0.0007519325055)
(0.009776506503 0.001082076817 0.0002693172628)
(0.00825290923 0.001032724675 0.0002953059653)
(0.006018659845 0.001064527125 0.0002130630174)
(0.01018462841 0.001282432259 0.0001073436412)
(0.01060551185 -0.0003688950309 -0.0003626476276)
(0.0108962 0.001280811791 0.001174062351)
(0.01304687805 0.001147591068 0.0007974575039)
(0.01209047929 0.001212528533 0.001018419171)
(0.008845137578 0.00244755327 0.0002091899379)
(0.005687222774 0.0001008800938 -0.0004628314803)
(0.01055457567 0.001220036985 0.0007332741542)
(0.01920051864 0.003105942402 0.0006736595041)
(0.01399550831 0.004753234072 0.001142447828)
(0.01226412388 0.005730035817 0.002100138017)
(0.0166050893 0.004645083979 0.0007507533002)
(0.01245792884 0.004184444288 0.001951421458)
(0.01037114348 0.004283976334 -0.0009096611943)
(0.0174142402 0.00441964202 0.0005071931246)
(0.007030146523 0.003525793339 0.0002225463964)
(0.01688068039 0.005598149706 3.776191937e-05)
(0.009679872887 0.001137328593 0.0009389722337)
(0.02432037644 0.004967794296 0.001019545635)
(0.008208152483 6.318293289e-05 0.0004238740219)
(0.006522161931 0.0001086824642 0.001178731009)
(0.008318934828 0.0001248571693 -0.0003481398809)
(0.008258230626 -0.0002823558518 -0.001097180274)
(0.007420937614 0.000476484895 0.0002953638468)
(0.009107974833 8.67886497e-05 0.0001524210185)
(0.007275010558 -2.453413042e-05 0.0002201565622)
(0.009375409127 0.0001293092804 2.213583475e-05)
(0.007838486317 0.0004490628808 0.0003371162178)
(0.008162447593 4.638202428e-05 0.0005776635328)
(0.01321224171 -0.0002247843724 -0.0009531061375)
(0.007253241626 0.0007610673998 -0.001173976586)
(0.01220401499 0.0004271093825 4.416000687e-06)
(0.01304399537 0.0002371862424 -0.0001151693528)
(0.008448826192 0.0001809614357 -0.001034752523)
(0.009164173346 0.001980699284 -0.0005777929941)
(0.01080437789 0.002169634815 0.0009635015122)
(0.0140135671 0.002485053654 -8.957244936e-05)
(0.007457798737 0.000785152088 -0.0004664507205)
(0.01294070827 0.002197663003 0.0001108763165)
(0.008743070399 0.0005614845727 0.0004740469256)
(0.01259595452 0.002506805778 -0.001100873307)
(0.01228713759 0.002323443765 -0.0006384628347)
(0.02467587504 0.008643549904 -0.001968619758)
(0.02222093786 0.00702298733 0.0008820154966)
(0.01679868403 0.003187979764 0.0002627202884)
(0.01427387625 0.006071678546 -0.001653686064)
(0.02024820354 0.005196665898 0.001295932466)
(0.01274202354 0.003793995681 0.0002210243704)
(0.005059421049 -0.0001619209499 -0.0001423297006)
(0.004192318101 -0.0004577719335 4.440317239e-05)
(0.004960718532 -3.822399443e-05 0.0001625563815)
(0.004330452492 -0.0004585467597 0.0005816167519)
(0.004513276094 5.191830928e-05 -0.0002566730474)
(0.007079569702 -0.00111990083 -0.001298502303)
(0.0041400296 -0.0001794879019 -0.0003129843364)
(0.006646661347 -0.0004470074529 0.0003450360761)
(0.005066063585 -6.561632098e-05 0.0005140643298)
(0.004751412546 0.0002856953697 0.0007254984359)
(0.007737256128 0.0005757937626 0.0007992188461)
(0.008865994951 0.0001640013361 0.0001284858747)
(0.01373618499 0.001157276661 -0.0003398890955)
(0.009435906337 0.000344401167 6.92143706e-05)
(0.008545932039 0.0007660981965 0.0003759466326)
(0.01151940928 0.0007144816298 0.0002021378341)
(0.006058377341 0.0009582234659 0.0004832211119)
(0.01484601999 0.002719639599 -0.001236458748)
(0.009832598787 0.002429031053 -0.001036535199)
(0.01307762759 0.003283382819 -0.0001993259069)
(0.01314687042 0.001160955058 0.0007705800774)
(0.009492546056 0.001738378863 -0.0009070548079)
(0.005509648694 0.0010876591 0.0005137993089)
(0.01191463286 0.002287714159 0.0006668221648)
(0.008231831366 0.002705349129 0.002038128353)
(0.01117650996 0.004256367644 -0.0003522510247)
(0.01405924627 0.003033010923 -0.001722874627)
(0.01309637593 0.005870916766 -0.0006915802484)
(0.01533421955 0.005000564649 0.0005319214148)
(0.02019842827 0.006931133305 -0.0008948293708)
(0.004550394574 0.0002100110619 0.0002942011236)
(0.006767480462 1.579921986e-05 -0.0001516584571)
(0.01508391274 -0.0005445125042 -0.0005314113917)
(0.008309014073 0.0002667132696 -0.0003161405838)
(0.00762812447 0.0002644525987 -0.0005736763181)
(0.007580096109 0.0003433749704 -0.000136301484)
(0.005189913802 8.781113689e-05 0.0002501317466)
(0.0119763759 -8.161805869e-05 -0.0003585714344)
(0.01080587431 9.830624789e-05 -0.0001957489467)
(0.005949595414 -0.000101247768 9.353651294e-05)
(0.007834434313 0.0007053755136 -0.0004762228033)
(0.004289297287 -0.0004647472536 -4.593479466e-05)
(0.005133331609 0.000153116376 0.0002678996897)
(0.01179350983 -8.087853829e-05 0.0007241640807)
(0.009360133311 0.0007547478739 0.0006280213195)
(0.01357538015 0.0007592851395 -0.001010723596)
(0.01158515803 0.001614589548 0.001152798843)
(0.007161818881 0.001838510814 0.0004289977484)
(0.007623855509 -0.0007316791172 -0.0008914938296)
(0.00969740381 0.0005428941565 -0.0006537968704)
(0.006980745545 0.002119553495 -0.000141554023)
(0.01040240728 0.00198326988 0.001085331827)
(0.009796626146 0.001242062543 -0.0002849750313)
(0.01093237823 0.001832579726 -0.0006205975378)
(0.007501745273 0.002712201706 3.817802682e-06)
(0.01337736523 0.003907740227 -0.0005035878077)
(0.01973665279 0.005451921104 -0.0001388864404)
(0.01286340978 0.003955825799 0.0007856694074)
(0.01324873986 0.005070363525 0.0014331753)
(0.005462897615 0.001610408588 0.001140825682)
(0.01291647662 6.6602219e-06 -0.0009179187908)
(0.008286699197 -0.0004437011531 4.166808712e-05)
(0.004186648453 0.0001975206703 0.0005478591401)
(0.01058393659 0.0001493576334 0.0004821576241)
(0.006933053687 0.0005931653829 0.0001749244627)
(0.01307646612 -0.0009309053794 -0.0004861602896)
(0.01123853427 -9.219689271e-05 0.0001945233836)
(0.01510124944 -0.0008662893326 -0.000274179057)
(0.006451481385 -0.00011355134 -0.000763015784)
(0.00747621307 0.0001937970304 -0.0006171945911)
(0.006075133123 0.0006558048828 -0.0003800177386)
(0.01170421653 0.0009349833816 6.533556178e-05)
(0.0101631043 0.000846994267 -0.0001689074608)
(0.01143711082 0.000889597086 0.0002381583557)
(0.009774123383 0.0003787703638 0.0002060305625)
(0.008196908734 0.0004569455184 0.0003091553453)
(0.01109894107 0.00174272226 0.000968678017)
(0.009504084504 0.0003029087288 0.000320579077)
(0.0155891229 0.0007815032309 -1.029111751e-05)
(0.01110850623 0.003676981422 -0.001457810663)
(0.006073810625 0.0006649959514 -9.155516059e-05)
(0.008726901674 0.002796062008 0.001479020652)
(0.01234353255 0.004410392277 -0.0008871996705)
(0.01341982688 0.002644596937 0.0004812815398)
(0.01260010936 0.001792625258 0.000702487597)
(0.01426905887 0.003098309578 0.001721690431)
(0.01145957279 0.003069388545 -0.0007447237908)
(0.01018430217 0.002738714272 0.0001123718408)
(0.01615157349 0.004398274083 -0.0006207427662)
(0.01257050328 0.001651003295 -0.0009610459182)
(0.006112581606 0.0003036282282 -0.0001607103914)
(0.003368167028 -0.0002584845512 0.0001355736766)
(0.008715921494 -0.0008887796474 -3.512504524e-06)
(0.01540002529 0.0001837776722 0.000364485144)
(0.00600493017 -0.0004142515236 6.612502813e-05)
(0.008865224264 0.0008307887689 -0.0009821617884)
(0.007412730952 -0.0003468389635 -0.0001470039486)
(0.008338088872 0.00055192921 0.0001875465738)
(0.00876359517 -0.0001088940081 -0.0005736277737)
(0.005610429364 -0.0001009924697 -0.0004728598878)
(0.007581988553 4.122371556e-05 0.0005932376104)
(0.006441052872 0.0004752080233 0.0006141869695)
(0.01126171777 0.001063369042 0.0003888070971)
(0.006984559158 -0.0002173348658 9.499798398e-05)
(0.008927634538 0.001152953514 -0.0005310201377)
(0.007334117438 0.000454802213 -0.0001514078985)
(0.01028370776 -0.00103671235 0.0003967165132)
(0.007966921084 5.435043509e-05 -0.0005037647302)
(0.005072805102 0.0004966188813 -0.000579988638)
(0.01012508611 0.0003144824964 -0.0001422327673)
(0.01642838853 0.001749078007 0.0003327103575)
(0.01357970957 0.0008635521784 -0.0008280595019)
(0.01273660628 -0.0003126234763 0.0002888754765)
(0.01260692617 0.001817089988 0.0008059149599)
(0.009449017634 0.0008616423529 0.000857933172)
(0.01335297961 0.001977113961 0.001120913714)
(0.018265674 0.002268517471 -0.001113162175)
(0.01190625448 0.003831029574 0.0003550255818)
(0.01135239762 0.001931152442 0.0007685064653)
(0.01367715723 0.002608888956 -0.000224925124)
(0.003607653468 -0.0003070992064 0.0002860455958)
(0.009715544561 0.0007849380602 0.0002058764251)
(0.01018323962 -0.000225687856 0.0002821948975)
(0.009739658931 -0.0003010566186 0.0005726367187)
(0.00977920812 -7.829838461e-05 -0.0007841222044)
(0.007457453797 0.0003050726341 0.001029464977)
(0.009022672726 -0.0002444823454 0.0009911927723)
(0.007956094046 3.119704582e-05 0.0001671519736)
(0.009706684245 -0.0004291219419 0.0007869700294)
(0.01146279649 0.001331499617 -0.0007266382743)
(0.004562230114 0.0001298040177 0.001125320689)
(0.005250081534 -2.844558116e-05 -4.894988686e-06)
(0.009112638715 -0.0005819700222 0.0002328282067)
(0.005987139858 0.0002868509566 -0.0003282317472)
(0.01184960956 -0.0005070915227 0.0004478774306)
(0.005023247519 0.0009134159596 -0.0003701883087)
(0.008082290196 0.001007160713 1.082734092e-05)
(0.006292718439 0.0009245606579 0.0002967955627)
(0.007168413857 9.009042615e-05 -0.0003874703448)
(0.007719235118 0.002084344362 -1.470435347e-05)
(0.008907689544 0.000182584122 -0.0005612102883)
(0.01419669663 -8.652765416e-05 0.0002901929668)
(0.008832905273 0.001699198402 -0.001206248101)
(0.00875208431 0.001474793323 0.0003133435836)
(0.01299196634 0.001814053654 0.0004125109211)
(0.009028704328 0.001913493661 -0.0003861383497)
(0.009524075811 0.001101728055 -0.0006874216698)
(0.01375064285 0.003794927948 0.0001368357506)
(0.01416428603 0.003095543629 0.0007599092305)
(0.01068449568 0.00432059592 -1.105885741e-05)
(0.01151481229 -0.0001202497387 -0.001262860866)
(0.01192334912 1.815960403e-05 0.0003561251102)
(0.01120653994 -1.723014651e-05 -0.001080866326)
(0.01099567795 -0.001190582466 0.0002042132792)
(0.006211560743 -0.0002262576837 -0.0006242733892)
(0.004386066471 -0.0004461043172 -0.0002739209817)
(0.01249451488 -0.0001186794029 -3.050002104e-05)
(0.008979549333 -0.0001664615186 0.0001673093692)
(0.007050056147 0.0002387476723 -0.0005925543888)
(0.008136195053 -0.0008526259042 -0.0005575071068)
(0.009891156908 9.250587584e-05 -9.656505103e-07)
(0.005368204702 -3.522102246e-05 7.221986193e-05)
(0.01062099596 0.0001843860862 0.0008462288718)
(0.005896013388 0.0003166246115 -0.0006337846131)
(0.004394979068 -6.403164711e-05 -0.0005619724549)
(0.009670244869 0.0003522589806 0.001806806529)
(0.005021407651 0.000132502958 0.0004484345389)
(0.009352359963 0.0001383402499 -0.0003307593417)
(0.004096196786 0.000254760572 0.0003014802427)
(0.007333141262 -0.0005318484078 9.349789411e-05)
(0.01469705106 0.0007221581824 -0.0002141584661)
(0.005432475951 0.001073316916 -0.0002598632069)
(0.01271861098 -0.0002667601271 0.0004546946616)
(0.01175213182 0.001824840283 9.299161275e-05)
(0.01696567358 0.00322673237 -0.0006933646905)
(0.01047925401 -0.0002331313333 0.0005342081954)
(0.008324521139 0.002489689577 -0.0002296472226)
(0.0134912421 0.003016566674 -0.0002973297599)
(0.0180571363 0.003694100385 -0.0001115960721)
(0.01320342019 0.00190806343 0.0007443980226)
(0.009720398764 0.0006309256166 0.0009688145316)
(0.008040361105 -0.000361121604 -0.0004092557785)
(0.005258776543 -2.430774664e-06 -0.0002089019241)
(0.007743845689 -0.001023535693 9.483298471e-05)
(0.01587519437 0.000172383283 -0.0007766164259)
(0.01207233048 0.000553790009 -0.0005981305906)
(0.009634078434 -0.001442349881 0.000510100165)
(0.009742568499 -0.0001656843452 0.0009243112132)
(0.01065415173 0.0006991170573 0.0005994012769)
(0.006596146349 -0.000246252513 -0.0001042730307)
(0.003387477187 0.0002449353103 -0.0003665097098)
(0.01020292081 -5.847227742e-05 8.43754841e-05)
(0.00385005199 0.0001983736201 -0.0001820620591)
(0.003934592196 1.914201615e-05 9.456603179e-06)
(0.01033330723 0.0007743942062 -0.001033354085)
(0.00830861754 0.0009508014685 -0.0001320285764)
(0.008912075182 -0.0002331053831 0.00025985328)
(0.006247455283 -0.0008691787025 0.0002975708865)
(0.01703679187 -0.0007318211959 -0.0001007699032)
(0.01180407285 5.535738418e-05 -0.000858443427)
(0.01001474472 0.001577448331 -0.000538253523)
(0.01124515246 0.001190345457 -7.327815521e-05)
(0.01061254573 0.00156275474 -0.0001643637622)
(0.01007998585 0.0004383860951 0.001236271389)
(0.0124860243 0.000653354552 -0.0009029095034)
(0.009156186318 0.0007817452938 -0.0004970278532)
(0.007464397694 0.0004599836438 -4.258358229e-05)
(0.004413023994 0.0003815886879 0.0004821413954)
(0.009749067929 0.001700797234 0.00104433345)
(0.01356069433 0.002307913528 0.0009618854967)
(0.006918288743 -0.0006251941739 0.0002630976921)
(0.009374285074 -0.0003198002889 -0.0007832353416)
(0.00530355908 0.0005315962086 0.0006983709708)
(0.003738501471 -0.0006488521545 1.176323166e-06)
(0.003496107343 5.908803604e-05 -0.0003056882517)
(0.0103033969 0.000321729878 -3.900147987e-05)
(0.006131344918 -8.401012676e-05 -0.0004700026769)
(0.006335384357 5.055535523e-06 -0.0005173803107)
(0.005244611509 0.0006377825082 -0.0007897680022)
(0.0111883597 0.0004487732761 0.0003467067171)
(0.007551766255 -0.000688784749 -0.0002314832022)
(0.006943117692 -2.479671511e-05 -8.550202755e-05)
(0.0044710852 -9.213009553e-06 -0.0003586494404)
(0.007382349308 -0.0005149990194 0.0005221223201)
(0.00322103738 -0.000222630815 -0.000745140778)
(0.009661952458 -0.0001088193903 3.187830125e-05)
(0.009183648433 -3.730045555e-05 0.0005600894101)
(0.006802360131 -0.0008350370869 -0.0002667348145)
(0.01146910022 0.0009497632994 0.00117272241)
(0.008408863597 0.0002539045407 8.340897033e-05)
(0.01255070283 0.0002271100373 0.0001347287741)
(0.008679007056 -2.686632833e-05 0.0009183256524)
(0.008036387259 0.0005531941971 0.0001048787337)
(0.00754555659 -0.0001070828531 -3.439583595e-05)
(0.009727727622 0.001403106008 0.0009035216221)
(0.01111370309 0.001566284791 -0.001375319843)
(0.01330514119 0.003162416999 0.001018219321)
(0.01502002855 0.002488714971 -0.001726297351)
(0.01234591586 0.001577146332 -0.001490036145)
(0.01000153611 0.00126618528 -3.41663276e-05)
(0.01038226673 6.541852958e-05 0.0002801827352)
(0.008036385348 0.0003606204307 0.0006448679578)
(0.005731364797 -6.604139753e-05 7.435551692e-05)
(0.01201593448 -0.0005676516723 -0.0003085810604)
(0.01067361794 -5.44423763e-05 -0.0001418227145)
(0.01122225964 9.45795722e-06 -0.0005560979646)
(0.01195473924 0.0001287715024 -0.0001401693798)
(0.007018932454 0.000411166707 0.0001203622503)
(0.01127769814 0.0002959323735 1.22436026e-05)
(0.009547401741 -0.00045032363 -0.0008133936546)
(0.01194514476 0.0007915523452 -0.0001212479744)
(0.006649097364 0.0001242021068 -0.0002401651978)
(0.004458673779 0.001937427969 0.0001148647096)
(0.01062648322 0.0004732490931 0.0001601474784)
(0.01006502453 0.0005894865213 1.096904655e-05)
(0.01026635637 0.0001761696416 0.0002280652969)
(0.007572443007 0.0006001497649 0.0008908603714)
(0.009167786862 -0.0002801593342 -0.0002427264435)
(0.005096934215 -4.152082991e-05 0.0003454101889)
(0.004326855797 0.0006103867134 -0.0002908959632)
(0.01246748971 0.000796084796 0.0003117278187)
(0.008289197729 0.0001809027153 0.0004460245742)
(0.01185287449 0.0006776246018 -0.0007392472991)
(0.007428771295 0.0007020176137 9.450625836e-06)
(0.01165577823 0.001114745738 -0.001158043211)
(0.008152253338 -0.0006736505294 -0.0004861234242)
(0.01063187067 0.0007810927754 0.00082878222)
(0.008704232088 0.0008417207962 -0.0001687923296)
(0.008448674231 0.001494196257 0.000178343485)
(0.006680323373 0.000523825159 -0.0004806744953)
(0.005706819747 -0.0002587445966 -0.0001080955607)
(0.006247143532 -0.0002616040794 -7.319933377e-05)
(0.005733762554 -0.0003738722636 -0.0004903066865)
(0.01025764119 -0.0003018851766 6.615188821e-05)
(0.007847224333 0.000216229885 0.0006780100928)
(0.01007497211 7.671158042e-05 0.0001773473923)
(0.01020645585 0.0004287871103 0.001114634594)
(0.01444432087 0.0009242827785 0.0005775080069)
(0.007385321724 0.0003913963887 -0.0003845675919)
(0.005464706176 -0.000325754227 -0.0001240472344)
(0.009246658972 -0.000622437635 -0.000212383193)
(0.006555886869 -0.0007885283823 -0.0009715124553)
(0.01363254281 -0.001298622056 -0.0001766515733)
(0.01164643671 -0.000646423575 1.011575511e-05)
(0.006481749225 4.404126949e-05 -7.525070279e-05)
(0.0137145529 0.0007991775841 -0.0001453899204)
(0.01061534399 -0.0001346018756 0.001124114589)
(0.01430336096 0.0002094359894 -0.000935733724)
(0.005507588508 -0.0001043668603 0.0001431626877)
(0.006987789732 0.0008883383237 -1.295602491e-05)
(0.006901891694 -0.0001368198638 0.0005907208067)
(0.004360390829 -0.0005735987105 3.794749715e-05)
(0.005379008906 0.0005843853955 -9.431981185e-05)
(0.006247107222 0.0001329672135 -9.317932299e-05)
(0.01025944009 0.001144581349 -1.694884594e-05)
(0.008339162538 -0.0003237274171 -1.230643548e-05)
(0.0109338975 -0.0004472859664 -0.0009814190856)
(0.009207528168 -0.0002612793853 -9.903082291e-05)
(0.009166271347 -0.0004422134726 0.0001288936463)
(0.008755130399 0.002559079821 -1.470913379e-05)
(0.007542591932 -0.0004123844564 -0.001254275284)
(0.008674330969 -0.0003727275758 -0.0008130461285)
(0.01033955639 -0.0004802859105 0.0005809507756)
(0.009073929137 2.510167173e-05 -0.0003012199966)
(0.01282041988 -2.534586998e-05 -0.0005225726905)
(0.01116600051 0.0002013987054 -0.0005983006971)
(0.0008631096292 -0.0004065979699 -0.0002730450451)
(0.01247728448 -0.0002823817607 -0.0009457387039)
(0.007277481654 -0.0001476740344 0.0002008502119)
(0.0136003349 0.001553129576 -0.0001235960012)
(0.006234053457 -0.0002029804433 -0.0001712430598)
(0.006984994669 0.0002267822008 0.0006038723099)
(0.01236708925 0.0004299842648 -0.0001165149243)
(0.009966958424 -0.000188507339 -0.0004548915249)
(0.005708649399 -0.001207461284 5.611664612e-05)
(0.007681088354 0.0001001276274 -0.0008520135105)
(0.01241026515 -0.0009682262063 0.001167970033)
(0.007268711931 0.0002702288185 7.393490023e-05)
(0.007473929281 8.407466268e-05 9.90750354e-05)
(0.01187012097 0.001145922665 0.0006588053073)
(0.005630933986 0.0001943705304 -1.257815298e-05)
(0.007723382671 0.0003559598251 -0.0001972206495)
(0.009478927051 -0.001353633661 0.0002298110168)
(0.005613105155 -0.0003328937275 -6.321965418e-05)
(0.004576097105 0.0007276144246 0.0002737474825)
(0.01365794052 -0.001046279425 -0.0003135386913)
(0.01241036357 0.0009650870728 0.0007698794375)
(0.007956136294 0.0008106345916 0.001112646794)
(0.007196229949 0.001120694226 0.0002812598128)
(0.01273752667 0.002866116175 0.000420946721)
(0.006987078693 1.719939027e-06 0.0003372152738)
(0.006926211497 -9.167516815e-05 -0.0005146510476)
(0.007577689818 0.0002271743765 0.0001120151125)
(0.01302707283 0.0004930141841 0.0001521042354)
(0.006223938793 0.0004137630993 3.853237995e-05)
(0.01087005095 -0.0001533712004 0.0002293300792)
(0.0112424393 -0.0002608613614 0.0002425946733)
(0.01717002386 0.0007450686902 0.000280456274)
(0.01335994819 -4.635709387e-05 0.0001819849988)
(0.008951144593 -5.814767533e-05 0.0009282456127)
(0.006140518691 0.0004486583584 0.0002655900011)
(0.009247124655 -0.001192353998 -0.0001791709024)
(0.006632690557 -0.0003282367576 -0.0001894833178)
(0.008486595932 0.0004141332395 0.000138737379)
(0.00712839117 -0.0001466424726 -0.0001362760451)
(0.009237911138 0.0005866370334 0.001086601468)
(0.005373415051 -5.807135977e-05 0.0002261971511)
(0.004074302208 0.0001096258959 0.0003113904599)
(0.0101244806 -0.0003612580203 0.0003140222928)
(0.01001010352 0.0004659814069 0.0001069975019)
(0.01261983904 0.0008784475867 0.0006480634881)
(0.005017545431 0.0003546644934 0.0001226852233)
(0.009408165706 -0.0002890777832 -0.000200340448)
(0.01535940771 -1.9522115e-05 -0.001057874751)
(0.01040771772 -0.0003069743612 -0.0001228041017)
(0.008063982043 0.002001371856 -0.0002420179497)
(0.008694175652 -0.0002370970083 0.0002215902454)
(0.01680522375 0.001836757794 -0.001123598217)
(0.01096347824 0.000471160855 0.0004140214125)
(0.005955449999 0.0003129754828 -0.0009313027717)
(0.00638599094 -0.0002005192653 -0.0003047182453)
(0.01262236682 0.0005789322747 -0.0004458583149)
(0.01182627567 -0.0005587308923 0.001026347766)
(0.009786085871 0.0009040156724 -0.0002775258068)
(0.008419537269 -0.0001149277584 0.00102747641)
(0.00670466911 0.0003888930714 -0.0003226518881)
(0.008686901797 -0.0004017581673 -0.0004210849054)
(0.008278899259 0.0005223301434 -0.000806451413)
(0.009146782938 -0.0005989878079 -0.001003616246)
(0.009758771803 0.0005855824666 0.0001475585676)
(0.008154731707 0.0004300703464 -0.0006246671992)
(0.01011733935 -0.0007669792818 -0.0002323448789)
(0.0109824159 -0.0006962539343 -0.0004627306527)
(0.009774048586 -0.0006118200545 -0.0007465469615)
(0.01112125046 -0.0004315523586 0.0002292067497)
(0.01288924179 0.001094162186 -0.0003300278981)
(0.007906707202 0.0004526436612 5.559641443e-05)
(0.01195297246 0.001015204801 -0.0005845196181)
(0.003043411291 0.000628335453 -0.0001798024793)
(0.009871751888 -0.0001129677346 -0.0009126956041)
(0.009857094314 -0.0005082535966 0.0004592894711)
(0.007997929198 1.850826646e-05 0.000240491222)
(0.01066091938 -2.947914068e-05 -0.0005813525241)
(0.008533945614 -7.944071666e-05 -0.0009158730083)
(0.009430041861 6.075095089e-05 -0.0001213852435)
(0.007133623914 5.181845016e-05 6.232741714e-05)
(0.008039367037 -0.0006208940224 -0.000232201402)
(0.01026027591 -0.0005768820834 6.704894642e-05)
(0.01234427205 0.0001254355141 -0.0001629871637)
(0.01135552987 0.0008264623811 0.001303324295)
(0.01064121538 0.000550812171 -0.0007785891105)
(0.007211475814 0.0002448928277 0.0003931704003)
(0.005384001127 0.0003642310113 -0.0003539129966)
(0.009221799123 0.0001598308515 -0.0004052898915)
(0.008493899962 0.0005304936767 -3.42294028e-05)
(0.007932456402 4.80657487e-05 -0.0004026909747)
(0.005239368873 -0.0002245334997 0.0005598724476)
(0.01081623349 -0.0003561227347 0.0006927371595)
(0.01016678018 -0.0002900832576 0.0003946922503)
(0.007335473174 -0.0005288833013 -0.0006408332703)
(0.01489612625 -0.001057910061 0.0006178074457)
(0.005543656442 3.002391819e-05 0.0005627270887)
(0.002819148578 0.0003630012625 -0.0005894286279)
(0.006966939522 -0.000194922672 0.0004300753552)
(0.007440978009 0.000467977504 -0.0004809327643)
(0.009050492059 0.001248973008 -0.0007799288055)
(0.01004339166 0.0007486515906 -0.00043465039)
(0.008812162604 0.0009612019278 -0.000259503701)
(0.01223864744 -4.364713793e-05 -0.0008748496496)
(0.009252395705 -0.0004350419655 -2.68739642e-05)
(0.005901837475 0.0006345498805 7.261240892e-05)
(0.005601922933 0.0006718946641 0.0001672805602)
(0.004524699511 0.0003485260842 -0.0004834396684)
(0.01428433936 0.0006222411034 0.000191562574)
(0.004373388197 -0.0003390857745 -0.0003123599443)
(0.009906341567 0.001356282978 0.0006326535264)
(0.003705798816 0.0003873990941 -0.000201668134)
(0.00797340398 0.0006403237104 0.0002729251549)
(0.01033363735 7.923991923e-05 0.0004223362896)
(0.009222724697 0.0007530151264 -0.0008799968001)
(0.009110765554 0.0006062778702 -0.0001683359882)
(0.005536132157 -0.0001837812031 -0.0003306310464)
(0.01240285681 0.000300752832 -0.000436152837)
(0.006139120184 -0.0002606087762 -0.0006646984183)
(0.0110034226 0.001465669967 0.001270910178)
(0.008263394024 -0.0005085917452 0.0001446430011)
(0.007573145024 -0.0004857866282 -7.534292359e-05)
(0.01109672955 -0.0006338581575 0.0005756038758)
(0.004077087626 0.0002489821599 -0.0004883428711)
(0.006033799766 -0.0003686766843 0.0002019954717)
(0.008937032055 -0.0002467555725 6.215784381e-05)
(0.008373661416 0.000452395104 -0.0001656883786)
(0.005732134777 -0.0002126586943 0.000517039459)
(0.007767526697 -0.0002421967973 0.0002070624046)
(0.004609633759 -0.0002451193742 3.227572821e-06)
(0.006507378256 -0.0001043058378 0.000279905487)
(0.008791857985 -0.0006200278889 0.0009312188918)
(0.007705755069 0.0009114121413 0.0003608376443)
(0.004078644737 -0.0003515349727 -0.0002149771599)
(0.00972228389 0.000675167298 9.019916789e-05)
(0.006097417479 0.0003246775435 -0.0005999778719)
(0.01073887392 5.030973285e-05 3.971983393e-06)
(0.01001885787 -0.000505006188 -3.543179525e-05)
(0.00531079015 -0.0004726175744 -0.0003835380812)
(0.008537844408 0.001008718701 -0.0002453449468)
(0.005548525342 -0.0004524380698 -0.0006092450531)
(0.009212236426 0.0001566032492 -5.839887465e-05)
(0.0105648652 0.0007565365351 0.0008309819213)
(0.01090348729 0.000250851996 -7.272815487e-05)
(0.0147491338 7.516618452e-05 -0.001156535541)
(0.009129982568 -2.164082302e-05 0.0003517281974)
(0.004745941714 -0.0002755203915 9.364612551e-06)
(0.007152692551 0.0001011159321 0.00027917733)
(0.006685004285 0.0003368194975 0.0001661159932)
(0.007998932809 0.0005048201596 0.0006780752303)
(0.00425763985 -0.0003926104093 4.938476377e-05)
(0.005611051141 0.001036162399 0.0009357190421)
(0.01037907329 0.0003605179483 0.0004804508836)
(0.008225980144 -0.0004393936379 -2.415869357e-05)
(0.003216628374 0.0002336861065 -0.0002144086434)
(0.005521412958 0.0002045760321 -0.0002107831562)
(0.005929254609 -9.265284174e-05 0.0002504627142)
(0.005854457893 -0.0002612601204 0.0006742088971)
(0.01194286786 -0.0001024686038 -0.0004651919889)
(0.01235825162 6.620568992e-05 -0.0007813261659)
(0.005058577468 2.638177027e-05 5.574178957e-05)
(0.006774349387 0.0002509936935 0.0001441271351)
(0.008006014335 -0.000712155979 -0.0005563156386)
(0.006873729624 -2.766904626e-05 -0.001427049319)
(0.007767643949 0.000173256813 2.176616825e-05)
(0.007741710211 -6.872316076e-05 -0.0004484111185)
(0.008035883654 -1.935097992e-05 -0.001335608264)
(0.01228496764 0.0007784266117 -0.0001768395143)
(0.008626487873 0.0001224284178 -0.001005371963)
(0.01245965076 2.016661042e-05 0.0002323227923)
(0.008276421767 3.551113697e-05 -0.0002543906308)
(0.008120396752 -0.001920770958 0.0004078282317)
(0.01526806969 0.0008866861164 -0.000404293926)
(0.00524192134 2.503359344e-05 0.0004432681735)
(0.01338332734 0.0006035266992 0.0004389666717)
(0.008115042773 -0.0001140449617 0.001049784946)
(0.004085853851 -0.0001741313857 -0.0002180206407)
(0.006408107982 -0.0003733946888 -0.000149534945)
(0.007473257029 0.0001183354713 -0.0009201574045)
(0.008049928978 0.0009389040282 9.522400725e-05)
(0.003671845329 0.0005639359898 0.0003543289382)
(0.008146351235 -0.001449550804 -0.0004405527822)
(0.009340696795 -0.0002246340102 0.0009229532761)
(0.01040055483 0.0004283740194 0.000128211333)
(0.01554709052 -0.000199046281 -0.0007039348159)
(0.006150413328 -0.0002495894881 -8.406522741e-05)
(0.003501293615 -0.0005358893857 0.0004144385081)
(0.01349081505 -0.0006992805452 0.0002157957257)
(0.005776946432 5.784641898e-05 -0.0002893775551)
(0.011213372 1.709741439e-05 -0.000447183782)
(0.005751700853 0.0004511037513 0.0001798481001)
(0.01279175262 -0.0004290418681 -0.0009818886261)
(0.004870414606 0.0001539525441 0.0002059644689)
(0.008166509244 -0.0001686426947 -0.0003448630742)
(0.01030377999 -0.001171811562 0.0004139578224)
(0.01491483497 0.0003324904864 0.00104173132)
(0.005159914219 -0.0002803850853 0.0004772779601)
(0.00466978753 3.199467516e-05 -7.824978386e-05)
(0.008536657194 0.0002601357701 -0.0006500789442)
(0.01013536115 -0.001020906393 -0.0004809737284)
(0.0102088004 -0.000228593207 4.960143544e-05)
(0.00660194899 -0.0003091794403 -0.0002635392961)
(0.01211351348 -7.990120451e-05 -0.0008214479073)
(0.007098345179 0.0007965391126 -0.000350031846)
(0.006721160083 -0.0001795456796 0.000697778895)
(0.005773322238 -0.0002364297921 -0.0005604516102)
(0.01031268662 0.0008728775064 0.0002223123996)
(0.006319349365 0.0001208438728 0.000313088397)