/*--------------------------------*- C++ -*----------------------------------*\
| =========                 |                                                 |
| \\      /  F ield         | OpenFOAM: The Open Source CFD Toolbox           |
|  \\    /   O peration     | Version:  2406                                  |
|   \\  /    A nd           | Website:  www.openfoam.com                      |
|    \\/     M anipulation  |                                                 |
\*---------------------------------------------------------------------------*/
FoamFile
{
    version     2.0;
    format      ascii;
    arch        "LSB;label=32;scalar=64";
    class       volScalarField;
    location    "0.01";
    object      overallT;
}
// * * * * * * * * * * * * * * * * * * * * * * * * * * * * * * * * * * * * * //

dimensions      [1 2 -2 0 0 0 0];

internalField   nonuniform List<scalar> 
654
(
733.5977372
724.1039173
725.3295352
728.9661275
724.822242
726.0306672
669.4986258
681.8997925
693.055633
694.317259
702.9274842
707.6633724
709.6295235
715.2073984
714.1180685
714.9883756
717.5458331
567.5541521
591.5618038
608.6307027
625.9064918
640.0456914
652.1930837
661.9140263
668.8338614
679.7592324
684.9282508
693.4294036
698.8998451
698.1771619
703.8715652
707.4346222
706.6482405
416.8850837
432.6025756
450.6286468
473.0553758
490.5374241
510.3682052
531.6879182
556.633879
574.1498511
595.0560085
612.7376672
624.5199464
640.1957431
649.5090411
655.1561882
663.5373879
673.7769066
682.4661593
688.5404237
692.5850316
693.0438518
696.4852885
326.3550547
333.1664001
337.621755
348.3997527
360.5605766
367.5423747
376.7872294
389.0829055
403.5694545
421.5657287
432.1925404
453.3622664
475.5772966
493.8721008
514.1392907
536.576368
553.4664291
572.1609637
594.2823727
611.2666359
630.5816453
642.6618176
646.7715865
658.1631476
668.2815408
672.5647878
679.6422041
683.0189073
681.1469132
317.9705864
321.9749187
326.9671003
327.7904408
335.8163708
343.9738227
352.3022648
363.35215
370.1651709
384.9483894
395.1091669
413.3318273
425.4937462
443.683528
463.113689
482.7033231
503.0151016
523.2458162
541.2591127
562.8126282
580.5883008
597.9260403
614.2573344
631.0338146
646.0568468
649.492881
655.7676911
663.0169653
666.9759687
673.8966979
313.5838712
316.2839741
322.2477071
325.3091854
329.6262602
334.2233398
338.776689
346.2984335
352.9681005
366.6906732
373.6390903
385.5059162
400.537108
417.1540636
438.0603777
449.9143073
469.2009802
486.393941
507.3552299
524.760062
543.8465192
568.172519
585.2411393
600.8285759
617.4591662
628.2692997
641.7554047
648.1601518
654.9182648
658.5774033
311.7858394
313.9599663
312.7497594
316.5295913
320.512917
326.3256189
330.2738568
332.3485802
343.0184739
348.7438066
361.1914661
370.2228499
374.2882918
387.077257
405.2351984
418.6572421
437.9353223
463.2625996
478.2949516
498.0491354
515.8135891
537.505855
553.2482247
574.0372787
591.0996257
602.0573941
619.409358
633.6735993
642.6170125
648.0946482
308.1601604
309.8672142
313.0840093
313.5342525
313.1309506
317.9679781
325.2625444
327.0345676
332.4300022
339.7633025
346.3876801
354.5429151
362.6697237
371.3839631
384.7949276
396.6902088
411.7000392
432.1904064
445.7381805
469.3371916
485.9829974
510.8930347
528.4494045
541.4705873
565.3251565
583.8390008
595.7873216
611.357795
621.4121183
634.4467032
305.4847776
305.9493731
307.2484348
309.7875444
312.8918363
314.6732869
318.1020567
321.9517365
327.0800891
330.6449615
336.7034154
344.1943959
346.2586867
355.8412823
364.3194488
373.5386482
384.7656387
400.544884
417.6012492
431.9522852
454.2619321
472.1737869
495.9929858
510.6009253
528.9461315
551.5548826
568.8117927
584.7867094
601.8459941
613.1571888
304.7933428
306.1514191
305.1365371
308.04393
308.1564863
311.6700255
312.5669173
316.7960936
319.923965
321.7696267
327.3124197
334.1417704
338.6234815
346.0315386
357.321471
366.2344707
371.5973231
384.7034665
393.1482132
408.5992809
423.6101118
439.7706488
457.5472401
477.8977672
495.3718627
516.2405809
535.3129188
554.2955269
573.8065031
588.7188455
301.9124405
302.1767619
303.3616651
306.113849
307.802689
310.585476
310.6233723
312.160069
315.1459296
315.736199
320.7717704
327.0316769
331.2452062
333.2132526
339.3119276
347.7391439
354.6316862
365.0968008
379.1636794
389.9167198
400.9252626
412.3794773
435.4879781
450.3808021
467.7250003
487.1837519
507.3157003
528.3000414
547.3560289
566.3971171
303.6785773
304.3723436
306.0093972
306.2466251
304.1276187
306.4806451
306.9679916
311.4636788
310.7319711
313.6971596
312.9925656
317.5061517
320.0689515
324.7449634
332.7814025
339.8324964
343.0965218
350.5264082
359.9747394
368.5531929
383.3364075
393.5927771
408.8168018
425.2601267
444.6078523
460.4244854
478.1534576
499.7389842
521.8566449
537.7515849
301.3894386
300.9830086
301.773562
305.6325685
305.7829403
303.6478986
306.4714553
307.0702957
308.9525285
312.4454061
316.8116577
317.9825548
317.7628095
320.6733223
323.4519162
331.1858755
334.699453
340.2538506
346.4644024
358.5658347
361.9725352
374.0972373
388.6774141
402.8328419
414.8097136
430.786976
450.006447
469.1128657
484.8736951
508.1514537
301.0136783
301.5444517
301.2584704
302.3147317
303.7634843
304.6140807
307.2602182
307.2134327
307.555556
309.4112117
312.310309
311.8863438
317.1384084
318.5352599
320.7313219
324.4091983
328.2051563
334.8694054
339.9167768
347.7916371
352.6239416
362.4253081
373.2640057
391.4285613
395.2580194
408.7869894
424.895878
447.1948277
463.2038239
483.1487514
301.5118095
300.2100094
300.3474877
301.8245171
304.7009185
303.9688794
304.4847167
304.5173792
305.2134309
304.755594
308.5397149
309.8651349
311.087349
311.5741215
315.9560973
320.6435781
322.3859883
327.5009871
332.2077837
337.4480404
346.7801932
351.7159558
359.9015957
372.4605781
379.6254646
388.0723774
401.4699267
417.9372058
439.9335148
456.1487911
302.3664353
302.8061852
303.0695759
301.7619891
300.6344209
303.4813918
304.3967928
304.481589
305.178961
305.9266705
307.0050342
308.4322952
310.8889378
310.770437
312.8513182
315.6819309
320.5656042
321.1314829
323.5051584
326.2980036
331.2348216
336.6410699
341.6162643
350.0580807
361.380626
373.4063669
383.7715312
399.5778419
412.0372939
430.1742396
301.6297192
302.5059549
301.976193
302.6305998
302.6085506
302.6272978
304.5720419
303.9406685
302.9946577
303.4529144
303.6421678
304.7048765
306.2878468
308.1426285
307.7961772
308.793615
311.0235589
314.9120871
317.2788798
319.9066946
322.5255596
329.1891182
336.6670981
341.9147279
352.7789248
357.1425473
367.1702171
377.1477715
389.9617083
404.2492179
300.256529
299.9126703
300.158281
302.2283701
302.8762648
301.4711246
302.1976934
303.4949416
302.5794808
302.5368102
303.10373
303.4868612
305.5376379
305.5944512
307.6565839
307.6516489
309.1726754
312.2371526
315.0621473
316.5898436
320.2196438
324.65418
327.5598251
337.9476867
341.6207932
351.7425538
357.8009052
366.5277537
375.6736058
386.8059602
300.5255704
300.5896154
300.2988361
301.0891403
301.8359938
303.4463344
302.7781299
301.4328008
302.412594
301.2529907
302.950503
302.7241031
303.0975347
304.0696055
305.8088976
306.6811833
307.7484168
306.5187648
309.9278457
312.8349346
315.8688021
318.8880392
319.9899763
326.6879523
331.2331231
339.6277336
346.065671
353.5436235
366.4920832
373.6606264
300.9218798
302.0474633
300.556702
299.3727844
298.2594927
298.2861625
298.8030912
299.550726
301.9753117
302.1798812
301.7437306
301.9158
301.0883604
302.2869848
304.158526
304.6633551
306.4995557
307.7841646
307.9101498
309.9235948
311.1450253
313.5151241
315.4998787
317.4697667
319.778782
325.7153197
331.1859622
340.9225964
348.2075322
358.1301148
300.9258807
300.9870703
300.4714315
299.5615904
300.7870248
300.2381632
300.7769035
300.7027495
299.8828516
301.3861668
303.0384568
304.9092979
304.4594271
303.8144123
304.1541124
304.4518132
305.6053264
305.7615264
305.3022521
306.6753995
309.7538333
313.5496178
312.8695227
317.511514
318.7368759
325.7646797
329.6261501
333.9275756
339.6666702
348.6134662
300.5239661
300.6966964
299.8697967
299.9838
301.2451386
302.1431111
300.7355251
300.354592
300.9706242
299.7877881
299.2018254
300.6144598
301.3388764
302.1827084
304.0336108
302.9998868
302.5753049
304.1653973
304.1185073
306.5120265
308.8800117
308.9615499
312.209826
312.1674084
314.2343212
315.5729994
320.9651282
325.2026583
330.9909719
338.8203445
298.8735747
300.3120112
302.1846297
302.147062
301.4516511
299.7928736
301.1139045
302.0350229
301.7910227
301.4478298
302.2207741
301.6346058
301.6990506
300.7052629
301.119265
303.730326
302.9808495
304.8129605
303.2298434
302.5804939
303.7993034
306.8201368
309.608697
309.8312811
312.5211196
311.7074472
314.4668319
320.3129773
321.0787676
328.6271986
)
;

boundaryField
{
    flow
    {
        type            calculated;
        value           nonuniform List<scalar> 
55
(
733.5977372
726.0306672
717.5458331
706.6482405
696.4852885
681.1469132
673.8966979
658.5774033
648.0946482
634.4467032
613.1571888
588.7188455
566.3971171
537.7515849
508.1514537
483.1487514
456.1487911
430.1742396
404.2492179
386.8059602
373.6606264
358.1301148
348.6134662
338.8203445
328.6271986
298.8735747
300.3120112
302.1846297
302.147062
301.4516511
299.7928736
301.1139045
302.0350229
301.7910227
301.4478298
302.2207741
301.6346058
301.6990506
300.7052629
301.119265
303.730326
302.9808495
304.8129605
303.2298434
302.5804939
303.7993034
306.8201368
309.608697
309.8312811
312.5211196
311.7074472
314.4668319
320.3129773
321.0787676
328.6271986
)
;
    }
    obstacle
    {
        type            calculated;
        value           nonuniform List<scalar> 0();
    }
    frontAndBack
    {
        type            empty;
    }
    procBoundary3to1
    {
        type            processor;
        value           nonuniform List<scalar> 
36
(
746.8928245
739.0998702
738.4026834
741.6986261
737.6337286
737.6337286
691.2081127
695.9450277
705.2389028
710.249702
716.6260444
717.9915697
717.9915697
605.6051951
621.8358252
638.9682658
654.259878
663.7423598
663.7423598
449.3719245
464.7264732
487.9559068
508.0729298
525.5592663
546.6826168
546.6826168
338.2767043
341.8229241
351.3116144
366.7597072
381.2015559
385.2046135
396.8199335
396.8199335
323.5983758
323.5983758
)
;
    }
    procBoundary3to2
    {
        type            processor;
        value           nonuniform List<scalar> 
19
(
313.6152111
308.6237759
308.7772688
305.2341936
302.3735188
303.8053043
300.3701567
302.6015839
300.9733801
301.0787817
301.3974092
300.5209533
302.3752859
299.7465139
300.1166138
300.6659261
300.5609688
300.3700086
298.0314906
)
;
    }
}


// ************************************************************************* //
