/*--------------------------------*- C++ -*----------------------------------*\
| =========                 |                                                 |
| \\      /  F ield         | OpenFOAM: The Open Source CFD Toolbox           |
|  \\    /   O peration     | Version:  2406                                  |
|   \\  /    A nd           | Website:  www.openfoam.com                      |
|    \\/     M anipulation  |                                                 |
\*---------------------------------------------------------------------------*/
FoamFile
{
    version     2.0;
    format      ascii;
    arch        "LSB;label=32;scalar=64";
    class       volScalarField;
    location    "0.01";
    object      p;
}
// * * * * * * * * * * * * * * * * * * * * * * * * * * * * * * * * * * * * * //

dimensions      [1 -1 -2 0 0 0 0];

internalField   nonuniform List<scalar> 
654
(
2.526571946
2.594603503
2.626643174
2.61089619
2.564230391
2.568200539
2.062834083
2.167460186
2.29612213
2.348766656
2.439000413
2.516905278
2.522647038
2.556688398
2.569590104
2.553832539
2.540358645
1.292827728
1.436548792
1.530277274
1.658521061
1.769398403
1.887092442
2.002282304
2.088575149
2.205918601
2.280009647
2.379434767
2.46289324
2.466149344
2.510338444
2.539485801
2.514737531
0.7132788893
0.7630432571
0.8130527702
0.8922929449
0.9576180265
1.0376957
1.124852589
1.240769792
1.350086449
1.461668495
1.583465917
1.69015442
1.807427658
1.913552082
2.005118325
2.105272684
2.203324652
2.305661298
2.391848666
2.441809362
2.462729998
2.484094089
0.476393123
0.4904677352
0.5027787895
0.529604562
0.5637965868
0.5808005074
0.6066679815
0.6353531005
0.6828245453
0.7400574271
0.7771708868
0.8400304162
0.9176165994
0.9851482213
1.070893899
1.167953565
1.265422127
1.364186425
1.487953307
1.6162816
1.751154771
1.860905579
1.937900428
2.063007184
2.173689453
2.249927901
2.33600008
2.384697134
2.407362303
0.4604847722
0.4698248802
0.4822914163
0.486536708
0.5049809603
0.519804476
0.5423101675
0.5720870887
0.5908431527
0.6282615624
0.6565139937
0.7103689415
0.7466039196
0.8083641154
0.8702362565
0.9477541386
1.022166475
1.110957545
1.198152156
1.299576372
1.42356548
1.530398443
1.650153356
1.76445827
1.898803957
2.002163592
2.081745582
2.176680815
2.238587934
2.303678974
0.4455516924
0.4492551031
0.4623939295
0.4700204027
0.4825111362
0.493900168
0.5078864786
0.5265900189
0.5435023503
0.5811588738
0.6053203681
0.637436361
0.678280868
0.7297573374
0.7944787467
0.8315690316
0.8969961315
0.9615733349
1.051718258
1.132341635
1.209754549
1.339552702
1.451127258
1.5765286
1.709549428
1.800271334
1.933645885
2.037954959
2.144674655
2.196451746
0.439807151
0.4494603748
0.4470730813
0.4557680623
0.4636565933
0.4755860006
0.4844598397
0.4906001403
0.5175749652
0.533771428
0.5574426023
0.5888912509
0.6053004549
0.6394690566
0.6952527377
0.7361128758
0.7965767489
0.877346029
0.9224761953
1.005782696
1.10048371
1.197570544
1.279178913
1.401516254
1.516571992
1.612203635
1.743718536
1.859389338
1.96727509
2.048143937
0.437676511
0.4398138679
0.4473762285
0.448369926
0.446903414
0.4580645749
0.4741597029
0.4781777121
0.4920157414
0.5107277463
0.525763021
0.547422142
0.5659865911
0.5859945976
0.6227212069
0.6584503548
0.7008450779
0.76407405
0.8224706827
0.9010784044
0.9682251224
1.075093143
1.157213462
1.226563055
1.342835063
1.465770307
1.56844629
1.692816112
1.79488675
1.922487273
0.4279760522
0.4284332266
0.4318678759
0.4359676954
0.4459893
0.4512152218
0.4627650483
0.4702774351
0.480985161
0.4844282942
0.5043057921
0.5205533629
0.5254934529
0.5513091827
0.5733981201
0.5975513425
0.633236864
0.6863490144
0.7407436293
0.7877008197
0.8607141549
0.9322339656
1.03239684
1.099540458
1.194422352
1.306007551
1.404764627
1.512900724
1.631363232
1.732877728
0.4264488223
0.4272370297
0.4278668596
0.4340787847
0.4369673927
0.4446494049
0.4441448706
0.4484385378
0.4574780326
0.4642891754
0.4759904074
0.492560589
0.5033386878
0.5264708563
0.5533073693
0.5756043548
0.5895470819
0.6279461116
0.6571638862
0.7109555344
0.7600149295
0.8187788425
0.8897895597
0.9734429163
1.046989652
1.139362545
1.236662267
1.336876067
1.4565605
1.582290439
0.4262266934
0.423243422
0.421135051
0.4282734777
0.4288512907
0.4370058159
0.4382924214
0.4444215253
0.4530785893
0.4505952819
0.4647444451
0.4819415238
0.4926272625
0.4956080489
0.5148469755
0.5410499676
0.5598390595
0.5860767608
0.6237952364
0.6470334127
0.6844160519
0.7241464113
0.7906238441
0.8458753109
0.9146158801
1.000021451
1.093410931
1.194913258
1.306406497
1.426967473
0.4152137766
0.4215043562
0.4247863579
0.4262076997
0.4216932494
0.4283837665
0.4299092858
0.4353114354
0.4365044972
0.4459163065
0.4441062561
0.4532430275
0.4652968861
0.4780368737
0.4947272712
0.5143423967
0.5253667329
0.5445955033
0.5695910577
0.5965697652
0.6355669571
0.6638620486
0.7115725348
0.7629257852
0.8252479222
0.8888821306
0.9609734292
1.068185779
1.162697013
1.257972491
0.4159790422
0.4133341916
0.4160277925
0.4241148624
0.424582471
0.4193214131
0.4279487686
0.4268484032
0.4329914418
0.4431869135
0.4503825182
0.4559491076
0.4546565753
0.4643800166
0.4726969333
0.4917591516
0.5016669046
0.5159684894
0.5316912233
0.5631577732
0.5721179896
0.6111381105
0.6535842003
0.7001675678
0.7400421598
0.797250185
0.8654454847
0.9375431746
1.016630284
1.11703742
0.4090149184
0.4094571844
0.4106265626
0.4136892749
0.4174333391
0.4224569944
0.4314499573
0.4328522798
0.4333267086
0.4372129119
0.4458573847
0.4457271924
0.4548124307
0.4582525834
0.4596754164
0.4713052432
0.4762595101
0.4885480194
0.5044947842
0.5233397148
0.5372225056
0.5662663867
0.5949453019
0.6440203364
0.6669790147
0.7122566842
0.7703185468
0.8484786561
0.8994141804
0.9814795152
0.416273046
0.4133376512
0.4123266232
0.4159541578
0.4219309981
0.4225638132
0.4224639537
0.4261780049
0.4290043397
0.4294242096
0.4357278691
0.4369059933
0.4420362754
0.4416893691
0.4504867122
0.4590126807
0.4602797192
0.4742763826
0.4853187546
0.5003059204
0.5210665015
0.5363584074
0.5632190806
0.5975705669
0.6128945586
0.6376094178
0.6804943124
0.7358992489
0.8186142556
0.8817182119
0.4193522684
0.4225887014
0.4260393071
0.4184596114
0.4169541347
0.4199743477
0.4199589206
0.4188030738
0.4182419813
0.419352213
0.4234539147
0.4270843091
0.4335299166
0.4343191247
0.4396492809
0.4488534572
0.4629587306
0.4660548104
0.4754704279
0.4816869882
0.5007142602
0.5120469797
0.5165750688
0.5423404148
0.5728334712
0.6012809923
0.6320354952
0.6798671097
0.7190707009
0.7860691758
0.4195093637
0.4212029876
0.4209340908
0.4226366425
0.4194496257
0.4207878827
0.424364587
0.4243507784
0.4193907275
0.4199356357
0.4186731378
0.4224113379
0.4282816772
0.4346103225
0.4371431001
0.4376782124
0.444534994
0.4548429963
0.4588483425
0.4629415568
0.4711473875
0.4854115766
0.5065409311
0.5199566641
0.5524486194
0.5670247353
0.5992390193
0.6243603583
0.6608579826
0.7072276388
0.4117149972
0.4069490049
0.4080091901
0.4127224097
0.417367369
0.4162157024
0.4138017902
0.4195346653
0.418406157
0.4170852837
0.4229459822
0.4268126217
0.4288787199
0.4283252215
0.4293949894
0.4309843777
0.433657464
0.4413704022
0.4450920944
0.4504664478
0.4581228588
0.4750838078
0.4833639527
0.5085088818
0.5158021328
0.5414799816
0.5588654925
0.5834439991
0.6126459122
0.6413681336
0.4112356217
0.410693743
0.4136793129
0.415107782
0.4173201629
0.4184144668
0.4178934451
0.411904691
0.417682343
0.4156632442
0.418688365
0.4144534158
0.4144484618
0.4220349775
0.4291212995
0.4318913939
0.4351358161
0.4326602798
0.4433031241
0.4481596778
0.4518921379
0.4580839269
0.4581738145
0.4787938784
0.4936918111
0.5180982061
0.528685555
0.545196093
0.5829758878
0.6037516256
0.4176022484
0.4204342963
0.4136282954
0.4116201845
0.4073132533
0.4086230134
0.4139818378
0.4174788721
0.421833702
0.4210055385
0.4211514178
0.4225820922
0.4224690713
0.4222194129
0.4258744208
0.4286617244
0.4315303193
0.4323218998
0.4336758705
0.4385322244
0.4438427386
0.45406372
0.462069575
0.4664072231
0.4661970075
0.4845373496
0.5048044827
0.5340403913
0.5533421303
0.5810040896
0.4210714916
0.4204000022
0.4212117144
0.4212446259
0.4229368873
0.4193862837
0.4154475192
0.4132065658
0.4131171238
0.4164288992
0.4166389839
0.4241152596
0.4252079955
0.4236217058
0.4263575916
0.4292222341
0.4323411123
0.431311724
0.4286995062
0.4339704029
0.4394723804
0.4438372134
0.4434569589
0.4524553774
0.4598937978
0.4782631822
0.4845318976
0.4975081453
0.5144801373
0.5383086332
0.4150968622
0.4143481749
0.4136256705
0.4156180593
0.419446361
0.4224751278
0.4212310029
0.4182659326
0.4193204076
0.4172092209
0.4160330857
0.4184900662
0.4215884807
0.4251893334
0.4246176379
0.4222586106
0.4214085052
0.4269737116
0.4280391682
0.4303435695
0.4365351324
0.4362709124
0.4438681541
0.4457538928
0.4507221214
0.4519777238
0.4697101856
0.4791811062
0.4945199852
0.517010423
0.4022090499
0.4070977321
0.4109495008
0.4105032293
0.408045242
0.4048752271
0.4094770091
0.4120101486
0.4117894134
0.4106047384
0.4157299174
0.4102521174
0.4104825938
0.4082346668
0.4087647898
0.416070766
0.4147564227
0.4173914025
0.4121294742
0.4129294667
0.4182060968
0.4303444742
0.4313504657
0.4319764517
0.4349665214
0.4330241243
0.4388806088
0.4539830506
0.458978077
0.480550741
)
;

boundaryField
{
    flow
    {
        type            calculated;
        value           nonuniform List<scalar> 
55
(
2.526571946
2.568200539
2.540358645
2.514737531
2.484094089
2.407362303
2.303678974
2.196451746
2.048143937
1.922487273
1.732877728
1.582290439
1.426967473
1.257972491
1.11703742
0.9814795152
0.8817182119
0.7860691758
0.7072276388
0.6413681336
0.6037516256
0.5810040896
0.5383086332
0.517010423
0.480550741
0.4022090499
0.4070977321
0.4109495008
0.4105032293
0.408045242
0.4048752271
0.4094770091
0.4120101486
0.4117894134
0.4106047384
0.4157299174
0.4102521174
0.4104825938
0.4082346668
0.4087647898
0.416070766
0.4147564227
0.4173914025
0.4121294742
0.4129294667
0.4182060968
0.4303444742
0.4313504657
0.4319764517
0.4349665214
0.4330241243
0.4388806088
0.4539830506
0.458978077
0.480550741
)
;
    }
    obstacle
    {
        type            calculated;
        value           nonuniform List<scalar> 0();
    }
    frontAndBack
    {
        type            empty;
    }
    procBoundary3to1
    {
        type            processor;
        value           nonuniform List<scalar> 
36
(
2.507577725
2.667859619
2.648432917
2.622555503
2.58208058
2.58208058
2.238549889
2.335706632
2.446865954
2.485683371
2.564148667
2.558348047
2.558348047
1.500120281
1.617727259
1.732033691
1.853006418
1.95593441
1.95593441
0.8056845287
0.8571709339
0.9475480183
1.020484781
1.097108471
1.187381308
1.187381308
0.5004004407
0.5119475251
0.5339969234
0.5732723094
0.6058354755
0.6219117206
0.6574067341
0.6574067341
0.4671101614
0.4671101614
)
;
    }
    procBoundary3to2
    {
        type            processor;
        value           nonuniform List<scalar> 
19
(
0.4489388744
0.4333559486
0.4332878535
0.4295673898
0.422179076
0.4245184527
0.4200429752
0.4157194807
0.4134878798
0.4109254983
0.4151737317
0.4181907969
0.4189850675
0.4101219624
0.4082773484
0.4180444425
0.4163172497
0.4158591375
0.4036107903
)
;
    }
}


// ************************************************************************* //
