/*--------------------------------*- C++ -*----------------------------------*\
| =========                 |                                                 |
| \\      /  F ield         | OpenFOAM: The Open Source CFD Toolbox           |
|  \\    /   O peration     | Version:  2406                                  |
|   \\  /    A nd           | Website:  www.openfoam.com                      |
|    \\/     M anipulation  |                                                 |
\*---------------------------------------------------------------------------*/
FoamFile
{
    version     2.0;
    format      ascii;
    arch        "LSB;label=32;scalar=64";
    class       volScalarField;
    location    "0.01";
    object      rhoM;
}
// * * * * * * * * * * * * * * * * * * * * * * * * * * * * * * * * * * * * * //

dimensions      [1 -3 0 0 0 0 0];

internalField   nonuniform List<scalar> 
654
(
1.438160965e-05
9.94279159e-06
9.388436278e-06
1.226050415e-05
1.415554471e-05
9.556306025e-06
8.742526456e-06
1.012699409e-05
9.510481626e-06
1.243518749e-05
1.147090207e-05
7.865464111e-06
1.039956818e-05
9.941088429e-06
1.393361154e-05
1.593525537e-05
1.286823583e-05
8.219993106e-06
6.779917214e-06
8.017983e-06
8.765775619e-06
6.866118337e-06
1.281184253e-05
3.142932753e-06
1.188863224e-05
1.359038785e-05
6.63073832e-06
7.865464111e-06
1.176770122e-05
1.132161048e-05
1.058963427e-05
1.349926771e-05
2.299034774e-05
6.173740262e-06
5.343837668e-06
4.020030125e-06
6.402169025e-06
6.616455365e-06
6.670059771e-06
7.887003513e-06
7.701667425e-06
6.583849545e-06
3.57499108e-06
7.295896822e-06
1.125271554e-05
8.904625634e-06
8.806237197e-06
1.057172816e-05
1.030551757e-05
8.408285471e-06
1.18586172e-05
4.877696422e-06
1.207534906e-05
7.4993422e-06
1.598928444e-05
4.878564933e-06
4.310146235e-06
4.342448624e-06
4.912581322e-06
3.867097212e-06
5.065581817e-06
3.926852502e-06
5.223347451e-06
4.467408934e-06
5.305975048e-06
7.456061221e-06
4.737951717e-06
7.164505688e-06
8.385488001e-06
4.352414977e-06
5.992965089e-06
6.723802109e-06
9.870432681e-06
5.020378159e-06
8.119418128e-06
5.107362941e-06
8.794661371e-06
7.706809957e-06
1.383214263e-05
1.569026815e-05
1.178252345e-05
1.086736675e-05
1.415554471e-05
1.097537887e-05
2.83070976e-06
2.101758152e-06
2.722101719e-06
2.666576773e-06
2.686712357e-06
5.104121164e-06
2.805581845e-06
4.083396844e-06
2.770390257e-06
2.95113189e-06
4.502743607e-06
4.700178328e-06
8.08787187e-06
5.270782905e-06
5.396581388e-06
7.11564913e-06
3.797670955e-06
9.022303653e-06
7.210354682e-06
7.96400569e-06
8.206429869e-06
6.340321084e-06
3.37492893e-06
9.678168963e-06
5.153535586e-06
9.760959826e-06
9.480175441e-06
9.103919381e-06
1.078072782e-05
1.457021158e-05
2.682197329e-06
3.902490325e-06
9.225001593e-06
4.875763983e-06
4.37523885e-06
4.408528048e-06
2.883253964e-06
7.38218002e-06
5.698543856e-06
3.589058666e-06
4.903390954e-06
2.350089183e-06
2.940865472e-06
7.08242861e-06
5.895065766e-06
8.873704057e-06
6.245329939e-06
4.851480726e-06
4.291582396e-06
5.626357768e-06
4.365301176e-06
6.956800053e-06
5.773862007e-06
7.347399872e-06
5.063428251e-06
8.665574439e-06
1.343826302e-05
8.081091941e-06
9.374742374e-06
4.068616629e-06
7.22618424e-06
4.427929867e-06
2.722101738e-06
6.475710058e-06
3.7613973e-06
6.651332685e-06
6.779999738e-06
9.031571509e-06
3.482231634e-06
4.705910891e-06
4.743132052e-06
6.402169075e-06
5.718896139e-06
6.670059771e-06
5.895065766e-06
5.357594017e-06
6.667971146e-06
5.447312573e-06
8.925333592e-06
7.444296594e-06
3.667105379e-06
5.811607458e-06
8.349859829e-06
8.423471509e-06
8.318178225e-06
1.039956827e-05
8.560566474e-06
7.153079514e-06
1.08741591e-05
8.231534224e-06
3.203785551e-06
2.101758167e-06
4.990216321e-06
9.064526031e-06
3.453552065e-06
5.18120229e-06
4.442327728e-06
5.497971858e-06
5.06558415e-06
3.350556701e-06
4.743132052e-06
4.132848113e-06
6.616455313e-06
4.199814206e-06
5.313833973e-06
4.855004514e-06
6.161208289e-06
4.851480686e-06
3.776261711e-06
5.712628461e-06
1.030101739e-05
8.718471722e-06
7.727993401e-06
8.423471509e-06
5.876571272e-06
8.483742676e-06
1.132161048e-05
7.89593696e-06
7.4993422e-06
9.744907956e-06
2.160609106e-06
5.929443938e-06
6.048912551e-06
6.094246168e-06
6.063765388e-06
4.562690367e-06
4.597671957e-06
4.633194091e-06
5.777425506e-06
6.939615341e-06
2.894344246e-06
3.403981347e-06
5.147006525e-06
3.541214305e-06
6.476297601e-06
3.013520609e-06
5.402080828e-06
3.744642986e-06
4.291582396e-06
4.934107514e-06
5.063497004e-06
8.189758099e-06
5.063463272e-06
6.003389634e-06
7.955571356e-06
5.290699971e-06
5.430348608e-06
8.823949308e-06
9.655036131e-06
7.001063304e-06
6.481827365e-06
6.153857559e-06
5.898190712e-06
6.170171924e-06
3.224054805e-06
2.707154327e-06
7.170237443e-06
5.026446798e-06
4.036309658e-06
4.546909564e-06
5.788688447e-06
2.998187681e-06
6.044565703e-06
3.541214305e-06
2.490422169e-06
5.441022822e-06
3.12266497e-06
5.105958586e-06
2.403451541e-06
4.414398551e-06
8.293441405e-06
3.082395141e-06
7.462396349e-06
6.541425453e-06
1.093999962e-05
6.477001257e-06
5.246870378e-06
9.381651853e-06
1.153043633e-05
8.893920168e-06
5.587163345e-06
4.803760387e-06
2.797462722e-06
4.799838227e-06
8.903475858e-06
6.651332635e-06
6.079073589e-06
5.497971858e-06
5.935188806e-06
3.908982788e-06
1.688528866e-06
5.754070548e-06
2.368975859e-06
2.306091523e-06
5.812318398e-06
5.44102291e-06
4.895318031e-06
3.659817003e-06
9.440654277e-06
6.232337428e-06
6.198853902e-06
6.869034653e-06
6.307195997e-06
5.914076819e-06
6.50949986e-06
5.47253178e-06
4.785957302e-06
2.693697338e-06
5.906494164e-06
8.137233184e-06
4.321218212e-06
5.028173884e-06
3.251449893e-06
2.285112947e-06
2.149369886e-06
5.568470946e-06
3.35116382e-06
3.455327492e-06
3.403349984e-06
6.222187901e-06
4.180289065e-06
4.213616447e-06
2.940865449e-06
4.199814173e-06
2.407674755e-06
5.860183473e-06
5.570323985e-06
4.170822926e-06
6.951660594e-06
4.414398588e-06
7.158084549e-06
4.578649401e-06
5.063463272e-06
4.748692264e-06
5.786464078e-06
7.206525613e-06
8.560566474e-06
1.058963427e-05
7.4993422e-06
5.961473493e-06
5.960239139e-06
4.353125388e-06
3.17608893e-06
6.779413034e-06
6.140264422e-06
6.57425151e-06
6.312089882e-06
4.55492189e-06
6.410385212e-06
5.822763161e-06
6.914374456e-06
4.213616447e-06
3.022282852e-06
5.929382849e-06
5.562076172e-06
5.524451716e-06
4.13619051e-06
5.36248662e-06
3.004314426e-06
2.510189101e-06
6.984061341e-06
4.403118524e-06
7.017594672e-06
4.391440797e-06
6.599607048e-06
4.561175604e-06
5.338609541e-06
5.852519602e-06
5.53051083e-06
4.068616592e-06
3.352297983e-06
3.678076765e-06
3.17608893e-06
5.485005098e-06
4.451737929e-06
5.568470946e-06
6.234417831e-06
8.481774392e-06
4.669269395e-06
3.589058666e-06
5.225845497e-06
4.213616447e-06
7.025510173e-06
6.175613911e-06
4.068622846e-06
8.454543407e-06
6.077086738e-06
8.085117819e-06
3.260941026e-06
4.934107514e-06
3.841128587e-06
2.553681514e-06
3.109331812e-06
3.226056293e-06
6.419392559e-06
5.19978409e-06
6.443913961e-06
5.479972118e-06
4.780802469e-06
6.24437645e-06
4.321218212e-06
4.803760387e-06
5.898190712e-06
4.951689739e-06
6.677606943e-06
6.495307445e-06
5.455819497e-07
7.538724366e-06
4.036309689e-06
8.056467566e-06
3.939900656e-06
4.53864176e-06
6.862675366e-06
5.847305828e-06
2.988906614e-06
4.102128497e-06
6.836214293e-06
4.255648845e-06
4.291582396e-06
7.444296594e-06
3.055921149e-06
4.403118598e-06
5.329060389e-06
3.136743427e-06
2.621821393e-06
8.483742751e-06
6.627392286e-06
5.294817089e-06
5.343648268e-06
9.556306025e-06
4.694294037e-06
4.203516334e-06
4.536229093e-06
7.542340775e-06
3.453552065e-06
6.10990177e-06
6.312089882e-06
1.028771027e-05
7.439659616e-06
5.025835013e-06
3.377057731e-06
4.86171497e-06
3.675589864e-06
4.858414108e-06
4.15137026e-06
5.441022822e-06
3.12266497e-06
2.383327387e-06
5.578850366e-06
5.540087169e-06
6.897049736e-06
3.170160515e-06
5.862394379e-06
9.14013314e-06
5.876571323e-06
4.652091485e-06
5.430348704e-06
1.030966428e-05
6.186787953e-06
3.311929719e-06
3.79962999e-06
7.655371629e-06
6.352177861e-06
5.560930813e-06
4.912581322e-06
3.790016086e-06
5.220925974e-06
5.026446836e-06
5.06558415e-06
5.822763161e-06
4.663002582e-06
5.915607107e-06
6.535037962e-06
5.929382896e-06
6.143308057e-06
7.199077922e-06
4.304433712e-06
7.404459959e-06
1.88813084e-06
5.540087123e-06
5.761692881e-06
4.31535316e-06
6.307195943e-06
5.018789483e-06
5.966678569e-06
3.922567072e-06
4.694218097e-06
5.945097093e-06
7.312479638e-06
6.718160343e-06
6.259058671e-06
4.427929835e-06
3.17608893e-06
5.485005098e-06
4.989080401e-06
4.331446923e-06
2.727909769e-06
6.439130052e-06
6.173740262e-06
3.988483451e-06
8.360578194e-06
3.403981347e-06
1.715668842e-06
4.281891227e-06
4.316865123e-06
5.357594017e-06
6.077086689e-06
5.532138481e-06
6.951660537e-06
4.934107514e-06
3.142932727e-06
3.170160515e-06
2.575997822e-06
7.88543569e-06
2.531714126e-06
5.929308549e-06
2.024913369e-06
4.737114672e-06
6.656202575e-06
5.487689533e-06
4.768550288e-06
3.377050808e-06
6.804343689e-06
3.809133266e-06
6.216763501e-06
4.408528048e-06
4.519999825e-06
6.754110633e-06
2.374075523e-06
3.430057339e-06
5.145716027e-06
4.700178328e-06
2.859448047e-06
4.694260066e-06
2.490422169e-06
4.185557313e-06
5.063561273e-06
4.936306679e-06
2.488993741e-06
5.626357815e-06
3.229944385e-06
5.723842056e-06
5.596797262e-06
3.31536916e-06
5.153535496e-06
3.28395854e-06
5.338609541e-06
5.572549608e-06
6.280219234e-06
8.325835115e-06
5.587163305e-06
3.152637228e-06
4.310146204e-06
3.73320751e-06
4.37523885e-06
2.784235473e-06
3.273491723e-06
6.126041199e-06
4.669269395e-06
1.675278338e-06
2.894344246e-06
3.48474965e-06
3.594172461e-06
6.918274513e-06
6.974782022e-06
3.096949433e-06
3.713549323e-06
4.851480726e-06
4.206040231e-06
4.500669234e-06
4.365301176e-06
5.019597584e-06
6.749857859e-06
5.018789483e-06
6.779821597e-06
4.104398835e-06
4.602478935e-06
7.98851445e-06
2.905402336e-06
7.474847314e-06
4.469730644e-06
2.176562678e-06
3.780798049e-06
4.342448593e-06
4.451737962e-06
2.165723478e-06
5.065581779e-06
5.104719037e-06
5.619662163e-06
8.614893745e-06
3.617446142e-06
1.782758962e-06
7.760234593e-06
3.541214305e-06
5.97781318e-06
3.516110112e-06
6.92033595e-06
3.233637093e-06
5.063529681e-06
5.712628413e-06
7.421222362e-06
3.170160515e-06
2.5759978e-06
4.391440835e-06
5.333750032e-06
5.929308549e-06
3.958087539e-06
6.780531969e-06
4.124525302e-06
4.068616592e-06
3.278041791e-06
5.929443981e-06
3.477532783e-06
9.597841389e-06
4.528237008e-06
6.032820689e-06
4.987909682e-06
6.754110582e-06
4.590387745e-06
4.147484779e-06
3.617446142e-06
3.40398132e-06
7.10692752e-06
4.035660165e-06
3.487391039e-06
7.868525124e-06
5.40208074e-06
5.532138481e-06
1.802588655e-06
4.328127942e-06
3.841128587e-06
3.698874137e-06
3.197864185e-06
3.404682027e-06
6.599607106e-06
2.554434127e-06
2.761043909e-06
6.037674583e-06
4.031094058e-06
5.487689533e-06
8.642436425e-06
3.15263725e-06
5.444203517e-06
5.9423947e-06
6.524608736e-06
3.790016058e-06
2.805581866e-06
4.398377487e-06
5.06558415e-06
2.871631226e-06
4.903390954e-06
4.052079843e-06
7.67881719e-06
5.929382849e-06
1.743695506e-06
6.027041218e-06
4.304433712e-06
3.063985186e-06
6.265255452e-06
4.24185726e-06
3.841128587e-06
6.956800112e-06
2.575997822e-06
1.882046056e-06
5.063428251e-06
5.108868255e-06
3.313696172e-06
1.950839867e-06
6.843065076e-06
1.987157813e-06
)
;

boundaryField
{
    flow
    {
        type            zeroGradient;
    }
    obstacle
    {
        type            calculated;
        value           nonuniform List<scalar> 0();
    }
    frontAndBack
    {
        type            empty;
    }
    procBoundary3to1
    {
        type            processor;
        value           nonuniform List<scalar> 
36
(
8.893920168e-06
1.012462318e-05
1.307130625e-05
9.474229343e-06
1.302985303e-05
1.302985303e-05
9.521047355e-06
1.291977732e-05
6.428086377e-06
1.46570557e-05
1.111149208e-05
1.347171388e-05
1.347171388e-05
7.721508747e-06
4.938433403e-06
1.308357738e-05
5.701790386e-06
9.784890563e-06
9.784890563e-06
6.806699967e-06
5.18483634e-06
7.557346828e-06
8.184927988e-06
7.10692752e-06
6.505905729e-06
6.505905729e-06
5.254395379e-06
5.444203477e-06
5.103541252e-06
2.225868981e-06
4.716852585e-06
3.974417872e-06
4.476649688e-06
4.476649688e-06
1.005868873e-05
1.005868873e-05
)
;
    }
    procBoundary3to2
    {
        type            processor;
        value           nonuniform List<scalar> 
19
(
5.916870199e-06
6.508379054e-06
3.180473627e-06
5.399077207e-06
2.662680672e-06
5.325361345e-06
6.360947299e-06
4.955000191e-06
4.363491336e-06
1.627094764e-06
7.617680863e-06
3.624550681e-06
4.216059536e-06
2.218603602e-06
4.955000226e-06
4.289775436e-06
3.845698382e-06
2.071171818e-06
3.698266581e-06
)
;
    }
}


// ************************************************************************* //
