/*--------------------------------*- C++ -*----------------------------------*\
| =========                 |                                                 |
| \\      /  F ield         | OpenFOAM: The Open Source CFD Toolbox           |
|  \\    /   O peration     | Version:  2406                                  |
|   \\  /    A nd           | Website:  www.openfoam.com                      |
|    \\/     M anipulation  |                                                 |
\*---------------------------------------------------------------------------*/
FoamFile
{
    version     2.0;
    format      ascii;
    arch        "LSB;label=32;scalar=64";
    class       volScalarField;
    location    "0.01";
    object      rhoMMean;
}
// * * * * * * * * * * * * * * * * * * * * * * * * * * * * * * * * * * * * * //

dimensions      [1 -3 0 0 0 0 0];

internalField   nonuniform List<scalar> 
654
(
1.164935652e-05
1.169177744e-05
1.189988245e-05
1.190946535e-05
1.186242759e-05
1.192847844e-05
9.468682429e-06
9.854432846e-06
1.034135737e-05
1.067593253e-05
1.105078341e-05
1.14080802e-05
1.151778874e-05
1.164362465e-05
1.183782525e-05
1.186305869e-05
1.184973417e-05
6.826469857e-06
7.230409505e-06
7.541059576e-06
7.941745967e-06
8.389560723e-06
8.843534808e-06
9.303538825e-06
9.669951385e-06
1.014338025e-05
1.050100837e-05
1.08922447e-05
1.127489863e-05
1.140405938e-05
1.157787644e-05
1.174474397e-05
1.174898301e-05
5.335238902e-06
5.442322225e-06
5.524079539e-06
5.69547532e-06
5.87600462e-06
6.101852359e-06
6.330062721e-06
6.650911769e-06
7.015052705e-06
7.351679056e-06
7.760313437e-06
8.151334939e-06
8.565569645e-06
9.010648544e-06
9.430959228e-06
9.877748275e-06
1.026826916e-05
1.068619192e-05
1.109334672e-05
1.134656642e-05
1.149662319e-05
1.165903328e-05
4.890412476e-06
4.907220222e-06
4.925800249e-06
4.974905052e-06
5.04413327e-06
5.076961882e-06
5.139298363e-06
5.192707625e-06
5.316521473e-06
5.45243066e-06
5.558281349e-06
5.695729764e-06
5.879065813e-06
6.073458439e-06
6.28127579e-06
6.514246362e-06
6.847102345e-06
7.163151498e-06
7.539381597e-06
7.975671068e-06
8.406032445e-06
8.840177174e-06
9.246972782e-06
9.717989462e-06
1.015528919e-05
1.057086126e-05
1.092760342e-05
1.123921724e-05
1.146300449e-05
4.888693994e-06
4.899987609e-06
4.922070358e-06
4.958918798e-06
4.980480333e-06
4.989638414e-06
5.036435134e-06
5.107863129e-06
5.167802814e-06
5.219490559e-06
5.261030226e-06
5.373808657e-06
5.46385803e-06
5.604571549e-06
5.741705005e-06
5.967551103e-06
6.158574086e-06
6.398410119e-06
6.657951422e-06
6.96228953e-06
7.366780761e-06
7.706807278e-06
8.138203159e-06
8.546454807e-06
9.021165034e-06
9.520751166e-06
9.873723147e-06
1.030251903e-05
1.065356468e-05
1.095694395e-05
4.837030288e-06
4.831677114e-06
4.858969443e-06
4.872043529e-06
4.894740951e-06
4.924528337e-06
4.972041342e-06
5.001206335e-06
5.02882697e-06
5.128145642e-06
5.191626582e-06
5.240349548e-06
5.328550066e-06
5.446906546e-06
5.573611362e-06
5.67005321e-06
5.80839462e-06
5.964117486e-06
6.229942701e-06
6.456231699e-06
6.701638966e-06
7.101097774e-06
7.509804927e-06
7.959890134e-06
8.421998631e-06
8.783675322e-06
9.294155968e-06
9.762288036e-06
1.023933361e-05
1.059611774e-05
4.839450941e-06
4.871281018e-06
4.871328196e-06
4.895957115e-06
4.909805538e-06
4.906631067e-06
4.908243828e-06
4.936317981e-06
4.966380776e-06
4.979706854e-06
4.998672921e-06
5.102124619e-06
5.169248529e-06
5.228634438e-06
5.334151046e-06
5.463611971e-06
5.600819763e-06
5.796142673e-06
5.89718437e-06
6.116776205e-06
6.409680706e-06
6.664172128e-06
6.941122287e-06
7.334657651e-06
7.737531546e-06
8.12394206e-06
8.596457939e-06
9.023851375e-06
9.466911824e-06
9.880863714e-06
4.847451733e-06
4.846678243e-06
4.866685631e-06
4.879930587e-06
4.863802227e-06
4.871321262e-06
4.892347518e-06
4.904344794e-06
4.924758099e-06
4.960593444e-06
4.97797192e-06
5.048204841e-06
5.077336555e-06
5.112091019e-06
5.176906151e-06
5.262948751e-06
5.355480119e-06
5.486734301e-06
5.660843108e-06
5.863007267e-06
6.050491019e-06
6.324887578e-06
6.562278889e-06
6.798054778e-06
7.140188721e-06
7.571415102e-06
7.958004992e-06
8.409095444e-06
8.869840607e-06
9.355506505e-06
4.806798407e-06
4.808381101e-06
4.801781284e-06
4.794334469e-06
4.836711189e-06
4.853262414e-06
4.898092896e-06
4.909009438e-06
4.92983312e-06
4.916206816e-06
4.974451937e-06
4.9717555e-06
4.983841622e-06
5.039356843e-06
5.092626544e-06
5.150127893e-06
5.248154156e-06
5.394606287e-06
5.526455381e-06
5.634632191e-06
5.80445044e-06
6.002008108e-06
6.282979103e-06
6.523077946e-06
6.814834491e-06
7.159037686e-06
7.502559049e-06
7.874231635e-06
8.267140368e-06
8.668730315e-06
4.805256425e-06
4.795933971e-06
4.820298203e-06
4.826712285e-06
4.834433802e-06
4.83366478e-06
4.82528375e-06
4.816704022e-06
4.849397346e-06
4.8804674e-06
4.896510472e-06
4.913548904e-06
4.945444742e-06
4.995821356e-06
5.023193964e-06
5.062524083e-06
5.087749267e-06
5.184792034e-06
5.291306179e-06
5.426691005e-06
5.571866315e-06
5.752135819e-06
5.933619984e-06
6.178478956e-06
6.413764478e-06
6.668215979e-06
6.956392043e-06
7.30043133e-06
7.719205945e-06
8.210208018e-06
4.877825342e-06
4.856348998e-06
4.824177221e-06
4.832281096e-06
4.828241018e-06
4.841857363e-06
4.844832656e-06
4.85240809e-06
4.871689003e-06
4.847303038e-06
4.885417783e-06
4.933781758e-06
4.942569049e-06
4.947312548e-06
5.007497544e-06
5.088950845e-06
5.134008269e-06
5.16688531e-06
5.250625359e-06
5.273652867e-06
5.389611861e-06
5.482249579e-06
5.605430586e-06
5.774548966e-06
5.966810218e-06
6.224152598e-06
6.530149663e-06
6.847671636e-06
7.232205749e-06
7.609566631e-06
4.744339193e-06
4.794424071e-06
4.794811546e-06
4.793391556e-06
4.777248119e-06
4.796028594e-06
4.794023372e-06
4.784443899e-06
4.782076446e-06
4.816301862e-06
4.819133583e-06
4.820263945e-06
4.88149789e-06
4.917973768e-06
4.938224269e-06
4.989873687e-06
5.031421647e-06
5.0896821e-06
5.134306203e-06
5.210529965e-06
5.267107934e-06
5.33296911e-06
5.433535276e-06
5.555779073e-06
5.723585717e-06
5.918027674e-06
6.129842528e-06
6.449662428e-06
6.724247303e-06
7.069499139e-06
4.784193234e-06
4.768222131e-06
4.766763744e-06
4.777849083e-06
4.782642529e-06
4.75479514e-06
4.78721418e-06
4.773186028e-06
4.796251169e-06
4.841173214e-06
4.829309035e-06
4.857797243e-06
4.865164034e-06
4.901891273e-06
4.947330185e-06
4.965186399e-06
4.985303379e-06
5.005731212e-06
5.016495479e-06
5.0972883e-06
5.143071078e-06
5.245780909e-06
5.351740037e-06
5.468363686e-06
5.581955863e-06
5.754300751e-06
5.918039471e-06
6.103606258e-06
6.363888893e-06
6.639940626e-06
4.743786826e-06
4.735531632e-06
4.742069254e-06
4.758668988e-06
4.76026329e-06
4.805020072e-06
4.840017163e-06
4.846301108e-06
4.839332751e-06
4.833806179e-06
4.850680966e-06
4.865149355e-06
4.855620034e-06
4.866697837e-06
4.841969477e-06
4.878164727e-06
4.870307484e-06
4.868207892e-06
4.924614782e-06
4.957499109e-06
4.986762959e-06
5.053579648e-06
5.108118359e-06
5.201323288e-06
5.316096642e-06
5.452881541e-06
5.622102296e-06
5.832179069e-06
5.970760829e-06
6.206312591e-06
4.791161887e-06
4.779737969e-06
4.781626008e-06
4.79322452e-06
4.786030341e-06
4.806489458e-06
4.787664642e-06
4.824426096e-06
4.852254805e-06
4.845200137e-06
4.82874999e-06
4.831367854e-06
4.831982521e-06
4.815632986e-06
4.808175972e-06
4.815256428e-06
4.803310551e-06
4.842970158e-06
4.871738849e-06
4.91360768e-06
4.950907711e-06
5.014127111e-06
5.093527849e-06
5.170150615e-06
5.212826435e-06
5.257229725e-06
5.363687267e-06
5.514858343e-06
5.751985531e-06
5.94281501e-06
4.799376544e-06
4.847403734e-06
4.876309897e-06
4.835227245e-06
4.825079272e-06
4.810519763e-06
4.789209344e-06
4.780589502e-06
4.755971874e-06
4.749130815e-06
4.753208611e-06
4.750597746e-06
4.775608483e-06
4.801228246e-06
4.833135003e-06
4.864529529e-06
4.905131794e-06
4.93196805e-06
4.978766251e-06
4.979215479e-06
5.05029736e-06
5.0453689e-06
5.005160987e-06
5.061310762e-06
5.125429812e-06
5.173455501e-06
5.266320577e-06
5.375533465e-06
5.47101283e-06
5.687591863e-06
4.845517976e-06
4.827708497e-06
4.82950409e-06
4.837952324e-06
4.827399159e-06
4.840895259e-06
4.845881112e-06
4.849518698e-06
4.814444423e-06
4.814847445e-06
4.802574417e-06
4.827570475e-06
4.826671253e-06
4.851823585e-06
4.863443595e-06
4.854348325e-06
4.866398182e-06
4.889921297e-06
4.876203542e-06
4.892182013e-06
4.906294207e-06
4.911390375e-06
4.996344725e-06
5.017129667e-06
5.113807774e-06
5.159515377e-06
5.246721276e-06
5.296082847e-06
5.377919596e-06
5.481481637e-06
4.79310417e-06
4.754581516e-06
4.762485335e-06
4.771937965e-06
4.781386973e-06
4.779253656e-06
4.761254006e-06
4.802532712e-06
4.816294686e-06
4.811324881e-06
4.843621234e-06
4.856066888e-06
4.84935852e-06
4.828039014e-06
4.812910574e-06
4.82722664e-06
4.802744991e-06
4.836380437e-06
4.828005127e-06
4.84555776e-06
4.876387252e-06
4.937268335e-06
4.950728182e-06
5.006305271e-06
5.01884286e-06
5.047136976e-06
5.094955368e-06
5.165240982e-06
5.250869191e-06
5.298303789e-06
4.775939611e-06
4.768677964e-06
4.799357054e-06
4.787837002e-06
4.804798557e-06
4.806442055e-06
4.819629023e-06
4.784192329e-06
4.804502809e-06
4.78915851e-06
4.803225874e-06
4.765113554e-06
4.768233149e-06
4.816183571e-06
4.831571902e-06
4.851523339e-06
4.876399809e-06
4.862590927e-06
4.90057944e-06
4.908675281e-06
4.893653328e-06
4.895177363e-06
4.874151371e-06
4.940279803e-06
4.989067887e-06
5.045744946e-06
5.035490098e-06
5.065874178e-06
5.160584267e-06
5.228056424e-06
4.804505931e-06
4.819825423e-06
4.783465145e-06
4.790167671e-06
4.774605226e-06
4.787917703e-06
4.825013318e-06
4.851312384e-06
4.854194149e-06
4.85033343e-06
4.853949512e-06
4.858355241e-06
4.880975786e-06
4.857959943e-06
4.851578427e-06
4.868700165e-06
4.865471738e-06
4.835603922e-06
4.838943921e-06
4.849353292e-06
4.887331472e-06
4.944568295e-06
4.972473391e-06
4.966535843e-06
4.933141331e-06
4.987804447e-06
5.063061857e-06
5.151704251e-06
5.201584001e-06
5.254302739e-06
4.842941532e-06
4.842043889e-06
4.858620789e-06
4.862805921e-06
4.859668124e-06
4.844688255e-06
4.814578975e-06
4.787770208e-06
4.805799482e-06
4.81396972e-06
4.801193092e-06
4.828954468e-06
4.815530105e-06
4.817819012e-06
4.832714867e-06
4.844278236e-06
4.854150941e-06
4.860702461e-06
4.859749605e-06
4.863362718e-06
4.842228483e-06
4.825788829e-06
4.835771396e-06
4.856770588e-06
4.90194397e-06
4.957997772e-06
4.958121789e-06
4.979492286e-06
5.004958238e-06
5.074956556e-06
4.812034918e-06
4.801985011e-06
4.796356332e-06
4.817955305e-06
4.83486607e-06
4.838351349e-06
4.838704492e-06
4.817395645e-06
4.818996252e-06
4.823964429e-06
4.816944028e-06
4.843060859e-06
4.859590115e-06
4.873508345e-06
4.837873394e-06
4.838063064e-06
4.83275663e-06
4.855562942e-06
4.866752023e-06
4.872219652e-06
4.864948395e-06
4.849735526e-06
4.882401411e-06
4.888824529e-06
4.892061846e-06
4.873785165e-06
4.945785727e-06
4.963557871e-06
5.005752308e-06
5.046820544e-06
4.699913651e-06
4.720827089e-06
4.725760629e-06
4.733966875e-06
4.717304273e-06
4.701288962e-06
4.730084546e-06
4.753231488e-06
4.745855517e-06
4.739301122e-06
4.767989581e-06
4.711328734e-06
4.705877393e-06
4.705252882e-06
4.706890249e-06
4.741198742e-06
4.749792478e-06
4.729994585e-06
4.708136212e-06
4.73539859e-06
4.76719835e-06
4.816263381e-06
4.784659157e-06
4.788596389e-06
4.774156011e-06
4.784525436e-06
4.791552338e-06
4.817740156e-06
4.838719093e-06
4.906758276e-06
)
;

boundaryField
{
    flow
    {
        type            calculated;
        value           nonuniform List<scalar> 
55
(
1.164935652e-05
1.192847844e-05
1.184973417e-05
1.174898301e-05
1.165903328e-05
1.146300449e-05
1.095694395e-05
1.059611774e-05
9.880863714e-06
9.355506505e-06
8.668730315e-06
8.210208018e-06
7.609566631e-06
7.069499139e-06
6.639940626e-06
6.206312591e-06
5.94281501e-06
5.687591863e-06
5.481481637e-06
5.298303789e-06
5.228056424e-06
5.254302739e-06
5.074956556e-06
5.046820544e-06
4.906758276e-06
4.699913651e-06
4.720827089e-06
4.725760629e-06
4.733966875e-06
4.717304273e-06
4.701288962e-06
4.730084546e-06
4.753231488e-06
4.745855517e-06
4.739301122e-06
4.767989581e-06
4.711328734e-06
4.705877393e-06
4.705252882e-06
4.706890249e-06
4.741198742e-06
4.749792478e-06
4.729994585e-06
4.708136212e-06
4.73539859e-06
4.76719835e-06
4.816263381e-06
4.784659157e-06
4.788596389e-06
4.774156011e-06
4.784525436e-06
4.791552338e-06
4.817740156e-06
4.838719093e-06
4.906758276e-06
)
;
    }
    obstacle
    {
        type            calculated;
        value           nonuniform List<scalar> 0();
    }
    frontAndBack
    {
        type            empty;
    }
    procBoundary3to1
    {
        type            processor;
        value           nonuniform List<scalar> 
36
(
1.145772528e-05
1.193619554e-05
1.193681359e-05
1.185356024e-05
1.179256578e-05
1.179256578e-05
1.011828527e-05
1.053954678e-05
1.097819524e-05
1.123267395e-05
1.150159244e-05
1.156499582e-05
1.156499582e-05
7.378728307e-06
7.760855593e-06
8.150053964e-06
8.598405076e-06
9.001984934e-06
9.001984934e-06
5.507519286e-06
5.619036733e-06
5.849174719e-06
6.040523901e-06
6.257634357e-06
6.5201909e-06
6.5201909e-06
4.932950454e-06
4.947353291e-06
4.979552198e-06
5.048176277e-06
5.069762768e-06
5.140712615e-06
5.23488026e-06
5.23488026e-06
4.854479143e-06
4.854479143e-06
)
;
    }
    procBoundary3to2
    {
        type            processor;
        value           nonuniform List<scalar> 
19
(
4.870752226e-06
4.813593585e-06
4.849222016e-06
4.829095225e-06
4.798187363e-06
4.818024957e-06
4.858168266e-06
4.749889819e-06
4.765994894e-06
4.761821773e-06
4.781655314e-06
4.813539467e-06
4.845143768e-06
4.780265145e-06
4.760518349e-06
4.82692387e-06
4.807826507e-06
4.811636662e-06
4.720713644e-06
)
;
    }
}


// ************************************************************************* //
