/*--------------------------------*- C++ -*----------------------------------*\
| =========                 |                                                 |
| \\      /  F ield         | OpenFOAM: The Open Source CFD Toolbox           |
|  \\    /   O peration     | Version:  2406                                  |
|   \\  /    A nd           | Website:  www.openfoam.com                      |
|    \\/     M anipulation  |                                                 |
\*---------------------------------------------------------------------------*/
FoamFile
{
    version     2.0;
    format      ascii;
    arch        "LSB;label=32;scalar=64";
    class       volScalarField;
    location    "0.01";
    object      rhoNMean;
}
// * * * * * * * * * * * * * * * * * * * * * * * * * * * * * * * * * * * * * //

dimensions      [0 -3 0 0 0 0 0];

internalField   nonuniform List<scalar> 
654
(
2.428235645e+20
2.437369651e+20
2.479895272e+20
2.482279413e+20
2.471243263e+20
2.485442976e+20
1.974268533e+20
2.054761949e+20
2.156536444e+20
2.226014108e+20
2.303975148e+20
2.377606237e+20
2.400261646e+20
2.426403835e+20
2.467008323e+20
2.472146527e+20
2.468748024e+20
1.423680507e+20
1.507869316e+20
1.572794371e+20
1.656284398e+20
1.748859884e+20
1.844028544e+20
1.940174764e+20
2.017172393e+20
2.115682979e+20
2.190054023e+20
2.270130889e+20
2.350299133e+20
2.3772361e+20
2.413167939e+20
2.44919802e+20
2.449887831e+20
1.112207435e+20
1.134433641e+20
1.150983574e+20
1.187391649e+20
1.225122839e+20
1.27221862e+20
1.31990875e+20
1.386834484e+20
1.462724699e+20
1.533248325e+20
1.618479099e+20
1.699609904e+20
1.786419213e+20
1.878365197e+20
1.966221077e+20
2.059484549e+20
2.141666833e+20
2.228180721e+20
2.313517549e+20
2.365984164e+20
2.396357104e+20
2.430685761e+20
1.019691712e+20
1.023064926e+20
1.026603392e+20
1.036666519e+20
1.05060876e+20
1.057490363e+20
1.070886682e+20
1.082132316e+20
1.108661984e+20
1.137136445e+20
1.159061749e+20
1.187439618e+20
1.225228915e+20
1.26583545e+20
1.309908538e+20
1.358830687e+20
1.428407524e+20
1.49388726e+20
1.572289027e+20
1.662762828e+20
1.753292842e+20
1.844148025e+20
1.929211884e+20
2.027113555e+20
2.118559752e+20
2.203790859e+20
2.278385182e+20
2.343629118e+20
2.389689035e+20
1.018633756e+20
1.020640878e+20
1.025205071e+20
1.033232552e+20
1.038006986e+20
1.040106158e+20
1.049887398e+20
1.064951221e+20
1.077580527e+20
1.088270415e+20
1.096878026e+20
1.119824441e+20
1.138908924e+20
1.169064409e+20
1.197412588e+20
1.244274503e+20
1.283782042e+20
1.334227674e+20
1.388781505e+20
1.451927166e+20
1.536556598e+20
1.607485638e+20
1.696906135e+20
1.78175123e+20
1.881363078e+20
1.98446573e+20
2.058532585e+20
2.147546058e+20
2.220587743e+20
2.284533508e+20
1.00773088e+20
1.006674363e+20
1.012409659e+20
1.015134245e+20
1.019887567e+20
1.026157036e+20
1.036065997e+20
1.042249934e+20
1.047862886e+20
1.068479314e+20
1.082135172e+20
1.092714606e+20
1.1108925e+20
1.135514506e+20
1.162213678e+20
1.182295166e+20
1.211351047e+20
1.242994927e+20
1.298535765e+20
1.345535367e+20
1.396864831e+20
1.479894353e+20
1.565498417e+20
1.65935751e+20
1.755893471e+20
1.832023676e+20
1.938384768e+20
2.035026649e+20
2.134523721e+20
2.208352002e+20
1.008650677e+20
1.015239593e+20
1.015210075e+20
1.020639436e+20
1.023354292e+20
1.022361206e+20
1.022620041e+20
1.028510908e+20
1.034827157e+20
1.037976038e+20
1.041949404e+20
1.063555061e+20
1.077292448e+20
1.089566253e+20
1.111165274e+20
1.138186268e+20
1.167409592e+20
1.208910783e+20
1.230153692e+20
1.27558056e+20
1.335983008e+20
1.389185774e+20
1.44684899e+20
1.529435621e+20
1.613191921e+20
1.693809563e+20
1.792544427e+20
1.882175898e+20
1.974109814e+20
2.06100318e+20
1.011185701e+20
1.011058676e+20
1.015187314e+20
1.017405136e+20
1.013994133e+20
1.016166763e+20
1.020390782e+20
1.023190298e+20
1.0276301e+20
1.0349017e+20
1.038221326e+20
1.052525657e+20
1.058475427e+20
1.065315097e+20
1.079616268e+20
1.097505252e+20
1.116479154e+20
1.144407171e+20
1.180637421e+20
1.223036274e+20
1.262746061e+20
1.320007535e+20
1.369657308e+20
1.41821277e+20
1.489056247e+20
1.579354434e+20
1.660451135e+20
1.75460915e+20
1.850983758e+20
1.950975871e+20
1.001561557e+20
1.001883251e+20
1.000843672e+20
9.995361968e+19
1.008562937e+20
1.011905193e+20
1.021212096e+20
1.023166651e+20
1.027320293e+20
1.024381664e+20
1.036575161e+20
1.036738032e+20
1.039437045e+20
1.051106597e+20
1.062466795e+20
1.074039312e+20
1.094165346e+20
1.124879272e+20
1.152778058e+20
1.175626504e+20
1.211222552e+20
1.252579314e+20
1.311135015e+20
1.361252208e+20
1.421788875e+20
1.492915666e+20
1.564277423e+20
1.641949881e+20
1.724075287e+20
1.808270892e+20
1.001718601e+20
1.000030103e+20
1.005124007e+20
1.006371809e+20
1.007754019e+20
1.007829892e+20
1.005724593e+20
1.004154294e+20
1.011043498e+20
1.017680551e+20
1.021081842e+20
1.024317754e+20
1.031270699e+20
1.041758248e+20
1.047517263e+20
1.05609328e+20
1.061457029e+20
1.082107515e+20
1.103985408e+20
1.1317614e+20
1.162143811e+20
1.199654931e+20
1.237447194e+20
1.289046398e+20
1.338269543e+20
1.391562337e+20
1.451446595e+20
1.522438229e+20
1.609784288e+20
1.712032624e+20
1.016928787e+20
1.01236945e+20
1.005465522e+20
1.007059965e+20
1.006066887e+20
1.009203846e+20
1.010018858e+20
1.011745058e+20
1.015952756e+20
1.010931401e+20
1.018903103e+20
1.028880814e+20
1.030655773e+20
1.031418031e+20
1.043942383e+20
1.061083905e+20
1.070428305e+20
1.077340851e+20
1.094552506e+20
1.099781324e+20
1.12407952e+20
1.143230518e+20
1.168841292e+20
1.203969831e+20
1.244514451e+20
1.29762507e+20
1.361758398e+20
1.428686052e+20
1.50940917e+20
1.588216295e+20
9.888864022e+19
9.991713054e+19
9.995003874e+19
9.99444451e+19
9.965911704e+19
9.997957641e+19
9.99576537e+19
9.975330887e+19
9.97030693e+19
1.004230288e+20
1.004813865e+20
1.005284749e+20
1.017938907e+20
1.026012346e+20
1.029642821e+20
1.040415713e+20
1.048851496e+20
1.060708823e+20
1.070026972e+20
1.086384613e+20
1.098501789e+20
1.11194256e+20
1.133374849e+20
1.158881664e+20
1.193390159e+20
1.234423425e+20
1.278417098e+20
1.345366298e+20
1.40251361e+20
1.474684784e+20
9.977478007e+19
9.941542197e+19
9.939450777e+19
9.960954526e+19
9.971458465e+19
9.914355984e+19
9.98285913e+19
9.954284962e+19
1.000462402e+20
1.009418254e+20
1.006750544e+20
1.012873553e+20
1.01479044e+20
1.022193665e+20
1.031942749e+20
1.035677165e+20
1.040261444e+20
1.044358684e+20
1.046380101e+20
1.062484256e+20
1.07174112e+20
1.093169761e+20
1.115106679e+20
1.140155643e+20
1.164152934e+20
1.199979765e+20
1.233961032e+20
1.272367129e+20
1.32697823e+20
1.384001999e+20
9.88706931e+19
9.875551367e+19
9.888451213e+19
9.922188881e+19
9.926391032e+19
1.001961488e+20
1.009056764e+20
1.010657287e+20
1.009113169e+20
1.008097238e+20
1.011350106e+20
1.014020414e+20
1.011617383e+20
1.014060353e+20
1.008768474e+20
1.016571698e+20
1.014923297e+20
1.01445177e+20
1.026609774e+20
1.033605735e+20
1.04016984e+20
1.053980274e+20
1.065410874e+20
1.084652149e+20
1.108536892e+20
1.137684523e+20
1.172875488e+20
1.216289223e+20
1.244809523e+20
1.293575658e+20
9.988919226e+19
9.967079617e+19
9.968365781e+19
9.99444451e+19
9.985094326e+19
1.002264223e+20
9.982859055e+19
1.005407603e+20
1.011162662e+20
1.009682448e+20
1.00687157e+20
1.007700477e+20
1.007927772e+20
1.004017696e+20
1.002593675e+20
1.003868349e+20
1.001097874e+20
1.009556971e+20
1.015238606e+20
1.024092507e+20
1.032152155e+20
1.045627977e+20
1.062067506e+20
1.077798533e+20
1.086677047e+20
1.09557758e+20
1.118718895e+20
1.150198394e+20
1.199476993e+20
1.239245743e+20
1.000866113e+20
1.010584085e+20
1.016644437e+20
1.008023373e+20
1.005442876e+20
1.002683388e+20
9.987082991e+19
9.97320264e+19
9.924312418e+19
9.907560061e+19
9.911361837e+19
9.904243571e+19
9.95678258e+19
1.001438841e+20
1.0079185e+20
1.01430324e+20
1.023208386e+20
1.028546717e+20
1.038575345e+20
1.038583899e+20
1.053129575e+20
1.052044653e+20
1.043638864e+20
1.055267955e+20
1.069118384e+20
1.079399487e+20
1.098403254e+20
1.121530148e+20
1.141865741e+20
1.186938632e+20
1.010064006e+20
1.006425768e+20
1.006808807e+20
1.008459194e+20
1.006043776e+20
1.008807968e+20
1.009526075e+20
1.010207983e+20
1.002631052e+20
1.002765177e+20
1.000529004e+20
1.005601966e+20
1.005714006e+20
1.010861589e+20
1.013493334e+20
1.01203479e+20
1.01454209e+20
1.019628451e+20
1.01627234e+20
1.020026579e+20
1.022741232e+20
1.023779422e+20
1.041525847e+20
1.045904935e+20
1.065851656e+20
1.075251965e+20
1.093580702e+20
1.104133411e+20
1.120949554e+20
1.142950497e+20
9.986900174e+19
9.906512751e+19
9.921919677e+19
9.939392602e+19
9.961289403e+19
9.9581362e+19
9.923255768e+19
1.000961939e+20
1.003894111e+20
1.003221518e+20
1.009824991e+20
1.012751554e+20
1.01107624e+20
1.006844518e+20
1.00371864e+20
1.006363645e+20
1.001504496e+20
1.008044968e+20
1.006400106e+20
1.010096332e+20
1.0166951e+20
1.029559741e+20
1.032378402e+20
1.04369235e+20
1.046087943e+20
1.052124723e+20
1.061929315e+20
1.076807669e+20
1.095093656e+20
1.104745805e+20
9.95190343e+19
9.936570296e+19
1.000046819e+20
9.977470172e+19
1.002045485e+20
1.002194354e+20
1.004739033e+20
9.974621546e+19
1.001487149e+20
9.981536509e+19
1.00118262e+20
9.930596897e+19
9.937104658e+19
1.003546559e+20
1.006418547e+20
1.010673715e+20
1.016092367e+20
1.013298547e+20
1.021389374e+20
1.023154224e+20
1.020138779e+20
1.020862755e+20
1.016009275e+20
1.029958136e+20
1.040235056e+20
1.051492981e+20
1.049318644e+20
1.055187608e+20
1.074516183e+20
1.088677584e+20
1.001225048e+20
1.004640397e+20
9.968593385e+19
9.982057831e+19
9.949271421e+19
9.977464774e+19
1.00532568e+20
1.010775515e+20
1.011091168e+20
1.01052309e+20
1.011301697e+20
1.012409936e+20
1.016856622e+20
1.01170466e+20
1.010443421e+20
1.01425283e+20
1.013423849e+20
1.007224906e+20
1.007873198e+20
1.010070277e+20
1.017667737e+20
1.029427165e+20
1.035802011e+20
1.034302357e+20
1.027467603e+20
1.039572289e+20
1.05588727e+20
1.074374363e+20
1.085157752e+20
1.096483777e+20
1.009615328e+20
1.009408909e+20
1.013229288e+20
1.013872631e+20
1.012838565e+20
1.009809324e+20
1.003683068e+20
9.980060325e+19
1.001677792e+20
1.003557782e+20
1.000335337e+20
1.006285202e+20
1.003475642e+20
1.004191273e+20
1.007518513e+20
1.009413461e+20
1.011441536e+20
1.012965394e+20
1.012266596e+20
1.013250033e+20
1.009203173e+20
1.005430885e+20
1.007637474e+20
1.011987641e+20
1.021696384e+20
1.033611942e+20
1.033548368e+20
1.038546026e+20
1.043720555e+20
1.058478484e+20
1.003042202e+20
1.000459487e+20
9.990222665e+19
1.003825665e+20
1.00703757e+20
1.0078299e+20
1.007601872e+20
1.003350298e+20
1.004132425e+20
1.005142984e+20
1.004184457e+20
1.009579377e+20
1.01346218e+20
1.015994494e+20
1.008243498e+20
1.008909359e+20
1.007629362e+20
1.011965925e+20
1.014721734e+20
1.015752151e+20
1.014171509e+20
1.011184689e+20
1.01814903e+20
1.019219006e+20
1.020171911e+20
1.016170376e+20
1.030859939e+20
1.03437865e+20
1.043127798e+20
1.051612481e+20
9.792622583e+19
9.839392158e+19
9.850429288e+19
9.867825121e+19
9.832558325e+19
9.800946594e+19
9.860367182e+19
9.908409412e+19
9.892378532e+19
9.875615685e+19
9.934601727e+19
9.813714749e+19
9.800835125e+19
9.802376773e+19
9.806943511e+19
9.878379033e+19
9.895343391e+19
9.859543499e+19
9.81357692e+19
9.868996937e+19
9.934306765e+19
1.003601343e+20
9.969654535e+19
9.979296249e+19
9.94800315e+19
9.969434525e+19
9.986542362e+19
1.00378053e+20
1.008295704e+20
1.022923316e+20
)
;

boundaryField
{
    flow
    {
        type            calculated;
        value           nonuniform List<scalar> 
55
(
2.428235645e+20
2.485442976e+20
2.468748024e+20
2.449887831e+20
2.430685761e+20
2.389689035e+20
2.284533508e+20
2.208352002e+20
2.06100318e+20
1.950975871e+20
1.808270892e+20
1.712032624e+20
1.588216295e+20
1.474684784e+20
1.384001999e+20
1.293575658e+20
1.239245743e+20
1.186938632e+20
1.142950497e+20
1.104745805e+20
1.088677584e+20
1.096483777e+20
1.058478484e+20
1.051612481e+20
1.022923316e+20
9.792622583e+19
9.839392158e+19
9.850429288e+19
9.867825121e+19
9.832558325e+19
9.800946594e+19
9.860367182e+19
9.908409412e+19
9.892378532e+19
9.875615685e+19
9.934601727e+19
9.813714749e+19
9.800835125e+19
9.802376773e+19
9.806943511e+19
9.878379033e+19
9.895343391e+19
9.859543499e+19
9.81357692e+19
9.868996937e+19
9.934306765e+19
1.003601343e+20
9.969654535e+19
9.979296249e+19
9.94800315e+19
9.969434525e+19
9.986542362e+19
1.00378053e+20
1.008295704e+20
1.022923316e+20
)
;
    }
    obstacle
    {
        type            calculated;
        value           nonuniform List<scalar> 0();
    }
    frontAndBack
    {
        type            empty;
    }
    procBoundary3to1
    {
        type            processor;
        value           nonuniform List<scalar> 
36
(
2.388606448e+20
2.488513225e+20
2.48773881e+20
2.470280699e+20
2.457609635e+20
2.457609635e+20
2.109199992e+20
2.197371584e+20
2.288953449e+20
2.342015568e+20
2.397335446e+20
2.410436894e+20
2.410436894e+20
1.538626927e+20
1.618746534e+20
1.699256329e+20
1.792287807e+20
1.876759687e+20
1.876759687e+20
1.147882912e+20
1.171229718e+20
1.219710944e+20
1.259473089e+20
1.305138179e+20
1.359949285e+20
1.359949285e+20
1.028369924e+20
1.031284044e+20
1.037774342e+20
1.051989454e+20
1.056873057e+20
1.071898411e+20
1.091175972e+20
1.091175972e+20
1.012284969e+20
1.012284969e+20
)
;
    }
    procBoundary3to2
    {
        type            processor;
        value           nonuniform List<scalar> 
19
(
1.014740567e+20
1.00280349e+20
1.010731847e+20
1.006901286e+20
1.000064199e+20
1.004251084e+20
1.013315251e+20
9.899978582e+19
9.940288485e+19
9.92135842e+19
9.96990847e+19
1.004028377e+20
1.009239713e+20
9.967235919e+19
9.917572478e+19
1.005720948e+20
1.002647596e+20
1.003048468e+20
9.835839068e+19
)
;
    }
}


// ************************************************************************* //
