/*--------------------------------*- C++ -*----------------------------------*\
| =========                 |                                                 |
| \\      /  F ield         | OpenFOAM: The Open Source CFD Toolbox           |
|  \\    /   O peration     | Version:  2406                                  |
|   \\  /    A nd           | Website:  www.openfoam.com                      |
|    \\/     M anipulation  |                                                 |
\*---------------------------------------------------------------------------*/
FoamFile
{
    version     2.0;
    format      ascii;
    arch        "LSB;label=32;scalar=64";
    class       volScalarField;
    location    "0.01";
    object      rhoN;
}
// * * * * * * * * * * * * * * * * * * * * * * * * * * * * * * * * * * * * * //

dimensions      [0 -3 0 0 0 0 0];

internalField   nonuniform List<scalar> 
654
(
2.991420391e+20
2.06002754e+20
1.940103145e+20
2.517212732e+20
2.96383217e+20
1.994280242e+20
1.824454736e+20
2.1029995e+20
1.988642026e+20
2.54095933e+20
2.428446524e+20
1.633363952e+20
2.197362671e+20
2.078681923e+20
2.936748187e+20
3.246101901e+20
2.706523211e+20
1.74994531e+20
1.386279961e+20
1.651934752e+20
1.793902334e+20
1.421396072e+20
2.736682126e+20
6.571873439e+19
2.518946545e+20
2.808428734e+20
1.349136958e+20
1.633363952e+20
2.472033026e+20
2.355839534e+20
2.237522429e+20
2.82269733e+20
4.700803472e+20
1.310722282e+20
1.080824734e+20
8.472904636e+19
1.342071488e+20
1.352857151e+20
1.363817567e+20
1.624949217e+20
1.638330877e+20
1.397790956e+20
7.68815286e+19
1.550613897e+20
2.345727517e+20
1.840124563e+20
1.856065891e+20
2.273489927e+20
2.158619132e+20
1.76947763e+20
2.472033048e+20
9.700515641e+19
2.51721271e+20
1.552483518e+20
3.276317571e+20
1.016979766e+20
9.1070651e+19
9.175317996e+19
1.040017687e+20
8.150572227e+19
1.05596508e+20
8.276516776e+19
1.07240914e+20
9.607331042e+19
1.08937347e+20
1.586084499e+20
9.838961099e+19
1.487800994e+20
1.749945324e+20
8.821781572e+19
1.27071903e+20
1.409494668e+20
2.067485179e+20
1.042545563e+20
1.70868708e+20
1.060609063e+20
1.872285806e+20
1.618964349e+20
2.858386916e+20
3.296044006e+20
2.494418308e+20
2.237522429e+20
2.96383217e+20
2.27917742e+20
5.608475512e+19
4.519910004e+19
5.691915604e+19
5.734573705e+19
5.777876037e+19
1.047930707e+20
5.866472577e+19
8.276516651e+19
5.957828509e+19
6.004581855e+19
9.683319584e+19
9.760519839e+19
1.721818165e+20
1.115850728e+20
1.124964851e+20
1.512305437e+20
7.624314304e+19
1.922038215e+20
1.55061391e+20
1.694136568e+20
1.708687108e+20
1.325761351e+20
6.68673508e+19
2.023705454e+20
1.08890932e+20
2.06002754e+20
1.940103145e+20
1.957832125e+20
2.258157844e+20
2.991420391e+20
5.608475512e+19
7.909842564e+19
1.935251334e+20
1.032223275e+20
9.24460166e+19
9.314939619e+19
5.866472621e+19
1.537067401e+20
1.191565711e+20
7.205498226e+19
9.683319584e+19
4.880259958e+19
6.149350687e+19
1.487800982e+20
1.249960936e+20
1.890381765e+20
1.27071904e+20
1.025087048e+20
9.045247734e+19
1.172863759e+20
9.200622737e+19
1.458337474e+20
1.203612314e+20
1.484050653e+20
1.088909301e+20
1.785357186e+20
2.771575922e+20
1.678141821e+20
1.975888131e+20
8.546915403e+19
1.458203644e+20
9.039820073e+19
5.691915646e+19
1.376297699e+20
8.089026452e+19
1.397240953e+20
1.407953429e+20
1.891775249e+20
7.149394266e+19
9.607330968e+19
9.683319659e+19
1.342071499e+20
1.229870137e+20
1.363817567e+20
1.249960936e+20
1.134229068e+20
1.397790956e+20
1.153222929e+20
1.809049547e+20
1.563818345e+20
7.886248126e+19
1.193185216e+20
1.738551121e+20
1.753878045e+20
1.76947763e+20
2.19736269e+20
1.801524333e+20
1.53829667e+20
2.258157844e+20
1.709383081e+20
6.730170614e+19
4.519910036e+19
1.024544824e+20
1.835063599e+20
6.933451245e+19
1.047930707e+20
9.386356194e+19
1.182359539e+20
1.07240914e+20
7.205498281e+19
9.683319659e+19
8.540454859e+19
1.35285714e+20
8.678839064e+19
1.124964851e+20
1.008203616e+20
1.27071903e+20
1.02508704e+20
7.753069486e+19
1.172863768e+20
2.102999518e+20
1.856065875e+20
1.604816405e+20
1.753878045e+20
1.225022964e+20
1.785357186e+20
2.355839534e+20
1.678141821e+20
1.552483518e+20
1.994280242e+20
4.486780409e+19
1.242975251e+20
1.252221433e+20
1.261606215e+20
1.271132738e+20
9.314939758e+19
9.386356265e+19
9.458876315e+19
1.191565711e+20
1.441099645e+20
6.052074787e+19
7.320389993e+19
1.106883124e+20
7.439004912e+19
1.374957029e+20
6.301272602e+19
1.143647146e+20
7.68815286e+19
9.045247734e+19
1.042545563e+20
1.051499741e+20
1.723489741e+20
1.069877613e+20
1.214223262e+20
1.633363952e+20
1.098681335e+20
1.108630349e+20
1.817986957e+20
1.975888113e+20
1.4244859e+20
1.346034132e+20
1.242975269e+20
1.252221451e+20
1.261606215e+20
6.933451193e+19
5.821837262e+19
1.52528287e+20
1.064123569e+20
8.340959913e+19
9.607330968e+19
1.210414948e+20
6.100324899e+19
1.229870128e+20
7.439004912e+19
4.999843743e+19
1.134229059e+20
6.353595201e+19
1.025087048e+20
5.168712991e+19
9.122273678e+19
1.708687094e+20
6.628806754e+19
1.604816419e+20
1.349136958e+20
2.313932286e+20
1.373351693e+20
1.108630369e+20
1.957832125e+20
2.399292731e+20
1.851831671e+20
1.12169511e+20
1.016979758e+20
5.691915687e+19
1.032223275e+20
1.848920332e+20
1.397240943e+20
1.290623977e+20
1.182359539e+20
1.191565711e+20
8.406414597e+19
3.631244872e+19
1.220064999e+20
4.919480549e+19
4.959336608e+19
1.249960946e+20
1.134229078e+20
1.016575232e+20
7.688152797e+19
1.938267371e+20
1.303181965e+20
1.314374688e+20
1.458337474e+20
1.337347016e+20
1.214223272e+20
1.361136639e+20
1.098681345e+20
9.700515727e+19
5.593806121e+19
1.270213799e+20
1.709383065e+20
8.973560819e+19
1.016979751e+20
6.830298775e+19
4.587658998e+19
4.62230083e+19
1.164367461e+20
7.039767146e+19
7.094157183e+19
7.149394266e+19
1.321008008e+20
8.472904636e+19
8.540454926e+19
6.149350638e+19
8.678838995e+19
4.999843743e+19
1.26025451e+20
1.143647136e+20
8.96951167e+19
1.421396084e+20
9.122273754e+19
1.445812157e+20
9.280329456e+19
1.069877613e+20
9.443958704e+19
1.225022975e+20
1.510686849e+20
1.801524333e+20
2.237522429e+20
1.552483518e+20
1.28203731e+20
1.233864621e+20
9.039820138e+19
6.830298775e+19
1.376297689e+20
1.271132728e+20
1.397240943e+20
1.290623977e+20
9.458876315e+19
1.310722282e+20
1.20091638e+20
1.45249796e+20
8.540454926e+19
6.149350638e+19
1.239834152e+20
1.124964842e+20
1.134229068e+20
8.895033354e+19
1.153222929e+20
6.460891238e+19
5.212727859e+19
1.445812157e+20
9.280329298e+19
1.471081705e+20
9.443958704e+19
1.361136627e+20
9.61346177e+19
1.108630369e+20
1.258606366e+20
1.129078922e+20
8.546915325e+19
6.730170614e+19
7.909842506e+19
6.830298775e+19
1.146914749e+20
9.24460166e+19
1.164367461e+20
1.290623986e+20
1.773539309e+20
9.532525688e+19
7.205498226e+19
1.089373453e+20
8.540454926e+19
1.475844165e+20
1.239834152e+20
8.749726551e+19
1.764356314e+20
1.27071904e+20
1.665766453e+20
6.460891238e+19
1.042545563e+20
7.886248126e+19
5.303045403e+19
6.68673508e+19
6.745684789e+19
1.361136627e+20
1.098681335e+20
1.385787949e+20
1.118761214e+20
9.879440656e+19
1.282037322e+20
8.973560819e+19
1.016979758e+20
1.252221451e+20
1.032223275e+20
1.386690259e+20
1.280804207e+20
1.173294515e+19
1.53706739e+20
8.340959977e+19
1.681282919e+20
8.472904636e+19
9.760519915e+19
1.475844165e+20
1.239834152e+20
6.249804729e+19
8.821781714e+19
1.397790944e+20
8.969511596e+19
9.045247734e+19
1.563818345e+20
6.571873439e+19
9.280329456e+19
1.069877613e+20
6.745684789e+19
5.444546554e+19
1.785357201e+20
1.385787949e+20
1.118761204e+20
1.129078922e+20
1.994280242e+20
1.009525599e+20
9.039820073e+19
9.107065033e+19
1.605680649e+20
6.933451245e+19
1.280804198e+20
1.290623977e+20
2.128247155e+20
1.549035412e+20
1.080824734e+20
7.262489744e+19
9.760519915e+19
7.379220766e+19
9.918673216e+19
8.749726551e+19
1.134229059e+20
6.353595201e+19
5.12543524e+19
1.162960423e+20
1.172863768e+20
1.445812157e+20
6.628806698e+19
1.203612314e+20
1.888791757e+20
1.225022975e+20
9.61346177e+19
1.108630369e+20
2.097677277e+20
1.270213787e+20
7.122429502e+19
7.851865717e+19
1.581968513e+20
1.366059755e+20
1.146914741e+20
1.040017687e+20
8.150572227e+19
1.055965072e+20
1.064123577e+20
1.07240914e+20
1.20091638e+20
9.683319659e+19
1.220064989e+20
1.352857151e+20
1.239834162e+20
1.249960946e+20
1.512305424e+20
8.895033354e+19
1.537630559e+20
3.876534711e+19
1.172863759e+20
1.182937219e+20
9.280329377e+19
1.337347005e+20
1.079309566e+20
1.225022975e+20
8.240110088e+19
9.700515641e+19
1.258606366e+20
1.552483518e+20
1.424485887e+20
1.346034123e+20
9.039820007e+19
6.830298775e+19
1.146914749e+20
1.040017687e+20
9.314939619e+19
5.866472621e+19
1.300595493e+20
1.310722282e+20
8.406414597e+19
1.69458094e+20
7.320389993e+19
3.689610412e+19
8.678839064e+19
8.749726621e+19
1.134229068e+20
1.27071903e+20
1.15322292e+20
1.421396072e+20
1.042545563e+20
6.571873383e+19
6.628806698e+19
5.349388064e+19
1.618964349e+20
5.444546507e+19
1.236016513e+20
4.157363883e+19
9.789160625e+19
1.411348665e+20
1.139588731e+20
1.009525607e+20
6.779865104e+19
1.366059765e+20
8.028403246e+19
1.271132728e+20
9.314939619e+19
9.386356194e+19
1.418831447e+20
4.766262844e+19
7.205498226e+19
1.089373453e+20
9.760519839e+19
6.149350638e+19
9.918673216e+19
4.999843743e+19
8.821781643e+19
1.01657524e+20
1.025087048e+20
5.168712991e+19
1.172863768e+20
6.571873494e+19
1.193185216e+20
1.203612314e+20
6.745684789e+19
1.088909301e+20
6.866758407e+19
1.108630369e+20
1.118761214e+20
1.270213787e+20
1.709383065e+20
1.121695102e+20
6.779865006e+19
9.107065033e+19
8.028403246e+19
9.24460166e+19
5.821837305e+19
7.039767146e+19
1.300595484e+20
9.532525688e+19
3.602749113e+19
6.052074787e+19
7.320389993e+19
7.379220766e+19
1.487800971e+20
1.499953123e+20
6.301272551e+19
7.624314242e+19
1.025087048e+20
9.045247808e+19
9.122273754e+19
9.200622737e+19
1.060609072e+20
1.337347016e+20
1.079309566e+20
1.361136639e+20
8.240110088e+19
9.700515641e+19
1.678141821e+20
5.64539461e+19
1.566934491e+20
8.973560819e+19
4.519910036e+19
7.968681904e+19
9.175317928e+19
9.244601728e+19
4.657469844e+19
1.055965072e+20
1.064123577e+20
1.191565702e+20
1.80137457e+20
7.262489744e+19
3.660194968e+19
1.598831179e+20
7.439004912e+19
1.249960936e+20
7.561527122e+19
1.397790956e+20
6.40679405e+19
1.033742598e+20
1.172863759e+20
1.577249625e+20
6.628806698e+19
5.349388018e+19
9.443958786e+19
1.088909311e+20
1.236016513e+20
8.314727692e+19
1.398451505e+20
8.468091915e+19
8.546915325e+19
6.730170662e+19
1.24297526e+20
6.830298775e+19
1.949755074e+20
9.24460166e+19
1.280804207e+20
1.055965072e+20
1.418831437e+20
9.532525688e+19
8.406414597e+19
7.262489744e+19
7.320389936e+19
1.475844153e+20
8.678839064e+19
7.499765675e+19
1.638330877e+20
1.143647127e+20
1.15322292e+20
3.876534743e+19
9.122273754e+19
7.886248126e+19
7.954568038e+19
6.68673508e+19
6.745684789e+19
1.361136639e+20
5.493406725e+19
5.543151795e+19
1.258606366e+20
8.468091991e+19
1.139588731e+20
1.794712164e+20
6.779865055e+19
1.138383137e+20
1.261606224e+20
1.386690249e+20
8.150572167e+19
5.866472621e+19
9.458876315e+19
1.07240914e+20
6.004581855e+19
9.683319584e+19
8.540454926e+19
1.598831179e+20
1.239834152e+20
3.749882808e+19
1.26025452e+20
8.895033354e+19
6.40679405e+19
1.292178248e+20
9.122273678e+19
7.886248126e+19
1.458337486e+20
5.349388064e+19
4.047410873e+19
1.088909301e+20
1.098681345e+20
6.928939805e+19
4.195354554e+19
1.411348652e+20
4.273457662e+19
)
;

boundaryField
{
    flow
    {
        type            zeroGradient;
    }
    obstacle
    {
        type            calculated;
        value           nonuniform List<scalar> 0();
    }
    frontAndBack
    {
        type            empty;
    }
    procBoundary3to1
    {
        type            processor;
        value           nonuniform List<scalar> 
36
(
1.851831671e+20
2.060027504e+20
2.771575897e+20
1.957832125e+20
2.68156244e+20
2.68156244e+20
1.954772931e+20
2.628749353e+20
1.325761328e+20
3.075898111e+20
2.293532848e+20
2.858386966e+20
2.858386966e+20
1.62494923e+20
1.008203624e+20
2.795581889e+20
1.15322292e+20
2.067485196e+20
2.067485196e+20
1.429878853e+20
1.080824734e+20
1.573539445e+20
1.708090985e+20
1.475844153e+20
1.363817567e+20
1.363817567e+20
1.129977501e+20
1.138383129e+20
1.032223275e+20
4.622300864e+19
9.314939689e+19
8.21306167e+19
9.458876315e+19
9.458876315e+19
2.13122071e+20
2.13122071e+20
)
;
    }
    procBoundary3to2
    {
        type            processor;
        value           nonuniform List<scalar> 
19
(
1.224886559e+20
1.336239882e+20
6.681199412e+19
1.113533227e+20
5.567666177e+19
1.113533235e+20
1.336239892e+20
1.002179912e+20
8.908265883e+19
3.340599706e+19
1.55894653e+20
7.794732648e+19
8.908265883e+19
4.45413291e+19
1.002179919e+20
8.908265883e+19
7.794732648e+19
4.454132941e+19
7.794732648e+19
)
;
    }
}


// ************************************************************************* //
