/*--------------------------------*- C++ -*----------------------------------*\
| =========                 |                                                 |
| \\      /  F ield         | OpenFOAM: The Open Source CFD Toolbox           |
|  \\    /   O peration     | Version:  2406                                  |
|   \\  /    A nd           | Website:  www.openfoam.com                      |
|    \\/     M anipulation  |                                                 |
\*---------------------------------------------------------------------------*/
FoamFile
{
    version     2.0;
    format      ascii;
    arch        "LSB;label=32;scalar=64";
    class       volScalarField;
    location    "0.01";
    object      translationalT;
}
// * * * * * * * * * * * * * * * * * * * * * * * * * * * * * * * * * * * * * //

dimensions      [1 2 -2 0 0 0 0];

internalField   nonuniform List<scalar> 
654
(
753.6283759
771.0206389
767.1568029
761.8252129
751.5501181
748.4133608
756.7884191
764.022268
771.1779177
764.2375335
766.7441769
766.7315653
761.227215
763.1872733
754.4138264
748.2291275
745.3060928
657.7252614
690.0381153
704.716736
725.2746245
732.8026276
741.2111415
747.4822092
749.9347758
755.1883705
754.0467272
759.1704719
758.9948848
751.386623
753.4616165
750.9971555
743.4690017
464.5045576
487.1766503
511.6417914
544.289394
566.1468295
590.7784871
617.2599609
648.0119015
668.5215113
690.4826813
708.6275414
720.2670292
732.8143169
737.8645692
738.6250997
740.3996763
745.1487641
749.4825059
748.8197713
747.5088243
744.3576674
740.2111578
338.3864756
347.2351249
354.7240676
370.0232795
388.6850417
397.8020086
410.3212034
425.2567244
446.0939889
471.3779307
485.6533094
512.3890966
542.4508903
563.6905139
592.136557
622.5534341
641.6522151
661.4123543
685.4461194
704.0493864
723.4132765
730.8781232
727.5585232
737.1214771
743.1443554
739.4598982
742.6122496
736.9885614
729.6531597
327.4263386
333.4106407
340.7337787
341.0624716
352.3636745
361.9751444
374.1290461
389.0888928
397.1356505
418.138416
433.5129288
459.462875
474.8076115
500.8238354
526.3925774
551.6909889
576.6957347
603.0924908
624.8768739
648.296054
671.0351798
689.5627875
704.3408708
717.2667966
731.0110032
730.7559482
732.4640409
734.1227205
730.1677096
730.366473
320.2358386
323.236513
330.8051381
335.358744
342.6663406
348.6115321
355.0550001
365.9461223
375.6759304
393.9536766
405.1540434
422.5192379
442.2358391
465.481244
495.1225474
509.4350199
536.3360064
560.3113993
586.626801
609.5351586
627.2768838
655.609887
671.3813454
688.142358
705.1798609
711.7431351
722.5257967
725.3387567
727.7409892
720.3934744
315.818746
320.6559228
318.9620436
323.4356945
328.1608948
336.9311029
343.1309432
345.4897511
362.2612212
372.4640815
387.4984135
401.0435411
406.9619332
425.0913752
453.1901377
468.4329926
494.2205176
525.6456397
543.1405108
571.100671
596.6217571
624.3917856
640.3604319
663.7176101
680.9157747
689.4006975
704.5679092
715.5278323
721.788882
719.7774147
313.5008502
315.0713847
319.1854784
319.1971111
319.2233368
326.4961942
336.5693146
338.4927093
346.7836263
357.4429658
366.7891622
376.7090652
387.2948884
398.4115621
417.7732596
434.5430735
454.661114
483.5832865
504.5686748
533.629274
555.3627252
589.9104429
611.9528488
626.4189547
653.1726216
672.2065171
684.1635846
698.7885768
702.3455683
713.7201825
309.4982691
309.7293998
312.5367241
315.9164107
320.285913
322.9686143
328.216948
332.9079506
339.1112625
342.5185585
352.3786286
363.6743142
366.1723282
379.8961279
390.8924671
402.9688272
419.1791151
441.9320542
465.4131246
485.2978101
514.6967187
539.0587377
570.3161285
585.0446599
608.4700596
633.6169921
650.4384237
667.3703943
685.3475206
694.0980611
308.3454779
309.4369819
308.322633
312.4111322
314.0587473
319.5559312
319.8615104
323.4587327
327.7304595
330.4406642
337.6401233
348.2902863
353.5118991
366.0359912
382.5794764
394.7645943
402.2837405
420.308686
431.1483803
454.9922135
473.6730243
494.3410447
520.8072643
546.9634955
566.6503976
593.0286502
617.1154962
636.0157501
655.3559502
669.4074945
303.5753513
302.8081701
303.3685871
308.0223654
308.7423952
313.6351452
314.3047043
318.1562043
323.0103433
322.8355528
330.3678108
339.2701733
346.19533
348.0326868
357.2054191
369.3210413
378.8105047
394.0195546
412.7830512
426.124761
441.0009794
458.7847528
489.9263128
508.8703504
532.2984436
558.1828531
581.5669957
605.7814601
626.884815
650.7599674
304.1177386
305.5473468
307.825077
308.8723504
306.4756794
310.3402569
311.5137172
316.074288
317.1002594
321.6151077
320.1235872
326.5565813
331.0738161
337.4622623
348.0131526
358.0649607
362.7980715
371.8726791
385.5536689
397.7352071
419.0607101
432.4260923
454.7387972
476.8256447
500.8623536
521.5505692
544.446502
575.0725667
600.4486537
617.8575356
301.9722773
301.1368996
303.1631143
308.3890415
308.4038411
306.3366332
310.4940206
310.5846549
313.4692487
318.0037025
324.023161
326.0449976
324.5065834
329.0460944
331.7749433
343.9097218
349.2925735
357.8408362
368.032712
383.9051892
386.6447457
404.9190042
424.5232991
444.7892187
460.4291674
481.2127312
507.989428
533.697586
554.9011789
584.5846501
299.631848
300.3056798
300.7704511
301.9834722
304.5875553
305.3851247
309.6928901
310.2074333
311.0226282
314.1282225
319.308767
318.3749094
325.6360257
327.3086791
330.0472966
335.799975
339.8809644
348.8126732
355.9325357
366.7289422
374.081597
389.1389501
404.4606889
430.0564873
435.7911655
453.4517543
475.7018573
505.2664548
523.3271078
549.548223
301.8395832
300.3678477
299.5944849
301.4416175
306.0593586
305.3700764
306.5145694
307.0190119
307.2961106
308.0478067
313.4423412
314.0313026
317.6471051
318.6339018
325.4418708
331.18017
333.0133952
340.2648356
346.2384965
353.8448316
365.6502151
371.5303531
384.0976413
401.5762437
408.5090428
421.5295159
440.5750803
463.4063766
494.3149938
515.3339783
303.47255
302.8738856
303.5267584
300.6764042
300.3635898
303.371897
304.5681987
304.1526607
305.2415137
306.569276
309.4490997
312.3264079
315.3671484
314.1238592
315.9347181
320.5185465
327.7136949
328.1930466
331.5903669
335.9229939
344.3693999
352.5267182
358.5086192
372.2422131
388.0779715
403.4703921
416.7696268
439.0656704
456.1135279
479.6770101
300.8217038
303.1280306
302.8192621
303.5464938
301.9808029
302.1141899
304.4654361
304.2500161
302.9661278
303.3191911
303.0831675
304.2466855
308.4405005
311.4044006
312.4058329
313.239043
317.3600735
323.0992645
327.0208662
328.7237496
333.6625197
343.4156925
352.2580243
360.0736485
375.414922
381.9514493
396.8858812
409.5719181
427.0104217
448.1755982
298.5948967
297.5333079
297.8452245
300.7562131
303.472496
302.7309345
302.0331295
303.57548
301.874593
301.1233481
303.3578183
305.2465318
307.2323877
308.1254998
309.8570528
310.1865708
313.6247479
317.1317349
320.3285215
323.0100666
326.3680484
334.2220352
339.1187102
352.8925136
357.1341166
372.7619564
381.1782289
392.443771
405.2048918
420.4955651
299.2960439
299.3629017
299.6124622
301.3400388
301.6465311
302.3925889
301.2511319
299.1002072
302.0766375
301.6203406
302.8963174
302.2851222
302.0835463
304.5981929
308.8288344
309.5137748
310.175896
309.2616081
314.3589716
317.2547114
320.8425294
325.0080342
326.6246783
336.7017853
343.7485232
356.8799203
364.9273874
374.2307374
392.965148
401.675585
302.0977738
303.1125383
300.5334115
298.6709506
296.5197775
296.6326979
298.257185
299.1549484
302.1811434
301.757429
301.6295831
302.3229334
300.9203801
302.2740395
305.2712873
306.1151905
308.4157846
310.883149
311.6561959
314.460661
315.8926458
319.4755167
323.1074905
326.6135183
328.637976
337.5895292
346.2757286
360.0268342
369.3322768
383.7897587
302.0760587
301.6560077
301.0988584
300.9313105
302.448711
300.8092928
299.8030005
299.8820356
298.7181113
300.5487185
301.6690082
305.2665477
306.9099651
305.5470989
306.5048622
307.9849691
309.6008569
308.3990684
306.7428727
310.2129242
315.4055868
319.7333174
318.7598154
323.829902
326.0258976
335.1396667
339.5533112
346.9691403
357.026768
368.3542741
299.741342
299.9731103
299.8808402
299.8834631
301.6804452
303.619954
302.7943487
301.9369836
302.4624118
300.6370183
300.0756654
300.2348387
301.2989319
303.1149866
305.0345289
303.1396651
302.9136786
305.5988039
305.5293609
306.8626068
311.762732
312.4943545
315.7613993
316.769992
320.001427
322.1565038
330.0249075
335.534005
343.3703026
356.0901574
297.4878441
299.6724481
302.1688573
301.3086062
300.5786916
299.2055084
300.7826891
301.1760085
301.5024556
301.1453619
303.0939172
302.7846146
303.3528401
301.6441402
301.8952003
305.0688881
303.5838421
306.6218464
304.1744608
303.053472
304.9082645
310.5785085
313.3766001
313.5281647
316.6914365
314.5994575
318.3080682
327.579921
329.7011241
340.2613151
)
;

boundaryField
{
    flow
    {
        type            calculated;
        value           nonuniform List<scalar> 
55
(
753.6283759
748.4133608
745.3060928
743.4690017
740.2111578
729.6531597
730.366473
720.3934744
719.7774147
713.7201825
694.0980611
669.4074945
650.7599674
617.8575356
584.5846501
549.548223
515.3339783
479.6770101
448.1755982
420.4955651
401.675585
383.7897587
368.3542741
356.0901574
340.2613151
297.4878441
299.6724481
302.1688573
301.3086062
300.5786916
299.2055084
300.7826891
301.1760085
301.5024556
301.1453619
303.0939172
302.7846146
303.3528401
301.6441402
301.8952003
305.0688881
303.5838421
306.6218464
304.1744608
303.053472
304.9082645
310.5785085
313.3766001
313.5281647
316.6914365
314.5994575
318.3080682
327.579921
329.7011241
340.2613151
)
;
    }
    obstacle
    {
        type            calculated;
        value           nonuniform List<scalar> 0();
    }
    frontAndBack
    {
        type            empty;
    }
    procBoundary3to1
    {
        type            processor;
        value           nonuniform List<scalar> 
36
(
760.3721574
776.4963582
771.0820591
768.9441299
760.9800878
760.9800878
768.7151127
769.8944565
774.2649872
768.7275256
774.6950796
768.7413886
768.7413886
706.1698265
723.8404594
738.2676559
748.8340365
754.8523712
754.8523712
508.3745911
530.080411
562.6790036
586.8593698
608.8488312
632.3884041
632.3884041
352.4396161
359.5535259
372.6938521
394.6989595
415.1913306
420.2343193
436.3708757
436.3708757
334.2203805
334.2203805
)
;
    }
    procBoundary3to2
    {
        type            processor;
        value           nonuniform List<scalar> 
19
(
320.44138
313.000714
310.4966846
309.0016598
305.7632089
306.1756626
300.2379247
304.1462904
301.2868648
299.9910886
301.6165022
301.6788656
300.6911296
298.026369
298.1716203
301.0657564
300.7408978
300.2899049
297.2129694
)
;
    }
}


// ************************************************************************* //
