/*--------------------------------*- C++ -*----------------------------------*\
| =========                 |                                                 |
| \\      /  F ield         | OpenFOAM: The Open Source CFD Toolbox           |
|  \\    /   O peration     | Version:  2406                                  |
|   \\  /    A nd           | Website:  www.openfoam.com                      |
|    \\/     M anipulation  |                                                 |
\*---------------------------------------------------------------------------*/
FoamFile
{
    version     2.0;
    format      ascii;
    arch        "LSB;label=32;scalar=64";
    class       volVectorField;
    location    "0.01";
    object      UMean;
}
// * * * * * * * * * * * * * * * * * * * * * * * * * * * * * * * * * * * * * //

dimensions      [0 1 -1 0 0 0 0];

internalField   nonuniform List<vector> 
654
(
(1308.071903 414.0273327 -0.4534492688)
(1349.060282 437.5263681 -1.293028619)
(1339.984547 438.8029919 -0.09831508145)
(1333.302183 433.2703315 -0.5333475767)
(1335.742617 427.9760657 -0.2115998213)
(1327.806711 423.6690496 -0.2509204466)
(1432.022933 380.5949499 2.708990554)
(1420.888158 391.7589611 0.2588340717)
(1407.236352 409.6459661 -2.553855544)
(1397.977513 417.0668621 -4.60779392)
(1386.22952 430.6244913 -0.9743615161)
(1369.979694 434.9961864 -4.523838339)
(1369.895314 433.9510906 -3.625744738)
(1363.522737 437.9344022 -2.457660781)
(1358.813151 440.5211053 -2.424926125)
(1355.464695 435.1659116 0.1939781539)
(1349.913107 429.1403953 2.010313055)
(1552.093218 238.5452742 0.9022102686)
(1530.651779 262.0710864 -1.317739469)
(1514.336525 287.282683 1.344664797)
(1496.100974 309.1096289 -4.557655854)
(1474.652878 330.2829149 -3.624891467)
(1462.516216 355.3642905 -3.736033416)
(1446.32573 369.6933827 -1.546846848)
(1432.652587 384.5179593 -4.558329356)
(1419.608505 403.4587195 -4.801320247)
(1413.334893 413.4561346 -1.739162065)
(1402.342651 426.4988344 -0.4016366401)
(1385.949632 435.3307435 -2.781270803)
(1383.951563 436.3333941 -1.711065444)
(1375.149963 433.6573445 -1.309388781)
(1369.688167 437.059213 -4.476125864)
(1370.333487 434.5649667 -2.353441809)
(1666.298287 82.38392007 1.317542826)
(1657.859007 94.38206281 0.4661565824)
(1645.896055 113.7916508 1.846806449)
(1633.617445 131.9694456 5.466352178)
(1624.740794 155.1361216 4.874363417)
(1606.567531 174.6165967 -1.567370631)
(1589.165033 193.8346896 -1.011496883)
(1566.366295 221.2664683 -2.673069678)
(1551.841158 246.9487437 -3.941356114)
(1532.931942 274.9117841 -3.164184572)
(1513.783596 296.3202311 -4.935621367)
(1494.709928 318.822761 -0.8120134934)
(1478.580401 345.0313532 -2.02088882)
(1463.43193 362.4222896 1.815229895)
(1448.15721 378.8530144 -0.4950942792)
(1434.678677 395.5297277 -3.068397406)
(1425.635188 411.0078462 -3.65779533)
(1411.64823 425.4560173 -3.555284965)
(1398.907039 428.2324845 0.8097194352)
(1393.470863 434.9716767 1.834638331)
(1387.142699 437.6765726 0.2669636494)
(1385.405989 434.1217279 0.4965553371)
(1722.449936 16.97987737 2.461072027)
(1717.001729 20.36643041 2.256603849)
(1714.487303 26.05264365 2.895149625)
(1709.768259 31.29652304 2.082888045)
(1703.875871 39.02416923 0.6225408709)
(1701.684428 46.39617353 1.588587396)
(1694.009513 55.34574766 2.834968314)
(1684.155817 63.79825872 2.87690173)
(1675.673989 75.07119585 -0.07681762061)
(1664.519903 89.70789582 -1.820927791)
(1655.22167 102.1792634 -4.657021755)
(1643.268157 121.016564 -2.985792753)
(1630.260307 139.6383981 -0.6706223592)
(1619.190557 163.0344782 -1.525384354)
(1599.974073 187.2591414 -2.409691684)
(1579.394452 209.1108986 -1.745019451)
(1563.23836 230.3529563 -1.594012602)
(1547.175196 260.5142933 -2.002976363)
(1527.34681 283.2935304 -0.6054305905)
(1506.335289 308.4212479 0.06963000608)
(1493.484184 333.3345211 -4.076713182)
(1477.314511 352.8695542 0.1934057471)
(1466.789458 372.8020599 0.7306362247)
(1449.916509 389.2438864 -1.136954745)
(1440.006305 401.6874273 0.06875925951)
(1430.602231 415.6467213 0.4959004618)
(1414.891476 424.5658477 -1.738050647)
(1411.812581 427.7873156 1.794188323)
(1403.015057 436.5864423 1.627227279)
(1725.842292 11.91762912 -0.4135009117)
(1725.603452 15.71094871 -0.4968743362)
(1721.727683 19.0967581 2.059693042)
(1723.176345 18.40384631 0.8833528131)
(1718.970863 21.85876761 1.360457014)
(1713.263437 28.08323076 2.00251402)
(1707.81891 37.44790311 2.309574593)
(1702.940728 44.84192067 0.727339661)
(1698.923601 51.14863305 -2.280917249)
(1689.510301 58.1255947 -0.9709925862)
(1682.459815 66.43550344 -0.2484496343)
(1673.221115 83.16190057 1.204734169)
(1663.800458 95.77863232 1.423595811)
(1650.708439 113.0231419 3.329548315)
(1637.465101 129.7869492 5.622307723)
(1624.27984 149.9992901 3.270747214)
(1610.329989 174.2037025 0.7524270704)
(1596.335828 200.5429396 -0.1410472168)
(1581.362934 222.1956415 -1.99125281)
(1560.518491 247.8032699 -2.743562693)
(1539.462439 272.1499532 -3.968668626)
(1524.998912 298.3284914 -3.697858717)
(1505.719969 323.029073 -3.077402091)
(1489.208021 343.6236312 2.625977375)
(1473.129152 362.2811872 0.2801109828)
(1457.625973 383.3573654 -2.076494728)
(1447.700915 396.7332083 -0.7555925696)
(1439.511546 411.6274678 -1.465464367)
(1429.548903 422.5037703 -1.210632517)
(1422.875358 428.9661729 -1.320071101)
(1731.810934 9.552636695 0.9708255558)
(1730.324253 8.440213314 -0.3153258404)
(1728.063366 13.07886421 0.3747354305)
(1725.155959 13.88336936 0.1206969263)
(1722.893633 17.82268819 -2.01865041)
(1719.570187 21.30723272 -0.1740596865)
(1717.093846 23.44878487 1.022448859)
(1715.068467 28.28296595 -0.04014532627)
(1710.858782 36.4408116 1.22264639)
(1699.821774 47.13270723 -0.7485788672)
(1693.107982 56.73641758 -2.77208396)
(1684.96231 63.85695727 -4.435677539)
(1679.711068 76.8722544 -4.156778368)
(1667.51642 90.9038206 -5.225669498)
(1652.553726 108.3338757 -5.49839826)
(1644.709231 122.7457924 -4.028856468)
(1632.398319 143.8175119 2.135896833)
(1619.238283 164.9168654 1.580366742)
(1600.770523 188.6827892 3.410728457)
(1588.540327 210.5997122 2.206563675)
(1576.274683 233.8759584 2.867625122)
(1550.379529 263.3303069 0.4503467956)
(1534.194376 285.7680312 -3.743052335)
(1515.644197 307.2335294 -3.297712881)
(1496.140436 330.4661619 -0.4102745945)
(1486.023646 351.8503124 1.321880263)
(1470.449343 373.7035498 0.8236947472)
(1459.72923 388.5594213 -0.4108452692)
(1447.731118 403.1206854 -5.035738786)
(1438.910931 413.3022023 -4.646112149)
(1732.189636 8.297479498 1.11613283)
(1729.841014 8.551063364 2.094856602)
(1728.644676 7.74590121 0.195557494)
(1726.962058 10.64291934 -1.678957348)
(1725.579311 12.24628502 -2.011212761)
(1722.881028 16.43304341 -3.458779108)
(1718.411636 21.58051492 -2.714658442)
(1714.617313 23.73036122 -2.251203527)
(1711.460344 29.29684413 -1.539244693)
(1707.632476 34.21541304 -0.7395696103)
(1701.15121 38.48899607 -0.6360527107)
(1693.899811 46.92000981 -1.824197187)
(1691.305539 55.36159927 0.5315060713)
(1684.923304 69.55585681 -1.610415558)
(1673.367169 86.48843601 -1.450449366)
(1666.992195 102.8399168 -1.607031935)
(1655.305833 118.0019061 -1.89763316)
(1640.298497 137.3318335 -2.14141766)
(1631.803724 156.9021412 -3.62485239)
(1613.912219 179.4576654 -2.561349802)
(1597.46809 201.0394112 -2.726588697)
(1581.783502 224.8864831 -2.208203687)
(1567.221827 242.4615566 0.2059372485)
(1545.6016 271.2269755 -2.81389701)
(1525.283696 297.5470519 -2.778131388)
(1514.194145 319.6035826 -3.057171988)
(1494.89185 345.2512018 -3.150095973)
(1481.555406 366.7399458 -0.06830630236)
(1464.197247 384.092829 1.625762858)
(1456.468646 395.9518031 -0.7426598206)
(1732.576081 3.441039807 0.03751817601)
(1729.480437 4.366257557 -0.2252923489)
(1730.492087 6.219814411 -1.103804415)
(1727.728914 8.693979345 -1.619690206)
(1728.841682 13.13461418 -0.07069272029)
(1727.139844 15.42460788 -0.364202379)
(1723.76942 17.32120776 -3.52839007)
(1724.58306 19.50408528 -2.088705135)
(1720.978651 21.63584824 -1.705498214)
(1718.063424 25.40892783 -0.03018751363)
(1714.306127 33.18687627 -0.01104598252)
(1709.504963 40.40012492 -2.032830114)
(1703.519771 47.83570117 -0.6673852637)
(1696.255677 55.1327881 0.5784720308)
(1691.984191 64.00704913 0.09328770067)
(1683.895222 75.89162375 -3.094941336)
(1672.553484 92.27101395 -4.081039325)
(1659.558912 112.7895865 -4.301349311)
(1649.027953 128.6768127 -4.022239907)
(1634.513481 147.6240625 -3.945356693)
(1621.643541 165.0744508 -2.428047142)
(1599.350957 187.9563131 -2.22984371)
(1585.297671 213.4798269 -3.852790464)
(1574.795307 236.093408 -2.15226241)
(1555.525369 261.0205371 -0.8150913574)
(1535.475903 290.8188877 -5.173744331)
(1520.666829 310.9033282 -2.953450773)
(1501.651368 333.3892794 -1.881199234)
(1490.17849 353.6393489 -1.074059735)
(1476.867375 373.2751752 -1.005848507)
(1730.20635 -1.153458515 0.2923635198)
(1731.294483 -0.03752591125 -0.2861838919)
(1729.039272 4.609432384 0.9445227993)
(1729.100599 7.506398894 0.9083909357)
(1727.223751 9.196898249 1.782928894)
(1727.632602 10.21061825 2.453050022)
(1725.731777 11.19099626 3.749978367)
(1725.900234 15.53209929 1.160080253)
(1722.4311 18.94357369 0.6660123568)
(1720.829378 21.42689304 0.7932199708)
(1716.955395 27.11338737 1.257777903)
(1713.519812 33.45540551 1.789377315)
(1712.29718 36.8633284 -0.641036371)
(1706.125219 45.26707663 -3.118247443)
(1701.163042 53.94419357 -3.648888641)
(1694.693778 61.47161147 -3.26509006)
(1687.474196 72.24054557 -2.187432693)
(1679.313177 83.14986247 1.138650264)
(1668.802937 99.49433391 1.097100254)
(1656.27335 118.9056157 -2.943002697)
(1640.546519 139.078803 -0.04780489561)
(1626.801658 155.88853 -0.8990403856)
(1610.797777 181.9693861 0.829978444)
(1597.330513 199.1782009 1.038705046)
(1582.111792 224.2855882 -0.4014587262)
(1564.074627 246.6461803 0.1969953806)
(1548.555338 275.7718301 -0.9027189555)
(1534.057943 302.8915234 1.406423329)
(1517.239261 330.6435974 2.569940131)
(1498.574045 348.1390997 2.284144849)
(1733.933478 1.841388005 1.442300185)
(1733.555314 2.756445119 0.1909802512)
(1733.170012 2.517486528 -0.8371323719)
(1733.033523 1.463154341 -0.001947493147)
(1730.580657 2.805512971 -1.730205022)
(1730.422329 4.633778305 -1.641788076)
(1729.082836 7.842680466 -0.5046566221)
(1728.101289 11.59804393 0.9138046329)
(1726.097319 15.71495565 -1.030966212)
(1724.402361 16.85403409 -1.370809573)
(1723.047447 20.9209423 -1.53823376)
(1716.651068 26.49051249 -0.770877858)
(1714.593196 34.04166385 2.237135343)
(1714.604205 37.70346479 1.990612968)
(1706.595844 40.85457904 1.087249416)
(1705.009318 46.29290096 0.830864432)
(1700.419462 54.25036869 2.780277305)
(1691.019883 66.22029468 -1.348785369)
(1682.993534 76.1638406 -0.7444738422)
(1673.403735 90.42111801 0.01187424964)
(1665.172758 104.5077857 -2.846367305)
(1656.341651 124.6650961 -3.80614487)
(1641.104989 144.2899621 -3.352283988)
(1626.188228 167.0872835 -4.6016821)
(1609.797021 188.7663486 -4.220487812)
(1591.498895 219.5730396 -2.881488014)
(1580.017126 244.875288 -2.29911497)
(1559.297023 270.5653304 0.1022571257)
(1541.766305 293.9830306 -2.260583232)
(1526.323871 315.8835713 -3.388684918)
(1733.71745 4.351463573 -4.245898983)
(1734.85182 4.468213637 -3.142122688)
(1735.380781 3.846026063 -3.096457929)
(1734.652286 3.363888618 -0.8099626225)
(1733.702476 5.324431797 -0.6534766157)
(1733.193826 8.583138754 -0.2119503131)
(1732.84507 8.727347824 -1.401697627)
(1728.743425 9.182229006 -1.147906736)
(1727.584374 11.52015674 -2.137549265)
(1729.951944 15.72686096 0.2435925574)
(1727.238189 18.38779648 0.899441225)
(1724.352635 22.29380872 -1.497292581)
(1720.951759 24.20948435 -2.035769953)
(1719.293681 24.03244799 -1.012585699)
(1715.666971 32.26277725 -1.351679653)
(1710.453662 38.78542321 -1.41366669)
(1706.029551 44.54477644 -3.555773954)
(1700.338633 50.61465387 2.508419645)
(1694.618174 60.06822861 -2.001962882)
(1688.691352 73.14250251 1.145071243)
(1678.971882 83.9041463 1.015887237)
(1670.364229 98.38635154 1.373663431)
(1659.340295 119.1049549 1.664509941)
(1649.06258 140.4330607 0.5655178618)
(1635.629293 160.6153071 -0.5293331348)
(1618.167225 183.2763172 0.5925432292)
(1598.560236 208.6767688 -0.4126753394)
(1586.63764 234.5526458 -2.729184461)
(1571.037737 255.5813111 -4.525666394)
(1552.264816 279.4458439 -3.920306112)
(1738.600242 -0.07471613197 0.08280343634)
(1737.399791 1.675431046 -0.251049499)
(1735.141152 4.06335917 -1.3076884)
(1732.076968 5.191244817 -4.120158323)
(1730.751187 4.648856624 -2.493953784)
(1730.911074 2.999490255 -2.293875804)
(1732.986101 4.548781849 -0.2420056015)
(1731.862173 7.478432222 -2.184793702)
(1732.134887 11.08336483 -0.8716234391)
(1729.470728 11.70375031 -0.560259864)
(1730.616806 11.28474748 -0.3646727582)
(1729.578385 11.22150139 0.542927105)
(1727.058716 15.11225755 -0.5405747554)
(1723.303464 20.41882696 3.526966864)
(1718.228598 26.3513058 3.721606051)
(1715.825035 29.3649564 2.250493196)
(1711.118051 31.99703137 1.381851456)
(1707.642 37.2599946 -1.152555003)
(1700.158434 48.1244299 -1.910512426)
(1695.778789 57.77647652 -0.5695396869)
(1687.282365 70.9628039 -1.449856528)
(1682.934874 81.10518182 -0.6300675726)
(1670.315543 96.47731672 -1.392823554)
(1660.49372 115.3767161 -1.851090248)
(1648.820092 129.9329373 -1.173869443)
(1638.443539 148.5305417 -1.930666426)
(1626.85705 171.1526636 -1.177109015)
(1608.181014 193.9196525 -4.586037908)
(1591.502504 220.0217349 -0.9805110957)
(1573.621479 249.5227638 -0.3299983958)
(1732.241509 -0.07614679076 -2.567907857)
(1733.080616 1.149297207 -3.225767206)
(1733.664967 1.598559955 -2.54055728)
(1732.943373 2.682573305 -1.682559966)
(1735.194824 5.029447269 -1.155954955)
(1733.903333 5.961134421 -1.272792049)
(1731.268016 6.669865871 -1.650190001)
(1732.7585 4.760830894 0.8127011078)
(1733.421752 4.068493005 1.255975887)
(1731.101362 6.096203984 -1.03460699)
(1729.068087 9.540957629 -1.984789643)
(1727.145311 11.22738392 0.1994193477)
(1727.777994 9.158950628 0.1486041194)
(1727.32377 9.064404734 -3.293930621)
(1723.635781 12.55962112 -2.551794856)
(1721.153513 21.59471825 -4.097070795)
(1716.519268 27.98255529 -2.774657289)
(1713.15805 34.24551967 -0.8418720956)
(1708.255544 40.2053293 -1.067294502)
(1699.948803 44.96525902 -2.594626471)
(1699.906273 51.5530386 -1.794026655)
(1692.123202 65.60531818 -3.131815371)
(1685.28961 78.63986979 -1.228969356)
(1674.677968 87.65270909 1.348129434)
(1666.489686 105.1515659 2.732200528)
(1657.785838 120.575631 3.917500663)
(1643.029518 141.9043515 4.230730381)
(1627.48503 164.5042129 4.648501573)
(1614.143873 186.6709094 3.451054833)
(1600.152607 212.7270465 3.346751789)
(1734.991797 0.898928053 -0.1889578338)
(1738.261721 -0.7577432287 0.7573691942)
(1736.678224 0.5157496879 1.05752434)
(1737.638991 2.035403356 0.6171340104)
(1735.639214 1.131931553 0.9240083215)
(1735.406164 1.7969128 0.1305537487)
(1731.628625 1.728610777 0.7082583373)
(1731.065579 3.268291055 -0.5243195443)
(1729.735324 4.135630986 -2.809876145)
(1730.106626 4.069233067 -4.68725423)
(1729.10479 3.571202905 -2.921114586)
(1729.079525 3.862108513 -3.008826149)
(1728.110368 9.907382119 -2.762387698)
(1727.907286 12.14222269 -0.6192528743)
(1725.573441 14.98524681 0.890977052)
(1720.321797 13.78307671 -0.6402113638)
(1721.828108 16.99737662 0.8869292284)
(1717.35854 24.19100511 -2.579017716)
(1715.957559 30.0770028 -0.5469155791)
(1713.077781 39.4434264 2.043912034)
(1707.992342 42.61988992 2.487391314)
(1699.990826 49.33815131 2.746990778)
(1693.380611 57.0845224 -0.718402561)
(1683.878104 70.55018459 -1.094731627)
(1678.363185 77.11187684 -2.886105325)
(1669.030084 94.22572227 -3.301746545)
(1658.387331 114.9580977 -3.510644373)
(1643.710077 136.7148827 0.1970893485)
(1633.384006 157.8986313 0.7536673189)
(1619.525857 183.0989942 1.60205019)
(1737.210235 2.932911339 2.590056458)
(1733.980082 3.198418402 2.734926363)
(1735.717198 1.693044221 3.398925731)
(1733.667142 -0.5268265313 0.7270122384)
(1733.301396 -0.9603199933 -0.814606914)
(1736.101007 -2.295742776 -1.108141393)
(1735.922191 -3.057958518 -2.433299388)
(1733.588895 -0.7383758867 -1.785693239)
(1733.00797 -0.739586554 -1.567043566)
(1732.125115 0.3728900005 -1.817370601)
(1731.84427 4.33321286 -4.085099505)
(1730.627091 6.467098859 -4.810062918)
(1728.859104 7.399196586 -3.257981964)
(1726.382534 11.47450031 -4.473116298)
(1724.127602 15.36565655 -5.076649329)
(1721.864752 19.997165 -3.207610917)
(1722.568129 20.51639276 -2.244643202)
(1722.330848 21.12908172 -0.7694542939)
(1717.28276 21.67201624 -0.8108934797)
(1717.245236 24.06307962 -2.283289696)
(1716.552661 31.18946645 -2.274251566)
(1713.081171 37.15493871 -0.2067051317)
(1706.111017 44.52804763 2.036382958)
(1698.857463 57.78761342 0.8953802328)
(1692.977368 66.75485931 2.271559095)
(1688.436024 77.2808784 0.6089004304)
(1677.204585 88.40166389 0.4300881513)
(1665.555826 105.6649137 -1.425810989)
(1650.348581 128.3783956 -2.690688269)
(1636.156153 146.6019928 -3.050892743)
(1736.195791 3.315401931 -2.647516056)
(1734.735536 0.8243370564 -3.630855193)
(1734.550357 0.6021698156 -3.937019602)
(1736.336622 1.238159263 -5.088946006)
(1735.256261 1.742930083 -4.003165926)
(1733.692988 2.283772678 -1.970321495)
(1734.282918 2.029785817 -1.168192967)
(1733.963961 -1.453976077 -1.211571145)
(1732.659504 0.08885683227 -1.171156129)
(1733.932379 1.075693895 -0.6189910196)
(1730.217667 4.193410221 0.6212567398)
(1729.587644 7.728667749 0.563675027)
(1727.734361 10.80848232 0.3730478559)
(1729.224879 9.338675057 -2.039292327)
(1730.584826 10.13102452 -2.639604131)
(1729.690983 9.473001262 -2.304401866)
(1725.15296 12.27947096 -1.845547336)
(1722.322144 14.68277274 -2.227926355)
(1723.583919 17.90300464 -1.268433555)
(1721.706687 19.20034072 -0.9518052788)
(1715.588327 23.91226361 -1.057270006)
(1713.207085 30.51816569 -3.230900689)
(1712.677548 39.26831483 -3.955359132)
(1708.048268 47.19501862 -3.824709261)
(1701.948772 55.38964959 -3.364430397)
(1698.937051 62.86089246 -2.862768279)
(1693.381413 72.53947463 -3.88694224)
(1682.969105 86.11026568 -3.025955193)
(1671.52314 100.68174 -2.614518347)
(1654.930441 119.807874 -1.029952655)
(1735.075382 -1.847460355 -3.153357638)
(1735.695758 0.4829994888 -1.694116208)
(1735.578267 1.786577253 -1.567850708)
(1736.11156 3.090380164 -1.54879783)
(1736.755346 3.451471386 -1.948134088)
(1736.017024 4.140505274 -3.392230992)
(1733.499064 3.971840931 -3.568420975)
(1733.479893 5.527592262 -4.194463938)
(1733.833056 6.072254496 -0.8759058137)
(1734.044468 3.478807102 2.292487414)
(1733.646793 5.347870152 1.989206148)
(1733.555912 3.665337162 2.911245206)
(1734.891155 5.191621108 2.421617698)
(1733.094811 6.120511341 1.94716163)
(1731.349793 2.337264498 1.728161506)
(1730.563575 5.13006954 1.896346861)
(1731.076008 9.006681915 1.22404565)
(1728.899491 11.39119473 -0.2749358367)
(1725.509353 13.10693368 -2.072236976)
(1723.85798 17.81808242 -2.900771641)
(1721.034155 24.2358799 -4.350330859)
(1719.799164 27.13528928 -3.234855404)
(1713.226037 29.74749894 -4.66047362)
(1713.014909 33.3487025 -4.273439148)
(1708.101835 43.54874713 -2.771527522)
(1701.830648 49.30133701 -2.879804681)
(1696.187757 60.32145171 1.13606835)
(1693.360625 69.31244312 1.532281195)
(1686.827636 81.1468311 3.101957888)
(1678.644541 99.956934 1.158970244)
(1735.510606 0.4315340968 -1.074328422)
(1737.116854 2.611393579 -1.710943339)
(1734.967164 3.256177032 -1.38051468)
(1733.266189 2.104160395 -1.073903847)
(1733.070813 0.1729409893 -1.159754452)
(1731.705379 1.678117918 -0.2467119679)
(1733.059077 4.258049645 0.2971216152)
(1732.744911 3.556153054 0.913775337)
(1733.056201 3.410699647 -2.35424723)
(1732.393948 3.56337653 -0.7186298476)
(1731.833599 3.852445386 0.1066611539)
(1730.609575 3.109296496 0.4093723813)
(1729.850903 1.06968945 0.8601947114)
(1732.274536 3.714407907 1.21014307)
(1732.84094 5.354278619 1.923172283)
(1731.745154 7.31775695 1.327917718)
(1730.221606 6.346601661 -1.170998054)
(1727.820384 7.741305901 -0.007065834899)
(1727.300785 12.16317678 2.393233063)
(1729.094173 10.98729403 3.421411074)
(1728.233469 12.18058426 3.939186911)
(1724.091491 17.29638581 5.667347303)
(1723.279471 23.12730718 6.26070891)
(1715.964865 29.0832973 5.25866704)
(1711.112732 33.23360985 4.536643591)
(1707.624016 43.18735428 6.823348331)
(1706.120004 46.75264424 4.841054502)
(1698.906005 56.26630431 3.57306984)
(1694.770767 67.58908033 2.223331118)
(1688.300858 75.834021 1.424057733)
(1736.420547 0.9446970764 0.6110695973)
(1733.934843 -1.75493926 0.02574141158)
(1733.261772 -1.950868291 -0.2296349641)
(1731.816946 -1.984667325 -0.7957914984)
(1731.798321 0.3826006615 -1.391049845)
(1729.740989 1.15986223 -1.132840483)
(1730.959346 1.225366021 -1.098685774)
(1732.380061 3.215896705 -0.4359063269)
(1733.936695 2.283905517 -0.1090615964)
(1731.122059 2.805305855 -1.732284597)
(1733.113977 2.090437108 -2.465028875)
(1734.476314 1.680610782 -0.5661246564)
(1731.846441 3.967556969 -2.909944351)
(1728.247236 3.983371616 -1.785232424)
(1726.263855 5.404732671 -3.968328646)
(1728.151637 4.318464624 -3.417549109)
(1731.120427 5.78161602 -1.548036229)
(1728.71299 6.989116649 -0.8710157732)
(1728.239923 7.993333202 -2.920168286)
(1726.598311 8.245669078 -1.478504387)
(1725.739335 12.53415734 0.7651891203)
(1722.48674 13.471744 0.6863815991)
(1722.045503 16.77358776 0.3076714339)
(1720.347116 21.84608157 -0.03983505211)
(1719.023979 24.79390408 0.9807636542)
(1713.497288 32.00780395 0.5166532936)
(1710.474328 42.38420992 -0.6659923523)
(1708.693146 47.91794205 -2.677740127)
(1697.897943 55.64966062 -0.3416029651)
(1692.967747 63.17356563 0.8965468942)
(1733.226694 2.889794018 -1.580955824)
(1733.125866 3.33634076 -0.8332068146)
(1736.393973 0.4783305873 -0.02698688688)
(1736.654888 0.9636792689 2.229097675)
(1735.313858 0.5869131479 2.83796705)
(1737.376937 0.2271567014 4.143271999)
(1735.185846 -1.828340615 3.499324567)
(1734.723937 -0.7324495551 2.36146868)
(1733.619057 3.278788349 0.134453705)
(1733.456642 2.528933815 1.43218779)
(1732.656492 2.61946495 0.6391835329)
(1729.502431 4.031303531 0.4944774454)
(1730.300385 1.527181507 0.04911926693)
(1730.776566 2.391822976 -0.8875937002)
(1731.156719 2.861754892 0.8523408164)
(1731.196706 3.274676279 1.980998956)
(1731.361047 3.922198515 1.991590141)
(1732.415261 4.203720318 3.891563494)
(1732.731557 3.14200766 2.788940355)
(1730.03992 10.82110969 0.7752176337)
(1726.476751 11.27779397 -0.2555154489)
(1728.282374 11.19698359 0.8332129264)
(1726.837606 12.89030233 0.2170946535)
(1724.874041 16.65504783 0.7794008769)
(1723.520082 21.56563899 2.368372766)
(1720.611109 25.28007204 2.028108417)
(1715.852667 29.31744809 -0.5986304314)
(1711.214222 35.19860482 1.884344866)
(1704.435673 42.64267021 1.418673194)
(1699.670359 51.2273984 -0.8063606863)
(1731.802258 1.900403945 -0.6677929086)
(1733.302004 2.028869512 -0.6788492973)
(1730.747959 2.368236209 -1.420973016)
(1731.323338 2.081545369 -2.008573463)
(1731.667297 1.645413561 -0.7817682677)
(1732.46529 1.818636122 -1.030215319)
(1732.188954 1.836700682 -0.6332859382)
(1733.252535 0.8944729043 0.1104036219)
(1732.745205 -2.492009762 -0.08274908781)
(1734.688824 -2.452932619 0.212244209)
(1735.322865 -2.558528524 -0.05994177583)
(1736.192054 0.5796367477 1.893476901)
(1735.260878 2.309876233 3.163629565)
(1738.004168 3.430065547 3.530939931)
(1735.728888 2.156387075 3.709806341)
(1732.917283 3.37980889 2.651040566)
(1730.09351 7.144298935 0.904513808)
(1729.461098 6.279314887 -0.3260193363)
(1729.536303 5.136920473 0.5886478777)
(1731.304767 5.126770184 -1.523162685)
(1732.244894 6.703000937 0.4441880134)
(1728.481913 9.30428823 0.6732346912)
(1728.265555 8.221541102 0.8381439935)
(1727.734224 9.552532283 -2.093259739)
(1726.99953 10.64666986 -1.072929602)
(1721.216041 16.55755948 -0.5464265485)
(1718.768109 22.50825964 2.028151211)
(1716.612511 29.64567071 -0.6765899279)
(1710.248985 37.5926125 -0.922441396)
(1706.235559 43.13283934 4.132627365)
(1735.363586 -0.7257515151 0.5239029275)
(1734.384866 -1.051371554 1.445152986)
(1736.137798 0.3831016893 1.384857451)
(1734.557788 0.6423055631 1.261595825)
(1733.85968 0.9958020946 0.2053147126)
(1733.048102 -0.4850432845 0.1554618334)
(1734.908045 -1.053874614 -1.4482593)
(1737.172334 -1.198467023 -1.868218878)
(1737.589038 1.06094823 -0.04916114466)
(1737.795515 3.43852616 0.2784371412)
(1735.931903 2.723354532 -1.394342629)
(1736.517952 1.538502077 -1.262927062)
(1735.714429 -0.7253215808 -2.197397389)
(1735.276322 0.6677253177 -2.689707338)
(1735.158494 2.499345982 -2.166454726)
(1736.074055 1.782598691 -1.198384692)
(1735.426286 0.6768181949 0.9945330119)
(1733.663035 4.786204888 0.6813498878)
(1731.935061 4.602549429 1.549924133)
(1732.195681 6.200739852 0.1214523483)
(1728.776819 7.689635922 0.5347391134)
(1728.203053 11.14811017 0.9533624783)
(1726.413311 11.79987951 1.588704129)
(1726.151529 9.209094687 2.108051672)
(1726.813808 11.537724 1.349507722)
(1724.850905 11.99307273 3.506505433)
(1720.409026 17.27641552 3.097622258)
(1715.820364 20.81116369 5.147760466)
(1715.464309 26.68840516 2.16655667)
(1711.42687 35.45430187 1.585601794)
(1735.414709 4.088504673 2.339160158)
(1737.062503 5.211972392 1.199572513)
(1735.855074 5.568266324 2.348365782)
(1736.363402 4.866509249 1.358480119)
(1737.829162 2.277839146 0.5655291177)
(1737.815827 5.566380313 -0.4641853049)
(1737.802669 7.687206304 0.3426763487)
(1735.082329 8.474801199 2.962837579)
(1737.241563 8.371559924 2.87879875)
(1736.443679 7.737380826 1.466680437)
(1735.15828 6.396807838 2.825970456)
(1736.037949 5.381661441 2.037852753)
(1732.90773 5.746370203 -0.04691723341)
(1735.339349 8.765889678 1.589069879)
(1735.750676 9.398439318 -1.056020542)
(1733.45793 11.47800752 -1.873966876)
(1733.579582 10.54695789 -4.429430915)
(1735.253896 10.97327727 -3.944168026)
(1735.743662 10.41664389 -0.7449157435)
(1735.155677 10.7938862 0.1856548422)
(1734.058513 13.36077364 -0.5707903735)
(1731.541104 13.82537937 -1.459250837)
(1730.370075 17.72607253 -2.274260923)
(1730.625361 15.82566244 0.6295000059)
(1729.614995 17.12388599 -0.7505430387)
(1731.688362 18.19699053 -1.537526963)
(1730.516595 19.06556149 -1.520039545)
(1727.855109 25.03499895 -0.4688873793)
(1727.039635 28.22386361 0.4040937384)
(1721.486382 34.8228966 0.8156775964)
)
;

boundaryField
{
    flow
    {
        type            calculated;
        value           nonuniform List<vector> 
55
(
(1308.071903 414.0273327 -0.4534492688)
(1327.806711 423.6690496 -0.2509204466)
(1349.913107 429.1403953 2.010313055)
(1370.333487 434.5649667 -2.353441809)
(1385.405989 434.1217279 0.4965553371)
(1403.015057 436.5864423 1.627227279)
(1422.875358 428.9661729 -1.320071101)
(1438.910931 413.3022023 -4.646112149)
(1456.468646 395.9518031 -0.7426598206)
(1476.867375 373.2751752 -1.005848507)
(1498.574045 348.1390997 2.284144849)
(1526.323871 315.8835713 -3.388684918)
(1552.264816 279.4458439 -3.920306112)
(1573.621479 249.5227638 -0.3299983958)
(1600.152607 212.7270465 3.346751789)
(1619.525857 183.0989942 1.60205019)
(1636.156153 146.6019928 -3.050892743)
(1654.930441 119.807874 -1.029952655)
(1678.644541 99.956934 1.158970244)
(1688.300858 75.834021 1.424057733)
(1692.967747 63.17356563 0.8965468942)
(1699.670359 51.2273984 -0.8063606863)
(1706.235559 43.13283934 4.132627365)
(1711.42687 35.45430187 1.585601794)
(1721.486382 34.8228966 0.8156775964)
(1735.414709 4.088504673 2.339160158)
(1737.062503 5.211972392 1.199572513)
(1735.855074 5.568266324 2.348365782)
(1736.363402 4.866509249 1.358480119)
(1737.829162 2.277839146 0.5655291177)
(1737.815827 5.566380313 -0.4641853049)
(1737.802669 7.687206304 0.3426763487)
(1735.082329 8.474801199 2.962837579)
(1737.241563 8.371559924 2.87879875)
(1736.443679 7.737380826 1.466680437)
(1735.15828 6.396807838 2.825970456)
(1736.037949 5.381661441 2.037852753)
(1732.90773 5.746370203 -0.04691723341)
(1735.339349 8.765889678 1.589069879)
(1735.750676 9.398439318 -1.056020542)
(1733.45793 11.47800752 -1.873966876)
(1733.579582 10.54695789 -4.429430915)
(1735.253896 10.97327727 -3.944168026)
(1735.743662 10.41664389 -0.7449157435)
(1735.155677 10.7938862 0.1856548422)
(1734.058513 13.36077364 -0.5707903735)
(1731.541104 13.82537937 -1.459250837)
(1730.370075 17.72607253 -2.274260923)
(1730.625361 15.82566244 0.6295000059)
(1729.614995 17.12388599 -0.7505430387)
(1731.688362 18.19699053 -1.537526963)
(1730.516595 19.06556149 -1.520039545)
(1727.855109 25.03499895 -0.4688873793)
(1727.039635 28.22386361 0.4040937384)
(1721.486382 34.8228966 0.8156775964)
)
;
    }
    obstacle
    {
        type            calculated;
        value           nonuniform List<vector> 0();
    }
    frontAndBack
    {
        type            empty;
    }
    procBoundary3to1
    {
        type            processor;
        value           nonuniform List<vector> 
36
(
(1289.037359 397.6864879 -1.401119238)
(1321.464065 432.4548801 2.442526249)
(1313.622907 429.7744803 3.461913215)
(1312.060748 425.7775682 0.3259499446)
(1307.480236 422.8661984 1.709387195)
(1307.480236 422.8661984 1.709387195)
(1406.989241 401.0383944 -0.7547006288)
(1394.320287 413.0054929 -3.298585771)
(1376.765445 420.0753092 -2.630174824)
(1371.142249 427.754464 -0.5545083748)
(1359.799327 434.2590761 -0.0728140127)
(1358.041375 437.9283475 -2.804044038)
(1358.041375 437.9283475 -2.804044038)
(1518.168145 275.6044295 -6.623496165)
(1498.786714 300.77658 -2.921875303)
(1482.056148 320.8731685 -3.358441288)
(1463.804738 345.9847872 -1.95954297)
(1448.258949 366.6017194 5.468922207)
(1448.258949 366.6017194 5.468922207)
(1644.907098 105.5375044 -0.9845489137)
(1633.295922 121.1806092 -0.1486631765)
(1620.38731 143.2599754 1.15079666)
(1604.995638 167.2954483 0.7586390039)
(1589.782291 184.9308647 1.726435534)
(1569.698984 209.7971908 1.929388252)
(1569.698984 209.7971908 1.929388252)
(1718.847791 19.47895905 -3.35799265)
(1714.057715 27.28417328 -1.838488171)
(1704.908329 32.56594215 -2.91395254)
(1698.27945 42.95836427 -0.3771646931)
(1689.239621 52.47438731 0.8290023884)