/*--------------------------------*- C++ -*----------------------------------*\
| =========                 |                                                 |
| \\      /  F ield         | OpenFOAM: The Open Source CFD Toolbox           |
|  \\    /   O peration     | Version:  2406                                  |
|   \\  /    A nd           | Website:  www.openfoam.com                      |
|    \\/     M anipulation  |                                                 |
\*---------------------------------------------------------------------------*/
FoamFile
{
    version     2.0;
    format      ascii;
    arch        "LSB;label=32;scalar=64";
    class       Cloud<dsmcParcel>;
    location    "0.005/lagrangian/dsmc";
    object      coordinates;
}
// * * * * * * * * * * * * * * * * * * * * * * * * * * * * * * * * * * * * * //

6206
(
(0.1974924647 0.01203826889 0.4012537676 0.3892154987) 231 453 2
(0.0210577309 0.4894711346 0.2982645738 0.1912065607) 413 810 1
(0.3141260837 0.2261816624 0.1167552957 0.3429369582) 652 1222 2
(0.4552441542 0.2723779229 0.1117876111 0.1605903118) 141 275 2
(0.4380165511 0.2809917244 0.2781612173 0.00283050717) 173 1261 2
(0.1118828419 0.3905232922 0.05353528686 0.444058579) 233 397 2
(0.5283726968 0.2358136516 0.009995208175 0.2258184434) 318 623 2
(0.07507037935 0.4624648103 0.2505576039 0.2119072064) 173 336 2
(0.2082401889 0.3958799056 0.2057379634 0.1901419422) 383 751 1
(0.5611910164 0.2194044918 0.1796839504 0.03972054137) 321 629 2
(0.7334350818 0.04207921753 0.1332824591 0.09120324157) 323 633 2
(0.1486282351 0.4256858824 0.3730182826 0.05266759987) 413 810 1
(0.1114214859 0.444289257 0.2373467974 0.2069424596) 527 1032 2
(0.1750335199 0.2982018738 0.1142813663 0.41248324) 233 1263 1
(0.2172202109 0.3913898945 0.2062170659 0.1851728286) 443 1270 2
(0.09055035337 0.04630164931 0.4547248233 0.408423174) 54 102 1
(0.09839161654 0.02989331313 0.4209108786 0.4508041917) 593 1105 2
(0.1427371553 0.0248560128 0.4286314224 0.4037754096) 350 687 2
(0.7763314438 0.1118342781 0.07059106793 0.04124321017) 230 450 2
(0.635440669 0.01403895214 0.1822796655 0.1682407133) 233 454 1
(0.7137718664 0.1107676139 0.1431140668 0.0323464529) 111 214 1
(0.08406190647 0.4579690468 0.3021390736 0.1558299731) 230 448 2
(0.2212587111 0.2375603834 0.3893706444 0.151810261) 383 751 2
(0.5138499344 0.2430750328 0.08128012573 0.1617949071) 381 748 1
(0.08312958085 0.06294759701 0.4584352096 0.3954876126) 173 338 2
(0.1478164868 0.4260917566 0.3097095843 0.1163821724) 53 102 2
(0.1778965594 0.4110517203 0.263510348 0.1475413723) 473 1271 2
(0.5658799421 0.1541541396 0.217060029 0.06290588932) 53 103 2
(0.3386608167 0.2368391425 0.09383044913 0.3306695916) 472 926 1
(0.6252734506 0.1873632747 0.09856289233 0.08880038239) 409 803 1
(0.1211693914 0.4394153043 0.4090739057 0.03034139863) 350 628 1
(0.3028368202 0.3485815899 0.2236962551 0.1248853348) 16 30 1
(0.1324727652 0.1293719905 0.4337636174 0.3043916269) 653 1252 1
(0.1125533231 0.3059716388 0.1377516997 0.4437233385) 262 455 2
(0.4752955785 0.2623522108 0.2527332789 0.009618931893) 377 737 2
(0.0575829606 0.4712085197 0.07749580791 0.3937127118) 113 220 1
(0.2972062105 0.160816621 0.3513968947 0.1905802737) 352 691 2
(0.2171811007 0.3914094497 0.07805276714 0.3133566825) 263 456 1
(0.02873031634 0.2491136654 0.2365211764 0.4856348418) 323 1266 1
(0.8176023334 0.00393315055 0.0911988333 0.08726568275) 259 505 1
(0.01954776315 0.08728916898 0.4029369494 0.4902261184) 349 626 2
(0.002811887511 0.4985940562 0.4860920788 0.01250197741) 622 1219 2
(0.5082049718 0.2458975141 0.01876715718 0.2271303569) 112 219 1
(0.2785348167 0.2524139648 0.1083186269 0.3607325916) 412 808 1
(0.07240753029 0.1251249084 0.3386713264 0.4637962349) 113 1259 1
(0.03749191676 0.4812540416 0.4419821347 0.03927190692) 412 808 2
(0.2149004299 0.1111309851 0.3925497851 0.2814188) 143 279 2
(0.3263203842 0.2474499109 0.08938989702 0.3368398079) 590 1158 1
(0.3711907775 0.1350510559 0.1793535553 0.3144046112) 619 1215 1
(0.5690736209 0.09203033681 0.2154631896 0.1234328528) 562 1101 1
(0.4271117037 0.09934930207 0.1870948461 0.2864441482) 383 1268 1
(0.3355615383 0.2846193249 0.3322192308 0.04759990591) 202 393 1
(0.09587498807 0.2464471395 0.452062506 0.2056153664) 83 161 2
(0.03266350247 0.4836682488 0.04823170254 0.4354365462) 353 692 1
(0.01968993322 0.4148239198 0.07533111362 0.4901550334) 260 509 1
(0.9165293421 0.04173532896 0.02470632363 0.01702900533) 28 51 2
(0.3546293044 0.3226853478 0.01664442734 0.3060409205) 261 511 2
(0.1000774696 0.4499612652 0.1117043389 0.3382569263) 232 452 2
(0.4303980479 0.0807847297 0.2040162463 0.284800976) 320 627 1
(0.1586133081 0.420693346 0.1926976173 0.2279957287) 53 100 2
(0.7770036945 0.04777119138 0.1114981527 0.06372696135) 228 444 1
(0.5180172581 0.2409913709 0.1753506646 0.06564070634) 32 1256 2
(0.06994455494 0.1376602162 0.4650277225 0.3273675063) 322 632 2
(0.8021034122 0.09894829388 0.007209141111 0.09173915277) 622 1163 1
(0.02783870139 0.3385939146 0.4860806493 0.1474867347) 443 867 1
(0.5793474816 0.2103262592 0.1688072973 0.04151896191) 563 1274 2
(0.1899989596 0.3377716345 0.4050005202 0.06722888572) 231 453 2
(0.1516592456 0.4241703772 0.2791321522 0.145038225) 293 574 1
(0.5985181138 0.1212257411 0.07951520204 0.2007409431) 499 921 2
(0.6258551579 0.187072421 0.05540990844 0.1316625126) 382 750 1
(0.8575220726 0.0673327074 0.07123896369 0.003906256287) 408 801 2
(0.1092104333 0.4453947833 0.08101729691 0.3643774864) 351 630 1
(0.8011322843 0.09943385784 0.03357914358 0.06585471427) 165 322 2
(0.8986194881 0.05069025595 0.004590310975 0.04609994497) 533 1046 1
(0.05686233817 0.2300237826 0.2415450483 0.4715688309) 441 865 1
(0.5109992448 0.05486756686 0.2445003776 0.1896328107) 561 1102 2
(0.6397498575 0.03518408446 0.1801250713 0.1449409868) 350 684 1
(0.05822983198 0.470885084 0.2701623701 0.2007227139) 173 1261 2
(0.5986204884 0.1836817625 0.2006897558 0.01700799329) 142 275 1
(0.864341295 0.0678293525 0.03567164649 0.03215770601) 443 810 1
(0.005150309593 0.08093774019 0.416487105 0.4974248452) 502 927 2
(0.04296444263 0.04042847739 0.4380893013 0.4785177787) 292 514 2
(0.6041223276 0.0831473453 0.1147914909 0.1979388362) 287 504 2
(0.1833721992 0.1289987314 0.4083139004 0.279315169) 232 452 1
(0.6553477012 0.1591156263 0.1723261494 0.01321052308) 293 572 1
(0.4807493077 0.1160195263 0.2596253462 0.1436058198) 502 986 2
(0.7168285226 0.0235693873 0.1415857387 0.1180163514) 81 155 1
(0.2172616608 0.3913691696 0.0848778216 0.306491348) 203 397 1
(0.5008898104 0.2065250079 0.04303008692 0.2495550948) 111 158 2
(0.2230023313 0.3884988344 0.3085612163 0.07993761805) 171 335 1
(0.4223100305 0.2811898169 0.2888449847 0.007655167815) 472 924 1
(0.1446617688 0.07655630849 0.3511128071 0.4276691156) 289 566 1
(0.05395757104 0.4730212145 0.3581173816 0.1149038328) 143 1260 2
(0.6471228454 0.0593180852 0.1171204921 0.1764385773) 529 1038 1
(0.5303897743 0.1514128458 0.08339226699 0.2348051128) 323 574 2
(0.07701564467 0.3812713483 0.4614921777 0.08022082932) 171 332 1
(0.1920976793 0.2708647692 0.1330863911 0.4039511603) 202 395 1
(0.1969114732 0.3388136448 0.4015442634 0.06273061856) 292 573 2
(0.1204075887 0.338075611 0.1017205946 0.4397962056) 498 919 2
(0.1382604081 0.4308697959 0.2749319224 0.1559378735) 622 1221 2
(0.7690120068 0.1154939966 0.02292791164 0.09256608495) 113 161 1
(0.1460882681 0.02168462346 0.4052712425 0.4269558659) 653 1223 2
(0.3101011196 0.3449494402 0.2926828999 0.05226654029) 293 574 1
(0.03213136192 0.4783061274 0.005628191614 0.483934319) 173 1261 1
(0.509646164 0.245176918 0.2205757525 0.02460116552) 619 1215 2
(0.647956299 0.01661541602 0.1760218505 0.1594064345) 352 691 2
(0.4416076181 0.2791961909 0.1429136414 0.1362825495) 81 101 1
(0.3456551484 0.3271724258 0.1933267602 0.1338456656) 561 1099 2
(0.4709509854 0.2645245073 0.1985663944 0.06595811293) 169 272 1
(0.1226969647 0.4386515177 0.09247802854 0.3461734891) 201 391 2
(0.7402215834 0.07674017966 0.05314902862 0.1298892083) 170 332 1
(0.2837628865 0.3581185567 0.05044723434 0.3076713224) 32 61 1
(0.4452710229 0.2239118043 0.2773644885 0.05345268425) 562 1104 2
(0.4052733476 0.2973633262 0.1391398809 0.1582234453) 110 212 2
(0.1057681722 0.03112188617 0.4159940277 0.4471159139) 412 808 1
(0.4052577266 0.2973711367 0.2371802086 0.06019092815) 502 985 2
(0.0504927032 0.4747536484 0.2863257126 0.1884279358) 82 103 1
(0.9191244737 0.04043776314 0.03537997033 0.00505779281) 529 980 1
(0.1399304222 0.4300347889 0.4234774106 0.006557378358) 201 394 1
(0.01318857007 0.493405715 0.2807644316 0.2126412834) 351 689 1
(0.1931795553 0.4034102224 0.2410891971 0.1623210253) 562 1103 2
(0.2117786377 0.3941106811 0.2191460222 0.1749646589) 383 749 2
(0.4883095927 0.2558452037 0.2279732053 0.02787199841) 140 215 1
(0.88268622 0.05865689 0.01100832466 0.04764856534) 409 802 2
(0.03432845742 0.4828357713 0.4222969778 0.06053879348) 171 276 1
(0.3829736936 0.1612414619 0.3085131532 0.1472716913) 113 220 2
(0.4433435197 0.2783282402 0.2263406118 0.05198762839) 51 56 1
(0.3238915336 0.07781890316 0.3380542332 0.26023533) 472 927 2
(0.1268747094 0.1299382271 0.3066244182 0.4365626453) 441 807 2
(0.4896702891 0.2551648555 0.2333732988 0.02179155663) 563 1046 1
(0.02893530774 0.331710369 0.1538219771 0.4855323461) 291 570 1
(0.5088067707 0.01881467671 0.226781938 0.2455966147) 5 1254 1
(0.2004160699 0.399791965 0.1290372807 0.2707546844) 52 58 1
(0.9139080524 0.04095403085 0.04304597378 0.002091942924) 260 507 1
(0.004518363359 0.175737971 0.3220028473 0.4977408183) 112 218 1
(0.3709731096 0.02635104499 0.2881624002 0.3145134452) 7 12 1
(0.8467662753 0.07661686236 0.02445013639 0.05216672596) 228 446 2
(0.6163209662 0.1918395169 0.03786948082 0.1539700361) 589 1157 1
(0.007189630622 0.1924114727 0.4964051847 0.303993712) 498 975 1
(0.429381857 0.2853090715 0.007410217522 0.277898854) 561 1101 2
(0.7407613794 0.1296193103 0.09820649967 0.03141281062) 228 446 2
(0.1024934598 0.4487532701 0.2900969162 0.1586563539) 586 1148 2
(0.484140521 0.0005817474449 0.257347992 0.2579297395) 143 1260 1
(0.1428658478 0.4285670761 0.04418134462 0.3843857315) 203 1262 2
(0.3422342995 0.3288828502 0.2556678056 0.07321504464) 352 691 1
(0.5041594713 0.06748712194 0.2479202644 0.1804331424) 54 104 2
(0.84328375 0.07835812498 0.05166128438 0.0266968406) 409 800 2
(0.2133767963 0.3933116018 0.01204439388 0.381267208) 411 807 1
(0.4543414764 0.2728292618 0.05453133763 0.2182979242) 261 512 1
(0.4604742569 0.02025067724 0.2495121943 0.2697628716) 139 271 1
(0.0489066596 0.4755466702 0.3214334289 0.1541132413) 503 987 1
(0.1827186521 0.2678404712 0.1408002027 0.408640674) 30 27 2
(0.4767525027 0.2616237486 0.1259134299 0.1357103187) 32 61 1
(0.1292002648 0.4353998676 0.001451053477 0.4339488141) 291 512 1
(0.4300137796 0.1713576271 0.2849931102 0.1136354831) 503 987 2
(0.02756665418 0.4862166729 0.1409860934 0.3452305795) 440 805 1
(0.367114284 0.316442858 0.02993818423 0.2865046738) 593 1162 2
(0.03726293732 0.1512663404 0.3301021909 0.4813685313) 32 1256 1
(0.02693776645 0.01467913569 0.4865311168 0.4718519811) 203 397 2
(0.195265334 0.2100893818 0.1922779512 0.402367333) 622 1221 1
(0.05452826589 0.3946433771 0.4727358671 0.07809249) 142 275 1
(0.399652407 0.03754787601 0.2626259205 0.3001737965) 83 1258 1
(0.5449647352 0.08179540043 0.2275176324 0.145722232) 502 983 1
(0.05943155146 0.3037157785 0.4702842243 0.1665684458) 202 396 2
(0.448051618 0.1620636335 0.1139105575 0.275974191) 53 102 1
(0.5968990809 0.2015504595 0.06913466931 0.1324157902) 233 397 1
(0.4605862961 0.1017499241 0.2697068519 0.1679569278) 141 276 2
(0.1783514211 0.4108242894 0.3210245932 0.08979969626) 592 1104 1
(0.4563349055 0.2718325473 0.08007897852 0.1917535687) 442 865 2
(0.6604240804 0.1670316919 0.002756267861 0.1697879598) 261 453 2
(0.2912924651 0.3543537675 0.3260635399 0.02829022759) 413 810 1
(0.1834137736 0.1384232783 0.4082931132 0.2698698349) 410 802 1
(0.7047790009 0.004015678221 0.1476104996 0.1435948213) 228 444 1
(0.5470529776 0.2264735112 0.1061342005 0.1203393107) 292 572 2
(0.2272080226 0.3005393064 0.08585668229 0.3863959887) 381 747 1
(0.7414929503 0.0212897909 0.1292535249 0.107963734) 232 452 1
(0.4122565663 0.2938717169 0.2717482879 0.02212342893) 353 1267 2
(0.3498422339 0.3250788831 0.2313133561 0.09376552695) 233 454 2
(0.1815066878 0.4092466561 0.09975621107 0.309490445) 261 509 2
(0.6890103608 0.08203499329 0.07345982632 0.1554948196) 622 1163 2
(0.2456378993 0.3771810503 0.08231360149 0.2948674488) 53 100 2
(0.02675897812 0.4866205109 0.3653881683 0.1212323426) 530 1040 2
(0.1307170957 0.01827783231 0.4163636198 0.4346414521) 320 627 1
(0.292616489 0.1740184249 0.1796733306 0.3536917555) 411 806 1
(0.09955729436 0.4502213528 0.3955482821 0.05467307069) 48 93 1
(0.1578196227 0.3277377125 0.0933524761 0.4210901886) 170 274 2
(0.08011645012 0.4599417749 0.03218043149 0.4277613435) 443 869 1
(0.6376091294 0.1182703281 0.06292510714 0.1811954353) 437 857 1
(0.8030661581 0.06150873453 0.03695818644 0.09846692097) 233 1263 1
(0.1687627651 0.1582540661 0.2573645513 0.4156186174) 293 515 2
(0.1824416197 0.4087791901 0.06697577682 0.3418034133) 413 810 1
(0.1795011448 0.4102494276 0.07379057522 0.3364588524) 262 513 2
(0.834639955 0.0826800225 0.05692510177 0.02575492073) 410 804 2
(0.2936728069 0.2270621155 0.3531635965 0.126101481) 322 632 2
(0.4225040736 0.2887479632 0.0009348790628 0.2878130841) 193 378 1
(0.3025947478 0.3096853153 0.0390173108 0.3487026261) 443 1270 1
(0.05834776813 0.1963702737 0.2744558423 0.4708261159) 230 392 2
(0.4593694602 0.2703152699 0.09933822658 0.1709770433) 16 30 1
(0.09429063341 0.3110501059 0.4528546833 0.1418045773) 560 1097 1
(0.2073751187 0.3963124406 0.3472932612 0.04901917943) 561 1043 1
(0.05435995057 0.4728200247 0.1717946375 0.3010253872) 499 921 1
(0.2787557692 0.1526978894 0.3606221154 0.207924226) 233 454 1
(0.6087989111 0.1956005445 0.0879358989 0.1076646456) 81 158 1
(0.4305817598 0.2847091201 0.1153053605 0.1694037596) 410 804 2
(0.1673261496 0.4163369252 0.02416869224 0.392168233) 412 750 1
(0.5067555409 0.2466222296 0.1660444457 0.0805777839) 320 625 2
(0.004915526854 0.4975422366 0.16604351 0.3314987266) 199 389 2
(0.01645728869 0.4917713557 0.4388015745 0.05296978113) 563 1105 1
(0.0136537117 0.1007759935 0.4931731441 0.3923971506) 593 1162 1
(0.08708119671 0.2053379346 0.251121467 0.4564594016) 319 567 2
(0.2297770385 0.1426037179 0.2425077629 0.3851114808) 412 808 1
(0.4985958425 0.1410437854 0.2507020788 0.1096582933) 141 276 2
(0.3409390957 0.3295304521 0.02163176102 0.3078986911) 232 452 2
(0.9047559983 0.004130004456 0.0434919964 0.04762200086) 143 220 2
(0.1908335769 0.2902903104 0.1142929011 0.4045832115) 500 981 1
(0.2204916778 0.3897541611 0.3840081607 0.005746000448) 231 452 2
(0.3109640491 0.3445179755 0.03543880905 0.3090791664) 263 1264 2
(0.5886690738 0.2056654631 0.03551105002 0.1701544131) 52 101 1
(0.04521341605 0.477393292 0.02145158734 0.4559417046) 170 333 1
(0.02621826371 0.2916814682 0.4868908681 0.1952094) 48 93 2
(0.3908111135 0.3045944433 0.09237202887 0.2122224144) 533 1273 2
(0.2856077804 0.03970977934 0.3571961098 0.3174863305) 80 153 1
(0.4735589692 0.006613508216 0.2632205154 0.2566070072) 465 910 1
(0.7489633192 0.1255183404 0.1161520051 0.009366335308) 110 214 2
(0.024178736 0.487910632 0.1311730764 0.3567375556) 232 455 1
(0.7095332686 0.1070599443 0.03817342142 0.1452333657) 228 446 1
(0.1224387261 0.4387806369 0.03873577119 0.4000448658) 141 275 2
(0.005443233352 0.4972783833 0.3330224493 0.1642559341) 497 975 2
(0.6215709913 0.1892145044 0.1346162359 0.05459826849) 82 159 2
(0.6637452954 0.1681273523 0.03687975551 0.1312475968) 262 514 1
(0.1213282489 0.4393358755 0.337435505 0.1019003706) 409 800 2
(0.7037571444 0.11278315 0.1481214278 0.03533827782) 82 157 1
(0.2987583012 0.3265776229 0.3506208494 0.02404322652) 381 745 1
(0.3469850893 0.06357932967 0.2629281257 0.3265074554) 321 629 1
(0.1373574434 0.4313212783 0.4060028618 0.02531841648) 290 566 2
(0.3423747133 0.3288126434 0.3149629595 0.01384968388) 229 448 2
(0.2162687276 0.2206697616 0.1711958746 0.3918656362) 141 217 2
(0.6981438113 0.1509280944 0.009530435492 0.1413976589) 46 88 2
(0.04006511168 0.4166589382 0.063308506 0.4799674442) 230 392 2
(0.783568437 0.02323307401 0.08498270749 0.1082157815) 141 275 1
(0.5508611221 0.224569439 0.0705873791 0.1539820599) 292 514 1
(0.007359251743 0.437184234 0.05913614009 0.4963203741) 440 805 2
(0.07142117229 0.4642894139 0.1216124521 0.3426769617) 349 684 2
(0.8011584192 0.07553398983 0.02388680057 0.09942079041) 557 1035 2
(0.5462831593 0.08293595957 0.2268584204 0.1439224608) 83 159 1
(0.292817615 0.3535911925 0.09395305708 0.2596381354) 262 513 2
(0.2300245704 0.3849877148 0.1145615297 0.2704261851) 170 333 1
(0.2879050148 0.2676354439 0.08841204871 0.3560474926) 441 807 2
(0.7795881393 0.1102059303 0.09620739364 0.01399853671) 592 1160 2
(0.05897699384 0.3024449103 0.1680665928 0.4705115031) 529 980 2
(0.5274635124 0.0653859072 0.1708823366 0.2362682438) 173 279 2
(0.7120896578 0.005481409579 0.1439551711 0.1384737615) 411 807 2
(0.09130830616 0.1290049584 0.3253408885 0.4543458469) 651 1220 2
(0.1083951956 0.4458024022 0.125222164 0.3205802382) 54 1257 2
(0.5570269823 0.1934066324 0.02807987642 0.2214865088) 291 512 2
(0.2020172119 0.398991394 0.1617494433 0.2372419507) 501 984 1
(0.5989945281 0.07540021027 0.200502736 0.1251025257) 167 324 1
(0.4726128661 0.2574410051 0.006252561815 0.2636935669) 259 449 2
(0.3672328177 0.3163835912 0.3039886969 0.0123948943) 262 511 2
(0.3989893955 0.08759653803 0.3005053023 0.2129087642) 290 566 1
(0.2325396519 0.1266665795 0.3837301741 0.2570635946) 233 456 2
(0.5861943275 0.2069028362 0.005714928639 0.2011879076) 201 335 1
(0.7157260445 0.0807982191 0.06133875866 0.1421369778) 83 1258 1
(0.2799834893 0.3600082553 0.1651344842 0.1948737711) 436 853 2
(0.168175811 0.4159120945 0.1082818622 0.3076302323) 291 571 1
(0.4426668465 0.157352165 0.2786665767 0.1213144117) 200 392 2
(0.2954160627 0.3522919686 0.1445103986 0.20778157) 109 213 1
(0.5070017262 0.2464991369 0.1848958962 0.06160324072) 196 325 1
(0.4550825553 0.2724587224 0.09472045579 0.1777382666) 652 1251 2
(0.7114047022 0.1442976489 0.01774364165 0.1265540073) 136 265 2
(0.04887760611 0.4755611969 0.1038507567 0.3717104402) 323 574 1
(0.7382830151 0.1308584925 0.05463405718 0.07622443529) 258 505 2
(0.1858567335 0.4070716332 0.168316708 0.2387549252) 410 805 1
(0.2519440278 0.004472668625 0.3695553175 0.3740279861) 380 745 1
(0.4707993911 0.1175892394 0.2646003045 0.1470110651) 228 447 2
(0.1511738121 0.424413094 0.1357191917 0.2886939022) 440 861 2
(0.1996164168 0.4001917916 0.08625262913 0.3139391624) 529 1039 1
(0.333815722 0.333092139 0.1855568552 0.1475352838) 350 628 1
(0.7498080479 0.06529844174 0.1250959761 0.05979753433) 80 156 2
(0.3136796728 0.3431601636 0.07062161974 0.2725385439) 442 865 2
(0.6186039203 0.1046110712 0.1906980399 0.08608696861) 229 446 1
(0.5622382281 0.218880886 0.1366702695 0.08221061644) 232 455 1
(0.4020019045 0.2989990478 0.1192883826 0.1797106652) 497 976 1
(0.149870685 0.4250646575 0.3047168916 0.120347766) 530 982 1
(0.5060025169 0.06576714933 0.1812315922 0.2469987415) 291 512 2
(0.02756536202 0.4539468046 0.486217319 0.03227051436) 292 573 2
(0.1539124591 0.03353731663 0.4230437705 0.3895064538) 288 565 2
(0.3494970476 0.2665774339 0.3252514762 0.05867404234) 112 216 1
(0.6840288651 0.1579855675 0.03262583595 0.1253597315) 320 625 2
(0.03276730566 0.4836163472 0.4239507124 0.05966563475) 167 326 2
(0.3149433149 0.3425283426 0.1618253277 0.1807030148) 499 980 1
(0.1759111848 0.4120444076 0.3700584777 0.0419859299) 498 977 2
(0.530174026 0.1595504833 0.234912987 0.07536250365) 413 808 1
(0.4821609167 0.2589195416 0.0987723215 0.1601472201) 319 623 2
(0.3058706394 0.2193248295 0.3470646803 0.1277398508) 229 449 2
(0.1259649572 0.4370175214 0.4360993536 0.0009181677845) 113 220 1
(0.8069873867 0.09650630666 0.03417520252 0.06233110414) 563 1103 2
(0.07766619137 0.4611669043 0.373026358 0.0881405463) 289 566 2
(0.1391187222 0.4304406389 0.04534140414 0.3850992348) 169 330 2
(0.7187359421 0.007341845566 0.140632029 0.1332901834) 469 921 2
(0.05276219224 0.4736189039 0.4265768161 0.04704208783) 623 1276 2
(0.4852728987 0.06453400183 0.2573635506 0.1928295488) 110 212 1
(0.06574481184 0.4671275941 0.1863410052 0.2807865889) 112 160 1
(0.3583916695 0.3208041652 0.3167967862 0.004007379028) 171 335 1
(0.6479562285 0.1760218857 0.04400637311 0.1320155126) 30 58 1
(0.6985757248 0.07642270091 0.1507121376 0.0742894367) 471 922 1
(0.168399865 0.07002253522 0.3457775323 0.4158000675) 290 510 2
(0.865656554 0.067171723 0.03831424297 0.02885748003) 350 686 2
(0.6006843044 0.1996578478 0.0844010443 0.1152568035) 170 330 2
(0.08105435512 0.178716362 0.2807564605 0.4594728224) 201 335 2
(0.6568427643 0.1135329939 0.1715786179 0.05804562395) 319 623 1
(0.2921015079 0.031092123 0.3228571231 0.3539492461) 109 212 1
(0.4261674064 0.2869162968 0.2350976783 0.05181861847) 408 800 2
(0.01192626102 0.4940368695 0.1189192912 0.3751175783) 473 1271 2
(0.3836163322 0.07895528754 0.2292365464 0.3081918339) 109 212 1
(0.2713526967 0.2477011158 0.3643236517 0.1166225358) 229 449 2
(0.09747119542 0.2500995127 0.2011648895 0.4512644023) 202 395 1
(0.7898772689 0.08880410838 0.01625725717 0.1050613656) 408 800 1
(0.1433031858 0.4283484071 0.1730454287 0.2553029784) 259 449 1
(0.2977214411 0.116938042 0.3511392795 0.2342012375) 353 692 2
(0.1205389204 0.1622684684 0.4397305398 0.2774620714) 170 333 2
(0.2588170821 0.3380236372 0.3705914589 0.03256782173) 53 103 2
(0.5826584944 0.05419005876 0.1544806941 0.2086707528) 472 926 1
(0.5148893968 0.1238271056 0.2425553016 0.118728196) 112 216 1
(0.1312977437 0.2488589555 0.1854921726 0.4343511281) 169 330 1
(0.3983486958 0.3008256521 0.1870553604 0.1137702917) 412 809 1
(0.9812571706 0.004004458043 0.005366956645 0.009371414688) 203 1262 1
(0.2199783808 0.3680414021 0.02196940746 0.3900108096) 563 1046 2
(0.5270397708 0.1465163223 0.2364801146 0.08996379226) 321 630 2
(0.2870596568 0.1718561077 0.1846140639 0.3564701716) 258 505 1
(0.2916298114 0.1912003384 0.3541850943 0.1629847559) 559 1095 1
(0.4415050573 0.2792474713 0.09083623198 0.1884112394) 112 160 1
(0.5114083823 0.1109629954 0.1333328134 0.2442958089) 322 573 2
(0.5135422941 0.1341696578 0.2432288529 0.1090591951) 529 1039 2
(0.8840777299 0.05796113503 0.04824909138 0.009712043651) 289 564 2
(0.5198574239 0.2190507941 0.0210204939 0.240071288) 172 278 2
(0.3283565936 0.001827312977 0.3339943902 0.3358217032) 232 454 1
(0.1993631421 0.400318429 0.3814853748 0.01883305414) 651 1305 1
(0.06213641852 0.4689317907 0.3599469138 0.1089848769) 413 810 1
(0.2329257107 0.1908515774 0.3835371447 0.1926855673) 52 101 2
(0.2786197486 0.006124984308 0.3545651414 0.3606901257) 323 1266 1
(0.2983745279 0.3508127361 0.1828390287 0.1679737073) 561 1101 2
(0.04695016587 0.2078156212 0.2687092959 0.4765249171) 533 1273 1
(0.1027856682 0.1079566475 0.3406505184 0.4486071659) 559 1039 2
(0.04217623962 0.4789118802 0.3113389938 0.1675728864) 173 279 1
(0.4016815208 0.0724996368 0.2266596028 0.2991592396) 529 980 2
(0.1876285013 0.1071906984 0.2989950509 0.4061857494) 503 1272 1
(0.7427495243 0.1286252379 0.09435193272 0.03427330515) 198 387 2
(0.3470557017 0.3264721492 0.1877953121 0.1386768371) 173 1261 2
(0.4457075017 0.1706301748 0.2771462492 0.1065160743) 375 736 2
(0.3644266424 0.3177866788 0.2455638068 0.072222872) 112 216 2
(0.2787502902 0.3606248549 0.06860637172 0.2920184832) 438 857 2
(0.4627261107 0.1551062107 0.1135307339 0.2686369446) 233 1263 1
(0.4226156125 0.1898858193 0.09880637441 0.2886921937) 293 515 2
(0.6422412673 0.01649397124 0.1788793663 0.1623853951) 257 504 2
(0.270026061 0.1880229058 0.3649869695 0.1769640637) 321 630 2
(0.1121532156 0.1668903638 0.2770330284 0.4439233922) 292 572 1
(0.3330129056 0.3334935472 0.2518344942 0.08165905298) 502 983 2
(0.7500011943 0.1093493029 0.01565009991 0.1249994028) 441 807 2
(0.2155405365 0.1505078415 0.2417218902 0.3922297318) 143 1260 1
(0.8231305238 0.05752333722 0.08843473809 0.03091140086) 83 161 2
(0.1407409228 0.3505741737 0.4296295386 0.07905536497) 170 333 2
(0.3538967754 0.3230516123 0.2287393769 0.09431223541) 15 29 1
(0.6337358436 0.1831320782 0.1367412705 0.04639080768) 231 453 1
(0.240961692 0.379519154 0.01806039813 0.3614587559) 382 747 2
(0.2701435564 0.2395941864 0.1253340354 0.3649282218) 413 1269 1
(0.3360322864 0.2452408654 0.3319838568 0.0867429914) 172 334 1
(0.7994622416 0.1002688792 0.08628049661 0.01398838258) 348 680 2
(0.1234131316 0.05921471783 0.3790787164 0.4382934342) 501 983 1
(0.06397776553 0.1952514357 0.4680111172 0.2727596815) 438 857 1
(0.6069195187 0.1263452066 0.1965402407 0.07019503411) 260 510 2
(0.5482292488 0.05902665876 0.1668587168 0.2258853756) 651 1220 2
(0.1950963025 0.4024518487 0.1806627942 0.2217890545) 79 151 2
(0.7341726496 0.09008184318 0.042831832 0.1329136752) 201 393 1
(0.2793021011 0.1326211917 0.2277277577 0.3603489494) 471 924 1
(0.1329627111 0.4335186445 0.01942884285 0.4140898016) 201 394 1
(0.6362920254 0.1818539873 0.0108423719 0.1710116154) 530 1040 2
(0.5765656976 0.0748436049 0.1368735463 0.2117171512) 622 1163 2
(0.4511395695 0.2744302152 0.2053209712 0.06910924405) 80 99 1
(0.2201156105 0.03647706348 0.3534651313 0.3899421948) 382 691 2
(0.0145568793 0.3998544147 0.09286714563 0.4927215603) 140 273 1
(0.1700956978 0.4149521511 0.2998998723 0.1150522787) 255 497 2
(0.7927271611 0.07241757213 0.1036364195 0.03121884733) 165 320 1
(0.3724620437 0.3137689781 0.03385965834 0.2799093198) 442 865 2
(0.0554100046 0.06020305293 0.4120919448 0.4722949977) 293 515 2
(0.5934788992 0.2032605504 0.09587374922 0.1073868012) 316 617 2
(0.2277165499 0.386141725 0.2655251577 0.1206165674) 563 1105 1
(0.1681825464 0.4159087268 0.4045700188 0.01133870802) 170 333 1
(0.1180194192 0.1751688244 0.4409902904 0.2658214659) 259 505 1
(0.7022725158 0.1488637421 0.006095018944 0.1427687231) 83 159 2
(0.07903035025 0.1262843197 0.4604848249 0.3342005051) 261 512 2
(0.385574081 0.2998331265 0.007379833022 0.3072129595) 200 391 1
(0.2960273447 0.3519863276 0.09611331822 0.2558730094) 351 689 1
(0.06865177888 0.4656741106 0.2925971798 0.1730769308) 47 90 2
(0.2449707518 0.3775146241 0.3292139398 0.04830068429) 317 619 2
(0.06488150642 0.09480352731 0.3727557195 0.4675592468) 437 857 1
(0.6161038979 0.1919480511 0.03493598778 0.1570120633) 350 628 1
(0.6956546908 0.0786119256 0.073560729 0.1521726546) 30 27 2
(0.8868251989 0.05658740057 0.005199887422 0.05138751315) 232 455 1
(0.07100320638 0.4644983968 0.3340211216 0.1304772752) 173 336 2
(0.6338165113 0.1830917443 0.02169070133 0.161401043) 231 452 2
(0.4730810107 0.2634594946 0.2583914561 0.005068038491) 383 692 1
(0.2784018781 0.1964876628 0.360799061 0.1643113982) 81 155 1
(0.2287676491 0.2506366197 0.1349795558 0.3856161754) 141 275 1
(0.06416866073 0.07630283861 0.4679156696 0.391612831) 231 450 1
(0.005342115497 0.4973289423 0.3987087045 0.09862023779) 110 215 1
(0.04782180137 0.4760890993 0.1342459768 0.3418431225) 230 392 1
(0.1594111535 0.4136759282 0.006618495044 0.4202944232) 561 1043 2
(0.1695697604 0.1618462562 0.4152151198 0.2533688636) 109 210 1
(0.2803973931 0.06543626526 0.3598013034 0.2943650382) 54 102 1
(0.01750141338 0.4320261493 0.05922314399 0.4912492933) 464 852 2
(0.1442330471 0.4278834764 0.4275203793 0.0003630971661) 653 1252 2
(0.4590511866 0.2704744067 0.2330520016 0.03742240514) 473 926 2
(0.04392931752 0.4158519817 0.4780353412 0.06218335959) 289 567 2
(0.779687866 0.110156067 0.04620308013 0.06395298685) 203 395 2
(0.2525654538 0.2848075049 0.08890976822 0.3737172731) 262 455 2
(0.3207215793 0.1070265509 0.2326126595 0.3396392104) 166 324 1
(0.374987103 0.3125064485 0.1770598236 0.1354466248) 198 385 2
(0.6837926441 0.01647516836 0.158103678 0.1416285096) 262 511 1
(0.1284267197 0.387105864 0.04868077612 0.4357866402) 440 805 2
(0.1691041126 0.3461341365 0.4154479437 0.06931380717) 342 671 2
(0.4683875626 0.04006645093 0.2257397678 0.2658062187) 316 619 1
(0.09570810278 0.4521459486 0.100313178 0.3518327706) 112 216 2
(0.2259522112 0.3870238944 0.07795757477 0.3090663196) 443 1270 2
(0.1496226786 0.2459237026 0.4251886607 0.1792649581) 52 98 1
(0.04548737144 0.03300107298 0.4442552413 0.4772563143) 528 1036 1
(0.1958181899 0.06311129917 0.4020909051 0.3389796059) 112 216 1
(0.1127337045 0.05617729084 0.3874558569 0.4436331478) 83 1258 1
(0.04488987792 0.477555061 0.3810574998 0.09649756126) 349 626 1
(0.5665059145 0.2167470428 0.1775961773 0.03915086551) 113 161 1
(0.186732463 0.202983247 0.2036505215 0.4066337685) 318 565 2
(0.4300668374 0.2156646684 0.2849665813 0.06930191288) 532 1045 2
(0.2215206531 0.05348883836 0.3357508351 0.3892396734) 49 52 2
(0.2381495808 0.1506616404 0.2302635692 0.3809252096) 473 1271 1
(0.7485882844 0.06490797985 0.1257058578 0.06079787797) 619 1216 2
(0.1781050478 0.4109474761 0.002031850183 0.4089156259) 260 451 1
(0.1207316289 0.4396341855 0.1266375096 0.3129966759) 172 337 1
(0.3779918517 0.3110040742 0.3053025943 0.005701479861) 203 1262 2
(0.258000003 0.006053043615 0.3649469549 0.3709999985) 472 868 2
(0.6240091003 0.1879954498 0.1477650046 0.04023044525) 14 27 1
(0.04227369838 0.2674855389 0.4788631508 0.2113776119) 379 744 2
(0.1463241597 0.4268379201 0.2816313698 0.1452065503) 262 514 1
(0.6091815231 0.1954092384 0.1384927102 0.05691652822) 258 506 1
(0.07885284114 0.00416728314 0.4564062963 0.4605735794) 29 55 1
(0.4018253453 0.2510679594 0.04801936792 0.2990873274) 320 627 1
(0.1956604309 0.08715079289 0.3150189916 0.4021697845) 291 570 1
(0.4083619911 0.2958190045 0.25007303 0.04574597451) 230 450 2
(0.1487597279 0.4256201361 0.3637650505 0.06185508551) 349 684 2
(0.5749577812 0.0507351464 0.2125211094 0.161785963) 203 397 2
(0.09596966729 0.4520151664 0.3848507688 0.06716439753) 172 336 2