/*--------------------------------*- C++ -*----------------------------------*\
| =========                 |                                                 |
| \\      /  F ield         | OpenFOAM: The Open Source CFD Toolbox           |
|  \\    /   O peration     | Version:  2406                                  |
|   \\  /    A nd           | Website:  www.openfoam.com                      |
|    \\/     M anipulation  |                                                 |
\*---------------------------------------------------------------------------*/
FoamFile
{
    version     2.0;
    format      ascii;
    arch        "LSB;label=32;scalar=64";
    class       scalarField;
    location    "0.005/lagrangian/dsmc";
    object      Ei;
}
// * * * * * * * * * * * * * * * * * * * * * * * * * * * * * * * * * * * * * //


6206
(
7.444282371e-21
4.722126458e-21
5.671257342e-21
6.921271142e-21
1.855147989e-21
9.432153665e-21
2.459058547e-20
7.98091029e-21
2.089472752e-20
1.066662573e-21
8.18263441e-21
4.341550004e-22
4.719665328e-21
2.864846409e-20
3.523054101e-21
1.952670202e-21
2.755127532e-21
6.63724385e-21
1.005211949e-20
1.08180849e-20
5.287226979e-21
4.638764941e-21
1.165113936e-20
9.980491062e-22
3.32976888e-21
1.492102357e-20
6.762105602e-21
2.411569165e-20
9.008235369e-21
7.935701656e-22
3.08946749e-21
1.016423482e-20
7.13877328e-21
2.096538802e-21
1.408468663e-21
3.656295337e-21
4.906168132e-21
4.375833086e-21
1.944997322e-21
1.947908975e-21
3.621951092e-22
3.946116801e-21
2.2819684e-21
1.661520337e-21
5.096910176e-21
8.143490476e-21
6.013257418e-22
1.676939024e-21
8.913736367e-22
1.272584138e-20
2.301315512e-22
1.533009829e-22
8.283871218e-22
1.983829368e-21
9.318900247e-21
1.315445498e-20
8.241436214e-21
9.675290216e-21
4.192352444e-21
5.466946404e-22
2.938227739e-21
1.177672288e-21
1.316683557e-21
2.566569505e-21
1.486862008e-20
3.706566194e-21
1.130910064e-21
2.706970155e-20
1.562495388e-21
1.193942309e-21
2.476557924e-21
7.065863315e-21
7.052850737e-21
1.150403477e-21
1.221195235e-21
2.026790884e-21
7.90494407e-21
1.519943233e-21
4.064814116e-21
6.462034872e-22
9.260997084e-23
1.025820885e-20
1.93264452e-20
2.51650114e-21
6.29498492e-21
1.763244419e-21
3.060804812e-21
1.477223895e-20
2.188510903e-22
1.174922717e-20
1.133000261e-21
8.918645799e-21
1.081070513e-21
1.187234556e-20
1.373044931e-20
2.375164073e-21
4.189568357e-21
4.163222635e-21
1.358703953e-21
2.834915107e-21
8.18074771e-21
6.480018019e-21
4.769953971e-22
3.966926146e-20
4.333255911e-21
3.872497075e-21
2.673450952e-20
1.846418672e-21
1.348810729e-20
5.60917317e-22
1.817735229e-21
5.975142162e-21
1.131698321e-20
6.063538266e-22
3.273716435e-22
2.757834189e-21
7.586782731e-21
4.523474925e-21
2.555678333e-22
7.309889941e-21
1.426483558e-21
4.081485421e-21
1.488384675e-21
1.204648467e-20
1.940024771e-21
2.552324562e-21
6.12121743e-21
1.877824079e-20
1.843200922e-20
8.02907822e-22
5.389597403e-22
2.919057508e-20
2.265989332e-21
4.171303569e-21
1.050879057e-21
4.480601506e-21
3.976865204e-21
4.798445871e-21
2.315224337e-22
3.900644973e-21
1.180423476e-20
1.723215619e-22
4.890380205e-21
4.299651942e-22
6.112238516e-21
1.781381003e-21
1.300172868e-21
3.558351666e-21
3.967832916e-23
1.629348802e-20
2.726057334e-21
1.90344999e-20
4.628425714e-21
2.431099079e-21
1.123950519e-20
3.003044003e-22
4.112126233e-21
8.695678005e-21
2.063810455e-21
1.887728225e-21
3.983332594e-21
2.528154409e-21
3.698476558e-21
5.730106044e-21
8.359292033e-21
1.095511695e-21
8.892004053e-22
9.749081051e-21
2.837318357e-22
6.322956535e-21
2.584647357e-21
5.326292242e-23
1.468746019e-20
2.162571457e-20
4.683405269e-22
2.171035641e-21
1.802357151e-21
5.884689793e-21
5.8269474e-21
1.092564268e-21
5.996832108e-21
9.536940509e-21
2.237943527e-21
3.557666074e-21
1.722301321e-20
4.396910025e-21
2.502431643e-21
1.405308254e-21
7.585138144e-22
5.135974407e-22
1.131176972e-21
5.003329601e-21
3.555557992e-21
5.974717722e-21
7.958566817e-21
6.569502234e-21
9.86663322e-21
2.041767776e-20
7.411256319e-21
4.243665525e-21
3.297547852e-21
1.073222003e-20
1.857293355e-21
1.700662184e-21
1.008093147e-20
1.034965851e-20
6.879079271e-21
7.46525611e-22
2.935133062e-21
5.752778897e-21
1.86282247e-20
7.857382434e-22
2.456889452e-21
3.120866637e-21
3.154407666e-24
2.891393479e-21
7.402256312e-21
1.539871564e-20
3.784058945e-21
1.905978593e-22
4.833056054e-22
1.321516327e-20
1.797870753e-21
1.174299801e-21
2.701059426e-21
2.481727811e-21
6.299846806e-21
4.816019268e-21
1.456414169e-21
1.977520678e-21
6.727932128e-21
2.814335567e-20
1.301353285e-20
7.8163659e-22
5.724758142e-21
4.081250081e-22
1.75308642e-21
2.738396465e-21
9.019375317e-21
6.402870015e-21
3.019312427e-21
3.173549386e-21
1.342026489e-20
1.205511227e-21
4.120576746e-21
8.143515728e-21
3.165472704e-21
5.472695031e-21
4.306462812e-22
3.159705501e-21
3.694740789e-22
5.560659652e-21
5.938572985e-22
2.115437483e-22
2.340145813e-21
4.00291429e-21
2.876973995e-21
4.271861539e-21
9.393487528e-21
3.040445038e-22
2.625913232e-21
1.102552649e-20
3.305818088e-21
1.514164817e-22
1.688954456e-20
1.333187086e-21
5.582324461e-21
7.300564208e-21
1.671931243e-21
1.571837886e-21
7.318700747e-22
9.412908324e-22
4.071201388e-21
8.075046696e-21
8.419907551e-22
2.54067686e-20
1.161469029e-22
4.770725488e-23
2.511425336e-21
1.325876921e-21
6.094104778e-22
7.029547773e-21
4.217164549e-21
5.839343993e-21
3.983447464e-22
2.751138124e-21
6.851550482e-21
2.970311982e-21
8.240260691e-22
3.099160228e-21
6.781204875e-22
1.287765558e-21
6.098504252e-22
1.876076561e-21
1.652081018e-21
4.13409651e-22
4.422213527e-21
6.244155346e-22
7.619418855e-21
4.440230021e-21
1.316295006e-21
9.398195647e-22
1.28437741e-20
5.493290453e-23
1.0357893e-20
1.027221864e-21
3.585961823e-22
3.094154985e-21
5.734127875e-21
3.301427935e-21
3.839236869e-21
3.308997801e-21
5.219828518e-21
5.701852545e-21
3.770993518e-21
5.794304942e-21
6.447334693e-21
4.982353701e-21
1.395195023e-21
5.833542266e-21
2.525829377e-20
1.563169734e-21
2.610755714e-21
8.723095189e-22
7.427198476e-22
1.065666338e-20
1.130454124e-20
1.172794817e-20
5.920260003e-22
3.942493444e-21
4.767351121e-21
4.703401543e-20
1.332061215e-21
1.284606647e-20
7.937816985e-21
1.747900896e-21
8.808427066e-21
4.84582187e-21
1.105419856e-20
1.721935871e-21
6.2266116e-21
2.130635044e-21
5.731814156e-21
2.7294606e-21
3.052842523e-21
2.745282646e-21
1.959536061e-21
2.713953788e-20
1.181234983e-21
4.527626362e-21
5.726723135e-22
4.401153266e-21
8.580372257e-22
1.986035043e-21
8.064294083e-22
5.852018994e-21
1.97773516e-21
2.381761789e-21
3.124198145e-21
1.330856502e-21
2.136737238e-21
2.627195782e-21
2.176129192e-20
1.351737336e-20
1.539499558e-21
3.464800796e-21
2.399006352e-21
8.494131935e-22
8.69814382e-21
3.653673778e-22
2.053821572e-21
9.324898888e-22
2.431060096e-21
6.465209024e-21
3.486548301e-21
4.405166115e-21
1.456371683e-21
1.556881305e-20
6.100975628e-21
3.921326993e-20
2.300292925e-21
2.760081732e-22
4.738857068e-21
4.107744029e-21
1.641918965e-21
1.408226271e-21
2.817730531e-22
2.318645005e-21
1.186793794e-20
7.047231744e-21
1.19101912e-20
1.26922e-20
3.303750932e-21
7.503326382e-21
5.451204375e-21
2.178465762e-21
2.293114868e-21
2.142352273e-20
2.446239681e-21
5.903179617e-21
2.712596968e-21
5.599749721e-22
2.055012943e-21
1.144374978e-20
3.876005813e-21
1.362672467e-22
4.534635395e-21
1.564445087e-20
3.510094623e-21
9.964771308e-22
9.005890435e-23
9.220685801e-21
8.445277486e-21
7.143709648e-22
3.198908472e-21
4.37302781e-21
1.757497482e-20
5.743882979e-22
4.416298896e-21
1.258653941e-20
3.610135821e-21
1.916334726e-21
1.109798764e-21
8.393913851e-21
3.544387788e-21
4.823969885e-21
3.820368349e-21
5.780078783e-23
8.737034629e-22
1.997260693e-20
3.365712621e-21
7.284400335e-22
5.19058363e-21
2.209233224e-23
1.647158584e-21
3.47937423e-22
1.192272058e-20
1.404289158e-21
1.525584467e-22
8.857305499e-21
1.622620845e-21
5.585291779e-21
5.15735366e-21
3.413478599e-21
5.542062341e-21
1.694940429e-20
1.058217557e-20
3.305549249e-22
6.536161785e-21
1.034808524e-20
1.545750107e-22
9.753035335e-23
1.590802333e-20
5.966463258e-21
2.548558078e-21
1.561485998e-20
6.853433504e-21
1.471905687e-21
5.781403288e-21
9.101827083e-22
1.944436442e-21
1.434707736e-21
4.250743522e-21
1.713396792e-22
2.118719336e-21
2.967028484e-21
4.242577804e-21
1.138195163e-20
4.970907111e-21
8.973738998e-21
3.073935969e-22
3.895744086e-21
2.405126606e-21
1.776336595e-21
6.21791942e-21
9.178468044e-21
4.737108295e-21
3.771512992e-21
1.315789118e-20
1.894306531e-21
9.066023735e-22
4.454070616e-21
5.67539031e-21
1.199411246e-20
6.336770442e-22
3.201328125e-21
6.448340201e-21
3.428377396e-21
1.288707188e-20
3.922315512e-21
3.273541492e-21
6.794487436e-21
1.736713783e-22
4.824109504e-21
3.766568049e-21
6.075311894e-23
2.519091202e-21
3.851351178e-22
8.112297007e-21
1.260122517e-21
3.229397376e-21
6.632608455e-21
3.07860834e-22
1.859957194e-21
1.563641612e-22
3.971270366e-21
2.373346131e-21
2.271843088e-21
1.678679288e-21
7.900970807e-22
1.230235257e-21
4.437563179e-21
4.836592803e-22
4.046988292e-21
8.274823881e-21
9.460557658e-22
7.843838263e-22
4.521578043e-21
2.625514808e-21
2.294360156e-21
3.915243978e-21
4.383695581e-22
1.495230752e-20
1.869673391e-21
1.478941689e-20
1.962431969e-21
4.591390505e-21
9.053068188e-21
5.189079464e-21
3.257676798e-21
3.75570038e-21
1.530969047e-21
9.591585096e-21
3.921248288e-21
6.16432273e-21
2.060221311e-21
3.26418248e-21
3.41433014e-21
3.499855263e-22
3.647906333e-21
5.355609671e-21
1.881216555e-21
4.35550726e-21
2.46193825e-21
5.752401942e-21
7.081703307e-21
9.267553173e-21
3.454048272e-22
5.374158281e-23
1.111372675e-22
6.263473744e-21
2.816321926e-21
1.739334495e-21
3.160628833e-21
1.814159019e-22
1.312484096e-21
3.863337489e-21
1.852931786e-20
5.263039665e-22
7.382866209e-21
6.712665954e-21
5.218337474e-21
1.037764356e-20
3.810457705e-21
1.010922726e-21
2.575501454e-21
9.272350238e-22
7.217849532e-22
4.575090331e-21
5.955289743e-21
4.446805161e-21
1.427535229e-23
6.73623468e-21
6.321657483e-21
1.543757554e-20
1.372611021e-21
8.833528954e-22
4.488100532e-21
5.85343054e-21
2.713538503e-21
3.360633429e-22
1.592820265e-20
1.352689757e-22
7.128884719e-21
8.164220444e-21
1.891467607e-21
3.329847584e-21
2.364309812e-21
3.912605309e-22
8.541244885e-21
2.322479206e-21
4.626213271e-21
8.055803395e-21
1.471362318e-22
2.755673328e-21
2.603099125e-21
8.551376164e-22
9.931456859e-21
3.027281e-21
3.611472712e-23
6.690609362e-21
3.08988053e-21
5.044655282e-21
5.516668816e-21
1.628903223e-20
3.118672722e-21
4.340228885e-21
8.637200455e-22
4.076100587e-21
5.807866433e-21
1.317744945e-21
3.087226626e-21
8.247243776e-21
2.027139527e-23
2.108998048e-21
4.379669806e-21
8.808373697e-22
2.036403998e-21
2.321281197e-22
3.062974388e-21
2.594028471e-21
5.030768164e-21
9.637021164e-22
6.467455356e-23
3.598302786e-21
7.401403359e-22
1.166766603e-21
1.789209698e-21
1.153087994e-21
2.456724917e-21
3.681960194e-22
3.668888596e-22
1.457171858e-21
5.607418725e-22
7.96136662e-21
8.060683809e-22
1.712795645e-22
9.873329734e-21
8.783739249e-21
5.165667793e-21
2.415921077e-20
8.413296894e-23
4.679618647e-21
1.485618722e-20
2.061363591e-21
2.48824046e-21
2.270325329e-22
9.806865462e-22
5.206835874e-21
2.06875634e-21
2.134283759e-20
6.521784126e-21
4.615802671e-21
1.865484272e-22
5.50255634e-22
1.773049999e-21
7.698579804e-21
2.76402848e-21
3.860173166e-21
1.236521574e-21
1.105807619e-21
1.032652107e-20
8.758418371e-22
6.165790795e-22
5.42461175e-21
5.599236052e-21
4.808378799e-21
3.303550073e-21
4.197778489e-23
2.487769744e-21
6.520830336e-21
1.776121465e-21
9.32683306e-23
5.593840463e-22
5.961412901e-22
6.563963247e-22
1.485262826e-21
5.202425656e-22
1.947977218e-21
1.253057652e-21
4.542823734e-22
4.936569197e-22
1.005053636e-21
5.125499694e-22
1.022488491e-20
7.506224381e-21
1.623736202e-22
1.746786428e-21
6.264709903e-21
6.989667528e-21
3.559974554e-22
1.09540374e-20
3.640312791e-21
3.199107619e-21
7.69798812e-21
1.314339526e-21
4.449479186e-23
1.14288718e-20
4.157554559e-22
5.959109264e-21
2.61607487e-21
1.240918926e-20
1.834942546e-21
7.050987346e-21
1.509074541e-21
7.579824915e-22
2.094487467e-21
6.036277907e-23
2.181999691e-21
3.074577405e-21
1.734069581e-21
3.785636097e-21
6.926003816e-21
3.055144371e-22
2.119320727e-22
2.413730801e-22
9.852287598e-23
8.381309977e-21
8.964429098e-21
1.017629331e-20
6.965155526e-21
3.371799684e-21
3.775017656e-22
3.426501368e-21
7.445883162e-22
3.028656406e-21
5.841287185e-21
1.309949464e-21
2.4322488e-21
1.475690527e-20
4.405205931e-21
1.264790554e-20
2.890101092e-21
1.628836364e-21
1.642977521e-21
4.362612365e-21
1.397650921e-20
8.557756491e-21
5.058856854e-23
1.513919187e-20
5.867257686e-22
2.953552389e-21
1.128361327e-20
2.023671901e-22
1.052626061e-20
4.943562049e-20
3.348282595e-21
1.247625881e-20
1.149311384e-22
1.190892927e-20
1.236307959e-20
3.520220005e-21
2.281408876e-21
1.069180921e-20
2.660071295e-20
3.021571106e-21
5.285339161e-22
3.752161713e-21
1.662426719e-21
1.836988741e-22
2.081787767e-21
4.248473709e-21
8.993909101e-21
1.252153517e-20
2.867548494e-22
1.049533782e-20
3.483817867e-21
2.281694697e-20
3.098895682e-21
4.786580554e-23
3.189853988e-21
7.229263076e-21
2.587197326e-21
4.486787826e-21
3.399080982e-21
2.535214469e-21
1.380302177e-21
1.438028826e-20
3.68104637e-21
8.80385366e-21
1.890586969e-21
7.04541263e-22
2.152874933e-21
9.993108549e-23
7.403489049e-21
5.04809754e-22
1.053680883e-20
5.621600763e-21
3.983793661e-21
9.132771016e-22
1.109880625e-20
8.854989925e-21
3.891475701e-21
5.30119464e-21
1.255746386e-20
2.78023784e-21
2.058176507e-20
2.870447327e-21
9.23995409e-21
8.462919223e-22
2.975677404e-21
6.680399746e-22
2.897824394e-21
6.356492738e-22
2.467406434e-21
1.905639892e-20
9.095216577e-22
8.38597259e-21
3.187147489e-21
2.174601586e-21
8.386714021e-22
7.493310616e-21
2.290069396e-21
3.315050755e-21
1.188363029e-21
2.179930925e-20
8.624841107e-21
2.685450161e-21
9.61769797e-21
2.029657707e-20
8.491223472e-21
3.791467587e-21
3.303389175e-22
1.626165463e-20
1.23047566e-20
1.615433514e-21
3.749132395e-21
3.266602848e-21
9.22837552e-21
4.229686758e-22
1.398003949e-21
8.473323804e-22
4.532557024e-21
7.685759093e-22
6.546066015e-22
1.255116044e-21
6.488675168e-21
2.59444625e-21
8.569344588e-21
5.176887332e-21
1.81568121e-21
4.109647853e-21
1.466833759e-21
2.517955416e-21
7.867050938e-21
2.167970313e-20
7.916869239e-22
7.835697712e-21
2.656051167e-21
7.333082828e-21
2.799969187e-21
5.315161553e-21
2.784354125e-21
1.348730828e-21
4.002523793e-20
5.190979318e-21
3.588975106e-21
1.945811297e-21
2.313665927e-22
4.223458218e-21
4.456720979e-21
1.767929158e-21
3.06599266e-21
6.441884087e-22
1.82674207e-21
4.650981975e-22
7.95041417e-23
9.750208466e-21
1.73232551e-21
1.324504965e-20
3.034879801e-21
7.906192588e-21
2.23136445e-21
1.2294236e-21
3.436689465e-21
5.371876455e-21
5.636108426e-21
4.739956548e-21
1.430267341e-20
3.18687657e-21
3.181674185e-21
5.042117801e-21
5.912075841e-21
3.03359507e-21
5.713787887e-21
2.053828655e-21
2.140576699e-22
5.933834401e-21
3.702579751e-22
7.493539513e-21
4.087093904e-21
6.934256859e-21
8.943101324e-21
2.956641189e-21
1.687459017e-21
2.094601205e-21
8.813728869e-21
1.043347526e-21
3.578826837e-21
7.295647823e-21
4.321109092e-21
3.21292675e-21
4.461781814e-22
3.011417053e-22
4.360143362e-21
1.517043065e-20
6.227743757e-21
3.398055921e-21
1.684471287e-22
2.073350933e-22
1.435840823e-20
3.024746747e-22
9.318677787e-22
3.572496902e-21
5.074401127e-21
9.795156442e-22
1.455318491e-21
9.86974068e-22
2.02835838e-20
3.44981778e-21
7.722035316e-21
4.052165908e-21
1.59746479e-22
9.746683855e-22
1.592576312e-21
5.541463361e-21
8.322638583e-21
1.289129821e-21
3.048186391e-21
1.789385391e-21
1.026846882e-21
8.040979814e-21
8.746760991e-21
4.39400686e-21
2.494180171e-21
3.446954066e-21
8.057031836e-21
3.373616521e-21
6.665705807e-21
3.937652179e-22
5.790931772e-21
1.267114235e-20
8.131468901e-21
5.501632407e-21
1.525663879e-21
1.694993846e-21
2.260878251e-21
6.996083307e-21
6.575847151e-21
5.271473178e-21
6.237815695e-21
5.617056033e-21
1.089643149e-20
1.460489282e-20
1.158120072e-21
3.421601787e-20
3.883247194e-22
1.361176369e-21
3.351718554e-21
9.06485137e-22
1.398870587e-21
4.49659393e-21
1.11956965e-20
9.128240603e-22
5.697927574e-21
1.925595828e-21
1.056579481e-21
4.476598347e-21
1.09205151e-20
2.954961908e-21
4.980487827e-21
1.115628911e-20
1.269665314e-21
8.910875569e-21
9.743778839e-21
4.187433357e-21
1.762144344e-21
3.902179079e-22
2.510381768e-21
1.113863798e-21
1.296054534e-21
4.122731951e-21
5.44256045e-21
3.005078485e-22
2.063650599e-21
2.86084949e-21
1.201809817e-21
4.236108955e-21
6.734973679e-22
3.308072921e-22
7.822980956e-22
6.62358586e-21
6.842641751e-21
7.508245157e-21
2.6389139e-21
2.983499698e-21
2.149703976e-21
2.720171938e-21
1.196720063e-20
8.94655101e-21
5.364882719e-21
3.615369367e-21
2.557841685e-21
3.345737683e-21
1.33280553e-21
2.517049772e-20
3.705547855e-21
8.046687604e-21
1.477200773e-20
5.958355493e-21
1.552655684e-21
8.25507393e-21
2.53413428e-21
9.992558051e-21
1.475665937e-21
1.967669049e-21
3.028081191e-21
1.804835545e-20
3.85711869e-21
3.308974986e-22
2.327804522e-21
1.106825501e-21
3.159633775e-21
1.152713123e-20
7.676217196e-21
2.178637685e-21
2.025804402e-21
2.0282443e-21
6.907036108e-21
7.822940096e-22
4.368619315e-23
2.434030363e-21
7.827099595e-22
8.410168432e-21
2.940084195e-21
4.849765752e-22
1.142094326e-20
6.589865585e-21
2.086480153e-20
1.434525305e-21
1.423623852e-21
1.096148989e-20
1.770817368e-20
5.887039148e-21
1.009481013e-20
3.750283429e-22
1.417325804e-21
9.246954227e-22
7.12150672e-21
3.31357684e-21
2.757036575e-21
6.397155014e-21
6.557939389e-23
2.449550147e-21
1.037208111e-21
5.589196793e-21
6.936339325e-21
3.175639592e-21
2.960226351e-20
4.239941553e-22
3.601563719e-21
3.805218849e-22
9.584403921e-21
9.753094022e-21
1.309341014e-20
4.802291878e-21
4.957177706e-21
5.908366963e-21
1.231285893e-21
2.057964502e-21
1.394280974e-20
3.637149805e-21
1.108986329e-20
1.078641252e-21
4.634385473e-21
1.479639563e-21
1.037197295e-20
4.105998802e-21
6.291533195e-21
1.494664287e-20
9.256038013e-23
5.847825167e-21
5.928812827e-21
5.389108192e-23
1.38030657e-21
1.25358844e-21
4.801504931e-21
1.284661361e-22
7.409372298e-22
3.72134883e-21
1.134309841e-21
6.713921178e-21
1.335844331e-21
2.854943705e-21
5.233663461e-21
1.185899646e-20
2.468276296e-22
1.165675135e-21
2.230867093e-21
4.665079772e-21
7.40155782e-22
2.389535077e-22
4.245620612e-22
1.08989312e-21
7.321732678e-21
1.432385516e-21
9.057626606e-21
1.833480003e-21
1.105702479e-20
5.721997654e-22
2.080672104e-21
2.171935264e-21
8.338724269e-22
4.890296113e-21
1.453782703e-21
6.232653686e-22
3.429126593e-21
8.027216232e-21
1.809935211e-21
6.990433254e-21
5.220388703e-21
5.306255746e-21
2.812835113e-21
9.549599558e-22
3.82251592e-21
1.149827817e-21
2.931355887e-21
2.295027252e-21
3.512916642e-21
1.360768887e-21
1.105330952e-20
1.422639611e-20
2.166411094e-21
5.228604157e-21
3.018416752e-21
6.137415813e-21
1.39125304e-21
2.038474841e-21
8.923916213e-21
1.889348962e-21
1.402550698e-21
2.35490288e-21
9.846028024e-21
2.338331717e-22
4.032596815e-21
1.920604079e-21
9.739609259e-21
2.440450057e-21
8.277726355e-21
1.174788166e-21
2.515393631e-20
3.356118223e-21
2.803267328e-22
1.949919941e-21
4.323252554e-21
4.203950793e-22
2.201608037e-21
3.716974522e-21
1.401340575e-20
7.022450377e-21
6.469969385e-21
3.519125523e-21
3.596818475e-21
5.799222909e-21
4.193127063e-21
4.019974164e-22
9.440545178e-22
3.731586172e-21
1.71320449e-20
1.401685301e-21
1.597903749e-21
8.205476812e-21
2.08622975e-21
1.865822143e-21
6.223184209e-21
6.240803359e-21
1.901052404e-22
4.127634673e-21
2.860353853e-21
3.146089463e-21
1.98009264e-21
2.282632226e-21
1.00628203e-21
8.900575086e-21
1.93868861e-21
2.012629942e-21
1.391707956e-21
1.975836795e-21
1.386113828e-21
4.221821548e-21
4.689064347e-21
1.663031021e-21
1.045178902e-21
4.564997699e-21
1.232367064e-20
2.33200468e-21
1.995074621e-21
1.184954593e-21
4.97815338e-21
4.68043522e-21
3.057628559e-21
7.555411697e-22
1.228114689e-20
3.660813285e-21
3.22842939e-22
3.40477372e-21
8.718064643e-21
6.260563577e-22
1.192492105e-21
9.442435833e-21
5.238909941e-21
3.224298629e-21
3.988118553e-22
1.219897217e-20
7.012593788e-21
4.145223685e-22
6.764081226e-21
3.146370867e-21
6.948332255e-22
2.597608639e-21
6.253504463e-21
1.607646103e-20
1.501137665e-22
5.48103841e-22
1.975168107e-21
4.235012281e-21
2.395601333e-22
6.66132616e-21
1.6605368e-21
7.76868378e-21
1.620377564e-20
1.986593141e-22
3.061221585e-23
4.21947567e-22
2.56096716e-21
1.886043404e-21
2.071159842e-22
1.787865932e-20
2.807402406e-21
3.002194136e-21
5.726411606e-22
5.9945963e-21
1.985213879e-20
7.979677741e-21
4.512147224e-21
2.069297097e-21
1.154382036e-21
1.016216632e-21
2.036398788e-21
1.451085965e-20
1.971274146e-21
3.087272357e-20
1.84314132e-20
1.490012146e-20
8.604246898e-21
5.776139478e-21
1.676159051e-21
3.806008022e-22
2.217923501e-21
5.846247434e-21
9.153555355e-21
1.644049641e-21
7.641977409e-22
2.974487062e-21
7.581395354e-21
2.134162527e-21
1.142717613e-20
2.633974352e-22
8.428298908e-22
8.285481168e-22
5.482659293e-21
3.060914118e-21
2.317206054e-21
1.517078461e-20
3.755040339e-21
1.835013297e-21
8.331115203e-22
4.720357863e-21
2.017707535e-22
1.756505208e-22
9.780052965e-22
3.069008638e-22
7.012352821e-21
3.825282876e-21
3.53993342e-21
4.056777423e-22
4.874025293e-21
1.347294536e-20
1.582175652e-20
1.610678665e-21
1.339203758e-21
1.982627425e-22
9.992768898e-22
1.410634798e-21
4.202193473e-21
9.108772278e-22
2.814282951e-21
1.722626143e-21
7.191787609e-21
3.271184514e-21
8.284565937e-22
4.089500718e-21
2.535514396e-20
2.426876315e-21
3.382024409e-21
3.192878178e-22
9.271281003e-22
4.49063083e-21
3.583944064e-21
2.029374415e-20
1.777222566e-21
8.314372506e-22
7.984560827e-22
3.929298757e-21
1.073987625e-20
1.520693044e-21
3.416043616e-21
3.063660842e-21
2.160722693e-21
1.122667925e-20
1.010780941e-20
1.078106089e-21
4.827096878e-21
4.565652803e-21
1.18413249e-21
2.100965963e-21
1.940341853e-21
3.656736559e-21
4.525076197e-21
6.028210266e-22
1.321748984e-20
3.391090819e-21
2.622378986e-21
1.285254042e-21
8.177707445e-21
2.228240384e-21
4.43158288e-21
1.013414921e-20
7.897013562e-21
6.821942329e-22
1.290105286e-22
9.77890671e-21
1.322271256e-20
4.103799517e-21
1.984012605e-21
4.706708627e-21
5.647035094e-21
1.917599075e-21
1.062187597e-20
9.003536632e-21
1.262557219e-20
1.798310066e-21
2.267347974e-21
8.557979906e-22
6.478238884e-21
2.211162593e-20
1.736545241e-20
7.476532288e-22
2.659936908e-21
6.652761621e-21
9.020535969e-21
3.719014758e-21
2.977507353e-21
5.443483234e-21
3.685669067e-21
1.1034363e-20
5.596919375e-21
1.195666655e-20
8.425965e-21
1.455549821e-21
3.740276242e-23
1.273718001e-20
1.194666394e-21
2.70542476e-21
2.366761668e-21
6.510067385e-21
1.46126936e-21
6.079547298e-23
5.16644477e-21
3.038860196e-21
3.088443913e-22
2.895615826e-22
1.739503962e-20
1.060773952e-20
3.431379201e-21
2.528445172e-21
7.090366577e-22
2.284911378e-20
1.278346244e-20
2.901884453e-21
6.030492449e-22
1.932618475e-22
9.908489345e-22
2.755240959e-21
7.155362482e-22
2.56990955e-21
2.397293567e-21
2.13431458e-21
6.419334601e-22
4.66586601e-21
4.480556962e-21
2.850032213e-21
6.081814179e-22
3.083013667e-21
1.05283537e-20
1.115219357e-20
6.358285819e-21
6.953741565e-21
3.020037097e-20
1.300766258e-21
1.828057036e-21
3.454334946e-21
2.796670691e-21
8.564514885e-21
7.652572944e-21
4.819194482e-21
2.249090793e-20
9.20416402e-21
9.042134636e-22
8.783563489e-22
8.563104426e-22
4.910835653e-21
5.406928978e-21
3.537225819e-21
8.331621787e-21
1.078262551e-20
2.516607863e-21
6.423865797e-21
8.100619166e-22
3.472616667e-21
2.356734157e-21
1.963541085e-21
2.64907138e-21
2.489914345e-21
3.053796991e-21
2.020815414e-21
4.917003132e-22
2.484586791e-21
1.229924452e-20
9.733054311e-21
1.299075864e-21
1.426808222e-20
2.722214329e-21
1.231356078e-20
5.795687546e-21
4.434431289e-21
4.765520048e-22
8.699679639e-21
1.067717265e-20
4.228929864e-22
6.172226972e-22
2.576502233e-21
3.50937013e-21
1.222119767e-22
3.988064743e-21
6.893080202e-21
1.255634262e-20
3.759416054e-21
1.969982582e-20
7.729671592e-22
2.812048623e-21
2.993383977e-21
2.655573614e-23
8.335474645e-21
2.626904423e-21
4.59025963e-22
1.366485749e-21
1.393602707e-21
6.683603177e-22
5.379933579e-21
1.485188912e-20
2.738082569e-21
1.247599559e-20
6.962443216e-22
1.15013932e-20
1.982569491e-21
1.411256726e-21
6.157763125e-21
8.409128988e-22
9.652041672e-22
1.411619974e-21
1.346958627e-20
7.191562418e-21
3.640058543e-22
7.023013139e-21
1.637202339e-21
9.079389201e-21
4.706025162e-21
2.511281865e-22
1.192034705e-21
1.068442815e-21
2.41198528e-21
5.438880424e-21
1.198733422e-20
2.232203624e-21
9.447871814e-22
1.125808786e-21
1.231979384e-21
7.327198536e-21
3.926432694e-21
2.985667846e-21
4.857971806e-21
6.15425071e-22
9.999609957e-22
6.052131051e-21
5.162328159e-21
2.332448077e-21
6.19402463e-22
7.103902663e-22
4.152337784e-21
6.77710412e-21
1.087659615e-20
3.475850823e-21
7.041507855e-21
6.348906664e-22
3.819330013e-21
2.597912792e-21
2.588603605e-21
6.001323619e-21
6.000912808e-21
4.434389543e-21
5.060880381e-22
9.938468965e-21
4.512848571e-21
4.51168325e-22
1.660665231e-21
2.30507846e-22
1.907627857e-21
4.82921554e-22
6.782143647e-21
1.31911867e-20
8.166136171e-21
1.28393336e-21
5.280618492e-21
5.614765657e-21
1.88917133e-21
3.030799068e-21
4.417496216e-21
9.052104009e-21
4.243638173e-23
1.540340377e-20
1.689976772e-20
2.42075747e-20
2.340754852e-21
1.150110112e-21
6.663167806e-21
6.458289686e-21
1.367601107e-22
2.301626686e-21
6.936973073e-21
4.980214529e-21
2.77234679e-21
5.847338613e-22
2.479527721e-22
1.359200296e-20
4.775657661e-21
5.817365245e-21
2.312217451e-21
1.364308106e-20
5.797155708e-21
1.110850249e-21
8.333500021e-21
2.322363641e-21
8.17102088e-22
1.418796693e-20
1.37944937e-22
6.838040725e-22
1.059390183e-21
1.425808746e-21
6.436581039e-22
3.556564713e-21
6.265942322e-22
5.133330109e-21
8.107836633e-23
8.839288417e-22
4.978070692e-21
1.234543293e-22
3.617386094e-21
2.349832338e-21
3.927202663e-21
1.845541554e-21
1.813456488e-20
3.820475831e-21
2.087641672e-21
7.548526019e-22
1.529223693e-21
4.845056585e-21
4.318523984e-21
4.57746868e-21
1.350132789e-20
5.352679405e-21
1.042810195e-20
2.050504839e-20
2.579506996e-21
4.648968311e-22
1.862938697e-20
3.196930718e-21
3.692049848e-21
3.497137164e-21
2.632782513e-20
2.395549952e-20
3.455255791e-21
2.321571564e-21
7.699127318e-21
5.708283766e-22
8.982787285e-21
5.453140626e-21
1.811727474e-20
3.593867873e-21
4.49548417e-21
2.080898137e-21
3.748331674e-21
2.204096288e-20
2.802840074e-21
2.790648261e-21
1.762164502e-20
2.263947731e-21
4.931261253e-22
4.967800834e-21
1.5786335e-21
3.552746421e-22
2.226749506e-21
2.572087524e-21
6.529779429e-21
6.024454793e-21
4.873953709e-21
2.722246225e-21
3.320786638e-21
2.073822515e-21
2.18016056e-21
6.784332216e-22
2.943297233e-21
9.115776043e-21
1.047583723e-21
2.081204556e-21
2.40540916e-21
4.655194075e-21
4.181601143e-23
3.728652563e-22
7.187096282e-22
1.982877004e-21
4.616349088e-21
7.77746466e-23
2.067896608e-21
2.527355156e-21
9.31511868e-21
1.700781561e-21
1.451027518e-21
6.985315442e-22
6.171173212e-21
3.777835745e-21
2.578765689e-21
4.055172896e-21
5.867754501e-21
2.736082507e-21
6.461692068e-21
7.462068763e-22
8.766886177e-22
4.138253354e-21
3.72310082e-21
1.697819745e-21
2.005864928e-22
2.610756065e-22
6.01895698e-21
5.68742206e-21
6.750114062e-21
4.24335367e-21
1.802168116e-20
1.22779131e-20
3.799026183e-21
1.159905032e-21
2.985279142e-22
4.434179518e-21
5.900929667e-22
3.072968883e-20
5.722408411e-22
6.958068332e-22
5.809225687e-21
1.335425765e-21
1.262806474e-21
1.190966828e-20
4.003571331e-21
1.940232327e-21
4.888337287e-21
1.279584753e-21
1.05189774e-20
2.437079118e-21
6.963820628e-21
2.293089646e-21
1.75890635e-21
7.113584648e-21
1.551805775e-21
1.164347488e-21
4.62202387e-21
7.911912329e-22
1.232263084e-21
7.509992448e-21
2.007742641e-21
3.902337118e-22
1.083782625e-21
1.118679339e-21
3.164082809e-21
2.807462328e-21
7.658119673e-21
5.323734982e-21
6.295510535e-21
5.786071343e-21
7.881302488e-22
4.11759009e-21
3.820193949e-22
1.16036374e-21
1.63425789e-21
2.557959933e-21
8.764509472e-21
4.280006457e-22
7.049040416e-21
1.477194433e-21
8.606714945e-21
9.566802185e-21
2.989435314e-21
1.228533372e-21
6.25997066e-21
3.118430291e-22
1.862107774e-20
4.51065227e-22
1.827276801e-21
5.196503954e-21
5.094630393e-22
1.203595803e-21
9.363020903e-21
1.093057213e-20
3.534107903e-21
1.287678429e-21
4.018223139e-21
8.267421196e-21
1.429219512e-20
4.440334642e-21
1.297181092e-21
6.119961022e-21
2.244561785e-22
9.402949817e-21
2.503725127e-21
1.671865883e-21
1.842488802e-21
1.290851357e-21
4.592312704e-21
1.411476374e-21
3.148762417e-21
5.66756343e-21
2.040871021e-21
6.017645819e-21
9.99515935e-21
1.099425157e-20
1.454418781e-20
4.197679846e-21
5.714662095e-21
1.236348601e-20
4.270206964e-21
4.370539628e-22
4.507947e-21
3.024276695e-21
1.462128776e-20
2.394563137e-21
3.146336144e-20
3.166732864e-21
3.055711405e-21
4.422761194e-21
8.291678456e-21
1.376200616e-21
7.04489946e-21
1.240609983e-21
2.761023354e-21
4.733357892e-21
1.29189416e-21
3.296265942e-21
1.963371213e-21
3.344123029e-22
5.935835865e-21
2.467597318e-21
1.176394582e-20
6.835457708e-22
8.112719871e-21
6.05464659e-21
3.296456323e-21
5.031011078e-21
2.854469773e-20
2.894116677e-22
2.135711709e-21
6.153535621e-21
4.158335842e-21
9.053119565e-23
3.029990827e-21
4.069944834e-21
3.064503453e-21
4.587475981e-21
3.110825321e-21
7.673169507e-21
2.356067577e-22
4.609532713e-21
9.083039983e-21
1.739176969e-20
1.471081018e-21
9.738654708e-22
6.726950572e-21
1.14899725e-20
3.242840204e-21
4.885697069e-21
3.325648498e-21
7.689029801e-21
5.608754153e-21
2.681035972e-22
3.296535138e-21
9.88015665e-22
1.421929456e-21
1.17164749e-20
2.872144024e-21
3.062575103e-21
5.553216292e-21
3.191721029e-21
1.734000421e-20
4.607782108e-21
5.024471374e-21
5.809146506e-21
1.6361367e-21
2.310158012e-21
3.818556606e-21
5.28571972e-21
4.129771527e-22
7.514034732e-21
1.024741643e-21
7.770740187e-21
2.883511044e-22
9.989173447e-21
2.454812581e-21
4.8053358e-21
6.877691218e-21