/*--------------------------------*- C++ -*----------------------------------*\
| =========                 |                                                 |
| \\      /  F ield         | OpenFOAM: The Open Source CFD Toolbox           |
|  \\    /   O peration     | Version:  2406                                  |
|   \\  /    A nd           | Website:  www.openfoam.com                      |
|    \\/     M anipulation  |                                                 |
\*---------------------------------------------------------------------------*/
FoamFile
{
    version     2.0;
    format      ascii;
    arch        "LSB;label=32;scalar=64";
    class       labelField;
    location    "0.005/lagrangian/dsmc";
    object      origId;
}
// * * * * * * * * * * * * * * * * * * * * * * * * * * * * * * * * * * * * * //


6206
(
208904
209707
245352
210402
211621
245045
208391
245040
245143
211903
209530
210267
211303
210563
211050
247284
210987
211812
215393
211924
211926
211051
211497
209463
210579
211022
211294
210559
246472
211629
212771
209692
211723
212329
246357
246747
210391
210828
211737
211993
212851
215296
211440
211039
211467
211656
211831
211943
212155
212180
212360
245857
211865
210193
211091
211458
211799
210841
211110
211202
211298
211469
212098
212177
212425
248413
211290
211451
211606
211809
211932
212099
212365
212433
212603
212798
210067
211087
211546
211822
211844
212025
212051
212136
212218
212541
212939
247190
212489
211302
211565
211701
211975
212215
212230
212269
212346
212473
212555
212561
213111
213239
213484
244703
210983
211460
211919
212160
212361
212618
212786
212848
212861
213648
215389
216075
212847
210688
212045
212085
212096
212236
212514
212608
212696
212876
212967
213154
213228
213756
214497
247699
248215
243457
248608
246967
210945
211590
211630
211824
211870
212086
212237
212340
212528
212537
212638
212655
212722
212968
213069
213207
213208
213271
213304
213404
213607
247905
248809
216520
247088
212681
217653
242643
248916
211653
212062
212165
212192
212216
212264
212336
212338
212424
212432
212531
212621
212670
212685
212721
212777
212806
212871
212948
213041
213042
213153
213355
213464
213479
213619
213753
213770
214001
245046
215112
244943
247692
211073
211513
211915
211944
211962
212104
212108
212152
212242
212375
212443
212533
212607
212628
212658
212697
212742
212782
245741
212853
212932
212976
212991
213040
213242
213289
213310
248827
213494
213650
213735
213766
245949
248087
246978
248494
211873
211650
211707
212059
212143
212154
212235
212645
212686
212728
212764
212863
212940
212946
212979
213065
213116
213136
213232
213284
213300
213354
213368
248614
213656
213733
213845
214035
248102
215817
211712
247890
212049
248825
217570
246468
247184
247899
211127
211949
212153
212350
212369
212513
212521
212556
212600
212614
212652
212868
212870
212941
212958
212981
213021
213127
213237
213243
213295
213389
213467
213725
213767
213813
213842
213930
216074
247269
248103
213195
249227
211984
211995
212019
212047
212436
212558
212703
212788
212828
212862
212877
212965
212975
213048
213050
213209
213217
213292
213298
213306
213326
213370
213371
213395
213521
213523
213644
213670
213689
213730
213743
213839
215018
216610
247563
218109
218379
218714
27111
211626
210615
212087
212422
212495
212616
212620
212651
212772
212885
213025
213046
213101
213146
213213
213291
213313
213328
213381
213450
213463
213493
213544
213634
213701
213771
213973
214296
214379
215022
215818
246573
218202
27117
246775
246459
249321
209837
212179
212280
212447
212538
212548
212560
212790
212883
213084
213113
213132
213293
213301
213319
213324
213466
213469
213474
213549
213582
213625
213627
213635
213828
249013
244520
248611
249011
218284
218631
218973
245727
249086
211636
212046
247593
212522
212704
212709
212717
212880
212956
212957
212973
213039
213045
213073
213163
213174
213251
213393
213394
213420
213480
213512
213588
213598
213630
213636
213674
213726
213745
213748
249537
213934
213936
214015
214048
214077
214139
214172
214196
214217
214291
214347
249329
214792
248421
215736
247693
216607
218019
248400
249123
248284
213621
249022
212166
212260
212499
212606
212631
212676
212677
212865
212879
212908
212992
213055
213139
213160
213299
213382
213396
213409
213417
213444
213456
213473
213564
213577
213583
213637
213642
213680
213824
213830
213836
213883
213935
213942
213946
213957
248212
214000
214008
214017
214110
214114
214124
214155
214457
215017
216877
217135
249951
27147
27149
242781
246873
246120
247256
211553
212141
212221
212342
212612
212630
212768
212791
212797
212884
213063
213078
213112
213214
213303
213337
213392
213455
213458
213561
213572
213722
213724
213750
213752
213860
214020
214047
214068
214258
214311
215646
216072
216163
249637
249111
249936
246046
248689
210853
211801
212368
212496
212544
212816
212895
212896
212907
212959
213062
213104
213216
213229
213266
213294
213339
213400
213427
213472
213486
213487
213516
213645
213657
213659
213663
213668
213673
213754
213760
213773
213777
213807
213827
213851
213852
213861
213871
213886
213947
214010
214053
214119
214184
214220
214303
214448
214465
214484
214505
214597
214781
215111
215384
216164
216519
248923
250558
212758
218108
250153
27166
27168
213027
213905
248092
211037
211665
211985
212334
212415
212543
212801
212808
212817
212899
213053
213225
213233
213288
248517
213372
213421
213481
213501
213566
213571
249231
213620
213662
213684
213759
213774
213848
213856
213879
213918
213928
213950
213959
213960
214019
214049
214093
214108
214128
214131
214136
214178
214275
214277
214285
214358
214459
214468
214606
214802
249328
214999
248510
249124
215294
249842
216427
216428
216875
217226
249327
217740
218803
250039
249316
219420
248210
212491
213110
211120
212246
212435
212716
212770
212774
212781
212912
213071
213128
213130
213161
213235
213307
213330
213348
213402
213435
213451
213508
213581
213737
213741
213865
213931
214027
214052
214090
214099
214147
214151
214267
214306
214313
214436
214483
214519
214551
214566
214620
214700
214816
215193
216694
217568
249820
248801
248908
218630
248200
27193
27196
246772
246749
249097
212322
212373
212553
212886
212890
212905
212933
212977
213028
213142
213152
213281
213327
213345
213373
213376
213388
213482
213488
213491
213498
213548
213567
213682
213715
213728
213785
213817
213835
213857
213919
213921
214073
214074
214091
214100
214129
214152
214164
214179
214189
214201
214228
214304
214305
214337
214339
214370
214441
214494
214515
214536
214611
249532
215223
216693
249214
217225
250858
217925
249418
214514
212058
247082
249928
250058
212020
212093
212252
212615
212692
212874
213019
213033
213231
213245
213257
213287
213374
213380
213410
213426
213453
213478
213500
213554
213569
213603
213626
213647
213679
213763
213902
213925
213941
213954
213995
214036
214039
214081
214084
214106
214163
214173
214276
214287
214289
214302
214350
214388
214426
214437
214531
214573
214613
214702
214723
214749
214891
249747
216779
249102
248813
249215
249427
248713
219058
27206
27209
211545
246783
247473
248516
213198
247979
211647
212763
212785
212953
213066
213129
213188
213218
213220
213249
213312
213362
213399
213411
213416
213495
213509
213546
213560
213576
213664
213669
213747
213823
213837
213850
213966
214034
214041
214055
214078
214095
214098
214104
214194
214281
214292
214369
214444
214466
214524
214534
214550
214634
214662
214737
214796
214809
214832
249652
215085
249643
251387
215987
249429
216335
216780
249751
249730
214593
248810
250460
249737
27222
27223
245311
245655
212929
212632
212690
213043
213080
213118
213238
213314
213317
213470
213537
213540
213570
213579
213717
213829
213939
214009
214011
214026
214031
214033
214085
214101
214125
214138
214206
214218
214222
214238
214263
214355
214364
214401
214453
214558
214571
214584
214601
214604
214644
214732
214769
214788
214868
214893
214902
215002
215053
215140
215330
213276
216874
249109
217836
217926
248004
250060
213460
249534
219153
219511
219512
27230
248515
249717
250651
248590
249318
213915
212446
212796
212952
213123
213262
213332
213538
213578
213638
213660
213666
213734
213758
213769
213776
213792
213795
213820
213821
213825
213870
249538
213916
213917
213958
213971
214016
214024
214038
214040
214044
214092
214203
214279
214336
214356
214362
214374
214376
214380
214435
214450
249125
214526
214560
214629
214648
214655
214692
214715
214717
214785
214866
214956
214966
215060
215099
215139
249420
215239
215308
215463
215507
250257
216608
249639
217837
247170
218283
249218
219237
219510
250625
219944
243015
244495
246865
248315
248318
211967
213126
213315
213346
213457
213565
213671
213729
213778
213924
213926
213937
213945
214032
214042
214056
214087
214149
214166
214177
214186
214190
214198
214202
214223
214274
214321
214322
214372
214381
214404
214424
214429
214433
214445
214479
214496
214523
214532
214541
214544
214552
214561
214569
214625
214639
214665
249754
214722
214724
214730
214740
214818
214826
214854
214869
214881
214890
214919
214943
214969
215062
215072
215076
215178
250467
215273
215352
215434
215595
214416
251182
216425
250754
250044
249952
218971
251069
219236
243738
212145
212330
250948
249323
213075
213159
213556
213641
213643
213652
213780
213812
213849
213943
213951
214006
214054
214113
214127
214132
214169
214170
214195
214199
214200
214208
214219
214272
214326
214349
214375
214454
214456
214473
214476
214525
214528
214568
214617
214710
214734
214778
214783
214790
214865
214898
214911
215067
215086
215101
215214
215231
215246
215256
215398
249950
250353
216518
250646
217477
248914
249927
250659
219508
219597
210125
246061
249641
249931
213476
213550
213602
213678
213761
213808
213906
213909
213932
213963
214060
214088
214112
214123
214192
214207
214209
214234
214261
214308
214318
214340
214342
214392
214395
214641
214647
214713
214733
214735
214761
214789
214800
214815
214823
250468
214846
214861
214883
214889
214892
214897
214914
214941
214942
214961
214971
215037
249333
215137
215145
215153
215170
250160
215347
215466
215528
215558
215632
215633
215674
215825
215872
215956
214678
216334
216609
217049
251058
250061
213446
217922
218106
214762
219057
219943
246338
249094
249744
212562
212894
213032
213143
213385
213408
213649
213719
213783
213811
213833
213866
213927
213929
213991
214005
214043
214103
214117
214214
214227
214282
214286
214290
214298
214314
214361
214368
214422
214481
214529
214538
249653
214609
214614
214631
214636
214642
214653
214656
214657
214711
214726
214833
214858
214873
214875
214894
214936
214946
214973
214989
215131
215143
215183
215264
250975
215400
215416
215455
215592
215804
216873
217924
218197
214680
218711
251777
242721
239650
214602
249906
250041
250337
214771
213391
213547
213573
213585
213687
213764
213863
213899
213952
213961
213967
213997
214050
214216
214231
214280
214284
214383
214385
214400
214405
214439
214440
214447
214478
214572
214714
214720
214757
214793
214803
214880
214908
214948
214985
214986
215044
215126
215144
215175
215181
215343
215350
215377
215420
215437
215715
249957
215947
250547
216962
217569
251381
251271
250237
250964
250738
250947
27269
27270
27271
245280
211532
212142
250556
251559
213586
213694
213786
213819
213914
213956
214102
214118
214120
214137
214256
214270
214325
214431
214434
214464
214488
214527
214549
214610
214630
214633
214651
214729
214831
214876
214879
214895
214964
214997
214998
215065
215069
215104
215133
215138
215151
215157
215192
215247
215268
215305
215337
215340
215358
215426
215449
215457
215509
215519
215520
215531
215685
215777
216054
216416
214257
250968
250464
250250
219777
247898
27275
27276
242322
246876
248992
244441
250469
212519
213639
213661
213749
213859
213964
214188
214230
214312
214353
214371
214423
214446
214458
214462
214645
214808
214901
214952
214960
215042
215054
215159
215173
215242
215244
215250
215327
215329
215346
215430
215497
215498
215505
215526
215527
215657
215731
215894
216482
216872
217048
251475
217921
250364
218629
250357
250255
219419
220031
220204
27290
27291
27293
239114
246656
246964
247854
249606
249949
241747
213155
213285
213413
213522
213604
213629
213731
213838
213998
214012
214111
214171
214300
214310
214363
214382
214419
214428
214521
214556
214646
214649
214669
214687
214716
214718
214753
214780
214805
214817
214850
214899
214900
214968
214982
214996
215001
215013
215045
215050
215068
215081
215082
215148
215163
215169
215191
215222
215245
215262
215274
215280
215289
215417
215446
215504
215532
215537
215612
215624
215630
215710
215889
216119
216222
216422
250970
217476
250846
249839
214845
219235
250348
213999
219776
220465
27307
27308
27309
247494
213461
250131
248719
250035
249121
213051
213140
213189
213539
213646
213720
213746
214348
214469
214510
214513
214516
214539
214574
214640
214658
214699
214701
214746
214797
214804
214819
214944
214963
214976
215009
215058
215070
215103
215135
215152
215312
215317
215351
215357
215362
215436
215473
215475
215500
215502
215521
215530
215543
215590
215621
215695
215733
215762
215785
215954
216127
216516
217649
251794
219055
219056
219596
251174
27314
237515
247176
247194
247803
212126
246230
248471
248790
248401
250560
250532
212077
213846
213814
212453
213518
213784
214022
214028
249433
214197
214294
214367
214377
214391
214443
214452
214455
214518
249843
214598
214624
214698
214703
214708
214738
214782
214784
214799
214827
214878
214887
214913
214957
214962
214972
215003
215012
215034
215043
215046
215077
215079
215147
215156
215167
215233
215310
215371
215424
215428
215486
215522
215524
215539
215622
250562
215663
215701
215707
215720
215727
215730
215824
215884
215930
215978
215985
216012
216020
216081
250452
252199
216299
251070
218282
251281
218709
218970
219318
251074
219867
220464
251577
220829
27322
27323
27325
27326
27328
27329
244788
243739
247116
248281
247178
249298
250253
239528
250154
250967
213088
248319
213727
214105
214109
214297
214315
214360
214398
214442
214461
214719
214739
214742
214772
214787
214807
214828
214840
214863
214950
214974
215055
215110
215130
215142
215171
215238
215282
215293
215307
215325
215418
215442
215511
215566
215573
215594
215610
215629
215634
215681
215687
215690
215696
215712
248815
215787
215837
215838
215923
216034
216059
216149
216197
216210
216221
216472
216504
216515
250965
218018
218280
219151
219234
219418
213631
220030
220374
27336
27337
27338
27339
27340
246556
246136
249935
250554
251490
252708
213901
213904
213933
213944
214079
214301
214393
214449
214520
214543
214562
214576
214596
214664
214752
214812
214824
214855
214905
214993
215049
215075
215091
215100
215109
215161
215162
215234
215235
215237
215248
215258
215335
215405
215540
215556
215599
215600
215623
215631
215679
215705
215713
215722
215734
215755
215784
215805
215842
215853
215874
215902
215921
215935
216052
251073
216084
216485
216497
250658
251063
216672
216777
216816
217739
218016
219505
219506
219594
219866
252167
220737
248858
215118
27348
243249
245818
246540
249845
251562
250743
213990
214094
214182
214333
214366
214547
214615
214637
214690
214774
214859
214896
214937
214945
214958
214967
214970
215132
215160
215176
215186
215228
215240
215309
215319
215439
215443
215472
215529
215535
215588
215598
215603
215604
215636
215669
215672
215708
215758
215808
215826
215870
215878
215895
215969
216024
216033
216111
216160
216229
216343
216377
216423
216438
216747
216754
251576
216964
217646
217833
250641
251962
27354
27355
242365
209948
245141
246778
248191
249106
212924
213023
251482
213502
214122
214134
214183
214320
214635
214638
214652
214684
214706
214709
214712
214766
214822
214888
214990
215051
215052
215098
215158
215230
215259
215265
215278
215306
215334
215349
251181
215408
215410
215431
215438
215492
215510
215516
215534
215550
251492
215668
215688
215689
215706
215768
215780
215802
215843
215880
215891
215906
215922
215933
215945
215950
215953
216016
216043
216048
216198
216268
216297
216373
216384
216778
217131
217393
218373
219593
221084
27359
27360
27362
27363
244798
247545
246626
211447
248707
213031
213275
249832
251686
249827
213908
214386
214535
214537
214546
214564
214616
214654
214659
214770
214794
214874
214885
214886
214909
214955
215056
215083
215128
215134
215141
215260
215270
215313
215373
215419
215421
215429
215440
215444
215450
215551
215579
215580
215585
215601
215606
215616
215653
215750
215788
215794
215807
215812
215848
215858
215861
215867
215885
215905
215907
215931
215938
215983
215994
215997
215999
216008
216042
216069
216086
216124
216151
216184
216324
250866
216465
216552
216553
252095
216847
216871
216969
251990
217831
217920
218105
251276
218374
250756
221175
27366
27367
27368
27369
241956
246227
247477
211718
246740
247768
247362
251471
251452
213124
213994
214259
214470
214727
214767
214912
214991
215061
215066
215084
215090
215172
215236
215304
215318
215322
215344
215354
215359
215372
215415
215447
215499
215542
215613
215619
215725
215772
215779
215797
215800
215863
215869
215911
215964
215970
216000
216002
216004
216019
216026
216035
216040
216085
216103
216159
216291
216298
216323
216333
216388
216452
250062
214763
251564
219683
251479
220560
214857
221002
214779
249198
247798
27378
27379
27381
244475
243986
244717
249520
249831
249753
250459
248547
212845
250734
215829
249650
252820
248383
213923
214384
214474
214565
214632
214705
214750
214755
214786
214917
214984
215064
215154
215155
215184
215224
215353
215356
215366
215441
215547
215617
215620
215723
214594
215759
215760
215778
215789
215873
215893
215914
215927
215934
215937
215955
215959
215973
216021
216028
216030
216046
216083
216091
216131
216192
216194
216213
216231
216242
216390
216397
216420
216618
216641
216663
216691
216766
251574
217130
218104
253222
219054
219232
219504
219775
251165
220116
252071
252704
220736
214688
249113
27389
27390
244892
244093
247353
247792
248481
214359
249506
248716
213989
248301
215412
250143
251988
213816
214176
214299
214417
214612
214689
214798
250261
214959
215047
215063
215174
215185
215281
215331
215333
215342
215355
215361
215435
215453
250663
215567
215586
215593
215614
215651
215659
215667
215756
215764
215786
215864
215868
215897
215903
215918
215980
216022
216062
216105
216106
216112
216144
216150
216171
216172
216295
216328
216371
216374
216379
216401
216447
216489
216835
216943
217079
251052
252494
216970
219774
252389
220293
251983
27392
244773
246970
213624
248912
210732
247781
249307
250040
249103
249633
249844
250434
212675
213897
213398
214486
214254
214660
214791
215032
215059
215071
215074
215078
215080
215089
215215
215252
215257
215267
215452
215495
215512
215518
215544
215546
215572
215597
215677
215721
215806
215831
215883
216003
216038
216107
216123
216142
216148
216185
216189
216202
216217
216226
216232
216285
216301
216309
216411
216415
216490
216565
216592
216640
216650
216665
216706
216758
216845
216912
216994
217011
217024
217077
217218
251885
217236
217269
217337
252091
218968
219053
219773
220646
217398
243338
248208
215491
27402
27403
27404
27405
27407
27409
244921
247063
248199
246160
211876
248076
247981
248616
250050
212857
249837
248819
215315
214951
251975
252189
214533
214628
214811
214867
214983
215087
215232
215243
215324
215339
215348
215365
215454
215489
215525
215541
215557
215575
215665
215754
215773
215781
215844
215915
215940
215948
215963
215965
216015
216047
216066
216128
216211
216216
216277
216361
216363
216365
216404
216479
216535
216631
216648
216673
216674
216703
216745
216787
216897
216919
217316
216528
251267
250859
219233
251875
251573
220115
215407
220202
215219
252185
252898
221699
27413
27414
27415
244572
247265
246555
245637
211978
248918
248514
214007
212490
250851
215040
247586
213406
214187
215124
215207
215218
215241
215261
215279
215284
215338
215341
215375
215379
215433
215456
215459
215536
215538
215581
215611
215661
215830
215846
215854
215862
215942
215946
215972
216023
216027
216053
216115
216133
216178
216182
216259
216265
216293
216312
216368
216392
216513
216542
216574
216646
216810
216834
216860
216951
216988
217005
217132
217276
217304
217566
215561
217830
252295
219417
252397
215839
220557
220558
251384
251488
252090
244587
247873
247882
248591
249649
249188
213282
211481
211486
250840
251560
249651
251987
252377
213490
214545
214575
215088
215125
215149
215249
215255
215263
215427
215506
215549
215596
215607
215684
215686
215694
215700
215711
215769
215801
215877
215899
215957
215998
216014
216045
216063
216098
216116
216139
216143
250862
216170
216245
216278
216279
216283
216308
216319
216367
216378
216383
216385
216409
216456
216459
216462
216566
216567
216584
216588
216596
216632
216659
216675
216678
216721
216732
216735
216737
216740
216831
216850
216918
217044
217087
218014
252711
218626
252602
219315
219316
251563
219772
220559
220918
249904
221083
215995
27420
27421
27422
27423
27424
27425
27426
242086
243545
244610
244749
246228
245636
211527
246538
240366
246359
249080
249424
248684
249507
211474
213297
212942
252392
215035
213057
214872
214910
215041
215093
215168
215221
215253
215609
215638
215683
215776
215856
215879
215881
215886
215920
215961
216011
216060
216088
216101
216125
216126
216155
216177
216238
216275
216314
216370
216381
216386
216387
216389
216399
216421
216484
216493
216531
216558
216580
216594
216647
216651
216722
216736
216741
216743
216808
216856
216917
216944
216973
216974
216975
217014
217109
217111
217289
217341
217375
217737
253321
250650
252505
216696
220463
252080
253012
252178
221350
221433
214691
221606
221963
27436
27437
27438
27439
27440
27441
27442
27444
27445
27446
243949
246362
208388
246215
241494
212324
213107
250036
248788
213900
214345
248180
214693
215748
253297
214295
214764
214834
214903
214980
214981
215225
215300
215323
215445
215460
215461
215503
215627
215761
215771
215774
215836
215859
215866
215929
215941
215944
216017
216031
216039
216108
216138
216146
216158
216188
216209
216212
216270
216316
216369
216419
216475
216551
216563
216569
216645
216652
216662
216690
216738
216739
216767
216815
216820
216824
216855
216886
216916
217093
217096
217108
217235
217256
217297
217318
217648
217916
217917
249228
219415
219416
220200
220733
215992
216700
221871
27454
27456
27457
233027
245308
245804
247223
245580
247886
247685
247717
211632
247151
211710
248118
211540
247441
246979
247546
247464
247472
250046
214938
250576
251465
250349
251167
252606
216121
214557
214862
214870
215212
215332
215448
215565
215574
215602
215608
215680
215692
215704
215763
215770
215782
215796
215898
215943
216007
251889
216130
216134
216137
216186
216193
216204
216215
216276
216280
216311
216362
216400
216406
216418
216469
216487
216538
216540
216568
216591
216619
216643
216654
216656
216667
216744
216749
216763
216764
216796
216842
216859
216896
216899
216926
216955
217059
217089
217172
217322
217473
217474
217915
217918
251389
252188
219413
219414
253216
219770
252904
220734
220916
216794
221870
253214
27465
27466
246066
235954
245798
247032
245692
245860
247691
247772
248308
248213
248406
247807
248299
250557
247948
250829
251172
216117
214548
214947
215425
215513
215548
215552
215626
215702
215746
215765
215852
215857
216013
216029
216055
216092
216206
216218
216230
216288
216290
216302
216347
216380
216393
216396
216464
216467
216480
216494
216556
216570
216601
216629
216630
216657
216664
216681
216702
216707
216708
216711
216715
216731
216821
216825
216841
216913
251491
217023
217036
217076
217101
217105
217112
217186
217206
217213
217257
217291
217331
216698
217433
217437
217456
217466
217513
217536
253225
218194
218195
253312
253316
251464
253124
216883
221605
27470
27471
27472
245072
247392
246428
248910
247688
213024
248926
248877
250059
252411
249945
216173
214977
215576
215625
215676
215749
215766
215799
215840
215876
215910
215916
215917
216175
216200
216240
216249
216303
216304
216320
216354
216391
216394
216441
216446
216451
216471
216481
216505
216543
216548
216550
216554
216561
216597
216634
216635
216636
216671
216716
216750
216755
216853
216915
216921
216949
217015
217073
217214
217219
217250
217343
252616
217611
217760
217769
217790
218967
219149
220917
216359
252286
221962
27479
27481
27482
27483
27484
27485
27487
27488
27489
241589
244480
245362
247591
248105
247286
248304
246869
247856
213286
249294
248176
249646
213109
248046
250645
251879
251282
250433
250159
214430
214504
214721
215458
215533
215577
215767
215875
216025
216061
216087
216120
216135
216141
216195
216263
216296
216300
216353
216403
216436
216474
216477
216509
252404
216546
216710
216719
216727
216753
216798
216827
216829
216846
216936
216998
217010
217020
217027
217075
217084
217086
253122
217142
217175
217181
217207
217340
217349
217357
217374
217412
217489
217576
217584
217586
253732
217822
217828
217841
217863
218184
216439
252715
253620
220292
216082
220462
221961
222138
27495
27496
27497
27498
243389
245797
246015
246003
247393
211283
248997
248673
249015
214002
249626
250347
251380
250549
213920
250949
249484
216539
212502
247189
217503
251989
247801
214775
215336
215578
215587
215697
215925
215960
215975
251797
216009
216104
216110
216235
216292
216313
216318
216350
216366
216449
216458
216460
216498
216507
216571
216572
216579
216585
216639
216644
216709
216742
216756
216814
216836
216851
252296
216894
216905
216909
216920
216924
216971
216993
217019
217033
217040
217041
217043
217057
217097
217098
217123
217197
217198
217270
217274
217277
217283
217300
217368
217382
217410
217446
217468
217516
217616
217827
252707
253826
218132
218185
252297
216341
253527
253224
220645
217580
220732
221001
221082
253811
217143
222412
27501
27502
27503
236712
237004
244684
244715
246131
246607
245641
248184
245782
246680
249929
248498
247800
246168
248394
248402
248704
248090
248280
214025
246874
249947
250229
249425
246839
251366
251473
215220
246719
214619
213219
252164
253291
215254
215275
215582
215849
215932
216097
216145
216156
216196
216214
216281
216286
216330
216402
216413
216468
216501
216514
216545
216562
216575
216685
216723
216725
216769
216774
216789
216793
216818
216840
216941
216950
216961
217063
217080
217083
217104
217106
217144
217152
217176
217209
217255
217287
253533
217310
217336
217372
217387
217405
217538
217548
217557
217564
217587
217600
217635
217796
217855
217909
218206
218273
218345
218371
253628
218708
218800
219051
252906
253118
253626
221081
253624
216340
221603
222578
27505
27506
27507
27508
27509
224004
244190
247277
246984
246579
250021
248701
249375
249408
250152
214341
249517
250248
251345
215568
250961
213194
250744
250755
215496
215678
215815
215865
215967
216005
216094
216100
216118
216190
216225
216233
216331
216351
216405
216417
216461
216473
216478
216549
216577
216620
216637
216728
216838
216843
216848
216849
216854
216906
216932
216948
252292
216977
217001
217004
217032
217114
217118
217153
217155
217169
217247
217319
217335
217344
217353
217449
217460
217494
217527
217585
217594
217647
217686
217694
217701
217729
217846
217913
217951
218082
218102
218222
218969
252617
217230
252908
219317
219591
219592
220372
252915
253204
222225
222669
27515
27516
27517
27518
27519
27520
27521
245868
246300
245880
246116
244999
245953
248371
248296
248487
249648
248924
248550
249527
250330
249847
251373
250139
249743
215742
252084
253621
250955
213716
217397
212789
249325
214806
215164
215316
215793
215952
216199
216203
216220
216273
216282
216346
216364
216398
216463
216470
216547
216578
216589
216595
216658
216733
216748
216771
216852
216867
216931
216947
216991
217029
217145
217168
217182
217241
217252
217264
217273
217330
217345
217350
217416
217431
217432
217519
217520
217549
217597
217678
217692
217698
217812
217819
217892
218002
218237
218240
219865
251986
253112
222051
27526
27527
27528
27529
27530
27531
27532
27533
245297
245980
246025
242691
246946
245694
249081
247896
248909
249005
248799
213633
249738
250053
210300
213628
212261
216623
212762
215703
215851
216114
216208
216294
216444
216450
216492
216499
216541
216557
216576
216590
216642
216649
216655
216670
216757
216760
216791
216801
216803
216817
216828
216904
216910
216928
216959
217007
217151
217157
217178
217190
217244
217254
217327
217369
217380
217399
217419
217422
217424
252912
217524
217529
217658
217675
217725
217727
217792
217968
217970
217975
217991
218153
218189
254248
218369
218625
219313
220114
221080
221174
221698
216806
27535
243954
240755
245081
246122
246438
211872
247564
248995
248883
247162
247483
248283
249834
249180
250026
249387
214004
249629
248922
250429
250436
250454
214511
251175
251151
251258
252291
247986
252800
216445
249212
249403
214427
217575
215726
215847
215924
216064
216375
216410
216581
216583
216790
216865
216889
216892
216922
216923
216927
216934
216958
217125
217128
217174
217191
217193
217194
217239
217243
217245
217260
217267
217292
217315
217355
217362
217378
217430
217435
217472
217481
217592
217623
217705
217711
217845
217874
217974
217982
217993
218116
218145
218254
251969
253722
253925
219682
254760
219863
220460
220556
220643
220915
221172
251055
216967
217488
213108
27537
27538
27539
27540
237693
238729
245514
246509
240240
245512
246458
247443
248478
247687
247787
247436
212219
248387
249371
212327
248964
248760
249725
247462
250307
250055
250416
250565
214603
211027
253802
252383
215871
216267
216287
216306
216307
216408
251890
216564
216625
216653
216726
216729
216734
216746
216759
216925
216996
216999
217013
217030
217052
217078
217081
217116
217156
217162
217167
217259
217373
217459
217512
217550
217574
217596
217641
217693
217700
217785
217800
217866
253934
217933
218036
218121
218258
218451
218452
253536
218550
218817
219025
253217
219148
253228
217657
219412
253013
252999
221000
252507
221602
222224
255156
27542
27543
27544
27545
27546
27547
27549
240670
243740
242819
244354
244196
247580
246087
247967
247860
248625
246831
249087
248792
248405
212498
214080
250356
251272
250632
215571
216080
251579
251436
251945
213822
252387
252578
253117
251382
252510
247908
252990
253924
254540
217498
246558
215811
216006
216122
216174
216289
216357
216440
216537
216560