/*--------------------------------*- C++ -*----------------------------------*\
| =========                 |                                                 |
| \\      /  F ield         | OpenFOAM: The Open Source CFD Toolbox           |
|  \\    /   O peration     | Version:  2406                                  |
|   \\  /    A nd           | Website:  www.openfoam.com                      |
|    \\/     M anipulation  |                                                 |
\*---------------------------------------------------------------------------*/
FoamFile
{
    version     2.0;
    format      ascii;
    arch        "LSB;label=32;scalar=64";
    class       Cloud<dsmcParcel>;
    location    "0.005/lagrangian/dsmc";
    object      positions;
}
// * * * * * * * * * * * * * * * * * * * * * * * * * * * * * * * * * * * * * //

6206
(
(0.2887146761 0.2215247183 0) 231
(0.2987170995 0.255950463 -1.084202172e-19) 413
(0.2942578358 0.2953404714 -2.168404345e-19) 652
(0.2878228781 0.2015979018 -1.084202172e-19) 141
(0.3031285679 0.2097390606 4.929731753e-19) 173
(0.3013972776 0.2180914549 -2.168404345e-19) 233
(0.2646839158 0.2328498273 1.084202172e-19) 318
(0.2974655744 0.2077481951 -2.168404345e-19) 173
(0.2994210459 0.2499806935 3.252606517e-19) 383
(0.2874186058 0.2356705464 1.626303259e-19) 321
(0.3016806335 0.237718646 5.421010862e-20) 323
(0.2981467222 0.2555701118 -3.794707604e-19) 413
(0.2518838921 0.2724625604 2.168404345e-19) 527
(0.3041320877 0.2214146045 2.168404345e-19) 233
(0.3039711071 0.258010937 -2.168404345e-19) 443
(0.2975244616 0.1893573517 0) 54
(0.3041967593 0.2838829751 -2.168404345e-19) 593
(0.2812059479 0.2434349276 2.168404345e-19) 350
(0.2789777131 0.2181161162 1.084202172e-19) 230
(0.299597273 0.221277241 -1.084202172e-19) 233
(0.284655329 0.1967078467 1.626303259e-19) 111
(0.2746397925 0.216215364 -1.084202172e-19) 230
(0.3021454864 0.2501092507 -1.084202172e-19) 383
(0.2851276637 0.2482547874 -1.084202172e-19) 381
(0.3040031242 0.2123550241 0) 173
(0.2966159535 0.1863412967 2.168404345e-19) 53
(0.3041211626 0.2636866514 0) 473
(0.2938460289 0.1878018776 5.421010862e-20) 53
(0.295887719 0.2646504047 -2.168404345e-19) 472
(0.2697553876 0.252677881 0) 409
(0.2778981018 0.2383187184 -2.168404345e-19) 350
(0.2992836445 0.1782756994 -2.168404345e-19) 16
(0.2976839382 0.2989240282 -2.168404345e-19) 653
(0.2944190088 0.2229227494 2.168404345e-19) 262
(0.2532682154 0.243397686 -1.965116438e-19) 377
(0.3003991416 0.2010633819 -2.168404345e-19) 113
(0.2948204812 0.2439267341 5.421010862e-19) 352
(0.2986009384 0.2235989458 -2.168404345e-19) 263
(0.3046903677 0.2385129285 0) 323
(0.2698104057 0.2236483126 -1.084202172e-19) 259
(0.2735802682 0.2377146368 0) 349
(0.2895706968 0.2889568083 -2.710505431e-19) 622
(0.2932240181 0.1989496977 0) 112
(0.2961171512 0.2537074314 0) 412
(0.3045236993 0.2008371017 2.168404345e-19) 113
(0.2970369362 0.2529466869 -1.626303259e-19) 412
(0.303133141 0.2064310849 2.168404345e-19) 143
(0.2806948429 0.2864523462 2.168404345e-19) 590
(0.2729036479 0.2925077341 2.168404345e-19) 619
(0.2917248379 0.2812759762 -1.084202172e-19) 562
(0.3031701799 0.2490643298 2.168404345e-19) 383
(0.2908365243 0.2142123176 -4.33680869e-19) 202
(0.3025562224 0.1957452263 -3.252606517e-19) 83
(0.3006222814 0.2450483145 0) 353
(0.2818648681 0.2246625541 0) 260
(0.2701867539 0.1775218651 0) 28
(0.2882068045 0.2231116793 0) 261
(0.2899407091 0.2187912885 4.33680869e-19) 232
(0.2802977086 0.2364876527 -2.168404345e-19) 320
(0.2901633878 0.1850249262 0) 53
(0.2620359956 0.2170693245 -2.168404345e-19) 228
(0.3028232924 0.1820051436 -1.626303259e-19) 32
(0.2958641308 0.2391074869 2.168404345e-19) 322
(0.2926662503 0.2911407384 -4.878909776e-19) 622
(0.2972859009 0.2594983289 -1.084202172e-19) 443
(0.3025892617 0.280617753 -2.710505431e-20) 563
(0.2862611816 0.221315553 -7.047314121e-19) 231
(0.2988621166 0.2336081252 0) 293
(0.2711124951 0.2675988311 3.252606517e-19) 499
(0.2929441113 0.2484291792 5.421010862e-19) 382
(0.2629149225 0.2516289049 -3.997995511e-19) 408
(0.2829728098 0.2386561604 0) 351
(0.2407832789 0.2024772031 -2.168404345e-19) 165
(0.3009497103 0.2756000034 1.897353802e-19) 533
(0.2893430245 0.2596297973 -4.33680869e-19) 441
(0.2871920368 0.2818442761 0) 561
(0.2767537683 0.241536651 -3.252606517e-19) 350
(0.3045778002 0.2088191023 1.084202172e-19) 173
(0.2918372384 0.203055999 -2.032879073e-19) 142
(0.3007398494 0.2584865326 0) 443
(0.2965436016 0.2669330459 -4.33680869e-19) 502
(0.2967079889 0.2284572669 -4.33680869e-19) 292
(0.2561413292 0.2265546303 -1.084202172e-19) 287
(0.2902575742 0.220996258 0) 232
(0.2996730011 0.2314156362 2.778268067e-19) 293
(0.294461461 0.2710321553 2.168404345e-19) 502
(0.2846669571 0.1915969194 -1.084202172e-19) 81
(0.3003419468 0.2170829348 2.168404345e-19) 203
(0.2860749827 0.1953093957 2.168404345e-19) 111
(0.2833974695 0.2097516174 2.168404345e-19) 171
(0.2911665281 0.2639704635 -2.710505431e-19) 472
(0.2737680143 0.2311618672 0) 289
(0.3045941027 0.2038297167 -4.33680869e-19) 143
(0.2718507743 0.2751079306 3.252606517e-19) 529
(0.3016223141 0.2357001094 0) 323
(0.2822329827 0.2078950891 -2.710505431e-19) 171
(0.2964469829 0.2152633918 0) 202
(0.2938468542 0.2330758721 -3.794707604e-19) 292
(0.2636644309 0.2659428108 -4.33680869e-19) 498
(0.2966524182 0.2908716875 0) 622
(0.300280101 0.1978269598 -1.084202172e-19) 113
(0.3040773034 0.2949374903 0) 653
(0.2987579234 0.2331653188 -1.897353802e-19) 293
(0.3046773896 0.2099564199 4.33680869e-19) 173
(0.2723753439 0.2913475515 0) 619
(0.2945808824 0.2429400125 -1.084202172e-19) 352
(0.2847089644 0.1893771515 3.252606517e-19) 81
(0.2832549404 0.279306243 1.084202172e-19) 561
(0.2700047154 0.2045870831 1.084202172e-19) 169
(0.2824067635 0.2125534548 0) 201
(0.2791154993 0.207398607 1.084202172e-19) 170
(0.3006039148 0.1840089046 2.168404345e-19) 32
(0.2937747018 0.2821715017 -1.084202172e-19) 562
(0.2758617611 0.1946487167 0) 110
(0.2967764039 0.255440036 -2.168404345e-19) 412
(0.2956335948 0.2693104245 -2.710505431e-19) 502
(0.2919338834 0.1892514585 2.168404345e-19) 82
(0.2704662219 0.2741728745 -4.065758147e-19) 529
(0.2825222902 0.2154972902 -1.016439537e-20) 201
(0.2836104985 0.2439614661 1.084202172e-19) 351
(0.2964428546 0.2798059965 0) 562
(0.2979856248 0.2465058544 0) 383
(0.2779148075 0.1998864529 8.131516294e-20) 140
(0.2709519354 0.2514079819 -2.710505431e-20) 409
(0.2852884952 0.2050840766 -2.168404345e-19) 171
(0.3021099466 0.2003774789 1.084202172e-19) 113
(0.277731305 0.1828189326 2.710505431e-20) 51
(0.2953510964 0.2659745204 -2.168404345e-19) 472
(0.2880857418 0.2557928216 2.168404345e-19) 441
(0.300821054 0.2794031001 2.57498016e-19) 563
(0.2894495886 0.2313421061 -4.33680869e-19) 291
(0.3028584388 0.1726638484 -4.33680869e-19) 5
(0.2836856863 0.1829667588 2.168404345e-19) 52
(0.2777967345 0.2238837966 -9.14795583e-20) 260
(0.2971627586 0.1998503422 4.33680869e-19) 112
(0.2348045692 0.1683453156 6.505213035e-19) 7
(0.263469038 0.2165431126 -2.710505431e-20) 228
(0.2702179224 0.2868674277 -3.252606517e-19) 589
(0.2591073519 0.2700486654 4.33680869e-19) 498
(0.2879215635 0.2789552753 2.168404345e-19) 561
(0.2638735154 0.2167009766 1.355252716e-19) 228
(0.2442299313 0.2836381985 1.084202172e-19) 586
(0.302952563 0.2056691177 2.168404345e-19) 143
(0.3042548367 0.21324281 0) 203
(0.2914198071 0.2435743206 2.168404345e-19) 352
(0.3023619206 0.1891264641 3.252606517e-19) 54
(0.2699081056 0.2513231884 -5.149960319e-19) 409
(0.2856569835 0.2547123634 0) 411
(0.2853318348 0.2260787436 1.084202172e-19) 261
(0.272562969 0.2021147884 2.168404345e-19) 139
(0.2985403882 0.2723651101 3.252606517e-19) 503
(0.2868218373 0.1777798458 0) 30
(0.3000277217 0.1833986925 3.252606517e-19) 32
(0.2824425603 0.2274569316 0) 291
(0.3018533607 0.2714311181 -5.421010862e-20) 503
(0.2754991845 0.2548416523 0) 440
(0.2985765355 0.2860852713 0) 593
(0.304657808 0.1844294101 0) 32
(0.3045853529 0.2180311642 4.33680869e-19) 203
(0.2964348956 0.2927879173 -2.168404345e-19) 622
(0.2897674334 0.2031530095 1.626303259e-19) 142
(0.3032749621 0.194798834 0) 83
(0.2916331242 0.2703049049 3.252606517e-19) 502
(0.2946389035 0.2169411243 -6.505213035e-19) 202
(0.2954702994 0.1874527161 0) 53
(0.2999774635 0.219278654 1.084202172e-19) 233
(0.2870271591 0.2038998064 -2.168404345e-19) 141
(0.2926846818 0.2838754195 4.878909776e-19) 592
(0.2912959636 0.2579395827 -1.084202172e-19) 442
(0.2857671705 0.2236444027 -1.084202172e-19) 261
(0.2985036741 0.2551980705 -4.065758147e-20) 413
(0.2750177518 0.2534374039 0) 410
(0.2617612275 0.2175030336 -1.084202172e-19) 228
(0.2950925245 0.2302963317 1.084202172e-19) 292
(0.288693019 0.2475992173 4.33680869e-19) 381
(0.2923807458 0.220249717 3.252606517e-19) 232
(0.3032268657 0.2424572112 -4.878909776e-19) 353
(0.2985108311 0.2189704613 0) 233
(0.2826304872 0.2237493132 2.168404345e-19) 261
(0.2939257289 0.2908446367 2.168404345e-19) 622
(0.2904944419 0.1856841578 -2.168404345e-19) 53
(0.2818378944 0.2740655232 -3.252606517e-19) 530
(0.2814412162 0.2377673008 -6.505213035e-19) 320
(0.2884434332 0.2536727797 2.168404345e-19) 411
(0.2522553648 0.1835075897 5.421010862e-20) 48
(0.2788404384 0.2046987132 -4.33680869e-19) 170
(0.3007443116 0.2613825633 2.168404345e-19) 443
(0.2566471398 0.2570068052 2.168404345e-19) 437
(0.3017355712 0.2207597796 0) 233
(0.3029501204 0.2293446827 0) 293
(0.3004785662 0.2556023622 0) 413
(0.2964950494 0.2237092499 -2.168404345e-19) 262
(0.2787552224 0.2519775802 1.355252716e-20) 410
(0.2943291735 0.2383752327 -4.33680869e-19) 322
(0.2247805916 0.2088198737 6.505213035e-19) 193
(0.3036453254 0.2592182503 0) 443
(0.280221018 0.2158213241 0) 230
(0.3002303275 0.177986018 -2.168404345e-19) 16
(0.2746787051 0.2809929494 -5.421010862e-19) 560
(0.2853752705 0.2782257932 8.131516294e-20) 561
(0.2682158768 0.2659348329 -4.33680869e-19) 499
(0.2982404118 0.2213640741 1.084202172e-19) 233
(0.2850763958 0.1920830074 -4.878909776e-19) 81
(0.2802970076 0.2512593028 -1.084202172e-19) 410
(0.2903806982 0.2504696977 -4.33680869e-19) 412
(0.2762478247 0.2340906489 4.33680869e-19) 320
(0.2743012438 0.2103537039 0) 199
(0.2976462347 0.283436431 -1.084202172e-19) 563
(0.2972319399 0.2883895136 0) 593
(0.2724230493 0.2321463182 2.168404345e-19) 319
(0.2963032039 0.2544573095 -2.168404345e-19) 412
(0.286582703 0.2037430342 0) 141
(0.2908569813 0.2193811194 2.168404345e-19) 232
(0.3013160612 0.2038125733 1.626303259e-19) 143
(0.2812118267 0.2697520299 2.168404345e-19) 500
(0.2887186473 0.2192617495 -2.710505431e-20) 231
(0.3036133889 0.2245196005 -6.505213035e-19) 263
(0.2854759899 0.186602414 -3.252606517e-19) 52
(0.2779662789 0.2096649038 0) 170
(0.2567573489 0.1843230596 0) 48
(0.3033086997 0.2742346655 -1.084202172e-19) 533
(0.2754065233 0.1915227768 0) 80
(0.2380216546 0.2631323822 0) 465
(0.2790821431 0.1957831158 0) 110
(0.2923703196 0.2223522243 0) 232
(0.2639926709 0.2171101277 -1.084202172e-19) 228
(0.289092798 0.2004153288 0) 141
(0.2590592308 0.2673476707 -4.33680869e-19) 497
(0.2948081744 0.1919585893 -5.421010862e-20) 82
(0.2930850892 0.2261860121 -2.168404345e-19) 262
(0.2671615692 0.2495340465 5.421010862e-20) 409
(0.2922371933 0.192120043 2.710505431e-20) 82
(0.2830765355 0.2468993208 -1.084202172e-19) 381
(0.2882359733 0.2374163348 -2.168404345e-19) 321
(0.274842542 0.2269647467 -1.084202172e-19) 290
(0.2730136013 0.2176898206 2.032879073e-20) 229
(0.2870532576 0.2002160851 -4.33680869e-19) 141
(0.2411762315 0.1785397545 0) 46
(0.2786121804 0.2156081377 0) 230
(0.2865700574 0.2028165 -5.421010862e-20) 141
(0.2921934307 0.2294696851 1.084202172e-19) 292
(0.2785805751 0.2549498298 0) 440
(0.2740474783 0.2385852096 0) 349
(0.2554475324 0.2791640708 -3.252606517e-19) 557
(0.2992581099 0.1936335677 4.33680869e-19) 83
(0.2960626501 0.224093373 0) 262
(0.2772557185 0.2090678632 -2.168404345e-19) 170
(0.2864220292 0.2561534113 0) 441
(0.2925256653 0.2856139325 -2.710505431e-20) 592
(0.2717903314 0.2717709795 -4.33680869e-19) 529
(0.3022890057 0.2083704396 -2.168404345e-19) 173
(0.286801038 0.2533807987 0) 411
(0.2882285677 0.2946857838 0) 651
(0.3043863736 0.1862997428 -4.33680869e-19) 54
(0.2859607364 0.2289582003 0) 291
(0.284516297 0.2714652674 0) 501
(0.2537388159 0.2050230466 -1.084202172e-19) 167
(0.2705549513 0.2217173459 -2.168404345e-19) 259
(0.2909570064 0.2233717989 -5.217722955e-19) 262
(0.2758378553 0.2305526163 1.084202172e-19) 290
(0.3029474501 0.2227734844 0) 233
(0.2842135466 0.2120991208 -2.168404345e-19) 201
(0.3020688533 0.1935426147 -1.084202172e-19) 83
(0.2449051834 0.2550853774 0) 436
(0.2849239163 0.2324338353 -2.168404345e-19) 291
(0.2790518704 0.2142917572 -4.33680869e-19) 200
(0.2694071473 0.1966441843 2.168404345e-19) 109
(0.2471777699 0.2079731566 0) 196
(0.2912911995 0.2966989649 1.084202172e-19) 652
(0.2487456004 0.1971739129 1.084202172e-19) 136
(0.2981572775 0.2341013178 2.168404345e-19) 323
(0.263882972 0.2221781855 -2.710505431e-19) 258
(0.276846358 0.2543123218 -2.168404345e-19) 410
(0.2809786445 0.2487046081 2.168404345e-19) 380
(0.2640075653 0.218408254 -3.252606517e-19) 228
(0.2748951029 0.2567923632 0) 440
(0.2698516174 0.2766629467 0) 529
(0.2770038616 0.2388521607 0) 350
(0.2785813457 0.1908433779 0) 80
(0.2907532826 0.2579649041 -4.33680869e-19) 442
(0.2690533558 0.2178754317 1.084202172e-19) 229
(0.2923252799 0.2208589657 -1.626303259e-19) 232
(0.2543587721 0.2698555973 -1.084202172e-19) 497
(0.2772120882 0.272207249 -2.168404345e-19) 530
(0.2871280485 0.2289173457 0) 291
(0.2936157399 0.2335259453 -9.486769009e-19) 292
(0.2658571699 0.2309292117 4.33680869e-19) 288
(0.290889537 0.1976251689 3.794707604e-19) 112
(0.2769222167 0.2348980711 0) 320
(0.2589549731 0.2045281029 2.168404345e-19) 167
(0.2692750963 0.2706233123 -3.252606517e-19) 499
(0.2660287849 0.2683114178 -3.794707604e-19) 498
(0.2991968293 0.2537012216 -2.168404345e-19) 413
(0.2685342855 0.2338723136 0) 319
(0.2714816346 0.219590259 4.33680869e-19) 229
(0.2976661784 0.2005463529 -2.617331807e-19) 113
(0.300249852 0.2806012438 -5.421010862e-20) 563
(0.2740236492 0.2286960424 1.084202172e-19) 289
(0.2737891649 0.2043310664 4.33680869e-19) 169
(0.2715215754 0.2638690257 1.084202172e-19) 469
(0.3045986642 0.2915538698 1.084202172e-19) 623
(0.2761660993 0.1965661774 1.084202172e-19) 110
(0.2912300212 0.1947484966 -2.168404345e-19) 112
(0.2833339288 0.2093666731 0) 171
(0.2854109115 0.1808400004 0) 30
(0.2845975199 0.2640587371 1.626303259e-19) 471
(0.2807638565 0.2274245242 0) 290
(0.2786368708 0.240686458 -2.710505431e-20) 350
(0.2766051531 0.2063449897 4.878909776e-19) 170
(0.2878888939 0.2110822185 0) 201
(0.2691988279 0.2348194781 1.355252716e-19) 319
(0.2732054287 0.1969355406 0) 109
(0.2650738952 0.2510470334 5.421010862e-20) 408
(0.3047544905 0.262472065 -4.33680869e-19) 473
(0.2728562357 0.1963621487 -4.33680869e-19) 109
(0.2713971174 0.2196805012 0) 229
(0.2968080639 0.2156759459 -4.33680869e-19) 202
(0.2636861064 0.2513569619 5.421010862e-20) 408
(0.2685637747 0.2205940581 -2.168404345e-19) 259
(0.3027728537 0.2444656147 0) 353
(0.2802435679 0.2096966809 -2.168404345e-19) 170
(0.2936166511 0.1886209176 -2.710505431e-20) 53
(0.2949566589 0.2649440034 0) 472
(0.2915187133 0.1980370606 0) 112
(0.2738190074 0.2075652842 2.168404345e-19) 169
(0.2919423053 0.2545427442 0) 412
(0.3010556102 0.215037992 -6.776263578e-21) 203
(0.3011561066 0.2786726111 0) 563
(0.2864324658 0.237134081 -1.084202172e-19) 321
(0.2656046814 0.223824172 0) 258
(0.2678094477 0.280960146 -3.252606517e-19) 559
(0.2919317208 0.1958776911 0) 112
(0.2943830011 0.2350791862 -2.168404345e-19) 322
(0.2713381046 0.2758099773 -1.084202172e-19) 529
(0.2700632981 0.2285878446 -2.168404345e-19) 289
(0.2935271317 0.2073650641 2.168404345e-19) 172
(0.2959270384 0.2218339273 0) 232
(0.2828419246 0.299443191 4.065758147e-20) 651
(0.2982468372 0.2558126283 5.963111949e-19) 413
(0.2872169124 0.1878292227 -1.084202172e-19) 52
(0.3037368119 0.2390837817 -2.168404345e-19) 323
(0.2884214617 0.2795782142 1.084202172e-19) 561
(0.3046208424 0.2768992536 -8.67361738e-19) 533
(0.2731051712 0.2776101516 2.168404345e-19) 559
(0.2997128453 0.2067464641 1.084202172e-19) 173
(0.2722348572 0.2727605139 0) 529
(0.3040840264 0.2715853549 0) 503
(0.2638659293 0.210951463 8.131516294e-20) 198
(0.3034756664 0.209035945 1.084202172e-19) 173
(0.2408392006 0.2457067649 -1.084202172e-19) 375
(0.2909463313 0.1959405487 3.252606517e-19) 112
(0.2601404643 0.2564240992 2.168404345e-19) 438
(0.3030342784 0.2213038755 2.168404345e-19) 233
(0.3017404066 0.2299353743 0) 293
(0.2565037814 0.2229779385 -1.084202172e-19) 257
(0.2870968993 0.2379008639 1.084202172e-19) 321
(0.2967520395 0.2326245218 4.33680869e-19) 292
(0.290826829 0.2680646576 0) 502
(0.2858649017 0.2574141611 -2.168404345e-19) 441
(0.3039775166 0.2057039799 2.168404345e-19) 143
(0.3012206795 0.193581186 4.33680869e-19) 83
(0.2787315926 0.2094776893 -1.084202172e-19) 170
(0.2916249334 0.1769979862 -1.084202172e-19) 15
(0.2847043541 0.2199302205 -1.084202172e-19) 231
(0.2904766529 0.2471349123 2.168404345e-19) 382
(0.3037691563 0.2542304754 0) 413
(0.2908383151 0.2088783988 1.084202172e-19) 172
(0.2621214359 0.2391893838 -1.490777987e-19) 348
(0.2890890798 0.2715087104 4.33680869e-19) 501
(0.2593233939 0.2583508514 0) 438
(0.2786613963 0.2250562276 0) 260
(0.2870182822 0.2959538285 2.168404345e-19) 651
(0.2674422051 0.1876524923 1.084202172e-19) 79
(0.286758542 0.2137623874 -1.084202172e-19) 201
(0.2884942383 0.2650777804 2.168404345e-19) 471
(0.2856011807 0.2158261205 -2.168404345e-19) 201
(0.2795120686 0.2737160834 2.168404345e-19) 530
(0.2944095999 0.2905399381 -2.168404345e-19) 622
(0.2776007934 0.1884629732 -1.626303259e-19) 80
(0.2960621152 0.2454415528 2.168404345e-19) 382
(0.2818844546 0.2023157975 0) 140
(0.2368671289 0.2183958748 -3.252606517e-19) 255
(0.2392359296 0.2028772596 -3.523657061e-19) 165
(0.2909768992 0.2581805468 2.168404345e-19) 442
(0.3041298131 0.2291366132 4.33680869e-19) 293
(0.2460978613 0.2321457942 -1.626303259e-19) 316
(0.2989653523 0.2828836896 0) 563
(0.2750462094 0.209005348 2.100641709e-19) 170
(0.2671489814 0.2244278017 0) 259
(0.2998515073 0.1928845934 4.33680869e-19) 83
(0.2882961493 0.2273851073 -2.168404345e-19) 261
(0.2804687456 0.2129125683 2.168404345e-19) 200
(0.2850158987 0.2432656588 0) 351
(0.2511980558 0.1797389767 1.084202172e-19) 47
(0.2523919672 0.2312785584 3.252606517e-19) 317
(0.2588324382 0.258902612 -4.33680869e-19) 437
(0.2769300254 0.239642338 -4.33680869e-19) 350
(0.2863064961 0.1791364976 0) 30
(0.2933251834 0.2200544715 2.439454888e-19) 232
(0.2974501025 0.2072866618 1.084202172e-19) 173
(0.2871414812 0.2182430657 -1.084202172e-19) 231
(0.3009485853 0.2464568708 -3.184843882e-19) 383
(0.2829990957 0.1916388328 2.168404345e-19) 81
(0.2886870678 0.2033426707 2.168404345e-19) 141
(0.2821841102 0.2208564698 0) 231
(0.275091809 0.1981547261 3.794707604e-19) 110
(0.2755248804 0.2153197848 2.168404345e-19) 230
(0.2857995079 0.2781032002 4.33680869e-19) 561
(0.2673450945 0.1958287523 0) 109
(0.2982466567 0.1888281492 -2.168404345e-19) 54
(0.2328611849 0.2584711262 0) 464
(0.2977286754 0.2948918761 -1.342547221e-19) 653
(0.2989262717 0.2629818244 -8.131516294e-20) 473
(0.2709835869 0.2316580158 -3.252606517e-19) 289
(0.3001460022 0.2146597078 3.794707604e-19) 203
(0.2940460133 0.223275241 0) 262
(0.250236271 0.2052611429 2.168404345e-19) 166
(0.260506583 0.2097778197 2.168404345e-19) 198
(0.2921612455 0.2259584741 0) 262
(0.278500209 0.2552867469 2.168404345e-19) 440
(0.2176972645 0.2390718113 -4.878909776e-19) 342
(0.2496728442 0.2342964437 -2.168404345e-19) 316
(0.2899240874 0.1966215049 2.168404345e-19) 112
(0.3039377865 0.2573330242 0) 443
(0.2825091942 0.1860512019 -1.084202172e-19) 52
(0.2665264362 0.2768224782 0) 528
(0.2903049205 0.1991113069 0) 112
(0.3043698182 0.1956232 -2.168404345e-19) 83
(0.2697744328 0.2375062724 -2.710505431e-19) 349
(0.3006883219 0.1973236661 3.523657061e-19) 113
(0.2644407623 0.2317928362 -2.168404345e-19) 318
(0.293895562 0.2766847338 2.710505431e-19) 532
(0.2654471702 0.1804769908 -2.168404345e-19) 49
(0.3038912425 0.2657387855 0) 473
(0.2709690139 0.2921861763 0) 619
(0.2750130388 0.2212933146 -2.168404345e-19) 260
(0.2924043151 0.2110056854 2.168404345e-19) 172
(0.3033576168 0.215216596 -4.065758147e-20) 203
(0.2961493849 0.2621007665 0) 472
(0.2846204097 0.1752022759 -2.439454888e-19) 14
(0.2721204565 0.2487855271 -4.33680869e-19) 379
(0.291223112 0.2274557844 -1.084202172e-19) 262
(0.2618312449 0.2235531289 1.626303259e-19) 258
(0.2816391173 0.1818734836 4.33680869e-19) 29
(0.2804067349 0.2356206969 0) 320
(0.2888133984 0.2321851416 0) 291
(0.2803817927 0.21822723 2.439454888e-19) 230
(0.2737523777 0.2401545802 -1.626303259e-19) 349
(0.3022194106 0.2162908191 2.168404345e-19) 203
(0.2968137935 0.2086865173 -1.626303259e-19) 172
(0.2903468422 0.2347655785 -2.168404345e-19) 322
(0.2836693693 0.2568431989 1.084202172e-19) 441
(0.2756505073 0.2249913244 1.084202172e-19) 260
(0.2731275489 0.2255388823 -2.168404345e-19) 259
(0.2976127204 0.239449829 -2.168404345e-19) 353
(0.283246113 0.2162783038 0) 231
(0.300073778 0.1785724849 0) 16
(0.2758543025 0.2059556551 1.084202172e-19) 170
(0.2855213305 0.2380772649 2.168404345e-19) 321
(0.2816633035 0.2027099894 2.168404345e-19) 140
(0.3039995467 0.2950635898 -2.168404345e-19) 653
(0.2384362686 0.1953347712 -1.084202172e-19) 135
(0.2914894636 0.2621078621 -2.168404345e-19) 472
(0.2825972849 0.2813010559 -1.084202172e-19) 561
(0.2932606393 0.1932696167 2.168404345e-19) 82
(0.2972610871 0.2066820364 -1.626303259e-19) 173
(0.2567860699 0.1905275362 0) 107
(0.2759250824 0.22024307 2.710505431e-19) 230
(0.2861635766 0.1894713646 2.168404345e-19) 81
(0.2736945455 0.2487275328 6.505213035e-19) 379
(0.2823849772 0.2624538849 2.168404345e-19) 471
(0.2875664747 0.2526853367 -2.168404345e-19) 411
(0.2854288249 0.2761233021 2.168404345e-19) 531
(0.2689172443 0.2568040183 0) 439
(0.2873759481 0.1913079323 -1.084202172e-19) 81
(0.3000100298 0.1795552347 0) 32
(0.2904263585 0.2534732711 -2.168404345e-19) 412
(0.2777681233 0.225893712 2.168404345e-19) 260
(0.2468503377 0.2337631066 -1.626303259e-19) 316
(0.2822243233 0.2779071716 -8.131516294e-20) 561
(0.2963264959 0.2770861874 -6.505213035e-19) 532
(0.291709344 0.236415024 -3.523657061e-19) 322
(0.2655327178 0.281329175 2.168404345e-19) 558
(0.2977082793 0.2510659618 -1.355252716e-19) 413
(0.2529153603 0.1867530916 6.505213035e-19) 77
(0.2658304599 0.2518348501 0) 408
(0.3002165844 0.2338221728 4.33680869e-19) 293
(0.2761164381 0.2400238464 -1.084202172e-19) 350
(0.2826829871 0.2304126106 -1.626303259e-19) 291
(0.2666441865 0.2237076376 -4.33680869e-19) 258
(0.2811570378 0.2541410698 2.168404345e-19) 410
(0.2752063841 0.19400219 0) 110
(0.2121636277 0.2069442068 0) 191
(0.2846237764 0.2630072806 8.131516294e-20) 471
(0.274456325 0.1833980882 -2.168404345e-19) 51
(0.2992668852 0.2249175979 -1.084202172e-19) 263
(0.3044913025 0.2695863433 -1.084202172e-19) 503
(0.3027836924 0.2857057776 2.710505431e-19) 593
(0.27621515 0.240612536 -4.33680869e-19) 350
(0.3023902882 0.2350208068 0) 323
(0.2992322475 0.232824302 -2.981555974e-19) 293
(0.2998945336 0.2718085566 1.084202172e-19) 503
(0.2735874106 0.2298034217 -2.168404345e-19) 289
(0.2805665121 0.2872621322 2.168404345e-19) 590
(0.2824060669 0.2606165981 1.084202172e-19) 441
(0.2644334041 0.2229303639 0) 258
(0.293312515 0.1902182716 2.100641709e-19) 82
(0.2833709987 0.2198154919 1.084202172e-19) 231
(0.2672310433 0.2085017421 -2.710505431e-20) 169
(0.277067239 0.2210715353 0) 260
(0.3009488982 0.2411418379 7.115076757e-20) 353
(0.2869036613 0.2834290815 -4.33680869e-19) 591
(0.2776332284 0.1708434402 0) 13
(0.2982664209 0.1887962404 0) 54
(0.30401197 0.2148251973 -1.626303259e-19) 203
(0.2599099931 0.259287352 -1.355252716e-19) 438
(0.2894929249 0.2154992731 0) 201
(0.3012872723 0.2099118323 -5.149960319e-19) 173
(0.2715993282 0.2815694543 -2.168404345e-19) 559
(0.2890110697 0.266102667 2.168404345e-19) 471
(0.3013737367 0.1945361931 -1.626303259e-19) 83
(0.2991521323 0.1955523692 2.168404345e-19) 83
(0.297863293 0.2189846777 2.168404345e-19) 233
(0.2926481867 0.1704942381 -9.486769009e-20) 4
(0.303388502 0.2456399295 0) 383
(0.2424352439 0.2666070628 -1.084202172e-19) 495
(0.248860263 0.1974179298 1.084202172e-19) 136
(0.2514176859 0.2307805336 -2.168404345e-19) 316
(0.2302528932 0.2140636149 0) 224
(0.2713363847 0.2560884466 -3.252606517e-19) 439
(0.2653508152 0.233452318 -1.084202172e-19) 318
(0.2666304769 0.2602803635 0) 468
(0.2594152751 0.1697768374 -2.168404345e-19) 11
(0.2876927571 0.2643512714 2.168404345e-19) 471
(0.2774806035 0.2629469454 -2.710505431e-20) 470
(0.3021950639 0.2758712816 -1.084202172e-19) 533
(0.2896705785 0.215581425 -2.168404345e-19) 202
(0.2278471971 0.2912355953 8.67361738e-19) 613
(0.2971202966 0.2577638162 0) 442
(0.2883172335 0.2943893988 -6.505213035e-19) 621
(0.3011291084 0.2374925635 0) 323
(0.3004338832 0.2232262514 -5.421010862e-20) 263
(0.295484019 0.248656348 0) 382
(0.2952751957 0.2036506446 0) 142
(0.2818473253 0.202425043 0) 140
(0.2825657363 0.1968040235 -1.084202172e-19) 111
(0.2752675097 0.2644093353 0) 470
(0.2765386906 0.2149423605 -1.084202172e-19) 200
(0.3007090506 0.2752424434 -1.084202172e-19) 533
(0.2527956844 0.2145574433 -2.168404345e-19) 227
(0.3023410359 0.2037334848 -5.421010862e-20) 143
(0.2840788789 0.2326113609 0) 291
(0.2989546273 0.2999444318 1.084202172e-19) 653
(0.248267236 0.1922247701 -4.33680869e-19) 106
(0.2691641276 0.2778946135 1.084202172e-19) 559
(0.2784030071 0.1913086643 -1.355252716e-19) 80
(0.2597714912 0.2528565102 -2.168404345e-19) 408
(0.291181691 0.2294044248 -3.794707604e-19) 292
(0.2637220176 0.1898439561 -5.421010862e-20) 78
(0.2635064008 0.1995492927 1.355252716e-20) 138
(0.2861792938 0.2175505235 -4.33680869e-19) 231
(0.2981799278 0.2237374373 -3.04931861e-19) 263
(0.288704293 0.2043780826 4.33680869e-19) 141
(0.2690635542 0.2500668629 -1.084202172e-19) 409
(0.205223394 0.246797101 0) 400
(0.2515081241 0.2351423396 0) 317
(0.2669303595 0.2005357366 -1.626303259e-19) 139
(0.2672642644 0.2700814616 2.168404345e-19) 499
(0.2594912953 0.2728973474 -2.168404345e-19) 528
(0.2935280654 0.2618931 -2.168404345e-19) 472
(0.2705438428 0.2051563546 2.168404345e-19) 169
(0.2271838668 0.235962438 1.084202172e-19) 343
(0.2659896402 0.260445146 0) 468
(0.2914820481 0.2693589683 -3.252606517e-19) 502
(0.2334229251 0.1954318324 -5.421010862e-20) 134
(0.2663824546 0.180278383 2.168404345e-19) 49
(0.2566815033 0.2701026099 0) 497
(0.3045492942 0.249547546 -4.33680869e-19) 383
(0.2667031368 0.2048174803 -2.168404345e-19) 169
(0.2927667324 0.2912291787 -4.878909776e-19) 622
(0.2775347369 0.2135006824 -8.131516294e-19) 200
(0.28595782 0.2865220806 4.607859233e-19) 591
(0.2639281801 0.1815731734 -1.084202172e-19) 49
(0.2697535512 0.2091455678 -3.252606517e-19) 199
(0.2663681963 0.2262622214 0) 288
(0.2457557751 0.2449740256 1.084202172e-19) 376
(0.2718835913 0.2054909552 2.168404345e-19) 169
(0.2949708209 0.2234465316 4.33680869e-19) 262
(0.2762924572 0.2588845288 -1.084202172e-19) 440
(0.2561427369 0.2245804533 -3.252606517e-19) 257
(0.2646872113 0.245585728 -4.861969117e-19) 378
(0.2966329114 0.270887702 -2.168404345e-19) 502
(0.2950523871 0.2607251554 -1.084202172e-19) 442
(0.2708631916 0.2542242547 -1.626303259e-19) 409
(0.2563790779 0.2325489314 0) 317
(0.3011673823 0.2447010984 -2.846030703e-19) 353
(0.255190624 0.2380116542 -1.897353802e-19) 347
(0.2919572639 0.2578662553 -1.626303259e-19) 442
(0.2721782943 0.244905031 0) 379
(0.2989547806 0.2377383954 1.084202172e-19) 323
(0.2638152494 0.2506375642 -1.626303259e-19) 408
(0.2441366366 0.2924380041 -1.084202172e-19) 616
(0.2734253806 0.2738897524 -1.626303259e-19) 529
(0.2896278316 0.2104029682 -2.168404345e-19) 172
(0.2836768456 0.2316034897 -2.168404345e-19) 291
(0.2769302186 0.284614029 -3.252606517e-19) 590
(0.2444820956 0.2512348426 -5.421010862e-19) 406
(0.2835158453 0.2192891849 5.421010862e-20) 231
(0.2787620817 0.2673184751 2.168404345e-19) 500
(0.2698684179 0.2332370296 2.168404345e-19) 319
(0.2899730296 0.2881574179 -2.168404345e-19) 592
(0.3011682955 0.238296461 2.710505431e-19) 323
(0.2853576287 0.212962277 -1.355252716e-19) 201
(0.2712399005 0.1902836456 0) 79
(0.2893967366 0.2086109108 -4.33680869e-19) 171
(0.2774086582 0.2223312643 5.421010862e-19) 260
(0.2697639186 0.242612571 2.168404345e-19) 349
(0.292473323 0.2800958255 -5.421010862e-20) 562
(0.3035964096 0.2568361505 -2.168404345e-19) 443
(0.2732849738 0.2692809309 2.168404345e-19) 499
(0.273101508 0.1834132171 0) 50
(0.2988740773 0.2067312781 0) 173
(0.2793212384 0.178522031 -1.084202172e-19) 29
(0.289041903 0.2639226599 2.168404345e-19) 471
(0.3006162537 0.1821453555 2.981555974e-19) 32
(0.269960328 0.2718438585 5.421010862e-20) 529
(0.286344517 0.2477866912 -5.421010862e-20) 381
(0.2971005202 0.2082668852 -1.084202172e-19) 172
(0.2779788208 0.219696031 -2.168404345e-19) 230
(0.2860097254 0.184870287 -3.252606517e-19) 52
(0.2647063922 0.269044359 0) 498
(0.3020763127 0.2372490618 -1.084202172e-19) 323
(0.2407808489 0.2205239178 8.893845946e-21) 255
(0.2773772194 0.2092562184 -2.168404345e-19) 170
(0.2889184934 0.1782295169 0) 30
(0.3004942682 0.2060515192 -2.168404345e-19) 143
(0.2734484801 0.2411549824 0) 349
(0.2752068318 0.2394918215 2.168404345e-19) 350
(0.2773824747 0.2544406788 2.168404345e-19) 410
(0.2734405463 0.2655717406 0) 469
(0.2824247263 0.2695305453 1.084202172e-19) 501
(0.2831312995 0.2108658428 0) 201
(0.2889516993 0.2889324946 4.33680869e-19) 621
(0.2776077213 0.2228876176 5.421010862e-20) 260
(0.2834000723 0.2156182648 0) 201
(0.3016151505 0.189894004 4.33680869e-19) 54
(0.275365362 0.2912043348 0) 620
(0.2761627426 0.2831431476 -2.168404345e-19) 590
(0.2733002994 0.2968713059 -1.084202172e-19) 649
(0.2999992411 0.2015837204 2.168404345e-19) 143
(0.2765817304 0.2091494303 3.252606517e-19) 170
(0.2740584323 0.2084530974 -4.33680869e-19) 169