/*--------------------------------*- C++ -*----------------------------------*\
| =========                 |                                                 |
| \\      /  F ield         | OpenFOAM: The Open Source CFD Toolbox           |
|  \\    /   O peration     | Version:  2406                                  |
|   \\  /    A nd           | Website:  www.openfoam.com                      |
|    \\/     M anipulation  |                                                 |
\*---------------------------------------------------------------------------*/
FoamFile
{
    version     2.0;
    format      ascii;
    arch        "LSB;label=32;scalar=64";
    class       vectorField;
    location    "0.005/lagrangian/dsmc";
    object      U;
}
// * * * * * * * * * * * * * * * * * * * * * * * * * * * * * * * * * * * * * //


6206
(
(888.6346071 398.8736722 -129.7470639)
(1075.31161 -99.22474808 -59.14657608)
(1012.547052 721.6907732 -760.3577658)
(516.9095589 234.3063585 -383.5724239)
(533.1819927 -356.0931045 -97.03385896)
(657.0441064 987.5943973 -1229.644025)
(1785.168537 609.3099903 800.3431627)
(1112.129681 -96.77035355 716.8866641)
(1350.539377 366.1739393 367.3732238)
(1051.983877 -357.7495661 -447.5371646)
(1709.367216 4.534443841 -364.6872793)
(1122.300281 -315.398642 -264.9219347)
(1623.811662 -28.2228346 -222.572307)
(1134.572073 203.3569321 405.5249368)
(869.8647682 973.3338726 227.9302283)
(1192.964458 232.9403779 -832.0682916)
(964.2116372 92.80558071 27.74938525)
(1072.130758 732.2674444 753.6080039)
(1699.224972 -250.1168977 -66.51848309)
(1464.963645 744.2446222 259.7266357)
(995.0164308 189.0423645 -91.48604859)
(764.2173157 8.125573219 552.3527263)
(1717.807356 -76.76828784 -483.3320217)
(1042.533835 197.775811 179.9544043)
(1254.535279 209.1345634 -210.0925812)
(1414.440428 -205.6243169 -538.6379139)
(1311.381821 243.9815151 456.6901571)
(706.9461365 -29.76385423 -461.801344)
(1332.912909 954.9392806 299.468697)
(778.9648309 480.2507556 -228.7507151)
(1192.434344 268.3968833 -247.1365324)
(1178.046079 123.8511935 -642.1327322)
(1738.926904 38.72190125 -443.2326772)
(918.3942442 959.8350219 -501.8294424)
(1091.185951 -213.8981937 191.6411404)
(1392.522365 -23.37625076 202.8947484)
(2031.350254 -177.2460076 69.57002136)
(1561.462465 616.6003427 -473.3342446)
(1507.563137 -268.3740307 110.8417312)
(1242.161651 330.5082411 -162.0351828)
(1636.274065 188.1059407 -77.98739173)
(1694.078737 -216.6230567 343.390355)
(1155.50339 109.1722267 -464.0881498)
(1338.840741 305.5564066 131.8575004)
(1709.761131 -558.1837491 422.5466013)
(1601.323138 -152.2456016 -462.4313459)
(1650.910117 551.5885007 410.7944273)
(1899.948495 -281.7190245 -140.0087192)
(1035.409832 80.00496705 -892.8921693)
(2152.611547 -152.2314482 31.9093663)
(1614.892546 -374.6196408 -210.1566452)
(988.5157621 334.4142755 8.816461595)
(1597.961784 953.6157307 95.49631099)
(1585.809642 -459.7687411 192.3085469)
(1920.895783 91.22231472 -405.7887626)
(1193.761936 -455.2699083 149.8739381)
(2037.34152 -0.4559879835 389.0174014)
(1604.297311 874.2046127 -128.702237)
(785.7069036 50.47117448 -324.6277039)
(1188.842646 -150.4275725 -581.0799285)
(1075.852449 -355.8949005 -98.10524005)
(1966.544832 387.1855336 273.7250963)
(1567.590475 134.9351657 445.8727169)
(1520.539474 -254.0104684 372.9787085)
(864.1983541 449.3143936 -67.00125031)
(922.8616252 809.1419994 356.2748118)
(1425.633846 531.5759219 70.81376699)
(1472.373289 308.619232 24.26333422)
(1458.942303 -8.509039473 149.6685522)
(2017.368597 -116.8772856 381.183913)
(1231.755542 74.59618116 214.5968404)
(1671.22541 -80.04868441 125.9462339)
(1080.63376 -636.0631754 465.1119358)
(1183.681559 128.3946801 -21.63718359)
(1617.147841 1113.281207 -567.3106454)
(1176.437873 361.9503182 -0.04353844243)
(1202.354366 81.18960724 -209.8694697)
(1349.422552 -214.1857984 0.5904807891)
(1919.04311 659.1051213 -423.9900492)
(1641.742965 521.1293577 103.8404894)
(1575.725506 -238.1973528 -283.1216583)
(1594.033974 387.0460212 126.1402988)
(1049.695112 466.5195183 -371.2918531)
(1198.786028 104.1354175 42.9848315)
(1477.034142 930.1056137 77.06201587)
(1257.367549 -345.5124168 392.8205775)
(588.7747924 50.86051417 -505.6712924)
(830.1312791 762.3604072 -400.4677627)
(1275.456081 287.0534115 -145.6620727)
(1878.947646 -466.8019546 -247.5130196)
(2004.948209 246.6594461 -80.6110894)
(727.2679287 758.5547325 -461.8412307)
(1908.25222 901.6845097 26.35556196)
(1065.691391 1529.724327 464.0699928)
(1123.418605 642.4515502 808.9311082)
(1239.558073 715.7164745 174.9471653)
(1168.38481 104.0109953 -300.0732591)
(567.5772864 531.3059012 -316.5672991)
(891.2119282 -60.89783098 -283.1559494)
(1692.221394 247.7435556 105.5841163)
(1193.086076 258.8524541 -50.77195071)
(1332.193181 251.6454371 -383.9102405)
(1579.052702 995.7367924 21.55524393)
(1781.814158 908.2201964 -236.1355467)
(1537.314904 175.785294 -159.6180635)
(1793.466517 607.5316681 84.04333522)
(1283.703425 914.8957645 244.6677574)
(1427.437355 456.1307339 123.2060319)
(1116.032232 -122.2701662 535.1595732)
(1355.339267 771.5250924 3.124758891)
(384.5371284 104.0720025 240.0011817)
(1823.539313 471.7116675 924.5237235)
(1746.684384 1099.330541 21.71189257)
(952.0558811 -87.7030709 -334.0156426)
(1301.359284 -18.78492372 203.8103766)
(1212.869523 -217.2998622 -113.8389382)
(1635.03635 -105.8475635 -279.7551838)
(1453.103964 -69.04387646 322.6539591)
(760.7161824 479.4745815 -682.8489984)
(1968.805437 439.9997375 47.75374543)
(1603.529366 408.1016534 115.1503227)
(1858.483598 -121.7985262 -53.20743797)
(1570.050665 43.07599704 186.5737425)
(1106.279051 48.23011049 -133.4814442)
(1013.747756 653.925436 -73.9036528)
(1840.014863 -489.2092442 38.71397773)
(1521.934073 -160.6114062 -32.875694)
(2051.724915 36.03419121 435.5368252)
(1176.709097 481.8779953 -487.0468122)
(1550.433761 -403.8136417 155.5939346)
(605.0974833 175.3809099 151.7953107)
(1098.782136 -16.84288035 -503.6863525)
(1171.889322 -48.5804893 -112.393409)
(690.1133217 575.7528818 -1118.363071)
(2172.15756 869.2675806 -166.9723414)
(1452.20635 -75.98923593 -462.5978584)
(1269.015942 -14.92317498 202.4941525)
(1825.77488 488.4688172 -333.4165454)
(901.7008841 -189.4462287 -73.27690082)
(2007.76041 -127.1080176 451.6972692)
(1358.416032 742.0834211 20.78814233)
(1096.160875 41.7733893 158.1250321)
(1556.955265 435.6445588 -295.7462974)
(409.4708897 342.9014303 664.2379607)
(1611.178001 5.279941224 280.8029026)
(862.1310215 -139.5791341 409.6323844)
(1964.310268 -61.22076746 -129.8042778)
(1461.075764 514.1453521 -245.3578238)
(611.9969947 534.2077649 393.7808867)
(1758.412664 940.012812 -322.0144059)
(1872.05288 371.402641 -369.8589844)
(2133.118619 238.3913408 216.3379912)
(1926.533658 -322.6451658 -411.5580062)
(186.0891215 383.8926182 -128.054046)
(1210.304873 696.6074011 593.0434822)
(1633.235393 -92.42484877 90.48358951)
(1463.303176 273.1426739 -23.92049553)
(1809.897704 1127.44502 -439.4165978)
(1158.676108 292.6912831 -1040.098972)
(1413.689508 213.9379172 -703.1450243)
(1330.410274 712.4538085 -178.4187529)
(1107.496849 67.35052753 -47.22205242)
(1802.624563 -459.0244943 41.21288279)
(875.8032934 870.998831 474.1660401)
(1491.622471 777.8521048 -72.92787659)
(1084.195205 496.3962668 132.8567327)
(1092.771654 -141.2079171 -276.752678)
(1627.487911 518.3260769 -83.62261787)
(1912.5553 183.4040216 101.1322737)
(1288.028159 518.3429874 -230.3876595)
(1543.942983 -250.3081845 -58.18771345)
(1523.142391 -425.0921563 288.7898927)
(1055.900999 -488.0665997 429.4077064)
(1064.933559 413.1179241 95.08961541)
(1272.06477 -156.3401594 -147.3607699)
(1838.845732 542.6803885 -293.7412521)
(912.4477895 1330.767553 432.1262071)
(1131.186155 741.870798 184.8514054)
(1383.835585 610.3760099 1543.722851)
(2016.308573 446.6235526 -744.2061459)
(1570.446301 -578.9790436 -73.18927854)
(2059.936437 179.2406456 -115.5409238)
(1374.473953 164.8294204 284.9997404)
(1692.905041 243.6417294 384.1524168)
(11.10329336 106.661582 -65.94880759)
(1697.434242 -43.43653095 708.7743157)
(1527.301112 32.72997749 -76.85898056)
(1204.220357 243.5230625 215.3286347)
(1231.190684 129.1958875 -85.63521894)
(1447.739504 697.7662761 -524.3919176)
(2142.544325 210.4340407 -232.837776)
(904.8874604 263.162857 105.6414751)
(1553.04869 0.712731406 -14.30224674)
(1525.32613 -324.9936137 -59.72508187)
(1414.057821 689.0085789 -279.7333309)
(1463.546907 100.9158939 -231.9939722)
(1650.56785 394.9314796 41.98215763)
(1510.779751 67.20359278 377.5673172)
(1655.530195 183.1750041 47.58096958)
(1464.12761 24.47303054 -132.8359862)
(997.4829125 -338.3171362 -2.941236476)
(1555.191003 -362.0421889 407.9843679)
(1827.556269 -95.73446416 207.9235992)
(1761.372872 -137.6563021 -184.3376415)
(1387.366247 -574.8743941 -401.2021264)
(1426.163717 356.2724983 10.25756683)
(1264.13804 -196.9616384 315.7706633)
(1608.936454 299.133965 -421.1599782)
(1658.382691 72.24992634 197.5903509)
(1938.388627 177.3480538 223.5962291)
(1312.711199 314.8532399 -192.8074097)
(1717.264 607.6602377 -354.9744562)
(1715.996596 -71.87527598 -425.7259236)
(2096.479086 306.3239801 -239.6581456)
(1046.962317 34.15194629 -376.2875565)
(944.6543717 423.7174031 -441.8764699)
(1737.336505 -214.9227532 63.24354215)
(1482.264598 800.468461 -375.0561611)
(2149.558199 324.747607 9.717558321)
(891.9641504 -19.10923868 699.3950005)
(1735.984836 719.992705 -338.6921522)
(1138.937855 227.9706902 55.10752654)
(1414.020452 609.9127088 135.6493381)
(1224.123531 846.7662591 -36.8954533)
(531.8694316 511.0823627 239.8666089)
(634.8559892 897.724951 -574.6081007)
(1214.112335 -44.46100239 -507.0246187)
(1267.72082 404.3381104 74.68111684)
(1336.719986 412.7030497 344.8381076)
(1770.844528 887.8386117 158.73056)
(1190.82968 -367.8903463 340.0728206)
(263.7316903 295.0255066 -193.4518624)
(1736.812378 204.8588 -426.9129483)
(1279.137623 -10.36037765 -554.0947723)
(913.2716038 1286.456672 -73.41275376)
(579.3441648 169.3962449 1019.161927)
(1780.609164 1207.255203 213.4861791)
(766.9336185 -173.6433135 860.7086185)
(1498.156728 199.2805062 362.4774298)
(1785.491577 415.1194905 -59.90963616)
(1194.849441 348.9098301 284.6051461)
(1569.660662 -122.1999003 -64.42736701)
(2256.006196 458.7899639 -231.3791711)
(1590.359332 307.3493085 -56.46211425)
(1673.352986 -182.698766 -429.9500001)
(1546.780493 564.6116249 -38.99074835)
(1265.133787 609.7910267 238.6069865)
(1597.527698 675.9979082 -476.9065169)
(1582.990433 66.51095905 -163.5583606)
(1507.692376 187.5860569 536.3254804)
(2198.706103 1030.659219 -455.8291703)
(870.5587838 450.9240056 56.44899729)
(1560.073477 237.6063039 56.82545048)
(931.0799061 1353.756387 -59.78865647)
(2006.562685 752.7802816 96.41271733)
(2167.890199 203.3922306 -144.6675429)
(1221.268605 227.0020406 -120.6601117)
(998.823924 656.3063581 826.7378609)
(1721.741269 492.3241504 -451.4792407)
(1509.737449 647.2119752 -190.8416916)
(2155.983608 256.698521 67.71168513)
(1119.294573 -140.2194326 39.92988125)
(1080.246918 413.631027 -172.3618716)
(2035.448981 -206.973174 -87.46833248)
(1771.882573 -275.0404922 147.2895892)
(1602.119806 236.3024776 37.99363675)
(2002.959928 452.7064441 -438.8489784)
(91.47663439 441.4775693 -799.6099302)
(1047.488289 100.3397562 -198.1668211)
(1940.197407 1128.425781 -449.5221126)
(1699.1438 502.1789492 460.2904691)
(1391.990926 -465.1302885 -242.3560396)
(1121.83252 22.70518316 -76.39428875)
(1989.397588 55.77229749 -308.9910198)
(1843.647443 568.9110877 491.9366874)
(994.1564559 -183.0319141 389.972938)
(1345.884338 -617.3488011 -357.9780135)
(1451.851394 147.887768 -224.1256395)
(914.6754499 1067.764557 -19.60730093)
(1182.178348 560.8763424 1047.8088)
(1423.573598 -273.4436067 -309.431394)
(1620.437782 -45.66239556 199.085619)
(1160.81495 19.66677206 -567.0440021)
(1293.791445 702.581869 -34.91018422)
(1316.120065 192.177201 694.228378)
(1488.919761 352.1770762 4.622798309)
(1767.198637 61.33131457 264.7299642)
(1575.140308 377.1131599 -287.3257886)
(1520.171167 465.0432582 718.6528879)
(1732.098504 300.707656 -342.2354448)
(1408.213377 -11.77262244 -299.0676175)
(1249.429116 -159.5543635 -172.8451791)
(1620.667826 321.4179252 441.4777996)
(1274.627794 -159.4537726 -55.24948605)
(1733.050387 1155.229069 -13.42879699)
(1575.210427 827.7510162 308.2642836)
(1846.725701 -110.0084626 -19.81910526)
(1405.507532 755.5146073 -320.6997247)
(1468.395806 122.1471183 446.5294849)
(1466.897165 242.9893425 -57.13982817)
(1440.386752 -290.6707932 -556.7530815)
(1791.49449 -133.003106 -60.74533496)
(1488.891166 300.5134085 248.7367048)
(1598.661758 830.0948984 -181.5360387)
(958.2708174 -38.84287672 466.2228303)
(1714.514304 90.90453 -282.8370966)
(1445.587743 -344.4231789 -453.2044506)
(1658.562564 422.6357932 173.9131104)
(2246.459842 -20.6637372 -479.8489284)
(1986.557334 -122.7781231 -619.4459415)
(1764.115352 94.3526235 77.67308392)
(1867.974352 341.1050579 -116.9885068)
(1726.491589 362.9664691 -128.2568325)
(1719.459782 -294.3922304 19.06892944)
(2333.493773 -245.802777 -1255.059303)
(1756.965453 357.5264636 -322.0610545)
(1335.701352 583.8335636 -902.6397165)
(1681.63696 195.9531181 92.94738411)
(1493.667609 318.1253976 -114.0203066)
(1283.169771 55.83843199 120.1916901)
(1667.420155 422.9417988 235.7718778)
(2045.023267 -375.4132146 -578.3457116)
(1362.872297 920.5525845 -165.9648453)
(777.9789703 -440.45204 394.7352101)
(1415.365715 -367.6407432 370.3183762)
(1553.098826 295.1564235 -355.3389019)
(1664.148408 228.767363 461.458732)
(1645.197414 -19.77482747 90.45914403)
(1099.126394 690.422489 -287.191177)
(1445.563734 267.6661923 497.6495029)
(1381.649287 221.0122799 -81.77082132)
(1269.833916 81.40427889 188.8301727)
(1683.669753 105.6750243 297.6457986)
(1181.625529 57.98509671 -454.1410203)
(1212.171755 886.2610854 -96.70550803)
(1240.53939 943.7401161 -261.3864205)
(1593.948575 -0.1308061113 -233.2793787)
(1355.153102 57.96387235 312.5671931)
(1534.227985 375.1934791 -824.4237098)
(1457.339628 -328.8403588 -32.53394724)
(1934.28279 15.10047516 106.8446222)
(1745.777929 252.5944447 -315.4894751)
(1775.460178 -17.60481325 461.3084064)
(1302.279231 -345.3784526 113.7747207)
(983.6889646 -327.9860887 -235.6530869)
(1503.563107 -32.63964678 41.98548717)
(1748.03854 439.549423 -229.3984322)
(1368.018124 594.3505471 401.865447)
(1825.740901 94.43664837 -157.6223022)
(1607.788744 194.2454678 -289.5704816)
(1540.826146 -68.60568507 -286.7956008)
(1450.422358 -77.73243599 263.5223645)
(1875.353975 -3.323504578 109.2526321)
(1611.250016 583.6432164 483.4829988)
(1303.892457 22.25626795 -296.0468896)
(1783.799057 321.5341568 177.2992249)
(1109.460578 675.295306 -64.41990385)
(1651.619565 293.248925 -149.0996748)
(705.9101597 113.0130329 -76.96592025)
(1200.284114 272.3900307 -494.9546706)
(1751.089648 -132.3038956 -670.4509449)
(1796.295765 739.760537 681.1041353)
(1259.234979 292.9990543 -636.2358549)
(1422.882235 115.5876083 -286.9298711)
(1345.665351 304.6034641 -787.4509692)
(1719.443893 -68.17641614 -73.39539154)
(2175.917807 1116.512385 -478.3207115)
(1467.588376 126.5421699 -12.79107203)
(1971.081856 -444.402698 -55.53224464)
(1209.384857 -235.203861 268.6100819)
(1558.185171 -206.6502515 19.67711664)
(1554.320259 23.98260524 161.3256565)
(1936.813049 31.83821116 -82.11517718)
(792.8799063 733.3318036 -572.5135495)
(1757.104684 20.08825788 -339.1734821)
(2144.66446 -47.81107304 684.9544195)
(1829.712453 112.9563379 -391.6338214)
(1637.978716 11.1544191 -99.44169187)
(1667.989147 -506.7588489 -21.30509808)
(942.1359171 1139.078734 172.8747689)
(1531.091018 813.2853382 302.1333087)
(1249.982866 367.8324151 -534.0851626)
(1422.305107 762.3130581 -536.2587496)
(1970.153125 -324.9561735 -97.30387351)
(1814.654144 -18.83481266 -150.4016085)
(1379.390905 88.4870259 -532.5530167)
(1808.409066 460.9474832 -223.1430698)
(2042.066878 969.0935443 -12.95543775)
(1448.591625 -53.74769918 423.6365206)
(1352.052961 1233.440696 110.5253341)
(1749.349082 -126.3573509 -349.5734646)
(1464.918948 368.4293348 98.98376132)
(1608.188392 141.6929792 150.7563902)
(801.7881173 -123.3635805 -400.9082407)
(1169.072061 -87.55544084 224.0225221)
(1495.777337 -150.5227693 -174.9270474)
(1599.821749 -56.71501032 -104.9946888)
(1336.795043 624.9369907 -187.6428675)
(2037.554095 358.7136669 327.2605889)
(1868.530176 1235.547109 255.0258938)
(836.7464697 503.0328772 -398.3537448)
(1743.162387 721.6468552 105.8660224)
(1190.734843 172.9211813 374.4754948)
(569.6191545 799.7615549 630.565511)
(1724.412762 345.4909795 362.1414965)
(1829.900918 212.4965069 170.5309884)
(1219.581589 551.024565 175.9002301)
(1297.679079 -338.6873586 -208.4591271)
(1782.01583 740.3559439 -248.8699669)
(1672.157651 1062.055712 228.7492881)
(1438.523866 -690.8591082 422.3067276)
(1550.032605 -140.4987091 501.8811446)
(1845.067632 -82.99014964 -204.67096)
(796.2106609 307.2167536 205.9578773)
(1903.819293 79.72863825 -89.66547231)
(1700.254648 -351.0987359 -578.4684584)
(1580.11148 794.4920855 -156.7998706)
(1518.576136 112.2879636 -154.9723988)
(1856.756645 214.3298645 278.8175828)
(1091.173459 10.46363594 181.336115)
(1659.446774 184.5139783 -414.0514586)
(1537.807468 234.6116047 195.5747614)
(1635.733 -266.0114041 987.9091539)
(1605.907991 1263.360859 295.7761545)
(1429.40999 471.0409668 97.47225025)
(1311.029705 -513.7001695 76.70623548)
(1244.66451 -59.22243089 354.8808224)
(1513.62077 717.2242155 -11.816371)
(1649.33036 -273.6009106 2.164232002)
(1505.735269 -357.9532104 62.41824861)
(2014.346626 514.6447836 -528.2648364)
(1881.639227 69.06536741 182.4139026)
(1267.165237 429.9031191 188.1905947)
(1836.205684 327.2128167 -60.74018272)
(1108.900182 129.1403348 448.8692469)
(1641.78445 54.19135623 -262.6049109)
(1711.437252 399.5601607 107.0450091)
(1184.474892 -153.5383766 646.2441129)
(1519.742292 -374.0062034 -810.6625653)
(682.383157 1776.440809 85.98048354)
(1302.148118 57.6335943 99.10665246)
(1102.741026 162.1110071 -306.7026871)
(878.1873071 506.8289638 -145.5380797)
(1168.114798 572.3916856 216.4909423)
(1445.126853 714.0234513 468.7741019)
(2419.600071 1020.819303 270.2999235)
(1237.095426 -649.1506237 38.58217001)
(1530.559893 -479.6051349 -230.2086172)
(1336.232274 1037.374268 157.6567972)
(1740.919021 -517.1785958 48.73379468)
(1841.111809 749.4261778 -1153.596915)
(1639.028749 710.6459644 -222.7499392)
(1554.965939 103.4027699 61.44196601)
(1533.89865 1091.077095 -152.5911742)
(1799.806952 -356.6231169 -514.6161882)
(2218.833191 481.4002281 -70.50314079)
(1696.034528 -146.7295201 -404.4843299)
(762.1138623 621.2522971 207.1781351)
(1716.850197 -228.7560396 -702.0694432)
(2008.585362 678.7755693 -597.449474)
(1586.478394 -36.72075385 -297.4173338)
(1492.039 490.7040158 58.29373512)
(1486.054019 387.7014747 51.26207534)
(1679.022412 -247.4876215 -88.05329957)
(1260.603838 -290.2443441 -631.5884591)
(2176.162925 183.7307396 237.6605143)
(1071.74387 667.0544569 839.2154933)
(2187.425712 -500.556945 475.8378428)
(1340.451977 34.66002966 967.4345902)
(2155.737911 -74.6432787 659.0417812)
(1736.701467 -92.33515768 60.30558805)
(1910.504351 -2.247601517 -123.5366573)
(1883.989917 -57.84583491 745.1910368)
(1535.664409 -232.1966896 -133.9772637)
(1913.49919 38.31071535 -136.1106416)
(1830.823689 89.18069569 -32.87225154)
(1512.527399 105.0684684 91.35269699)
(1874.490895 499.3663458 551.4529806)
(1220.869958 -339.5258 214.177467)
(1983.24817 -41.92149327 -495.4796667)
(1804.232197 214.765252 -494.9682813)
(1849.737929 329.9488531 414.9418034)
(1229.180669 -2.921790128 42.74349402)
(1365.030452 648.3446797 -55.98763048)
(1774.485145 -29.55389483 -246.3628546)
(1515.196401 597.0787164 548.2065367)
(1844.207129 17.70676913 -174.6883052)
(1231.512147 167.5724299 -431.8371573)
(1463.053216 1298.450222 -777.5922866)
(2507.903796 220.0969742 -667.0643903)
(1634.815982 117.1261777 307.1414087)
(1835.026688 606.0031018 180.452239)
(668.5695967 385.7953295 348.1069081)
(1846.994631 -121.6286763 -258.7248917)
(1597.122521 -339.689575 -919.4862824)
(1700.634388 -644.9905928 -58.62782618)
(1833.132334 72.63229469 377.6405305)
(1521.383746 67.38053866 72.38515384)
(1437.877281 706.7832216 -259.6463658)
(1612.018446 190.4239301 96.01412468)
(1885.772121 680.5708623 386.7423817)
(1285.423132 455.038488 -106.4942111)
(1903.545946 434.3273601 408.9754896)
(1708.988902 90.63521137 377.4376938)
(1552.880334 -25.33874309 192.7884069)
(1296.949841 151.3814451 -782.5308148)
(1613.864611 143.8700791 -113.9753302)
(1802.36183 525.4183082 -18.92089014)
(815.3992129 764.4703663 -359.2886099)
(1646.965589 320.5852651 558.962851)
(1191.466198 380.7983022 424.5531224)
(2046.652454 -49.81796411 -659.667563)
(1677.348813 -539.4864775 157.9648226)
(1716.761063 -58.43497119 -100.5791255)
(1185.808676 426.1094239 -709.4473463)
(1532.766775 -116.6087232 -105.9291991)
(1570.306875 -418.4441326 677.6402876)
(1987.050653 1009.474974 -90.36429353)
(1328.577808 -445.1384843 -81.83399739)
(1765.484098 -162.0600171 219.4519907)
(1992.623742 -717.4483726 38.63516085)
(1489.426408 1083.463496 495.655018)
(461.4507341 678.4185831 89.94936514)
(1211.577407 173.8611092 1325.457649)
(1150.202518 405.908331 -73.11002774)
(1481.571532 10.69227811 -38.2533396)
(1754.437814 -118.7483459 67.63151877)
(1484.536628 133.9196482 -106.314588)
(1865.845357 324.0470042 -3.014314176)
(1881.914507 139.1166592 -65.32614662)
(1486.279619 -319.2954879 384.7227115)
(1635.024544 110.3208322 -279.4719074)
(1677.258607 -316.1418034 368.2451255)
(1840.803346 -585.7047589 326.1887106)
(1630.365852 176.1141596 16.38018369)
(1349.441418 257.5924776 -145.3401901)
(1884.746679 218.0473835 -357.4007)
(1871.167913 820.3930508 -210.8504888)
(1844.111127 461.1606572 831.6500975)
(1590.829964 198.447398 -252.684679)
(1776.543088 352.9240384 -883.4120922)
(1890.978784 149.2183347 -370.5365262)
(2111.811111 450.2285658 221.341718)
(1042.735209 591.9924382 -738.6925915)
(1403.497196 662.4263174 -244.2990896)
(1129.580023 51.09273535 -8.99391032)
(2258.304509 16.84149918 -285.585369)
(1730.945515 270.0894738 81.25475637)
(1755.758998 566.3081045 -168.4454664)
(1001.14426 467.1467126 -610.2726265)
(1386.087688 218.2236994 141.2865147)
(1773.856665 95.65925462 279.9987522)
(2260.949916 36.46225813 193.1826084)
(1893.485097 -79.8368255 62.65306689)
(1482.783447 -4.661158898 556.1044406)
(647.6031375 -385.2795873 -56.51207033)
(1574.225086 -298.7371509 -46.53929543)
(791.5341299 979.5778141 2.741891941)
(1676.858178 494.7419563 597.1213986)
(1390.094374 241.9325352 229.3706548)
(1319.14728 223.9439314 -672.8145845)
(1841.443613 256.1684908 12.68537817)
(1669.282165 -307.6435834 -571.0593708)
(1630.635666 -183.264478 -181.3798141)
(1193.585026 98.03318968 -144.2619958)
(1236.433224 -329.3396062 -229.9945546)
(2094.799271 -130.9289831 -597.6792761)
(1281.735501 -107.1832122 181.5964746)
(1453.053328 668.6007288 -76.18614689)
(2068.011292 31.40593118 179.9255532)
(1690.05427 859.3036363 -213.4421873)
(1332.170206 -117.4388509 -339.873928)
(1809.864626 -105.4779223 -471.2312028)
(2001.752566 -125.2767614 210.512517)
(707.5080373 109.5195699 -336.9429541)
(1456.351086 88.17872393 216.9015167)
(1494.619659 -67.02340606 1.940160482)
(738.4262926 729.7043163 708.1957512)
(535.8995066 921.6215749 -265.5203721)
(2188.121132 200.4888154 -79.38768965)
(1483.327434 -341.3715739 4.817004585)
(2102.47152 944.4715823 -455.70704)
(1684.777884 -303.3398985 -320.6755025)
(1568.828141 -516.4078449 -82.560766)
(1075.877429 -50.55708692 541.9313687)
(1733.240326 72.71539786 -346.1258619)
(1409.181748 -37.26659363 373.5627922)
(2179.643725 -165.672127 458.4908105)
(1202.195717 218.1515392 -241.3824894)
(1596.288486 -461.6727437 397.8468353)
(1456.759778 -490.8334733 -458.6071522)
(1875.7038 -3.007172179 -118.8954418)
(1758.50611 -165.3501941 -61.91389436)
(1341.710259 85.8850703 -228.3879281)
(1250.304657 199.2523086 135.0024743)
(2219.371715 -324.7164336 244.0026366)
(1456.667598 501.6027585 -178.4870127)
(1960.093323 1176.027157 -278.0370385)
(2226.843595 83.50305167 241.3039664)
(2144.835704 564.4536006 432.9603045)
(766.4706087 2.687046029 -133.1467611)
(1145.349108 -100.9408396 12.17426186)
(1827.064275 40.49209929 -824.5024036)
(1710.052492 55.74642247 -255.3993189)
(1806.081007 39.22793088 -135.3601144)
(1790.323807 -53.04904318 255.5114079)
(1680.621022 244.3940731 -391.7649625)
(1743.233903 377.8999823 -40.50876027)
(1793.09535 214.8261098 282.9260522)
(1404.59473 -43.59313393 -433.5890828)
(1530.287184 708.8812973 -99.8289174)
(1551.314096 -438.4201619 -265.9295008)
(2112.488525 -304.6520999 60.95502388)
(1393.00354 20.35649451 811.1205195)
(644.4812328 249.7464464 -765.4665724)
(1496.922595 -353.1200759 -155.6751575)
(1618.350237 -135.2224658 -0.216832456)
(1603.580749 -118.7241492 -164.8265291)
(1759.770527 -40.66088367 115.2838897)
(1162.864126 260.2564013 406.1274626)
(1393.510286 558.0283038 435.8370257)
(1163.511996 197.3439419 -169.367503)
(1709.048868 -67.46875815 700.7518957)
(1893.03583 -343.4310136 -458.1704589)
(2035.007314 430.5745916 -225.567786)
(1764.838314 -362.7584676 -166.1096578)
(1017.698695 115.1317221 -71.62970894)
(1062.929664 227.9342521 -231.1652591)
(2106.207869 171.6553067 -463.2133064)
(1847.206849 354.5564114 346.1661855)
(1689.711677 200.5130824 138.1261843)
(2091.573268 -67.60223204 -64.44088687)
(716.5953046 554.9187261 235.9347671)
(1109.600254 -477.6467166 -417.8079225)
(1899.636971 -278.410681 -374.2002555)
(1325.83811 69.16968483 604.3918797)
(1387.945403 288.6321523 204.4954573)
(1780.131603 228.765676 -164.751713)
(1878.341991 -248.6228458 -288.2596907)
(2275.936007 303.7471919 223.3945187)
(1581.578351 128.5494594 -28.90089387)
(1889.269568 211.0749911 -452.7913909)
(1760.032031 286.1965245 19.29897071)
(2032.41573 1198.877617 -163.050376)
(1657.145132 213.1358367 -93.31549629)
(1761.093014 13.61023356 -543.2182926)
(1749.177691 -95.65586566 489.2653499)
(1990.807546 87.37996594 13.97903673)
(2269.60563 689.5042503 159.317121)
(2054.816242 168.8733855 -26.84495435)
(2386.763119 279.4536441 -77.08654269)
(1765.951807 529.0987286 1124.163479)
(1619.127377 673.5001655 166.420164)
(1600.980072 298.4317477 -309.0300908)
(1603.781343 -69.34167145 -391.0185888)
(1749.331637 479.1790952 471.7429462)
(1705.061559 -259.2811976 711.6440028)
(2005.466905 204.681735 85.88852512)
(2127.941645 -206.7666005 554.7612518)
(1648.521872 42.9729547 313.8889581)
(1620.481284 167.805497 -713.8024297)
(1226.917097 464.2456212 957.2878838)
(1802.912982 -29.29574772 -611.2355474)
(1248.492533 190.1793841 393.3887077)
(1387.951813 -214.622056 418.9904543)
(1981.052714 4.094745725 -370.8469625)
(2010.491703 128.2822542 -268.488778)
(1591.85426 257.5288934 162.6393872)
(1568.389466 230.9414528 -196.958013)
(762.9550254 274.8794233 104.4261547)
(1695.097357 -420.3281425 -149.9788394)
(1620.635182 17.20167369 198.4122691)
(920.6944182 473.7952795 -446.0831259)
(1686.492702 -326.9525633 -586.6424318)
(1944.722598 -385.1615901 214.958334)
(1450.550563 67.53271092 31.66138303)
(1659.305792 402.5732806 110.788909)
(1700.965966 150.2361012 -11.31605816)
(2086.905399 164.733953 160.7561756)
(1825.557406 111.8314707 -41.29134213)
(1460.054051 67.24690114 184.1556855)
(1673.083035 87.87783968 -176.7029238)
(1815.60787 -406.6549681 342.7052485)
(889.8552928 -380.3239834 340.6895819)
(1886.064541 390.8292997 80.9729445)
(1575.98517 -669.5932187 54.96728025)
(1925.356442 -220.3146961 -674.4740556)
(1840.322041 -59.97936921 -73.47711982)
(1541.295548 -733.6587455 123.818542)
(1525.413735 -195.6769588 363.0209979)
(2143.412257 -365.0319474 -9.993858663)
(1874.197954 877.9777516 43.33072024)
(1457.950654 -293.6963703 -216.8244059)
(1946.688078 495.1427037 -30.86400219)
(1338.4221 1063.77908 540.2402635)
(1090.452451 62.85166656 945.7418666)
(1628.877439 -715.5877023 -117.8906864)
(1379.100704 838.8198381 -14.36518836)
(1573.538674 376.0439436 -214.952333)
(1493.946562 19.27926156 419.8942228)
(1697.826855 -134.2224398 -21.66872375)
(1388.928397 106.6064429 205.7365441)
(1811.492411 -50.71147262 -324.9137321)
(1231.245533 153.1415756 209.7228163)
(1828.59508 -434.579708 375.1617721)
(2260.454832 262.7515985 -750.1844619)
(1869.821571 -237.1541498 54.4334179)
(1847.408106 40.9772082 -291.7793034)
(1324.787628 -424.6282527 625.0282884)
(1686.922533 -154.4778634 -299.7369334)
(2228.479153 382.8002285 -577.1545664)
(1584.283791 -243.806222 359.6623051)
(1061.352054 485.9100415 -822.6342909)
(1455.027667 214.7576882 689.3655255)
(1087.127061 407.0814844 4.088268998)
(2109.366992 -209.9425783 -230.5324218)
(1681.095241 523.4072568 -134.7176558)
(1763.237784 -359.957463 -592.8867865)
(1309.441788 591.9048889 -769.9210259)
(1920.152173 716.1192896 -38.9540117)
(1207.516811 -279.4846935 235.4291495)
(1202.78122 -376.1415644 -231.2159858)
(1533.516865 461.4131833 -450.1392592)
(1477.016556 -46.79031037 156.4895831)
(1614.571784 408.3418722 -204.9429503)
(1795.302872 -16.00800442 -70.37497248)
(1835.380819 -69.08699538 -62.95214183)
(1380.551695 208.7197643 -68.84249772)
(1918.879206 472.6147853 473.5290881)
(1349.479473 -351.636662 -252.3881084)
(1826.519695 75.70062617 188.2900205)
(792.9327452 719.2024775 647.4647712)
(1891.863716 -188.6289556 -329.5803665)
(1839.037111 353.9196695 35.30355292)
(1847.561401 48.89149565 112.7404201)
(2166.558567 -209.6917106 179.5840132)
(1387.671107 -379.3657857 313.9926822)
(432.0776675 363.6358787 -71.12051069)
(1898.5557 302.7203294 206.7293027)
(1754.652398 -147.4357286 590.693926)
(1609.619411 172.5649476 405.7466326)
(1476.872019 301.646974 -8.116188669)
(1585.537943 -343.6940895 64.08708483)
(2044.556213 246.4205496 -319.3721939)
(1657.159924 76.89767349 -23.23206349)
(1433.539411 167.0633063 -239.0567405)
(1881.518472 -59.41502169 216.2061606)
(1594.559556 1151.864521 389.3101027)
(2264.723093 -87.43851867 237.9734195)
(205.798325 -281.5900435 -736.3229004)
(1644.731613 -52.45452424 138.7360861)
(1577.61015 -313.9943018 49.49160285)
(1016.26978 696.1207004 -28.96382585)
(1963.069738 644.3711321 447.2459038)
(1547.767077 329.8643478 88.33570576)
(975.4952189 39.54147533 277.936748)