/*--------------------------------*- C++ -*----------------------------------*\
| =========                 |                                                 |
| \\      /  F ield         | OpenFOAM: The Open Source CFD Toolbox           |
|  \\    /   O peration     | Version:  2406                                  |
|   \\  /    A nd           | Website:  www.openfoam.com                      |
|    \\/     M anipulation  |                                                 |
\*---------------------------------------------------------------------------*/
FoamFile
{
    version     2.0;
    format      ascii;
    arch        "LSB;label=32;scalar=64";
    class       Cloud<dsmcParcel>;
    location    "0.012/lagrangian/dsmc";
    object      coordinates;
}
// * * * * * * * * * * * * * * * * * * * * * * * * * * * * * * * * * * * * * //

5153
(
(0.1187306215 0.4333303348 0.007304354442 0.4406346892) 534 1013 2
(0.04563053914 0.2714399559 0.2057447745 0.4771847304) 525 995 2
(0.586623755 0.2066881225 0.198329358 0.008358764478) 475 917 2
(0.2186098871 0.3906950565 0.3507565351 0.03993852131) 442 838 1
(0.05632582865 0.4718370857 0.2671123429 0.2047247427) 455 879 2
(0.2648648198 0.1328148082 0.2347527819 0.3675675901) 424 822 1
(0.543592939 0.06767899826 0.2282035305 0.1605245322) 485 936 1
(0.1737257112 0.2022863119 0.2108508325 0.4131371444) 464 880 2
(0.3982160604 0.3008919698 0.2489601089 0.05193186094) 435 2221 2
(0.03714294556 0.06598329341 0.4814285272 0.4154452338) 385 748 2
(0.6078188627 0.1484142917 0.1960905687 0.04767627692) 383 742 1
(0.4563232853 0.2163722743 0.05546608307 0.2718383573) 465 2224 1
(0.2309145609 0.3845427196 0.1432564787 0.2412862408) 385 746 2
(0.01890112429 0.4500979504 0.04045148743 0.4905494379) 385 2216 1
(0.01951334995 0.2442839508 0.2459593742 0.490243325) 460 890 1
(0.4017328918 0.1772519613 0.1218815927 0.2991335541) 532 1027 1
(0.334906396 0.332546802 0.2279904844 0.1045563176) 494 955 2
(0.2337555304 0.1831993547 0.3831222348 0.1999228802) 483 935 2
(0.1072177098 0.4463911451 0.3661706782 0.0802204669) 495 955 2
(0.1111174466 0.4444412767 0.2652616075 0.1791796692) 385 746 2
(0.5763406231 0.1976054287 0.2118296885 0.01422425978) 405 784 1
(0.5178788481 0.2410605759 0.1158528095 0.1252077665) 395 767 1
(0.8406520004 0.04511486855 0.07967399982 0.03455913127) 455 881 2
(0.08698408858 0.4565079557 0.2826124474 0.1738955083) 512 987 2
(0.5212521904 0.2307903272 0.2393739048 0.008583577596) 453 875 1
(0.4423808835 0.1022699241 0.2788095583 0.1765396341) 381 741 2
(0.1546561207 0.2742069995 0.1484649402 0.4226719396) 373 725 1
(0.4810432752 0.2594783624 0.01549425562 0.2439841068) 433 839 2
(0.7717368705 0.1089565528 0.1141315647 0.005175011951) 425 822 1
(0.721429004 0.139285498 0.1041646803 0.03512081772) 393 763 2
(0.6440773758 0.1680006401 0.1779613121 0.009960672054) 465 900 2
(0.420068845 0.2899655775 0.1791329934 0.1108325841) 535 1014 1
(0.2132565038 0.3933717481 0.2281169139 0.1652548342) 403 780 2
(0.06308576776 0.4684571161 0.1261686707 0.3422884454) 378 735 1
(0.04402404525 0.2229880538 0.4779879774 0.2549999236) 455 879 1
(0.05084987545 0.4745750623 0.1494270177 0.3251480446) 390 757 2
(0.4153545995 0.0735726307 0.2923227003 0.2187500696) 422 819 2
(0.3502016 0.1448727719 0.1800264281 0.3248992) 375 2215 1
(0.2205067863 0.3366341568 0.3897466068 0.05311244999) 465 898 1
(0.5803657284 0.2098171358 0.01624621845 0.1935709174) 395 765 2
(0.2306157603 0.3846921198 0.05837952019 0.3263125996) 402 762 1
(0.178862771 0.1470546446 0.4105686145 0.2635139699) 435 841 1
(0.4344979075 0.2827510463 0.06163511938 0.2211159269) 385 748 1
(0.2658792408 0.3670603796 0.02575761023 0.3413027694) 385 748 1
(0.07693578957 0.1603970186 0.4615321052 0.3011350866) 384 747 2
(0.6855812175 0.082657556 0.07455183526 0.1572093913) 505 957 2
(0.6867949773 0.1200507101 0.03655180122 0.1566025113) 463 878 2
(0.4324095243 0.1740368155 0.2837952378 0.1097584223) 475 917 1
(0.5229960556 0.1452834301 0.09321854211 0.2385019722) 404 784 1
(0.2302943297 0.3848528351 0.2952400978 0.08961273736) 432 835 2
(0.4200136753 0.009964015847 0.2899931623 0.2800291465) 395 765 1
(0.6498283395 0.02836933246 0.1750858303 0.1467164978) 403 780 1
(0.1684651114 0.3283529163 0.08741452799 0.4157674443) 415 2219 1
(0.04208664931 0.4789566753 0.06015580029 0.4188008751) 440 853 1
(0.2607278515 0.2188239107 0.1508121635 0.3696360743) 504 956 2
(0.4981226339 0.1314273449 0.250938683 0.1195113382) 405 784 1
(0.02589304226 0.2877845743 0.1992689046 0.4870534789) 394 765 1
(0.3248989937 0.3375505032 0.3227346661 0.01481583707) 384 728 1
(0.5310180451 0.05119587632 0.1832951011 0.2344909775) 462 876 2
(0.1535584398 0.2943625611 0.4232207801 0.128858219) 424 820 1
(0.2708669922 0.3362921396 0.02827436436 0.3645665039) 442 856 1
(0.5362623773 0.2318688113 0.1622403146 0.06962849675) 522 990 1
(0.4765877698 0.1576345034 0.2617061151 0.1040716117) 544 1041 1
(0.6418628735 0.1790685633 0.08122309139 0.09784547188) 505 974 2
(0.5220631838 0.03038391342 0.2389684081 0.2085844947) 415 805 2
(0.2206539006 0.2067538285 0.3896730497 0.1829192212) 484 934 1
(0.2296811487 0.3851594257 0.09858440344 0.2865750222) 504 974 2
(0.2258763382 0.2591595052 0.1279023257 0.3870618309) 463 896 1
(0.225927937 0.3870360315 0.3275530832 0.05948294835) 384 747 1
(0.4661362627 0.2669318686 0.01119329784 0.2557385708) 375 727 2
(0.8083198294 0.09584008531 0.0381556618 0.0576844235) 431 817 1
(0.7026523333 0.1486738333 0.01111341293 0.1375604204) 435 841 2
(0.42154818 0.28922591 0.2731701133 0.0160557967) 361 702 2
(0.3135669879 0.3432165061 0.06642166312 0.276794843) 435 843 1
(0.005529840214 0.1944354004 0.3027996795 0.4972350799) 389 755 1
(0.4016204415 0.2991897792 0.2962623613 0.002927417908) 535 2231 2
(0.1440223273 0.08616683504 0.3418220013 0.4279888363) 445 843 2
(0.5288392996 0.1942878714 0.2355803502 0.04129247876) 461 893 2
(0.07892649092 0.4605367545 0.39456014 0.0659766145) 454 861 1
(0.2693871005 0.3144328174 0.05087363236 0.3653064498) 525 2230 1
(0.006477389654 0.1896964543 0.4967613052 0.3070648509) 492 949 1
(0.8729593381 0.06172723717 0.06352033097 0.001793093802) 492 952 2
(0.5289713698 0.2355143151 0.1005079468 0.1350063683) 534 1013 1
(0.2040397711 0.3979801145 0.3780350132 0.01994510127) 523 1008 2
(0.2371445194 0.3814277403 0.01448806176 0.3669396785) 525 2230 2
(0.035095479 0.1243696929 0.3580825676 0.4824522605) 395 2217 1
(0.1754656929 0.1428336541 0.2694334994 0.4122671536) 392 761 1
(0.4279875818 0.2860062091 0.009436529689 0.2765696794) 382 740 2
(0.2277785079 0.2424696417 0.1436411044 0.3861107461) 405 2218 1
(0.5189791158 0.2405104421 0.009252806511 0.2312576356) 365 710 1
(0.2952685037 0.3523657481 0.06575174892 0.2866139992) 434 842 1
(0.669703262 0.165148369 0.05831332897 0.10683504) 421 817 1
(0.177292806 0.2291834846 0.411353597 0.1821701124) 404 782 1
(0.4548791871 0.2725604065 0.2167058187 0.05585458772) 455 879 2
(0.5328352978 0.2335823511 0.01126275212 0.222319599) 418 808 2
(0.08795071042 0.4560246448 0.003084294982 0.4529403498) 492 952 1
(0.2936503106 0.3090686868 0.3531748447 0.04410615794) 445 862 2
(0.3706253956 0.02933235461 0.3146873022 0.2853549476) 504 972 1
(0.05174100694 0.4741294965 0.431774996 0.04235450051) 393 745 1
(0.09065501378 0.0556238485 0.4546724931 0.3990486446) 505 976 2
(0.475966003 0.1783622441 0.08365475439 0.2620169985) 423 802 2
(0.6206797014 0.1896601493 0.09098744656 0.09867270273) 485 938 1
(0.3456496713 0.3271751643 0.1011685648 0.2260065996) 484 918 1
(0.1696244272 0.1095089291 0.4151877864 0.3056788573) 382 740 1
(0.7309951696 0.05618099909 0.1345024152 0.0783214161) 395 765 1
(0.6386277699 0.02698636713 0.1536997479 0.180686115) 403 782 1
(0.1124786805 0.4206151906 0.4437606597 0.0231454691) 384 747 2
(0.08685680131 0.06339307794 0.3931785214 0.4565715993) 452 857 2
(0.4541976103 0.169900065 0.1030011299 0.2729011949) 372 723 1
(0.4468621014 0.2765689493 0.253768798 0.02280015132) 373 725 2
(0.4966208205 0.2516895897 0.1510084454 0.1006811444) 472 913 2
(0.4781890866 0.2609054567 0.1826603863 0.07824507044) 364 709 1
(0.3395233146 0.0424614165 0.2877769262 0.3302383427) 493 935 2
(0.187507245 0.2827438008 0.1235025767 0.4062463775) 423 802 2
(0.04841377276 0.2497938745 0.2259992391 0.4757931136) 455 862 2
(0.7375502675 0.1312248662 0.02175834155 0.1094665247) 451 874 1
(0.1860157444 0.4069921278 0.1138399264 0.2931522014) 380 739 1
(0.07698400915 0.3140324156 0.1474755798 0.4615079954) 421 798 2
(0.1738164079 0.4130917961 0.1818675494 0.2312242466) 405 767 1
(0.2254478069 0.3872760966 0.2547329762 0.1325431203) 455 2223 2
(0.05833975441 0.4708301228 0.1487882359 0.3220418869) 488 944 1
(0.03227920236 0.1980093485 0.2858510503 0.4838603988) 492 933 2
(0.3856278197 0.09932780406 0.2078582861 0.3071860902) 500 948 2
(0.4355944004 0.2529656039 0.02923719591 0.2822027998) 515 2229 1
(0.09137241867 0.3197879787 0.134525812 0.4543137907) 475 2225 1
(0.1602762605 0.255793914 0.4198618697 0.1640679558) 495 957 2
(0.3067047016 0.08155015229 0.2650974969 0.3466476492) 524 1012 1
(0.3670125778 0.3164937111 0.1358356552 0.1806580559) 540 1024 1
(0.3496217459 0.3251891271 0.1037494197 0.2214397074) 403 782 2
(0.2582333986 0.1637963543 0.3708833007 0.2070869464) 360 701 2
(0.1769006597 0.4115496701 0.3045759101 0.10697376) 403 783 1
(0.4318232747 0.1616595534 0.1224288093 0.2840883626) 405 2218 1
(0.1026967151 0.4262928188 0.02235882366 0.4486516425) 372 705 2
(0.003762107225 0.1723107183 0.4981189464 0.3258082281) 385 746 1
(0.1303212353 0.4112363363 0.02360304603 0.4348393823) 443 858 1
(0.3211591697 0.3394204152 0.2760268789 0.06339353623) 464 880 1
(0.1811808855 0.1047332958 0.3046762615 0.4094095573) 484 918 2
(0.3579652289 0.3210173855 0.2363763859 0.08464099964) 493 951 2
(0.1329599642 0.1171211526 0.4335200179 0.3163988653) 425 822 1
(0.5212558694 0.03750637712 0.2018656882 0.2393720653) 434 841 1
(0.1188512244 0.1472628965 0.2933114913 0.4405743878) 485 919 2
(0.5780526641 0.1393865609 0.07158710703 0.2109736679) 498 962 1
(0.2301350815 0.1436039902 0.3849324592 0.241328469) 452 873 1
(0.5008321662 0.2495839169 0.01945787126 0.2301260457) 514 991 2
(0.04706151069 0.4764692447 0.1081983631 0.3682708816) 434 841 2
(0.455125364 0.134785506 0.137651812 0.272437318) 513 991 1
(0.9005504039 0.02271820945 0.04972479806 0.02700658861) 520 1002 1
(0.6358134815 0.1449614547 0.03713180459 0.1820932593) 534 1013 2
(0.1485190585 0.01822385745 0.4075166133 0.4257404708) 434 823 2
(0.7781712811 0.03877833453 0.1109143595 0.07213602492) 385 748 2
(0.009987386349 0.0621868398 0.4950063068 0.432819467) 393 764 2
(0.400114813 0.1671641268 0.1327784667 0.2999425935) 404 766 2
(0.06575998782 0.4671200061 0.2227375641 0.244382442) 397 752 1
(0.4009382963 0.2995308519 0.08251459633 0.2170162555) 463 897 1
(0.007076632381 0.4964616838 0.1397283443 0.3567333395) 415 805 1
(0.2991151727 0.3504424137 0.2848004109 0.06564200277) 395 765 2
(0.01116249328 0.4944187534 0.2135296618 0.2808890916) 471 909 2
(0.1784802264 0.2660249658 0.4107598868 0.144734921) 403 783 2
(0.1075207755 0.2112344219 0.2350051903 0.4462396122) 520 1004 1
(0.3980641461 0.1681053502 0.1328625767 0.3009679269) 473 897 2
(0.7591608008 0.05107448964 0.06934510995 0.1204195996) 405 767 2
(0.3780803327 0.3109598336 0.09424201773 0.2167178159) 474 899 1
(0.1098378146 0.4450810927 0.2881360831 0.1569450096) 539 1036 2
(0.4238859775 0.175387616 0.2880570113 0.1126693953) 473 913 1
(0.3276635045 0.3361682477 0.08458597492 0.2515822728) 534 1031 2
(0.8018101894 0.09909490531 0.004488816131 0.09460608918) 504 974 2
(0.05020527911 0.4748973604 0.2295513653 0.2453459951) 425 2220 2
(0.6469494876 0.1650267132 0.01149854299 0.1765252562) 505 957 2
(0.2978378608 0.1727106382 0.1783704314 0.3510810696) 501 968 1
(0.02878126391 0.485609368 0.2515359615 0.2340734065) 521 988 1
(0.09097710358 0.4545114482 0.01580298768 0.4387084605) 474 915 2
(0.6846500179 0.1576749911 0.05211735747 0.1055576336) 470 910 1
(0.2539609881 0.3730195059 0.04808894527 0.3249305607) 482 930 2
(0.4952214653 0.219477299 0.2523892674 0.03291196834) 510 983 1
(0.07278550639 0.4636072468 0.1705385779 0.2930686689) 525 2230 2
(0.0329470514 0.3477874223 0.4835264743 0.135739052) 362 705 2
(0.03233147747 0.01324592673 0.4838342613 0.4705883345) 392 762 2
(0.6446023727 0.1776988137 0.04335201756 0.1343467961) 381 740 2
(0.07515505364 0.3694450782 0.4624224732 0.09297739497) 365 708 1
(0.5343950399 0.07169028856 0.2328024801 0.1611121915) 442 857 2
(0.2990516009 0.1548852415 0.195588958 0.3504741996) 371 721 1
(0.2133185208 0.1852199711 0.3933407396 0.2081207685) 415 803 1
(0.5855337408 0.1114076884 0.09582544118 0.2072331296) 394 765 1
(0.0378253541 0.4810873229 0.227172148 0.2539151749) 508 981 2
(0.662213035 0.03017668058 0.1387168019 0.1688934825) 472 895 2
(0.354876341 0.3225618295 0.2733171543 0.04924467517) 449 867 2
(0.260933305 0.3695333475 0.2846366642 0.08489668336) 393 761 2
(0.1187485996 0.4406257002 0.1332195694 0.3074061308) 424 823 1
(0.05415416577 0.2055340443 0.2673888728 0.4729229171) 451 855 2
(0.6896156166 0.0269618294 0.1551921917 0.1282303623) 404 785 2
(0.3370467453 0.28253219 0.3314766274 0.0489444374) 423 818 1
(0.2303818615 0.06172773838 0.3230813309 0.3848090693) 423 820 1
(0.1467895749 0.1339609307 0.4266052125 0.2926442819) 505 974 1
(0.08278439107 0.3143942228 0.1442135817 0.4586078045) 414 785 2
(0.4343008324 0.1739826991 0.2828495838 0.1088668847) 405 784 1
(0.348488934 0.2753511028 0.325755533 0.05040443022) 415 805 2
(0.718217208 0.1003622777 0.04052911832 0.140891396) 493 953 1
(0.5920838719 0.1628539335 0.0411041306 0.2039580641) 480 928 1
(0.367659372 0.316170314 0.2692865853 0.04688372864) 504 956 1
(0.05812147359 0.2450415916 0.2258976717 0.4709392632) 521 988 2
(0.5214502419 0.2392748791 0.02674209389 0.2125327852) 495 957 1
(0.1548413162 0.02903990811 0.4225793419 0.3935394338) 515 995 2
(0.2666646903 0.1580370132 0.3666676548 0.2086306416) 485 938 2
(0.3909905617 0.3015873359 0.3045047192 0.002917383301) 534 1029 1
(0.5233596341 0.1848568868 0.2383201829 0.05346329613) 491 950 2
(0.8003033858 0.0741208587 0.09984830711 0.02572744841) 523 1008 1
(0.03018873764 0.2758769786 0.2090286525 0.4849056312) 445 2222 1
(0.5487368875 0.2000375321 0.2256315562 0.02559402411) 538 1035 1
(0.1361955102 0.4319022449 0.4318148616 8.738324067e-05) 464 880 1
(0.8171583326 0.02326463512 0.09142083369 0.06815619857) 514 994 2
(0.2103312324 0.04949021854 0.3453441652 0.3948343838) 524 1012 1
(0.03284360035 0.4835781998 0.142770177 0.3408080228) 465 898 2
(0.5681779667 0.006196515915 0.2159110166 0.2097145007) 382 740 1
(0.7437776187 0.05773794864 0.1281111907 0.07037324202) 425 824 2
(0.467186693 0.2664066535 0.225039344 0.04136730948) 415 803 2
(0.2253492194 0.1006060373 0.3873253903 0.286719353) 413 802 2
(0.1883173017 0.303682302 0.4058413492 0.1021590471) 383 745 2
(0.1652555128 0.4173722436 0.1186980272 0.2986742164) 482 932 2
(0.03371647887 0.4669325802 0.0162091804 0.4831417606) 443 858 1
(0.1211807424 0.4394096288 0.3913160232 0.0480936056) 434 839 2
(0.211146774 0.394426613 0.0580264557 0.3364001573) 484 934 2
(0.3363750975 0.3318124512 0.0847321067 0.2470803445) 454 877 2
(0.4049324592 0.2975337704 0.2666214008 0.03091236959) 473 915 2
(0.7752036359 0.08088827078 0.03150991127 0.1123981821) 474 899 2
(0.2692284713 0.3177878783 0.04759788604 0.3653857643) 395 748 2
(0.391374582 0.304312709 0.08710568213 0.2172070268) 464 898 2
(0.3007125276 0.3496437362 0.1117736916 0.2378700446) 433 839 2
(0.49385665 0.2396215992 0.01345007586 0.253071675) 443 840 2
(0.5302252751 0.2348873624 0.01428361675 0.2206037457) 530 1005 1
(0.4468377915 0.005226790053 0.2713543142 0.2765811042) 510 967 2
(0.04756089886 0.4762195506 0.4101595234 0.06606002715) 493 954 1
(0.4515752728 0.2742123636 0.2073557091 0.06685665451) 525 995 1
(0.1861165884 0.2348656219 0.1720760839 0.4069417058) 494 955 1
(0.5431755467 0.2284122267 0.1591737669 0.06923845972) 533 1030 1
(0.7753971422 0.03327647035 0.07902495855 0.1123014289) 535 1014 2
(0.3031655857 0.3484172071 0.2474354014 0.1009818058) 520 1005 1
(0.03196126191 0.484019369 0.2885199924 0.1954993766) 365 2214 2
(0.2830577188 0.2156216231 0.1428495175 0.3584711406) 391 741 2
(0.0866974387 0.4566512806 0.06230876808 0.3943425126) 374 709 1
(0.3089206678 0.2073823868 0.1381572793 0.3455396661) 451 873 1
(0.4490750794 0.2754624603 0.02409572621 0.2513667341) 421 814 2
(0.1555873916 0.4038583784 0.4222063042 0.0183479258) 371 719 1
(0.114396052 0.442801974 0.163056208 0.2797457661) 392 762 1
(0.09715370793 0.451423146 0.3873401866 0.06408295941) 446 845 1
(0.2448635089 0.3775682456 0.2219223697 0.1556458759) 533 1030 1
(0.3551804052 0.3031909908 0.3224097974 0.01921880659) 443 859 2
(0.8023664989 0.09881675054 0.02146547374 0.0773512768) 395 2217 2
(0.4729099969 0.2209364555 0.2635450016 0.04260854607) 431 833 1
(0.3048070964 0.1121085988 0.3475964518 0.235487853) 394 766 2
(0.3678168324 0.2763976355 0.3160915838 0.03969394825) 502 968 1
(0.2743447762 0.07981043085 0.3628276119 0.283017181) 503 973 2
(0.6299644783 0.09368198727 0.09133577358 0.1850177609) 455 2223 1
(0.9021402665 0.02478090903 0.04892986677 0.02414895774) 476 479 1
(0.5809344967 0.2095327516 0.1252111981 0.08432155358) 454 879 2
(0.4709530426 0.2645234787 0.1942405438 0.07028293487) 421 798 1
(0.1858942734 0.4070528633 0.1636200162 0.2434328471) 448 867 2
(0.313485428 0.07103476684 0.2722225192 0.343257286) 523 992 2
(0.7208557395 0.01500715245 0.1395721302 0.1245649778) 494 956 2
(0.09901048339 0.4504947583 0.2268515763 0.223643182) 515 2229 2
(0.155808503 0.2116907673 0.2104049812 0.4220957485) 453 859 2
(0.2674707395 0.3662646302 0.1657587552 0.200505875) 441 854 2
(0.1778614564 0.3055289877 0.1055402841 0.4110692718) 520 1004 1
(0.03777233346 0.1965721675 0.4811138333 0.2845416657) 475 917 1
(0.33692388 0.1684470796 0.33153806 0.1630909804) 463 894 1
(0.1524286098 0.4175758417 0.006209853438 0.4237856951) 515 2229 1
(0.1187844149 0.4406077926 0.3665714975 0.0740362951) 461 890 2
(0.07698463084 0.2197943944 0.2417132902 0.4615076846) 544 1032 2
(0.2386898513 0.3806550743 0.1560144137 0.2246406606) 542 1028 1
(0.3357006407 0.1498334816 0.3321496797 0.1823161981) 473 916 2
(0.266098231 0.3669508845 0.05574814962 0.3112027349) 515 995 1
(0.5911078278 0.2044460861 0.112049692 0.09239639413) 523 1011 1
(0.01749413542 0.17989804 0.3113548923 0.4912529323) 502 970 1
(0.4940942269 0.004739812291 0.2482130743 0.2529528866) 503 954 2
(0.2479380749 0.09436720422 0.2816637583 0.3760309626) 398 754 2
(0.5864742528 0.2067628736 0.1500775731 0.05668530049) 413 783 1
(0.2803646064 0.3598176968 0.325965821 0.03385187576) 385 2216 2
(0.1336577522 0.4331711239 0.3488183476 0.08435277631) 385 729 1
(0.7846777647 0.01133592542 0.09632519221 0.1076611176) 430 815 2
(0.147024487 0.2564579616 0.170029795 0.4264877565) 385 2216 1
(0.632309384 0.183845308 0.1476278637 0.03621744436) 364 709 1
(0.01592548168 0.4920372592 0.4829235047 0.009113754491) 424 823 1
(0.4485075348 0.05882332011 0.2169229125 0.2757462326) 453 877 1
(0.1750510741 0.172610351 0.2398641119 0.4124744629) 391 741 2
(0.3241746138 0.008574265348 0.3293384278 0.3379126931) 391 741 2
(0.09331483486 0.03338923093 0.4533425826 0.4199533516) 429 829 1
(0.4207341974 0.210575897 0.2896329013 0.07905700427) 401 779 2
(0.2611815608 0.1145027995 0.3694092196 0.2549064201) 423 821 2
(0.7297983773 0.1351008113 0.09995074996 0.03515006138) 455 862 1
(0.126792629 0.4366036855 0.4027431169 0.03386056859) 373 707 1
(0.0931228173 0.4534385913 0.1520538687 0.3013847227) 460 888 2
(0.08433682448 0.4578315878 0.08840202558 0.3694295622) 463 878 1
(0.07978903429 0.1675661743 0.4601054829 0.2925393086) 420 815 2
(0.53984959 0.1347429856 0.09533221945 0.230075205) 423 802 2
(0.1392900102 0.01616331902 0.4141916759 0.4303549949) 464 898 1
(0.3615520643 0.1253680046 0.3192239679 0.1938559633) 443 859 2
(0.009127553203 0.4954362234 0.292087891 0.2033483324) 493 935 1
(0.5105676844 0.1833651248 0.2447161578 0.06135103302) 452 873 1
(0.3069741437 0.3465129281 0.3229119348 0.0236009933) 535 1033 1
(0.5433043661 0.228347817 0.1106429646 0.1177048523) 494 937 1
(0.02489000477 0.4875549976 0.31396702 0.1735879776) 405 767 1
(0.7558137239 0.1220931381 0.1072077842 0.01488535384) 464 896 2
(0.7150586308 0.02172367358 0.120747011 0.1424706846) 471 911 1
(0.02208442211 0.4889577889 0.1462978604 0.3426599286) 510 985 2
(0.4881552471 0.05504920241 0.200873174 0.2559223764) 470 891 2
(0.2140247101 0.1654451799 0.392987645 0.227542465) 489 943 1
(0.07468266031 0.001277092145 0.4626586698 0.4613815777) 464 899 2
(0.5417455402 0.2184061821 0.0107210478 0.2291272299) 505 2228 1
(0.2475846587 0.2268697219 0.3762076706 0.1493379488) 502 971 2
(0.2904779796 0.02768292606 0.3547610102 0.3270780841) 494 953 1
(0.6646125721 0.1676937139 0.02569249925 0.1420012147) 543 1040 2
(0.4552055137 0.2008850021 0.07151224102 0.2723972431) 534 1013 2
(0.2965366188 0.09389037572 0.3517316906 0.2578413149) 472 914 2
(0.247301596 0.376349202 0.2176844986 0.1586647034) 514 975 1
(0.2973886048 0.3513056976 0.08023146646 0.2710742311) 512 989 2
(0.02484873125 0.4875756344 0.1224606591 0.3651149752) 534 1013 1
(0.7872922164 0.1063538918 0.03523552212 0.07111836966) 524 1012 2
(0.6376183592 0.1051171895 0.1811908204 0.07607363095) 494 956 2
(0.6814942057 0.04504379086 0.1142091063 0.1592528971) 393 763 1
(0.08416383227 0.2873114985 0.4579180839 0.1706065854) 387 752 2
(0.03020073367 0.4848996332 0.09940230218 0.385497331) 373 723 2
(0.2104951589 0.1548228878 0.2399295327 0.3947524205) 412 799 1
(0.6929156515 0.02309126181 0.1535421742 0.1304509124) 375 729 2
(0.6067756635 0.1966121683 0.09279461022 0.103817558) 472 913 2
(0.6536551662 0.1731724169 0.1434037251 0.02976869182) 393 764 1
(0.4956071357 0.006026373198 0.246170059 0.2521964322) 438 848 1
(0.4485247404 0.2662912178 0.009446411961 0.2757376298) 385 729 2
(0.2781537012 0.3609231494 0.03535745693 0.3255656925) 370 720 1
(0.2236715273 0.3093144063 0.07884983003 0.3881642364) 410 777 2
(0.395433671 0.3022831645 0.01230439401 0.2899787705) 405 786 1
(0.1004622454 0.4497688773 0.1631193572 0.28664952) 405 767 1
(0.229552285 0.03061685809 0.3546069994 0.3852238575) 425 805 2
(0.3785459446 0.3107270277 0.2669641989 0.04376282879) 425 2220 2
(0.6065212642 0.1676192707 0.1967393679 0.02912009723) 514 991 1
(0.08158081429 0.187600221 0.4592095929 0.2716093719) 461 893 2
(0.09129328022 0.1775474171 0.2768059428 0.4543533599) 391 759 1
(0.2842571006 0.3578714497 0.002751662745 0.355119787) 432 837 2
(0.137968355 0.4310158225 0.2937746449 0.1372411776) 453 859 1
(0.02809285871 0.08480479206 0.4859535706 0.4011487786) 474 918 2
(0.3483494187 0.3258252907 0.07674265849 0.2490826322) 483 934 2
(0.2251005683 0.3446794452 0.3874497158 0.04277027061) 19 36 1
(0.2620875215 0.1874612826 0.3689562393 0.1814949567) 443 856 1
(0.04133336033 0.2741862241 0.4793333198 0.2051470958) 278 557 2
(0.1282325321 0.435883734 0.09953758105 0.3363461529) 405 2218 2
(0.2122560647 0.3938719677 0.1190475426 0.274824425) 374 725 2
(0.4230840079 0.2884579961 0.1711195863 0.1173384098) 464 880 1
(0.2435318932 0.159192088 0.3782340534 0.2190419654) 470 907 1
(0.2460982415 0.3769508792 0.1800204863 0.1969303929) 526 997 1
(0.4387395197 0.1411403845 0.1394898556 0.2806302401) 433 821 2
(0.6423198622 0.1788400689 0.1467057674 0.03213430154) 449 869 2
(0.7013183603 0.01672724349 0.1326135764 0.1493408199) 504 974 1
(0.1132101316 0.1409124783 0.302482456 0.4433949342) 455 2223 1
(0.2437605782 0.3781197109 0.2907628409 0.08735686997) 517 998 2
(0.5181508433 0.04236052816 0.1985640502 0.2409245783) 512 971 2
(0.3923423065 0.3038288467 0.02588652175 0.277942325) 513 991 2
(0.4427143599 0.2049028539 0.07373996613 0.27864282) 422 800 2
(0.7852335597 0.1073832201 0.1040966016 0.003286618548) 522 1006 2
(0.3535061736 0.3191663657 0.004080547533 0.3232469132) 543 1030 2
(0.1039413533 0.1035573167 0.4480293233 0.3444720066) 532 1028 2
(0.5511785733 0.2244107134 0.1831722936 0.04123841977) 495 938 1
(0.849907607 0.07504619652 0.06825809784 0.006788098674) 529 1022 1
(0.6803999195 0.1476294505 0.01217058975 0.1598000403) 527 999 2
(0.1238997935 0.4380501033 0.07046386802 0.3675862352) 400 777 1
(0.8877213431 0.05613932845 0.02950334796 0.02663598049) 422 818 2
(0.4411940276 0.2476454125 0.2794029862 0.03175757369) 371 719 1
(0.1413691896 0.01870546295 0.4293154052 0.4106099423) 415 803 1
(0.02458666257 0.4264229989 0.4877066687 0.0612836698) 433 840 2
(0.7140266956 0.1429866522 0.01859946367 0.1243871885) 362 704 2
(0.1684581079 0.3391396604 0.0766312857 0.4157709461) 373 725 1
(0.4688205715 0.2655897143 0.02609766737 0.2394920469) 118 236 2
(0.9049772488 0.04751137561 0.04565168519 0.001859690416) 391 757 2
(0.3874890052 0.3062554974 0.2121399002 0.0941155972) 425 805 1
(0.4071824046 0.2964087977 0.1228585778 0.1735502199) 444 860 2
(0.2511775871 0.3744112064 0.2490112503 0.1253999562) 414 803 2
(0.6435243231 0.006077097259 0.1782378385 0.1721607412) 441 855 2
(0.285791341 0.3571043295 0.1727906558 0.1843136737) 365 710 1
(0.7209378112 0.01876808764 0.1395310944 0.1207630068) 410 793 1
(0.2453762182 0.2687861824 0.3773118909 0.1085257085) 444 861 2
(0.05072485341 0.4746375733 0.07586144475 0.3987761285) 390 755 2
(0.6087592091 0.1763435661 0.01927682932 0.1956203955) 441 854 1
(0.4429777106 0.2785111447 0.1238648445 0.1546463002) 435 841 2
(0.3413833985 0.09647712428 0.2328311765 0.3293083007) 465 881 2
(0.6126787023 0.1300118725 0.1936606489 0.06364877641) 410 793 1
(0.6788181202 0.1605909399 0.04278345216 0.1178074877) 472 914 1
(0.1342620505 0.3416208893 0.09124808538 0.4328689747) 427 827 1
(0.001625342495 0.2733101951 0.2258771336 0.4991873288) 432 837 1
(0.3486060097 0.3256969951 0.05161391488 0.2740830803) 454 861 1
(0.04135985555 0.4793200722 0.3487069666 0.1306131056) 472 913 2
(0.8126156365 0.01374028389 0.07995189783 0.09369218173) 480 910 2
(0.02631141371 0.4868442931 0.4319329057 0.05491138745) 525 1014 1
(0.6661397557 0.120827271 0.04610285117 0.1669301221) 475 900 2
(0.7126574574 0.1436712713 0.07786854696 0.06580272436) 423 802 1
(0.1441704651 0.4279147674 0.1866859642 0.2412288033) 535 2231 2
(0.6335662248 0.1832168876 0.1305319287 0.05268495895) 513 973 1
(0.6818814194 0.1094676798 0.1590592903 0.0495916105) 493 954 2
(0.0853468331 0.4573265834 0.2133865762 0.2439400073) 464 896 2
(0.3553448878 0.3223275561 0.20222644 0.1201011161) 382 740 2
(0.03293329477 0.4835333526 0.04137467718 0.4421586754) 505 976 1
(0.9182595627 0.006563201283 0.04087021863 0.03430701735) 334 669 2
(0.1452739772 0.3566099604 0.4273630114 0.070753051) 524 1013 2
(0.4487828029 0.2756085985 0.09156070777 0.1840478908) 505 957 1
(0.4411790964 0.07521489064 0.2041955612 0.2794104518) 481 930 1
(0.5225799473 0.2387100263 0.05393083947 0.1847791869) 530 1023 2
(0.01561380351 0.4921930982 0.3697092995 0.1224837988) 484 936 2
(0.6058758141 0.05953771699 0.137524376 0.197062093) 464 898 1
(0.1728116503 0.2939384848 0.11965569 0.4135941748) 510 967 2
(0.5847399283 0.2076300358 0.1613149191 0.04631511674) 425 2220 2
(0.02446627347 0.09159561626 0.4877668633 0.396171247) 495 955 1
(0.007892914645 0.1614844643 0.3345690784 0.4960535427) 519 984 2
(0.2584631628 0.3707684186 0.09828180682 0.2724866118) 373 726 1
(0.4980154999 0.25099225 0.0219161107 0.2290761393) 391 741 1
(0.8464141687 0.07679291567 0.07193768452 0.004855231151) 98 196 2
(0.03293424033 0.4835328798 0.3566121854 0.1269206944) 58 77 1
(0.1624493499 0.4187753251 0.1411965854 0.2775787397) 455 862 1
(0.6146861529 0.1926569236 0.0009328255483 0.191724098) 414 804 1
(0.8182311716 0.0908844142 0.05042263348 0.04046178072) 414 804 1
(0.6396247512 0.1801876244 0.1526336394 0.027553985) 394 766 1
(0.1077409454 0.4461295273 0.3363608446 0.1097686826) 462 892 2
(0.2000441627 0.3999779187 0.1065109616 0.2934669571) 421 816 2
(0.8083839524 0.09580802382 0.003890929508 0.09191709431) 384 744 2
(0.165963788 0.1815199054 0.2354982006 0.417018106) 430 815 2
(0.6630102464 0.009400355556 0.1590945212 0.1684948768) 441 854 1
(0.6067119736 0.1225953595 0.1966440132 0.07404865376) 475 917 1
(0.4789752142 0.08127653306 0.1792358598 0.2605123929) 408 773 2
(0.2611414268 0.08849806483 0.2809312218 0.3694292866) 444 842 2
(0.6473708885 0.1763145558 0.01571448487 0.1606000709) 404 784 2
(0.3677044694 0.1919222091 0.1242255562 0.3161477653) 452 875 1
(0.5134041964 0.005047447672 0.2382504541 0.2432979018) 393 763 1
(0.2117745717 0.3941127141 0.1535816573 0.2405310569) 465 898 2
(0.2824637746 0.3587681127 0.02264603786 0.3361220748) 468 906 1
(0.6210332399 0.1894833801 0.1555393062 0.03394407385) 443 840 1
(0.07884782118 0.04081894201 0.4197571474 0.4605760894) 471 893 2
(0.7222219654 0.1388890173 0.1092856888 0.02960332852) 119 198 1
(0.2172281583 0.3913859209 0.2021593823 0.1892265386) 454 861 1
(0.5651856263 0.2174071868 0.08243431288 0.1349728739) 504 956 1
(0.2712388689 0.3643805655 0.04766535073 0.3167152148) 430 834 1
(0.6529337498 0.1735331251 0.1415745105 0.03195861459) 482 914 1
(0.4695723779 0.1852430797 0.07997073133 0.265213811) 420 796 2
(0.07558523986 0.4622073801 0.02952099665 0.4326863834) 452 876 1
(0.2611101823 0.2492198582 0.3694449089 0.1202250507) 445 860 1
(0.1016352258 0.2096941158 0.4491823871 0.2394882713) 430 831 1
(0.3044570352 0.3477714824 0.1089126622 0.2388588203) 462 892 2
(0.5901064922 0.2049467539 0.1723602274 0.03258652649) 495 957 1
(0.003867261354 0.4980663693 0.2208291809 0.2772371884) 508 981 2
(0.3387598464 0.3306200768 0.06885117815 0.2617688986) 483 932 2
(0.3346963248 0.3326518376 0.09571299647 0.2369388412) 501 950 1
(0.4016876371 0.2991561815 0.260011545 0.03914463645) 481 931 1
(0.1635019084 0.04742763775 0.370821408 0.4182490458) 501 968 1
(0.4038242622 0.2980878689 0.2881433804 0.0099444885) 532 1028 1
(0.5447246596 0.2276376702 0.1430806059 0.08455706423) 507 979 2
(0.2301206295 0.1484975112 0.3849396853 0.2364421741) 545 1090 2