/*--------------------------------*- C++ -*----------------------------------*\
| =========                 |                                                 |
| \\      /  F ield         | OpenFOAM: The Open Source CFD Toolbox           |
|  \\    /   O peration     | Version:  2406                                  |
|   \\  /    A nd           | Website:  www.openfoam.com                      |
|    \\/     M anipulation  |                                                 |
\*---------------------------------------------------------------------------*/
FoamFile
{
    version     2.0;
    format      ascii;
    arch        "LSB;label=32;scalar=64";
    class       scalarField;
    location    "0.012/lagrangian/dsmc";
    object      Ei;
}
// * * * * * * * * * * * * * * * * * * * * * * * * * * * * * * * * * * * * * //


5153
(
5.145161996e-22
3.330078904e-21
7.212181405e-21
4.873179976e-21
8.57377851e-22
9.432581832e-22
5.301766131e-21
1.016613271e-20
6.813814217e-21
1.601814438e-21
2.627134936e-21
2.39187567e-21
8.931314638e-22
1.587460651e-21
1.905278785e-21
5.754085533e-23
6.365586028e-21
7.171530112e-24
5.501992505e-22
5.161441255e-21
6.232774521e-22
4.842216037e-22
2.392682841e-21
4.66216663e-22
4.00966837e-21
2.274763155e-22
2.288331688e-21
1.678418823e-21
1.734925825e-21
3.510419704e-21
2.935065822e-22
3.107372401e-21
4.286419212e-21
6.349266095e-21
1.383531617e-20
1.118351989e-21
1.273145792e-20
6.447352538e-21
1.698770885e-21
6.704337005e-21
5.61576502e-22
4.984286958e-21
1.610373223e-21
1.55745113e-21
8.938340958e-22
2.631041875e-21
2.235358185e-21
2.213309383e-21
7.553922187e-21
2.870875023e-22
1.094116107e-20
2.764654611e-22
1.00503451e-21
3.701585265e-21
7.633576226e-21
1.679269387e-21
7.680110574e-21
3.086878474e-21
4.452969929e-22
2.370521555e-21
2.062712156e-22
3.328361975e-21
1.969914796e-20
7.807367366e-23
9.955621984e-22
1.484350806e-20
2.67796816e-21
5.205815849e-21
2.955586419e-21
5.088862578e-21
1.215224701e-20
2.284989854e-21
1.295453557e-21
5.200676251e-21
5.428852871e-21
2.888959555e-21
5.448704904e-21
5.085864437e-21
1.754591069e-22
1.848991921e-22
1.383776656e-20
7.831503207e-21
2.931242892e-21
2.332025072e-21
6.73654343e-21
6.806039985e-22
1.495182481e-21
2.988254655e-21
2.497107013e-21
1.238968678e-20
5.478968344e-22
6.991709389e-21
3.144633772e-21
4.80268441e-21
3.166930248e-21
1.418270793e-21
2.478344832e-22
2.670378174e-21
1.523261175e-21
1.042025463e-21
4.907972351e-21
6.681104041e-21
1.172566167e-21
1.897291194e-20
1.508438041e-21
4.712669725e-22
1.799667622e-21
5.313180305e-21
9.980401274e-21
7.030805552e-21
7.173209272e-21
6.172468165e-21
1.880229566e-21
7.616595053e-21
2.634958915e-21
5.909594808e-22
5.835811701e-24
1.766929666e-20
5.710459663e-21
1.155379338e-21
1.326428608e-21
4.249730211e-21
6.310251424e-21
5.771579844e-21
6.757430186e-23
1.798422516e-21
1.143090508e-21
2.09836946e-21
3.991796072e-21
1.762681701e-21
1.968881214e-21
1.933678029e-21
6.920318278e-22
1.145466592e-20
7.429111943e-21
7.185942159e-21
9.889073087e-21
6.127622441e-22
7.15256945e-21
3.985225397e-21
1.156048666e-20
3.989964895e-21
9.23044393e-22
4.63168819e-21
3.382171916e-21
4.007193082e-21
7.599719336e-21
1.713978775e-22
6.222822028e-22
2.900303153e-21
3.429872356e-21
8.822251196e-21
4.3480261e-22
2.188893972e-21
2.683938645e-21
7.431479713e-22
2.543797616e-21
1.035594176e-21
5.172808e-21
7.970413451e-21
1.854342941e-21
3.450317652e-22
1.676602302e-20
2.017102597e-21
3.021475763e-21
5.800566063e-21
2.200955449e-21
8.295961626e-21
6.307312958e-21
2.404756819e-22
8.557329085e-21
4.708036549e-21
7.67043643e-22
1.352429463e-21
4.50806447e-21
4.423583945e-21
1.312421961e-20
9.52493013e-22
2.677254098e-21
2.17725383e-22
1.983091636e-20
4.433497934e-21
2.651457682e-21
5.105737047e-21
7.07538192e-22
2.783798827e-21
9.312108113e-22
1.766340448e-22
1.560835497e-21
1.564017529e-20
3.357949336e-21
8.672026733e-22
3.287399808e-21
4.162119513e-21
6.779182939e-22
8.491392705e-21
7.72003827e-21
2.703220785e-21
5.880453658e-21
3.71057286e-21
1.533598678e-21
5.232326846e-23
8.490270486e-21
1.113805831e-21
1.291955882e-21
1.595853188e-20
4.179116874e-21
5.94225157e-21
3.059239415e-22
1.168562984e-21
2.755568724e-22
3.384176828e-21
3.900290965e-21
4.566296989e-21
1.100934109e-20
1.210268052e-20
7.551078927e-21
2.453720975e-21
3.342115051e-21
6.508726342e-22
1.066048457e-20
4.921243352e-21
5.458987999e-21
3.583901509e-21
3.846006638e-21
6.483222973e-21
4.249060212e-21
4.019346158e-21
8.945283141e-23
6.730443997e-21
2.231064327e-21
5.03211137e-21
1.758273107e-20
2.317368364e-21
8.583806725e-23
3.533794402e-21
1.969438886e-21
3.161635071e-21
3.056450337e-21
5.124406212e-23
1.760669337e-21
3.988207769e-21
1.53206485e-20
5.356620303e-21
3.07172727e-21
3.4783305e-21
5.275149779e-22
3.204861092e-21
3.707490924e-21
2.258352082e-21
1.389661311e-20
3.580740183e-21
9.5866764e-21
2.666011092e-21
2.071319113e-21
5.977216862e-22
6.911972133e-23
3.012640339e-21
2.924457996e-21
1.989377131e-21
1.55699653e-21
3.939701803e-22
1.063787648e-20
5.317236734e-21
3.185651977e-21
3.449677501e-21
3.905258924e-22
2.584918103e-21
8.604335074e-22
7.555290192e-21
1.782938763e-21
4.041719311e-21
2.855673814e-21
2.412890547e-21
8.665737719e-22
5.066542977e-21
2.374522583e-21
2.518183586e-22
1.65674864e-21
4.445533563e-21
1.610738893e-21
5.690441424e-21
1.905184489e-21
2.971373453e-20
6.656676807e-21
6.931757135e-22
1.760360414e-20
3.067520333e-22
1.507409812e-21
3.677789693e-21
1.570928021e-21
9.253272969e-22
1.646158226e-21
3.065302334e-22
9.339300495e-21
2.967492318e-21
2.2211671e-22
1.616350178e-21
4.644859244e-21
2.676042994e-21
1.433904217e-21
2.776602288e-21
1.436126761e-20
1.2690515e-20
3.91822847e-22
1.752193164e-21
4.341167884e-21
5.470632527e-21
1.268112264e-20
9.002074744e-21
2.356252901e-21
2.144719715e-21
1.04097787e-21
2.779133013e-21
1.149947646e-20
6.137910296e-21
1.424239866e-20
3.312654011e-21
1.743110856e-21
1.918172893e-20
7.853185778e-22
6.093431077e-21
6.616743437e-21
1.503083165e-20
2.205029048e-21
1.353953045e-21
6.358008089e-21
4.02598811e-21
5.062321525e-21
8.709044345e-22
6.037326597e-22
4.89791177e-21
7.67272366e-21
5.542674539e-21
6.389917556e-21
1.546098872e-21
1.031477962e-20
5.63757229e-21
5.756450983e-21
4.302133217e-21
1.00984869e-21
8.566507339e-21
2.402114067e-21
2.703586481e-21
1.134500938e-21
6.043059821e-21
8.036217976e-21
4.9418829e-21
3.403853123e-21
6.485453705e-21
1.297721592e-20
2.418309179e-21
1.207367599e-21
1.725789366e-21
3.444787948e-21
4.876305966e-21
4.441998207e-21
4.301444313e-22
5.453498609e-21
1.574554726e-21
1.382074151e-20
4.42916245e-21
3.030008151e-21
1.967943061e-21
3.304519137e-21
3.273618837e-21
4.354385806e-21
1.86772014e-20
7.941339978e-22
1.250602569e-21
1.085101451e-21
1.846414331e-21
7.843487715e-21
2.058107042e-21
2.274574144e-21
4.668559256e-21
5.167890606e-22
8.058199194e-21
1.926883772e-21
7.16771556e-22
2.234062301e-21
1.735408232e-20
7.551704036e-21
9.628545064e-22
1.218951015e-21
1.921534195e-21
4.384134908e-22
9.16924928e-21
1.22578899e-21
8.127604475e-21
3.746925608e-21
3.087307706e-21
5.616170023e-21
4.817685612e-22
2.802245307e-21
6.501926001e-21
3.010436193e-21
9.120606415e-21
1.77822851e-22
2.672836367e-22
9.734966937e-21
5.103362525e-22
5.572450037e-21
3.730417517e-21
1.654189843e-21
4.008050137e-21
3.49741878e-21
4.494554946e-21
1.276806688e-22
6.017414145e-21
2.65654547e-22
2.881239188e-21
9.667164091e-22
3.798442681e-21
3.75748991e-21
7.518664456e-22
6.907097744e-21
4.556145138e-22
8.198815354e-21
6.413096126e-22
5.264979965e-21
5.108420352e-21
1.829244277e-21
3.898513866e-21
2.116686373e-21
4.345275638e-21
3.265091116e-21
7.115622035e-22
2.684217193e-21
1.676803366e-21
7.31336151e-22
3.665801372e-21
6.664226813e-21
8.96160837e-22
1.793884422e-20
1.882694973e-21
1.006731536e-20
6.645736077e-21
9.366536338e-21
4.913746652e-21
4.225318215e-23
1.844150087e-22
2.474577072e-21
1.249075573e-21
1.111331875e-21
9.780919852e-22
1.930655162e-24
7.669106697e-21
1.312179766e-21
2.904906845e-21
3.322144422e-21
4.411065977e-21
7.420620312e-21
5.253212875e-21
8.688307129e-21
1.237624426e-20
6.951233867e-22
1.5505022e-21
2.16275561e-21
3.861062277e-21
2.405010968e-21
7.146059362e-21
4.338932542e-21
2.087109661e-21
6.305539973e-21
7.006634216e-22
4.888160702e-21
1.834061333e-21
2.125812914e-21
4.065923599e-21
8.27583345e-21
3.63637724e-22
8.414737207e-21
5.247739897e-21
3.688299735e-21
1.474789052e-20
4.406869308e-21
1.594805063e-21
5.735512419e-21
1.441112779e-21
1.296446788e-21
6.434867447e-21
2.482327978e-21
1.236278827e-21
4.556438029e-21
3.707649698e-22
6.138140782e-21
7.591347674e-22
6.067346176e-21
7.245977372e-22
3.246613051e-21
3.965795376e-21
8.582168586e-22
2.678114252e-21
1.248490258e-21
7.826239208e-22
7.12616757e-22
5.527177195e-21
1.267576791e-20
4.887406656e-21
7.509333279e-21
5.089442207e-22
4.65216647e-21
1.732626934e-20
2.937343381e-21
1.977333735e-21
2.179276929e-21
5.145494575e-21
6.163211475e-21
9.064557473e-21
2.14294488e-20
2.506119632e-22
1.021905933e-20
4.194917158e-21
8.900846266e-22
9.926358872e-22
6.29979942e-21
5.239784834e-21
4.805651169e-22
8.643692778e-22
4.274444175e-21
5.648031914e-21
4.779949375e-21
2.20901967e-21
2.194232604e-21
1.24221445e-21
1.175368149e-21
3.564509995e-21
1.225233212e-21
9.092090097e-21
2.114633451e-21
1.201870278e-20
5.38765266e-21
2.970594861e-21
8.709072371e-21
1.559109142e-21
3.30455956e-21
6.227394161e-22
1.424030276e-21
6.564814593e-21
2.937595e-21
9.520086778e-22
8.290971857e-21
1.263123817e-21
5.484566399e-21
7.720132789e-22
2.256545095e-21
1.2478939e-20
9.65565041e-22
4.562560058e-21
1.265412847e-20
7.135429425e-22
6.406209422e-21
5.444203296e-21
6.77146102e-22
5.966889852e-21
7.962882928e-23
1.173604468e-20
5.261810053e-21
6.486500682e-21
6.122008321e-21
2.507844295e-21
2.296332393e-21
4.686400148e-22
5.078866653e-21
1.670036331e-21
4.344415129e-21
5.962935364e-21
4.165370331e-21
4.331348591e-21
5.414259506e-21
2.290512896e-20
7.556639035e-22
5.98631918e-22
8.320307836e-21
6.017128958e-22
2.62319806e-21
6.233645484e-22
6.901203042e-22
5.427228901e-21
8.030326681e-21
2.088367082e-21
1.048135873e-21
8.271925063e-22
8.135406314e-21
1.015453624e-20
4.80155389e-22
4.569705397e-21
1.555162345e-20
3.175721504e-22
2.823107353e-21
4.459311173e-21
4.189810015e-21
4.414919823e-22
1.689303782e-21
6.409699037e-21
1.96843106e-21
1.542432476e-20
1.284647864e-22
5.47292592e-21
3.92170898e-21
4.763844485e-22
1.069144859e-21
1.448947431e-21
3.49111585e-21
1.438047554e-21
6.985112577e-21
2.232079963e-22
4.040971378e-21
4.651250315e-21
1.483024187e-20
2.981186764e-22
2.864457115e-21
2.851385252e-22
2.289871503e-21
4.079696414e-21
5.110233304e-21
8.701616208e-22
8.378763336e-22
5.383385155e-21
7.05985988e-21
7.299532091e-22
8.675244036e-22
6.124259209e-22
5.102204562e-21
4.980733812e-22
4.876986539e-22
7.781672718e-21
4.297235831e-21
2.20894533e-21
5.137245567e-21
3.223781147e-21
3.855622885e-21
2.189423088e-21
1.710891085e-21
1.443487741e-21
4.808203245e-22
8.162155778e-21
2.109480742e-21
3.648777619e-21
8.505786774e-21
2.378281212e-21
4.328038964e-21
1.076875279e-20
7.342617455e-21
2.876591826e-21
5.904437408e-21
1.026678354e-20
1.359438984e-21
6.71576541e-21
2.971518493e-21
3.437056297e-22
2.607489525e-21
2.187490317e-21
2.935293014e-21
1.56310804e-21
5.900072308e-22
6.469637216e-22
5.371602667e-21
8.572557128e-21
5.062497716e-21
3.599934487e-22
9.584058984e-21
2.241295692e-22
9.736282884e-21
1.055396813e-21
4.822581224e-21
7.622602288e-22
6.60535023e-22
2.783010224e-21
1.852428503e-21
8.408923982e-21
4.882881149e-21
1.678847648e-21
1.986881908e-21
2.031447235e-21
5.166906251e-21
8.476572355e-21
6.628565856e-22
2.155937962e-21
4.339936188e-21
5.200443115e-21
4.295594331e-22
3.672011835e-22
2.717708372e-21
4.75379351e-21
2.885819396e-22
2.904638754e-22
5.382623054e-21
5.382940855e-21
2.477954299e-21
2.359110311e-21
1.919977453e-21
1.724615185e-22
1.683605652e-20
2.008743319e-21
4.39048927e-21
7.660792528e-21
3.950911938e-21
2.736693423e-22
2.280663639e-21
8.568963928e-22
5.024315751e-22
6.9452616e-21
4.116970224e-21
1.105324477e-20
2.910187782e-21
5.946589745e-21
1.83460597e-21
6.079789649e-21
4.584464896e-21
5.874222096e-22
4.262137399e-21
8.584099713e-21
3.936305841e-21
6.277466976e-22
3.936835341e-22
1.056732815e-20
1.06739686e-21
4.32193831e-21
8.082541732e-22
6.277316442e-21
1.026700911e-20
9.299339526e-22
6.193581433e-22
3.311579721e-21
1.78256934e-21
7.437788523e-21
8.897619383e-21
9.632747826e-21
1.131147365e-20
2.518758121e-22
2.022386967e-22
6.904812193e-22
3.753833203e-21
2.234324798e-21
5.781630148e-22
6.39496371e-23
9.318571403e-22
7.268851324e-21
1.764545309e-20
1.304026693e-20
2.435642018e-21
4.235924413e-21
1.243950088e-20
6.18623324e-21
8.588591917e-21
2.190459538e-21
5.104500176e-21
2.042530384e-21
1.009814187e-21
2.071480296e-21
2.183570866e-22
4.974445945e-22
8.295933116e-22
6.906586434e-22
3.858877907e-21
1.455947357e-21
7.287365737e-21
4.913811477e-21
9.269072697e-21
7.317951371e-21
3.293254005e-22
1.364640503e-21
3.599707822e-21
3.059779713e-20
2.045090183e-21
5.862536473e-21
5.591324232e-21
3.524749202e-21
2.73419962e-21
1.238519505e-20
5.077475824e-21
7.35941292e-22
6.876388068e-22
9.769204129e-21
2.005089096e-21
5.931331558e-22
1.449958331e-21
3.862897002e-21
2.492530205e-21
4.686488503e-22
2.649248816e-21
7.15272002e-21
6.851750072e-21
3.550388487e-21
1.266493331e-20
1.578745784e-21
6.353072876e-21
1.160610082e-22
2.094573175e-21
1.071248004e-21
4.525300044e-21
1.081326666e-22
6.483806417e-21
4.749452462e-22
1.708108346e-20
2.544295901e-22
3.344007429e-21
4.741591787e-22
1.530042644e-21
4.804730498e-21
3.744448836e-21
3.290858757e-22
3.833227965e-21
1.615769419e-21
1.003607382e-21
1.769000776e-20
2.037073262e-20
2.791492061e-21
6.100051817e-21
1.049364639e-20
1.336068501e-21
4.400202501e-21
4.914746904e-21
5.068749431e-21
6.927633874e-21
4.472096753e-21
7.433475805e-21
1.648329677e-21
2.03901114e-21
8.728264531e-22
1.981638226e-21
1.917684597e-21
7.906354124e-23
4.297839164e-22
4.169059854e-21
6.45157814e-21
6.902843613e-22
2.147819823e-21
2.719174743e-21
1.914540036e-21
1.986893282e-21
1.32777878e-21
2.245295754e-22
1.150283324e-20
4.492836469e-22
4.36662587e-21
1.435844725e-21
1.411516045e-20
8.122347311e-22
9.109356738e-21
5.040529805e-21
3.037060859e-21
1.549042079e-21
8.991725872e-21
2.022387245e-21
1.106668494e-20
7.279058451e-21
2.2245674e-21
8.069493539e-21
5.338321696e-21
1.203676231e-21
6.510203843e-21
3.449734081e-21
2.884692381e-21
3.583722992e-21
9.241237697e-21
7.62011825e-21
1.722436164e-21
2.536840982e-22
1.031905321e-20
4.177308987e-21
1.037427706e-20
4.315568695e-22
5.106635885e-21
4.981264871e-21
1.453260828e-21
4.122733309e-21
1.407883643e-21
2.397374793e-21
2.263511018e-21
2.412453476e-20
2.857981456e-21
3.195452471e-21
8.922398612e-22
1.454723494e-21
3.955012855e-21
4.697451244e-21
1.884896766e-21
1.810229091e-21
1.082413251e-20
5.921655622e-21
5.313429491e-22
2.145397012e-21
1.391602851e-22
4.389239208e-21
5.114737982e-21
2.30138366e-21
2.203727589e-22
4.358356314e-21
7.826106783e-22
7.18597049e-21
2.607417271e-21
2.226503157e-21
3.713285265e-21
2.469012011e-21
1.376027377e-21
4.646986165e-22
1.774186809e-22
7.313732119e-21
9.353482723e-21
4.541468416e-21
8.316317572e-22
5.444970488e-22
7.140931082e-21
7.562537055e-21
5.485546101e-21
4.432398588e-21
1.05409391e-21
7.594754377e-21
1.087877396e-21
2.272229509e-21
3.662064615e-21
1.682328223e-21
6.409115765e-21
2.895269965e-21
4.170173508e-21
2.545745205e-21
4.475861606e-21
9.985235869e-22
9.391394087e-22
4.247238054e-21
1.660212909e-22
2.443996954e-21
3.773494909e-21
8.250042624e-21
1.232729366e-21
6.131797118e-22
4.083238969e-21
1.384198486e-20
5.72530845e-21
6.415870375e-21
3.223944886e-21
6.68496994e-22
6.50740422e-21
1.216540609e-20
5.956469931e-22
4.477382085e-21
1.801606812e-21
4.69582478e-21
1.403144803e-21
5.524606996e-21
2.942831351e-22
3.369125847e-21
1.634565147e-21
1.824582341e-21
6.249480436e-21
3.605294114e-21
3.757762446e-22
2.827119138e-22
5.53568125e-21
6.530623043e-22
1.742539461e-22
1.817750887e-21
7.642677314e-21
1.462102074e-21
6.439511199e-21
1.653828102e-21
2.490035069e-21
6.486223377e-21
1.708635588e-21
3.566629921e-21
3.682694728e-21
2.573531665e-21
4.372456476e-22
5.660762175e-21
1.274066629e-20
6.219088799e-21
1.916658643e-21
6.966542011e-22
2.654143652e-21
4.328041861e-22
2.239730048e-21
5.46507326e-21
7.769972017e-21
2.838141411e-21
3.260591376e-21
1.955713801e-20
7.172485499e-21
9.343096419e-21
2.450305491e-21
2.041685861e-21
2.405693961e-21
1.236865763e-20
4.396089765e-21
3.418183737e-21
7.686768432e-21
1.285342884e-21
2.739290524e-21
5.810729916e-21
4.843903699e-21
2.056263678e-21
1.713686565e-20
4.608881876e-21
1.669501505e-21
7.405738487e-21
1.078775029e-21
2.193122382e-21
6.369776438e-22
1.994700591e-21
4.718966349e-21
4.894804859e-21
1.757994448e-20
2.13620761e-21
1.17827388e-21
6.297044541e-22
1.381354427e-21
2.829195083e-21
1.482229646e-22
1.621368872e-21
2.947668436e-21
3.190463108e-21
3.010585265e-22
1.942453107e-21
1.640967228e-21
1.027539437e-20
4.954273968e-21
1.261684515e-20
2.024506044e-21
1.659786258e-21
3.151635419e-21
4.424512703e-21
1.317771257e-20
4.672440612e-21
1.636492157e-20
4.135609318e-21
8.730629547e-21
1.725302106e-21
3.198867633e-21
3.731652122e-21
5.923585445e-21
3.622181514e-21
8.422529425e-21
1.345335053e-21
4.802368801e-21
1.073211267e-21
1.418001776e-21
1.265142141e-21
9.258020758e-21
5.7044143e-21
2.214108813e-21
4.015235161e-21
9.607835769e-21
3.413927835e-21
3.440604786e-21
7.641676355e-21
2.88670914e-21
5.009185554e-22
1.570272681e-21
7.438269518e-21
8.745376637e-21
2.960562953e-21
1.171631391e-21
2.771292533e-21
1.82905555e-21
1.734564101e-21
7.971219489e-21
2.261468545e-21
4.512059948e-21
1.495462481e-20
6.80392992e-21
2.706707261e-21
2.502572932e-21
3.649456514e-21
4.543965255e-21
9.778866724e-21
1.167903762e-21
1.025799471e-20
1.169718058e-21
3.752372175e-21
3.791564648e-21
4.652386502e-21
2.999070241e-21
9.028823847e-21
1.434966316e-21
2.47873146e-21
2.695179122e-21
5.439091601e-22
7.553211529e-22
1.590600366e-21
7.993985566e-21
1.328843996e-21
4.828834666e-21
4.298897299e-21
1.940115188e-21
3.427862339e-22
2.469291786e-21
1.05996467e-21
5.408366788e-21
5.599771252e-21
1.043085073e-20
6.918947284e-22
4.879346241e-21
4.081949238e-21
5.267031109e-21
4.206561469e-21
2.568058522e-22
1.183208349e-21
2.783010334e-21
3.524258076e-21
6.692750984e-22
3.224430496e-21
3.650084127e-21
7.578929349e-21
6.238968675e-23
1.077468381e-21
6.764969717e-21
1.956300371e-20
3.727453095e-21
3.426744483e-22
2.429909822e-21
2.456500807e-21
2.431645846e-21
2.829134112e-21
1.262344177e-21
5.915253012e-21
3.35872332e-21
4.892602412e-21
6.422784842e-21
4.118136088e-22
1.3844833e-20
6.22026101e-21
5.496075452e-21
1.473703205e-22
6.019297472e-21
1.675492538e-21
2.412901876e-21
1.129845444e-22
4.745437324e-21
3.866442458e-22
2.868703268e-21
1.273234017e-21
1.619970994e-21
4.655776535e-21
2.667292504e-21
1.305688176e-21
5.626035132e-21
1.759808232e-22
7.129446077e-21
2.218935102e-21
1.609032966e-21
9.94286064e-21
3.040667204e-22
1.966779597e-21
1.137534932e-21
5.133442039e-22
3.802880128e-21
1.108971709e-21
4.241923109e-21
1.845957279e-21
6.154081411e-21
8.969716797e-21
1.48225581e-20
3.582588484e-22
5.943472748e-21
3.977958544e-21
7.991477899e-22
5.369862789e-22
4.201228031e-21
2.740564096e-21
2.186413646e-21
2.363775823e-21
1.628296335e-21
1.513014087e-21
2.623219132e-21
1.494380538e-21
4.835795348e-21
6.231440917e-22
1.282600666e-22
7.584546193e-21
9.286410308e-21
4.688328568e-21
4.878828461e-21
1.180829295e-21
4.495268672e-22
2.774631527e-21
9.927220017e-22
3.09040505e-21
9.583004162e-21
5.302683879e-21
1.565557625e-21
1.786869014e-20
3.67373829e-21
9.887717719e-21
1.728586027e-21
4.825402426e-22
6.435275176e-21
3.901004844e-22
1.593505629e-20
1.725020882e-21
1.874281701e-21
9.323139935e-22
3.377772991e-21
3.282907697e-21
4.165491549e-21
1.720371314e-21
4.521844377e-21
1.13320406e-20
4.548653469e-21
2.576352481e-21
7.288631741e-21
9.239080055e-21
6.849183697e-21
4.796278963e-22
1.998000583e-21
1.235600609e-20
1.635637705e-20
4.401761756e-21
1.31015379e-22
2.677773683e-21
1.310812113e-23
3.911694969e-22
4.068363068e-21
1.260390232e-20
2.521071351e-22
9.893304055e-22
1.216855289e-20
1.26497274e-21
1.292685998e-21
7.755114815e-21
5.737330538e-21
4.413287238e-24
1.368950625e-20
1.86681506e-21
7.624390002e-21
1.392357194e-21
5.253373385e-21
2.013511925e-21
1.288758928e-21
1.953901625e-21
2.221506856e-22
5.704162494e-22
4.654448379e-21
1.277202862e-20
8.050900577e-21
5.692284777e-21
5.990416014e-21
6.195713707e-21
3.687509124e-21
5.466804651e-22
5.583714481e-21
5.874312657e-21
5.907953523e-21
4.222324835e-21
2.039504536e-21
5.255930964e-21
8.847811875e-22
5.138499165e-21
6.874559743e-21
1.690277018e-20
1.239760607e-20
6.762068061e-21
2.233356738e-21
4.048695275e-22
3.752537948e-21
4.260889255e-21
9.417508254e-21
7.16961867e-22
1.801772732e-23
3.626470718e-21
6.440693951e-22
4.372525058e-23
3.116247678e-21
3.113418646e-21
3.916919965e-21
5.438392811e-22
1.826634717e-21
5.173638104e-22
5.617851009e-21
4.493125867e-21
5.496929922e-21
1.185188174e-21
6.332684823e-21
5.792452687e-21
2.259778483e-21
4.016429692e-21
1.104419955e-21
5.770788817e-21
3.750654511e-21
2.153903733e-21
1.959578633e-21
9.051924545e-21
2.641029404e-21
5.926951042e-22
3.09915351e-21
1.12346096e-20
1.694050108e-21
1.144110578e-21
1.304865799e-21
3.134031823e-21
9.450835381e-23
2.787097935e-22
1.001357018e-20
7.152904284e-21
5.416715547e-21
2.224571043e-21
4.961524436e-21
1.750282217e-21
1.000239087e-20
5.335334931e-22
1.367496404e-20
1.731587429e-21
4.536334837e-21
1.173131657e-21
5.604714463e-21
2.178069815e-20
1.91753294e-21
1.82208613e-21
1.706265892e-22
2.118611497e-21
2.546321433e-21
2.111528985e-21
2.196483249e-21
2.407767389e-21
1.729368642e-21
1.652147836e-21
4.288170834e-21
1.265924067e-21
5.966519285e-21
3.784437779e-21
2.840044356e-22
4.604933922e-21
2.377936102e-21
8.847692737e-21
2.814724876e-21
1.627143195e-21
2.25613559e-21
3.923793115e-21
7.595771143e-21
4.999779025e-21
6.630540361e-21
5.561956449e-22
3.26568893e-21
1.454824187e-21
6.129929623e-22
1.842965998e-20
1.732111853e-21
7.289914822e-22
5.868873947e-22
7.530009087e-22
3.104254983e-21
3.422881151e-22
4.526447885e-21
6.796859638e-21
7.066915577e-21
3.482524348e-22
1.146425378e-20
1.809436956e-22
6.926361427e-21
1.175764618e-21
3.907841655e-21
1.138557284e-20
2.640748125e-21
2.798409758e-21
3.54381226e-21
4.731867941e-21
8.34263694e-22
2.375234587e-21
4.566745394e-21
8.423451379e-22
3.529762249e-22
1.34715375e-21
3.927571632e-21
1.955076053e-21
1.662258349e-20
3.25634829e-21
4.095762869e-21
3.799782163e-22
2.78275294e-21
2.261153317e-20
1.364059855e-21
8.99873222e-22
2.833886107e-22
1.222017031e-20
6.793696382e-21
2.562006461e-21
1.13563567e-20
9.145285599e-22
1.043146863e-20
1.146965909e-20
2.352626225e-21
2.600026136e-21
3.158288372e-21
3.062573581e-21
2.504779154e-21
3.538300916e-21
3.721553042e-21
6.142067275e-21
1.000046097e-20
1.793473138e-21
6.771103515e-22
1.755954517e-21
3.687050111e-23
1.134625618e-21
1.038783611e-20
2.66197733e-21
4.555846735e-21
3.70506424e-21
1.471784942e-21
1.018819263e-20
8.540853872e-21
1.164647897e-21
1.900415371e-21
1.109169342e-21
1.881898516e-22
3.033007067e-21
2.946936906e-21
1.604655726e-20
3.37621374e-21
1.635492641e-21
4.827673327e-21
4.532921103e-21
7.576430033e-22
1.737853882e-21
1.284552085e-21
3.690949833e-21
8.019690068e-21
5.212268686e-21
3.572859283e-21
5.569015269e-21
1.497213269e-21
3.893048325e-21
6.683222679e-21
8.8950622e-22
3.74630502e-21
4.917637816e-21
1.126548154e-21
2.796881242e-21
3.732288308e-21
3.317777053e-21
7.17062865e-21
1.181927276e-22
1.509643609e-20
7.641302182e-21
1.975441109e-21
8.947093985e-22
3.469222129e-22
8.919536036e-22
7.531718062e-22
2.142264463e-20
8.914493026e-22
1.617183316e-21
3.33873035e-21
4.060551002e-21
1.914310469e-21
2.788830738e-21
5.401484057e-21
2.518869004e-21
4.362803709e-21
1.741122483e-21
4.152342253e-21
8.212007331e-22
7.258545063e-23
1.706551554e-22
9.246437913e-21
1.357966686e-21
1.353303174e-21
4.531578442e-21
9.265150857e-21
2.089602963e-21
3.336261056e-23
1.06661136e-20
4.0023358e-22
9.387177522e-22
2.992724501e-22
1.470145567e-20
1.370452533e-20
3.700995983e-21
2.104671643e-22
5.061328553e-21
3.811396836e-21
2.892371974e-21
2.942552235e-21
5.314499938e-21
3.21688145e-21
3.997880561e-21
1.102779686e-22
6.923360542e-21
1.62328091e-20
3.039628905e-21
9.889257621e-21
4.937501756e-21
3.172586463e-21
2.470535561e-21
8.404347182e-21
7.411018479e-22
9.866076097e-22
2.653173535e-21
1.297109435e-21
3.655879649e-22
9.783934104e-21
8.832759883e-22
7.532033313e-22
5.051373471e-21
2.500491193e-21
4.349417138e-21
2.528660536e-21
2.286535095e-21
1.029050001e-20
5.389562831e-22
6.970436962e-21
9.728994407e-21
3.3436682e-21
6.704961881e-21
1.600896878e-21
8.529551429e-22
3.863453843e-21
3.022250415e-21
5.438745031e-22
3.378830411e-21
1.536040245e-21
4.615363485e-21
1.053918908e-20
2.950597581e-22
3.048217069e-21
1.409143495e-21
6.227786644e-21
4.640314605e-22
1.769240985e-21
1.047441959e-21
4.563465295e-22
1.318296153e-21
7.033004433e-21
5.633110485e-21
1.309878814e-21
1.096969315e-21
2.898908144e-22
1.18392709e-20
2.64154637e-21
9.319742956e-21
6.561355685e-22
1.218472344e-20
3.149351471e-21
2.599237414e-22
1.162867468e-21
9.694116175e-22
8.594324723e-21
1.696026549e-21
2.165079812e-22
1.569084456e-21
7.325627264e-21
3.298585149e-21
1.289063978e-21
8.971141243e-21
6.641003245e-21
1.203927878e-20
9.110151742e-21
1.59016208e-21
1.662828834e-20
1.795816654e-21
1.285200833e-20
6.734852396e-22
1.513073153e-21
6.503662042e-21
2.201012268e-21
3.886753874e-21
3.225814687e-21
7.483969149e-21
1.126074885e-20
1.239396782e-20
1.082102758e-21
3.942389027e-22
1.947009785e-21
1.523668618e-21
4.099195723e-21
6.3261106e-22
2.768602537e-21
1.534251754e-21
6.822702826e-22
2.383233237e-20
1.446122194e-21
1.027130355e-21
1.098184644e-21
1.847637925e-22
2.311051031e-21
2.015144624e-21
4.368661393e-21
3.495260978e-22
7.931055555e-21
2.417278474e-20
3.582821308e-21
8.030421712e-22
1.347693202e-20
8.692447547e-22
1.862273581e-21
2.674708504e-21
2.740804908e-21
3.536636532e-21
7.452517989e-22
1.346865243e-20
2.050906237e-21
3.469738366e-21
1.24639793e-20
1.220008409e-21
3.20352344e-21
1.878483013e-22
2.476770704e-21
8.39399373e-21
1.023833676e-21
6.929917354e-21
4.379143901e-23
4.288943503e-21
7.416476442e-22
2.738310226e-21
5.963180581e-21
1.812556418e-21
3.382863209e-21
3.27160807e-21
4.512201112e-21
1.691182737e-21
1.918542587e-21
3.270302369e-21
3.244447019e-21
2.876334954e-21
4.559186695e-21
8.131022627e-21
5.882121025e-23
4.808893784e-21
4.026254676e-22
5.068325434e-22
7.067153976e-21
1.094307303e-20
3.513586974e-21
9.730242992e-21
2.283118217e-21
1.64942271e-21
1.425732911e-21
1.55889513e-21
9.92337547e-22
1.01123203e-21
4.418947323e-23
4.245476636e-21
3.140688694e-22
2.648720587e-21
1.432058501e-21
5.863955655e-22
2.746843744e-21
5.323452512e-21
1.078516873e-20
1.374633262e-20
1.276225343e-21
5.512056101e-23
7.098597657e-21
1.749648692e-21
3.37201676e-21
2.399553284e-21
1.015454656e-20
2.479753614e-21
5.438598975e-21
3.507619907e-21
5.768362116e-22
5.684564509e-21
2.991223893e-21
3.893389891e-21
4.777969701e-22
5.684373219e-21
9.721250657e-21
3.985481402e-21
6.359462059e-22
2.449193558e-21
5.104936088e-21
3.727519932e-21
1.793601726e-21
1.364267657e-21
6.356420869e-22
1.920070997e-21
4.619013578e-21
1.504802515e-21
4.69718698e-22
4.938210542e-21
3.679790006e-21
9.612068537e-21
4.4356518e-21
1.108430769e-20
1.862026485e-21
1.548959564e-20
6.70943916e-22
6.824441533e-21
1.038908471e-21
1.575354951e-21
3.512852539e-21
1.73332828e-21
1.262153357e-21
1.118857508e-20
1.490845198e-21
2.409816619e-21
4.200407008e-22
6.119058033e-22
6.161670238e-21
4.210355145e-21
6.507586269e-21
7.220066141e-21
9.536997776e-22
3.391473126e-21
1.796077514e-21
8.218998181e-21
3.278085297e-21
5.137235534e-21
1.113442443e-21
1.598760277e-21
6.563489542e-22
5.408358579e-21
8.218974664e-21
3.652230947e-21
7.881899768e-21
1.52254741e-21
2.304575048e-21
5.586561674e-21
1.745349662e-21
1.483933931e-21
6.704638274e-21
8.10247602e-21
2.766651887e-21
6.936290552e-21
2.828124865e-21
6.486111886e-21
7.149223441e-22
6.258815133e-21
2.383154471e-21
3.402884255e-23
3.581287616e-21
1.071912934e-21
1.073612494e-20
1.486537052e-20
5.194878135e-21
4.399619578e-21
6.668565282e-21
1.873195812e-22
4.201278684e-21
5.917964196e-22
4.056173255e-21
1.202171352e-21
1.402150465e-21
4.623794712e-21
9.581808203e-21
1.075879377e-21
2.91962411e-21
1.296028411e-20
2.13111682e-21
5.67665533e-21
4.228091857e-21
4.307064509e-21
1.028751674e-21
3.252499445e-21
6.079518012e-22
1.325002468e-21
4.981612981e-21
2.681402088e-22
3.635135098e-21
3.492082514e-21
1.174294079e-21
3.810253212e-21
1.856796602e-20
2.187993398e-21
1.970667713e-21
4.286427435e-21
1.851259368e-21
1.788067775e-22
9.66135433e-21
1.2931095e-21
2.854922494e-21
2.380100037e-21
3.025518819e-21
2.271917328e-21
1.81564895e-20
2.739414304e-22
4.209760552e-21
1.257558457e-21
8.009495929e-21
3.762507559e-22
3.986238875e-21
4.758553671e-21
1.373445506e-21
6.073532878e-21
8.502223854e-21
1.776250417e-21
1.307054747e-21
5.148626364e-21
3.907652265e-21
9.718638196e-22
5.046039461e-22
6.190331023e-22
7.872479776e-21
1.255086732e-20
4.895271946e-21
2.072004648e-21
9.950139307e-22
1.112605009e-22
8.237542913e-21
5.151600378e-21
1.503374575e-20
1.598576585e-21
2.949832886e-21
2.057983033e-21
4.059070129e-21
3.408879081e-22
6.933993474e-22
7.414185473e-21
5.562325711e-22
9.771881562e-21
5.260282321e-21
2.716701186e-21
3.407549321e-21
1.102605348e-21
6.335494349e-22
9.0937697e-22
4.240894453e-21
3.313895359e-21
3.856757007e-21
2.142088656e-21
1.312598672e-21
4.053022965e-21
2.39475471e-22
5.34406507e-24
6.629951019e-22
4.990291539e-21
6.731799632e-21
2.842142814e-21
1.594773867e-22
3.177374902e-21
3.282932346e-21
2.639314092e-22
1.025587723e-21
1.855608229e-21
3.980280961e-22
2.013220611e-22
3.061044133e-22
1.13958174e-21
1.00482351e-20
3.191640909e-21
2.922172461e-21
2.095581244e-21
8.017893639e-22
1.295794618e-21