/*--------------------------------*- C++ -*----------------------------------*\
| =========                 |                                                 |
| \\      /  F ield         | OpenFOAM: The Open Source CFD Toolbox           |
|  \\    /   O peration     | Version:  2406                                  |
|   \\  /    A nd           | Website:  www.openfoam.com                      |
|    \\/     M anipulation  |                                                 |
\*---------------------------------------------------------------------------*/
FoamFile
{
    version     2.0;
    format      ascii;
    arch        "LSB;label=32;scalar=64";
    class       Cloud<dsmcParcel>;
    location    "0.012/lagrangian/dsmc";
    object      positions;
}
// * * * * * * * * * * * * * * * * * * * * * * * * * * * * * * * * * * * * * //

5153
(
(0.06482511455 0.2862879763 2.168404345e-19) 534
(0.07395756435 0.2791463168 0) 525
(0.07081232601 0.2459112869 -4.065758147e-20) 475
(0.04922467996 0.2219106954 -5.421010862e-20) 442
(0.06879434115 0.2312472982 1.084202172e-19) 455
(0.06756965007 0.2135606861 2.168404345e-19) 424
(0.07064857743 0.2554563514 3.252606517e-19) 485
(0.06637588644 0.2371154935 -2.168404345e-19) 464
(0.07468095686 0.2191400961 8.131516294e-20) 435
(0.07555552106 0.1879677354 2.168404345e-19) 385
(0.05565302172 0.182741812 -2.981555974e-19) 383
(0.07445929984 0.2408773366 2.168404345e-19) 465
(0.06945871754 0.1829185937 2.168404345e-19) 385
(0.07612789938 0.1849470818 0) 385
(0.03802556714 0.2401970666 0) 460
(0.05180758113 0.2901411299 0) 532
(0.06730247038 0.2604934865 -3.252606517e-19) 494
(0.05867234777 0.256526339 -4.33680869e-19) 483
(0.06898800407 0.2587136643 1.626303259e-19) 495
(0.06900284405 0.182009217 2.168404345e-19) 385
(0.0707731948 0.1982244598 4.065758147e-20) 405
(0.07150480873 0.1928683824 1.084202172e-19) 395
(0.07264945635 0.2339312986 -1.355252716e-19) 455
(0.04605101605 0.2727966528 -2.168404345e-19) 512
(0.05532359695 0.2323319892 2.032879073e-20) 453
(0.0432532458 0.1830390318 0) 381
(0.06037005584 0.1768799078 -2.168404345e-19) 373
(0.05912503435 0.2165744715 0) 433
(0.07151675166 0.2122748277 -3.388131789e-20) 425
(0.05820806995 0.1895446977 -1.084202172e-19) 393
(0.07246292437 0.2416241396 -6.09863722e-20) 465
(0.07154351478 0.2874319159 -5.421010862e-20) 535
(0.05415153606 0.194880456 -2.168404345e-19) 403
(0.01808831737 0.1817061527 0) 378
(0.0687475282 0.2349203033 -2.168404345e-19) 455
(0.03790603527 0.18533017 2.168404345e-19) 390
(0.05119499739 0.2126266163 -6.505213035e-19) 422
(0.0748641138 0.1787844582 2.168404345e-19) 375
(0.06941911201 0.2405766125 1.626303259e-19) 465
(0.07078851184 0.1909856101 0) 395
(0.0470424552 0.1930534253 -2.168404345e-19) 402
(0.06926064072 0.2209408174 -4.33680869e-19) 435
(0.0719183328 0.1861841584 1.084202172e-19) 385
(0.07219249852 0.1868049826 2.168404345e-19) 385
(0.06706429645 0.1869161095 2.168404345e-19) 384
(0.07295491725 0.2673482402 0) 505
(0.05742539691 0.2384061229 2.168404345e-19) 463
(0.07022548234 0.2480509267 1.626303259e-19) 475
(0.06658498598 0.1983738196 0) 404
(0.04659638005 0.2152156917 0) 432
(0.07017831143 0.1930082095 2.168404345e-19) 395
(0.05581288651 0.1977191444 3.252606517e-19) 403
(0.07555736953 0.2061938573 -2.168404345e-19) 415
(0.03383142517 0.2271132838 2.168404345e-19) 440
(0.06591799269 0.2656290057 0) 504
(0.07047554566 0.198936833 0) 405
(0.06848122873 0.1922634002 -4.33680869e-19) 394
(0.06465561297 0.1810107713 2.032879073e-19) 384
(0.05092430752 0.2374733865 0) 462
(0.06154435327 0.2123171792 -1.084202172e-19) 424
(0.05230677196 0.2251310388 2.168404345e-19) 442
(0.04899700599 0.2804066824 1.084202172e-19) 522
(0.06277361324 0.2971982907 1.626303259e-19) 544
(0.07102253182 0.267819064 1.084202172e-19) 505
(0.07397700166 0.20711101 0) 415
(0.0617996792 0.255238064 -1.084202172e-19) 484
(0.06770386125 0.2662732241 2.168404345e-19) 504
(0.06009838246 0.240578992 -2.168404345e-19) 463
(0.06227300915 0.1858761802 2.168404345e-19) 384
(0.07035382538 0.1769186146 0) 375
(0.04146681549 0.2162510461 -2.981555974e-19) 431
(0.07125385879 0.2191608239 2.168404345e-19) 435
(0.04411200876 0.1666011458 -8.131516294e-20) 361
(0.07188241809 0.2216968764 -2.168404345e-19) 435
(0.03045890683 0.1891217306 0) 389
(0.07466797043 0.2894798095 2.320870275e-19) 535
(0.0749940182 0.2235311775 -2.168404345e-19) 445
(0.0422222743 0.2403537637 1.626303259e-19) 461
(0.06426689615 0.2295839191 0) 454
(0.07517239045 0.282864483 2.168404345e-19) 525
(0.04574464957 0.2626443136 0) 492
(0.04953971604 0.2610304739 1.905824131e-19) 492
(0.06373882502 0.2877228349 -1.084202172e-19) 534
(0.05411646228 0.279456092 2.032879073e-19) 523
(0.07529538366 0.2799462128 -4.33680869e-19) 525
(0.07606612407 0.1941508079 0) 395
(0.05267068229 0.1911432933 -2.168404345e-19) 392
(0.04734869742 0.1814155223 -2.168404345e-19) 382
(0.07533111144 0.1995710177 0) 405
(0.07231709567 0.1718994405 -1.084202172e-19) 365
(0.06426761724 0.2211924191 -2.168404345e-19) 434
(0.04146264558 0.2109155749 1.626303259e-19) 421
(0.06163467233 0.1985285591 -2.168404345e-19) 404
(0.07031098794 0.2316987067 -2.710505431e-19) 455
(0.01726775985 0.2076125799 1.084202172e-19) 418
(0.04950609998 0.2638429139 0) 492
(0.07272473211 0.2288416387 1.084202172e-19) 445
(0.06237038265 0.2701537467 0) 504
(0.05682702307 0.1862748275 1.355252716e-19) 393
(0.0754303318 0.2717031722 0) 505
(0.05778528157 0.209225916 0) 423
(0.07169380781 0.2557044765 -5.421010862e-20) 485
(0.06304624418 0.2516775152 2.168404345e-19) 484
(0.04636550206 0.1835737069 0) 382
(0.07136171403 0.1917109389 0) 395
(0.05852391975 0.198024505 0) 403
(0.06494585252 0.1865634796 4.472333962e-19) 384
(0.05252562759 0.2288298552 4.33680869e-19) 452
(0.05160745332 0.1755355319 4.33680869e-19) 372
(0.05925542029 0.1755346903 1.76182853e-19) 373
(0.05144562906 0.2456155186 1.626303259e-19) 472
(0.06337593435 0.1709522098 -2.710505431e-19) 364
(0.05934131391 0.2585932959 -6.505213035e-19) 493
(0.05809023568 0.2082259634 4.33680869e-19) 423
(0.07411189051 0.2301343693 0) 455
(0.04174088997 0.2323542052 3.252606517e-19) 451
(0.03342171045 0.1829059302 4.33680869e-19) 380
(0.04303341827 0.206525385 2.168404345e-19) 421
(0.07062726812 0.1952063654 2.168404345e-19) 405
(0.07534000218 0.2326180643 -4.33680869e-19) 455
(0.01791597715 0.2628850189 0) 488
(0.05170803904 0.2571939617 0) 492
(0.0358721609 0.2651033104 0) 500
(0.07453837267 0.2757019485 0) 515
(0.0758514489 0.2485010885 -2.168404345e-19) 475
(0.07363945727 0.2644042764 0) 495
(0.0674100482 0.28424535 0) 524
(0.03291174936 0.2940546183 1.084202172e-19) 540
(0.05962634889 0.1954712297 -1.084202172e-19) 403
(0.03586685125 0.1683860011 -2.168404345e-19) 360
(0.05482832592 0.1995124035 -3.252606517e-19) 403
(0.07455275809 0.1993471505 2.168404345e-19) 405
(0.04969990986 0.1713607503 -4.33680869e-19) 372
(0.06859431625 0.1861255498 0) 385
(0.06046288258 0.2256701419 0) 443
(0.06428546806 0.2375103589 -2.168404345e-19) 464
(0.06709080201 0.2512860881 -2.168404345e-19) 484
(0.05470221727 0.2590770314 -5.421010862e-20) 493
(0.06908596312 0.2142624907 4.33680869e-19) 425
(0.06659162407 0.2203011677 2.168404345e-19) 434
(0.07462448441 0.251416102 4.33680869e-19) 485
(0.02065507791 0.2673985735 1.084202172e-19) 498
(0.04659577404 0.2334513116 -4.33680869e-19) 452
(0.06286587318 0.2750859369 4.33680869e-19) 514
(0.06840047977 0.2164264095 2.168404345e-19) 434
(0.05922389962 0.276114715 -2.168404345e-19) 513
(0.03390708212 0.2820148713 -2.710505431e-20) 520
(0.06505002779 0.2881178831 -1.084202172e-19) 534
(0.06787459532 0.2159808122 2.168404345e-19) 434
(0.07293608097 0.1850877871 2.168404345e-19) 385
(0.06044803885 0.1935383351 0) 393
(0.06577993654 0.1955232668 0) 404
(0.009567518663 0.1887054367 2.168404345e-19) 397
(0.05651941282 0.2416020876 2.168404345e-19) 463
(0.07132523732 0.2086864288 -2.168404345e-19) 415
(0.06971824675 0.1889837012 -2.710505431e-19) 395
(0.03814247898 0.2441193211 -2.168404345e-19) 471
(0.05825206726 0.1998278685 2.168404345e-19) 403
(0.03768986649 0.2835837461 -2.168404345e-19) 520
(0.05816059996 0.2445333679 -2.168404345e-19) 473
(0.07291490204 0.1974893567 0) 405
(0.06311687594 0.2447182101 -2.168404345e-19) 474
(0.0232779958 0.294211069 0) 539
(0.05495307511 0.247315631 5.421010862e-20) 473
(0.06733009901 0.2876552488 0) 534
(0.06552142517 0.2675590127 -2.168404345e-19) 504
(0.07600848591 0.2108996441 -2.168404345e-19) 425
(0.07247462967 0.2671966507 -3.252606517e-19) 505
(0.04458390051 0.2688770992 0) 501
(0.04012623142 0.2784102744 2.168404345e-19) 521
(0.06130620544 0.2467179836 2.168404345e-19) 474
(0.03388981337 0.246600315 -3.794707604e-19) 470
(0.04668644301 0.2529368701 -4.33680869e-19) 482
(0.03236458594 0.2747489255 -3.252606517e-19) 510
(0.07592235092 0.2804730382 -6.505213035e-19) 525
(0.0505641826 0.1709787982 1.084202172e-19) 362
(0.05311573691 0.1927212396 4.33680869e-19) 392
(0.04326117081 0.1800651607 0) 381
(0.0688659935 0.1704389384 5.421010862e-20) 365
(0.05075525848 0.2264846211 1.084202172e-19) 442
(0.04457927071 0.1753829436 4.33680869e-19) 371
(0.06939175793 0.2064905899 0) 415
(0.06634643054 0.1913134393 -1.084202172e-19) 394
(0.0227157191 0.2724171016 4.33680869e-19) 508
(0.05058402764 0.2450842416 -1.084202172e-19) 472
(0.02421050775 0.2282826819 -1.897353802e-19) 449
(0.05433296754 0.1873583376 -2.710505431e-19) 393
(0.06375432217 0.2147053278 0) 424
(0.04394726007 0.2281393855 4.33680869e-19) 451
(0.06574395201 0.1987291485 1.084202172e-19) 404
(0.05462261311 0.2111733715 -2.981555974e-19) 423
(0.0600811959 0.2135720244 0) 423
(0.06913859004 0.270394525 -2.168404345e-19) 505
(0.06586852775 0.2014697802 0) 414
(0.07023267949 0.1988382996 -2.168404345e-19) 405
(0.07277247157 0.2076149366 -1.626303259e-19) 415
(0.05822032152 0.2611824302 -2.168404345e-19) 493
(0.03584152076 0.2531083926 2.168404345e-19) 480
(0.06441105949 0.2659563303 -2.710505431e-20) 504
(0.0436310793 0.2785866162 0) 521
(0.07218381588 0.2630886841 -5.421010862e-19) 495
(0.07538805504 0.2784718982 2.168404345e-19) 515
(0.07397853337 0.2570380322 -3.252606517e-19) 485
(0.06244788052 0.2893981713 -2.710505431e-19) 534
(0.04231504052 0.2620281436 -2.710505431e-19) 491
(0.05638551114 0.2823780414 -1.219727444e-19) 523
(0.07608484142 0.2280625715 -4.33680869e-19) 445
(0.01732827498 0.296497381 5.421010862e-20) 538
(0.06476870939 0.236886002 3.716357056e-20) 464
(0.06528560183 0.2759249085 0) 514
(0.06777767319 0.2848164913 -2.168404345e-19) 524
(0.06870498236 0.2391568191 0) 465
(0.04788218888 0.1830510028 3.252606517e-19) 382
(0.07292280748 0.2132530413 -1.084202172e-19) 425
(0.07035782267 0.2035282464 -8.131516294e-20) 415
(0.05933377518 0.2068650646 0) 413
(0.0579275943 0.1855385151 -1.084202172e-19) 383
(0.05270962925 0.2514117319 -2.168404345e-19) 482
(0.06083138666 0.2256436265 -4.33680869e-19) 443
(0.06142114276 0.2157065273 -3.794707604e-19) 434
(0.06176350065 0.2535277875 2.168404345e-19) 484
(0.06224004613 0.2321099378 -2.168404345e-19) 454
(0.05941536318 0.2465158364 8.131516294e-20) 473
(0.06500654957 0.2462225446 -1.084202172e-19) 474
(0.07275145192 0.1887418108 4.33680869e-19) 395
(0.06708706756 0.2385406161 -1.084202172e-19) 464
(0.05981291576 0.2166708214 0) 433
(0.05725024044 0.2234759806 2.168404345e-19) 443
(0.03260663556 0.2873643026 -2.168404345e-19) 530
(0.03635572774 0.272598478 2.168404345e-19) 510
(0.05402436783 0.264140223 -2.168404345e-19) 493
(0.07187846579 0.2805284083 -2.168404345e-19) 525
(0.06787004206 0.262462056 2.168404345e-19) 494
(0.05593462216 0.2909417469 1.084202172e-19) 533
(0.07298858747 0.2886976097 -3.252606517e-19) 535
(0.03240319064 0.2843320635 2.168404345e-19) 520
(0.07607807992 0.1693116363 0) 365
(0.04299724245 0.1856301679 2.168404345e-19) 391
(0.06176471236 0.1727537208 2.168404345e-19) 374
(0.04454162526 0.2325784037 -2.168404345e-19) 451
(0.03980895978 0.2094088001 -2.168404345e-19) 421
(0.0386920894 0.1734187141 3.659182332e-19) 371
(0.04828699442 0.1919419136 6.505213035e-19) 392
(0.003321266542 0.2255855707 -2.710505431e-19) 446
(0.05545783638 0.292000126 -1.084202172e-19) 533
(0.05729482973 0.2275740812 -9.486769009e-20) 443
(0.0731392763 0.1908034228 0) 395
(0.03989966381 0.2171323758 -2.710505431e-19) 431
(0.06656301926 0.1931114083 0) 394
(0.04711971894 0.2679559379 2.710505431e-20) 502
(0.05930534149 0.2706127988 0) 503
(0.07379692459 0.2340846803 2.168404345e-19) 455
(0.003433242277 0.2515806065 -8.131516294e-20) 476
(0.06636397475 0.2323795918 -1.626303259e-19) 454
(0.04137232954 0.2078028192 0) 421
(0.02215092552 0.2283711703 0) 448
(0.05922290791 0.2798057237 -2.168404345e-19) 523
(0.06571587849 0.2621542257 -1.084202172e-19) 494
(0.07582231258 0.2739645294 0) 515
(0.05875257637 0.2294901363 2.168404345e-19) 453
(0.04469973559 0.2229516443 -2.168404345e-19) 441
(0.03742155489 0.2826413082 -6.505213035e-19) 520
(0.06872373806 0.2492060575 0) 475
(0.05462214556 0.2405250497 -1.084202172e-19) 463
(0.0756185427 0.2755663227 0) 515
(0.0385520353 0.2357893929 2.168404345e-19) 461
(0.06661150213 0.2932182051 0) 544
(0.04781715886 0.2936758075 1.084202172e-19) 542
(0.05853772058 0.2490502746 2.168404345e-19) 473
(0.07196396959 0.2780128474 -2.168404345e-19) 515
(0.05629348931 0.283650674 -5.421010862e-19) 523
(0.05327326824 0.2700797959 4.33680869e-19) 502
(0.05903913341 0.2662357192 0) 503
(0.02119518776 0.1905436642 2.168404345e-19) 398
(0.05671538708 0.2024059215 -2.981555974e-19) 413
(0.07513051543 0.1843174943 -5.421010862e-20) 385
(0.07174661428 0.181139202 0) 385
(0.03502049964 0.2156675477 1.084202172e-19) 430
(0.07563915738 0.1857987565 -4.33680869e-19) 385
(0.0636421752 0.1704397935 5.421010862e-20) 364
(0.06109004984 0.2148544429 2.032879073e-19) 424
(0.05924914369 0.2340588334 0) 453
(0.04373697859 0.1853195871 -4.33680869e-19) 391
(0.04441810334 0.1859308726 -4.33680869e-19) 391
(0.0232151164 0.218623727 0) 429
(0.04251052535 0.197468031 4.878909776e-19) 401
(0.05909119744 0.2138205911 0) 423
(0.0721187845 0.2323908504 5.421010862e-19) 455
(0.05689140503 0.1723110068 -5.149960319e-19) 373
(0.03083438276 0.2368963272 4.33680869e-19) 460
(0.05433456265 0.2360758739 -4.33680869e-19) 463
(0.03651879381 0.2126455081 0) 420
(0.05787397291 0.2094609756 0) 423
(0.06804866612 0.2430407952 -4.33680869e-19) 464
(0.05862553585 0.2276405474 6.505213035e-19) 443
(0.05560044414 0.2572671954 0) 493
(0.0476629542 0.2322245149 1.084202172e-19) 452
(0.06992799268 0.2918917001 -1.219727444e-19) 535
(0.06387059683 0.2594866474 1.084202172e-19) 494
(0.07106714461 0.1947281971 0) 405
(0.06383618328 0.2391245018 -5.014435048e-19) 464
(0.04299241613 0.2467785812 4.33680869e-19) 471
(0.03801575989 0.2721588053 2.168404345e-19) 510
(0.03581847725 0.2436940314 -2.168404345e-19) 470
(0.02367448661 0.2612939637 -2.168404345e-19) 489
(0.06828538504 0.2433955431 -2.168404345e-19) 464
(0.07413344635 0.2685596351 -1.084202172e-19) 505
(0.05066683564 0.2704702404 -4.33680869e-19) 502
(0.06206538865 0.2633561977 0) 494
(0.0558691471 0.2962536126 2.168404345e-19) 543
(0.06531283519 0.2874833022 0) 534
(0.05149340994 0.2488517599 6.505213035e-19) 472
(0.06355984056 0.2725768164 1.084202172e-19) 514
(0.05220560469 0.2730377902 -2.168404345e-19) 512
(0.0619877099 0.2859182703 -4.33680869e-19) 534
(0.06557680525 0.2818474872 0) 524
(0.06534675624 0.2624359466 5.421010862e-20) 494
(0.0583604034 0.1906195094 3.252606517e-19) 393
(0.01272965469 0.1884666942 -5.421010862e-19) 387
(0.05345492725 0.1743064022 2.168404345e-19) 373
(0.05253706163 0.2052148185 2.168404345e-19) 412
(0.07338083434 0.1784260528 -1.084202172e-19) 375
(0.05102544101 0.2455720057 0) 472
(0.05605428673 0.1908062912 2.168404345e-19) 393
(0.02096955785 0.2245335074 0) 438
(0.07245990925 0.1823248442 4.33680869e-19) 385
(0.03401933609 0.1753629331 2.168404345e-19) 370
(0.03488983851 0.1990851294 2.168404345e-19) 410
(0.07229441342 0.2003929251 -2.168404345e-19) 405
(0.07020526647 0.1949066686 0) 405
(0.07509104469 0.2098443573 -4.33680869e-19) 425
(0.07475599088 0.2122037445 -2.710505431e-20) 425
(0.06326806383 0.2754398642 -8.131516294e-20) 514
(0.04397929713 0.2420623658 0) 461
(0.04537176271 0.1904522326 -4.33680869e-19) 391
(0.05225569509 0.2152390275 0) 432
(0.05610359389 0.2292492022 1.084202172e-19) 453
(0.06782662483 0.2505812114 -2.168404345e-19) 474
(0.05963120225 0.2520800408 -4.33680869e-19) 483
(-0.006763254284 0.169070777 -3.523657061e-19) 19
(0.05433735985 0.2263682707 -2.168404345e-19) 443
(-0.009868073983 0.2698449999 -5.421010862e-19) 278
(0.07571084156 0.1962530033 -4.33680869e-19) 405
(0.06176772196 0.1751466494 2.168404345e-19) 374
(0.06387394058 0.2378456568 2.168404345e-19) 464
(0.03140677078 0.2469259824 1.084202172e-19) 470
(0.002308323199 0.2859506572 -3.252606517e-19) 526
(0.05821091459 0.2162405683 2.168404345e-19) 433
(0.02802991764 0.2302993199 -8.131516294e-20) 449
(0.06590476001 0.2691703311 1.084202172e-19) 504
(0.07576814631 0.2356859465 2.168404345e-19) 455
(0.01431020786 0.2808433922 1.626303259e-19) 517
(0.05104071509 0.2732247472 4.33680869e-19) 512
(0.059463389 0.2731730837 0) 513
(0.05008989669 0.2084487448 6.505213035e-19) 422
(0.0487081892 0.2813168642 5.065257025e-19) 522
(0.05717948382 0.2941410166 -2.168404345e-19) 543
(0.05215440669 0.2924768298 -2.168404345e-19) 532
(0.07207321652 0.2598300832 -2.710505431e-19) 495
(0.02614611057 0.2895638998 4.573977915e-19) 529
(0.01151976904 0.2876797974 -4.33680869e-19) 527
(0.03375251294 0.1977149893 0) 400
(0.0499537676 0.2102425824 1.355252716e-20) 422
(0.03977896837 0.1736432764 5.421010862e-20) 371
(0.06911796342 0.2078914754 0) 415
(0.05761686959 0.2216580642 1.626303259e-19) 433
(0.05061632961 0.1666342456 0) 362
(0.06031740742 0.1763643172 0) 373
(-0.009407440788 0.2044538096 0) 118
(0.04154390014 0.1877327798 -7.453889936e-20) 391
(0.07167104876 0.2101005039 -1.084202172e-19) 425
(0.06702676725 0.2247425413 -3.252606517e-19) 444
(0.06762186121 0.2039823468 1.084202172e-19) 414
(0.04321897554 0.2255722293 0) 441
(0.07107201471 0.1725672312 1.084202172e-19) 365
(0.03322355891 0.2026355667 -2.168404345e-19) 410
(0.06559584033 0.228527155 3.252606517e-19) 444
(0.03067303555 0.1863813192 0) 390
(0.0433978942 0.2244411355 -2.168404345e-19) 441
(0.0702656983 0.2182908627 0) 435
(0.0741625962 0.2381685778 -2.168404345e-19) 465
(0.03281157435 0.2021816145 -5.421010862e-20) 410
(0.04920092062 0.2473741194 1.084202172e-19) 472
(0.01472787536 0.2155596129 -2.168404345e-19) 427
(0.0533338001 0.2194719605 -4.33680869e-19) 432
(0.06267988783 0.2304304082 0) 454
(0.05318223193 0.2454889716 2.168404345e-19) 472
(0.03489561058 0.2520902859 5.421010862e-20) 480
(0.06909854969 0.2858334563 1.084202172e-19) 525
(0.07273822583 0.2462345516 1.084202172e-19) 475
(0.05664533764 0.2099689357 -4.878909776e-19) 423
(0.07565004439 0.2878240564 4.33680869e-19) 535
(0.05674565521 0.2737751034 8.131516294e-20) 513
(0.05752478264 0.2620001723 -8.131516294e-20) 493
(0.06128477994 0.2382262446 2.168404345e-19) 464
(0.04707225723 0.1799980883 1.084202172e-19) 382
(0.07207457279 0.271815717 0) 505
(-0.04165404622 0.2890565266 2.710505431e-20) 334
(0.06530847186 0.2853617035 1.084202172e-19) 524
(0.07098548147 0.2664516932 -4.33680869e-19) 505
(0.04403712683 0.2546363819 0) 481
(0.03610664059 0.2877741187 5.421010862e-19) 530
(0.06852043979 0.2533711398 -2.168404345e-19) 484
(0.06626883392 0.2409915489 3.252606517e-19) 464
(0.03520100591 0.271571407 0) 510
(0.07396943908 0.212120044 2.981555974e-19) 425
(0.06867310346 0.2640694079 2.168404345e-19) 495
(0.02921938143 0.2781160918 0) 519
(0.05639991554 0.1780029658 -2.168404345e-19) 373
(0.04016220382 0.1861022303 1.084202172e-19) 391
(-0.01084626119 0.1987135858 -3.760826286e-19) 98
(-0.01239876261 0.1801235034 -2.168404345e-19) 58
(0.07027409941 0.2302772721 6.505213035e-19) 455
(0.06476007223 0.2059677995 2.168404345e-19) 414
(0.06438202621 0.2052157377 5.421010862e-20) 414
(0.06360399764 0.1916311464 9.486769009e-20) 394
(0.04613000582 0.2364569153 1.626303259e-19) 462
(0.04495693358 0.2079033062 0) 421
(0.06403623471 0.1833002706 -2.710505431e-19) 384
(0.03608375637 0.2135038898 2.168404345e-19) 430
(0.04319095417 0.2254323913 0) 441
(0.07088876931 0.2478328324 -5.421010862e-20) 475
(0.02041367141 0.1986800423 -4.33680869e-19) 408
(0.06690949802 0.2233529279 -2.168404345e-19) 444
(0.06611054734 0.1965407011 -1.084202172e-19) 404
(0.05193738329 0.2329424923 0) 452
(0.05900159186 0.1915657414 0) 393
(0.06938588262 0.2391194697 0) 465
(0.01887619532 0.2473439051 6.505213035e-19) 468
(0.05688851783 0.2239018972 8.131516294e-20) 443
(0.04510819545 0.2427019534 -2.168404345e-19) 471
(-0.004036106967 0.2052083324 2.710505431e-19) 119
(0.06332709733 0.230009595 0) 454
(0.06373891412 0.2666316932 -3.252606517e-19) 504
(0.03392558077 0.2190138432 2.168404345e-19) 430
(0.04928352293 0.2521511527 -2.168404345e-19) 482
(0.03489728348 0.2072459503 2.168404345e-19) 420
(0.04930470823 0.2352016036 2.168404345e-19) 452
(0.06957362334 0.2269900331 0) 445
(0.03086677709 0.2178750982 0) 430
(0.04687860461 0.2381357416 0) 462
(0.07107388848 0.262810693 0) 495
(0.02284524873 0.2722487948 -2.168404345e-19) 508
(0.05462913223 0.2531368651 -2.168404345e-19) 483
(0.04010302331 0.2650513309 0) 501
(0.03992690852 0.2551548084 -1.355252716e-19) 481
(0.04509632364 0.270276987 0) 501
(0.04733252143 0.2913697127 2.710505431e-19) 532
(0.0131622206 0.2734330499 0) 507
(0.0741906261 0.2991928392 0) 545
(0.02808016211 0.2711428085 2.168404345e-19) 509
(0.07025169044 0.2698383251 3.252606517e-19) 505
(0.06698270713 0.1885806018 2.168404345e-19) 394
(0.03306361556 0.1781603741 0) 380
(0.05224383832 0.2062724792 2.168404345e-19) 412
(0.04047198672 0.17574939 0) 371
(0.04859661091 0.2010863332 -1.084202172e-19) 412
(0.02429861138 0.1949437838 -2.168404345e-19) 399
(0.02967649763 0.1798671 0) 379
(0.04253053725 0.1925688092 0) 401
(0.01785501728 0.1778308501 -1.626303259e-19) 378
(0.06869552783 0.2214155614 -2.168404345e-19) 435
(0.0154110972 0.1897042744 2.710505431e-19) 398
(0.0416335148 0.2120287652 -2.168404345e-19) 421
(-0.008577596594 0.2250894692 0) 178
(0.01406067043 0.2210407995 1.084202172e-19) 437
(0.05601570929 0.236211794 -1.084202172e-19) 463
(0.04655157436 0.2242837446 -2.168404345e-19) 442
(0.05514023157 0.2254128817 5.149960319e-19) 443
(0.05921065032 0.2300444045 0) 453
(0.04143048517 0.2290316832 2.168404345e-19) 451
(0.02720402596 0.2370312016 -3.794707604e-19) 459
(0.05682348708 0.2317611637 -4.33680869e-19) 453
(0.02355087255 0.2189671108 5.421010862e-20) 429
(0.02260165571 0.2190787946 0) 428
(0.06792310763 0.2473151471 0) 474
(0.03171465762 0.2362584182 -1.084202172e-19) 460
(0.06955545261 0.2098235097 -1.084202172e-19) 425
(0.05528317128 0.2729131268 0) 513
(0.02121408478 0.1987620766 -2.168404345e-19) 408
(0.03160094502 0.2143629352 -5.421010862e-20) 430
(0.06185790999 0.2436566585 0) 474
(0.0005801680934 0.2223022898 -3.252606517e-19) 436
(0.03790778004 0.2587406572 4.33680869e-19) 490
(0.04186878303 0.2459657559 0) 471
(0.04272427092 0.2475820614 -1.084202172e-19) 471
(0.04991555549 0.2359737644 0) 462
(-0.001872239965 0.2589335902 2.168404345e-19) 259
(0.0740504239 0.2720281314 4.33680869e-19) 515
(0.05054579375 0.2724269072 2.168404345e-19) 512
(0.02360034999 0.253762584 0) 479
(0.0679812858 0.2642497277 0) 494
(0.0617353526 0.2589372668 -2.710505431e-19) 494
(0.0255627119 0.286256929 -2.168404345e-19) 529
(0.04421815524 0.2521712765 -1.084202172e-19) 481
(0.02858136988 0.2758935735 0) 509
(0.06172760795 0.2613122751 0) 494
(0.02334034827 0.2747220056 1.897353802e-19) 509
(0.051657903 0.2944614542 -2.168404345e-19) 542
(0.03606783866 0.2877656621 -1.084202172e-19) 530
(0.0374803998 0.2748465388 0) 510
(0.06952572337 0.2581972293 0) 495
(0.04477482835 0.2889949285 -1.355252716e-19) 531
(0.07306032303 0.2014277233 -3.794707604e-19) 405
(0.06183091689 0.1779847471 0) 374
(0.06150313369 0.1785944217 2.168404345e-19) 374
(0.03520190479 0.1790129646 2.168404345e-19) 380
(0.04635611133 0.1707007305 4.33680869e-19) 372
(0.02558499069 0.1732690835 -1.626303259e-19) 369
(0.04107158503 0.1838946209 0) 381
(0.07078046486 0.2069026956 1.626303259e-19) 415
(0.04350752026 0.1955547446 1.084202172e-19) 401
(0.04096683108 0.1843154969 0) 381
(0.02968687754 0.1914541926 0) 399
(0.04220415735 0.1678374689 1.355252716e-19) 361
(0.05375425942 0.1953365827 -2.168404345e-19) 403
(0.02565280645 0.1917469936 3.252606517e-19) 399
(0.03232894017 0.1988901291 0) 410
(0.03961635053 0.2533853743 1.084202172e-19) 481
(0.05389040418 0.2121847495 -1.084202172e-19) 423
(0.04080967744 0.1795876783 -3.252606517e-19) 381
(-0.005813296045 0.2156591611 0) 139
(0.05284063193 0.1822090713 2.168404345e-19) 382
(0.03203345596 0.2195024553 1.084202172e-19) 430
(0.03279468742 0.212789125 2.168404345e-19) 430
(0.06586396772 0.2260420805 -1.084202172e-19) 444
(0.07330948823 0.1899436454 -1.084202172e-19) 395
(0.04219057477 0.1931486324 -2.168404345e-19) 401
(0.06528720325 0.230526599 2.168404345e-19) 454
(0.06654721406 0.2439713689 -2.168404345e-19) 474
(0.0551288395 0.2081485658 0) 423
(0.04738304237 0.2288213971 2.168404345e-19) 452
(0.06230151478 0.2224682693 2.168404345e-19) 444
(0.03841962369 0.2438284204 -2.168404345e-19) 471
(0.05484747993 0.2189686364 0) 433
(0.03987816002 0.2463509181 -1.084202172e-19) 471
(0.0573209651 0.2180310773 -2.032879073e-19) 433
(0.03978710171 0.237149915 0) 461
(0.06007366253 0.2086122412 2.168404345e-19) 423
(0.05343888598 0.247321878 1.084202172e-19) 473
(0.06138702039 0.2444614831 -1.084202172e-19) 474
(0.05893120853 0.2364838985 -2.168404345e-19) 463
(0.02549857283 0.2519418522 -2.168404345e-19) 479
(0.04975398676 0.2987257398 1.897353802e-19) 542
(0.04984466831 0.2550657759 5.963111949e-19) 482
(0.05240849909 0.2452244775 0) 472
(0.02964214208 0.2529071418 -2.168404345e-19) 479
(0.06024661638 0.2706140448 -2.168404345e-19) 503
(0.07232655419 0.287424705 1.355252716e-19) 535
(0.03501540314 0.2043061982 1.084202172e-19) 410
(0.02457327075 0.287503012 -2.168404345e-19) 529
(0.01748474704 0.2817234538 6.776263578e-20) 518
(0.04663598892 0.2741980674 0) 512
(0.06150478793 0.2224325814 -2.168404345e-19) 444
(0.07365468458 0.2835949445 0) 525
(0.05850024919 0.2745746988 0) 513
(0.003482136525 0.2987832999 2.168404345e-19) 536
(0.01446721498 0.2595924113 -2.168404345e-19) 487
(0.05263465446 0.2925696379 2.168404345e-19) 532
(0.06665692382 0.2928711132 -2.168404345e-19) 534
(0.05457649216 0.2939134167 2.168404345e-19) 543
(0.05027029512 0.2489060272 -2.168404345e-19) 472
(0.04458230401 0.1974609777 2.168404345e-19) 401
(0.03716859503 0.1802207128 1.084202172e-19) 380
(0.05441538113 0.1741479384 -2.168404345e-19) 373
(0.05087232454 0.1890948584 2.168404345e-19) 392
(0.04665132745 0.1736027124 -4.33680869e-19) 372
(0.0566849923 0.2051242605 -5.421010862e-20) 413
(0.03313045773 0.192130446 0) 400
(0.06494994327 0.1762689366 -6.776263578e-21) 374
(0.01628028511 0.1738295496 2.710505431e-19) 368
(0.06184004064 0.2044307331 -2.507217524e-19) 414
(0.03673214463 0.2122732599 2.168404345e-19) 420
(0.04913659799 0.2320235429 0) 452
(0.03071159469 0.2217659588 -4.33680869e-19) 440
(0.01781982725 0.2405324501 0) 458
(0.03186429502 0.2008792702 -3.252606517e-19) 410
(0.03752949765 0.2158245366 -3.252606517e-19) 430
(0.0534168451 0.2163085737 0) 433
(0.02270751289 0.1791225153 -4.33680869e-19) 378
(0.0500848439 0.1971625863 5.421010862e-20) 402
(-0.005785831156 0.2563962058 0) 259
(0.04181733212 0.176185294 0) 371
(0.04638903464 0.2024093477 0) 412
(0.04633677385 0.1932132772 5.421010862e-20) 402
(0.0498529547 0.216818162 2.168404345e-19) 432
(0.05202410449 0.244505637 -4.33680869e-19) 472
(0.05739226296 0.2379003089 -2.168404345e-19) 463
(-0.03245929451 0.2399913192 0) 195
(0.06914089155 0.2454679504 -3.252606517e-19) 475
(0.04624411303 0.2008140167 -1.084202172e-19) 412
(0.04400781351 0.194174379 1.084202172e-19) 401
(0.02127201873 0.2187467673 0) 428
(0.04769209568 0.2513207646 2.168404345e-19) 482
(0.06473738759 0.2495595804 2.168404345e-19) 474
(0.06604318535 0.2704209512 1.084202172e-19) 504
(0.04057854849 0.2350400496 0) 461
(0.04984142004 0.2417973732 2.981555974e-19) 462
(0.03958546554 0.2366339926 2.439454888e-19) 461
(0.03787476897 0.2599112818 -2.168404345e-19) 490
(0.05492489534 0.2503661983 -2.168404345e-19) 483
(0.01984591469 0.2651537122 -5.421010862e-19) 498
(0.06897031868 0.2388119982 -2.168404345e-19) 465
(0.02174344202 0.2569170109 0) 488
(0.07386512057 0.2405346214 -5.421010862e-19) 465
(0.0526805268 0.286039351 0) 532
(0.01733109209 0.2243501969 4.878909776e-19) 438
(0.04384886158 0.2510728851 -2.168404345e-19) 481
(0.03108404451 0.2944871565 0) 540
(0.0558698997 0.2687976918 0) 503
(0.06466783616 0.2661116019 -4.946672412e-19) 504
(0.03264174565 0.219498865 0) 430
(0.05705034838 0.2715707178 -1.490777987e-19) 513
(0.0195739325 0.2676968153 0) 498
(0.07166994429 0.2973310836 2.981555974e-19) 545
(0.03995030932 0.2867957713 0) 531
(0.03033979694 0.2334080058 0) 449
(0.004969452106 0.2541730334 2.168404345e-19) 476
(0.04431766481 0.2955096219 -3.252606517e-19) 541
(0.03028579578 0.2978809764 0) 539
(0.04924013635 0.2966930674 -3.667652662e-19) 542
(0.0292569111 0.2825267923 2.168404345e-19) 519
(0.03589412112 0.2975422864 -1.084202172e-19) 540
(0.02959192084 0.2929790093 0) 539
(0.03487781757 0.209041801 3.930232875e-19) 420
(0.02777746572 0.2150581249 -1.626303259e-19) 429
(0.04621177357 0.1893552969 -1.084202172e-19) 392
(0.06688827571 0.1666893414 0) 364
(0.03591685168 0.1922801272 0) 400
(0.03148358926 0.2074603939 4.33680869e-19) 420
(0.03481405804 0.2406725475 -3.794707604e-19) 460
(0.002805134188 0.171091025 2.168404345e-19) 366
(0.03291439339 0.1883916078 -3.252606517e-19) 390
(0.04047842361 0.2144704216 2.168404345e-19) 431
(0.02259046299 0.2018943403 4.33680869e-19) 408
(0.005395599907 0.2079758651 -2.168404345e-19) 416
(0.03222384276 0.2495199622 -2.168404345e-19) 480
(0.0349933676 0.2026905949 -1.084202172e-19) 410
(-0.003780824898 0.2316420196 6.776263578e-21) 179