/*--------------------------------*- C++ -*----------------------------------*\
| =========                 |                                                 |
| \\      /  F ield         | OpenFOAM: The Open Source CFD Toolbox           |
|  \\    /   O peration     | Version:  2406                                  |
|   \\  /    A nd           | Website:  www.openfoam.com                      |
|    \\/     M anipulation  |                                                 |
\*---------------------------------------------------------------------------*/
FoamFile
{
    version     2.0;
    format      ascii;
    arch        "LSB;label=32;scalar=64";
    class       vectorField;
    location    "0.012/lagrangian/dsmc";
    object      U;
}
// * * * * * * * * * * * * * * * * * * * * * * * * * * * * * * * * * * * * * //


5153
(
(1135.034844 -308.9007405 -460.0428999)
(1298.951329 196.4220918 -224.8581505)
(1277.954196 42.29055189 452.7255647)
(1147.176433 -522.502991 -43.25964883)
(1234.458184 128.4962723 105.8118013)
(1649.464605 -176.9099729 -116.3047297)
(1196.261993 8.151479552 67.02588273)
(1842.62105 -45.0902172 -19.45164695)
(958.8099672 -326.3504562 -74.54902337)
(1428.749259 128.9704098 604.4577564)
(1312.328535 -466.0187428 -97.14405496)
(1471.7595 -575.6401662 -1.469396733)
(1597.569195 -46.81886158 142.0853347)
(2210.573081 -682.3411133 249.2612889)
(1699.812554 359.971594 742.2019973)
(906.2467621 257.1552388 -7.680856317)
(1801.327149 104.7699692 -257.4269053)
(1503.256178 298.8737684 -226.3736489)
(1054.794592 -18.17573628 12.39754784)
(1343.282043 -387.8870165 -155.1377943)
(1359.825647 -280.2899302 287.397239)
(1208.98635 -244.4529969 263.8191469)
(1920.441281 -46.58583292 -335.4253686)
(1187.204064 -4.527971206 -171.1364112)
(1656.571157 219.123936 183.5437686)
(1281.08772 2.60794711 -100.7119185)
(1167.618784 -370.5304557 -84.37923732)
(1435.687945 285.3784427 54.77424908)
(1268.098981 103.0569228 -319.021415)
(1536.550891 -463.9033159 171.8798086)
(1519.228329 -275.4883043 -458.4859647)
(1536.910148 510.9796462 198.9004727)
(1676.972514 -125.0343325 -471.717656)
(915.4500346 172.6814174 105.274039)
(1494.160486 -131.7266506 230.5448039)
(1117.435146 -249.6951204 -92.06398106)
(1829.475387 -329.5445028 -210.9899412)
(1377.996919 96.52715791 -187.4652871)
(1945.310507 -27.09194685 719.8738902)
(1494.872159 -168.3663962 -79.86157005)
(1083.334138 561.9038117 -980.1399036)
(2046.072487 479.7289091 183.9016936)
(989.1562317 -162.4148138 192.1881833)
(1527.508993 -153.1933715 433.8774146)
(1220.201719 -301.6449198 -60.65738611)
(1352.341708 644.4237562 -507.3516336)
(1052.239404 -407.6337225 -26.06837753)
(1759.943983 -290.2046335 80.98921648)
(1587.671739 399.9943482 -304.0585739)
(2067.303834 558.4524442 -266.2554959)
(1734.93121 -293.940913 -199.3589272)
(1176.707364 -282.3855344 307.6706979)
(1525.8405 101.7559388 226.2632304)
(1062.93938 -142.442873 -542.9209143)
(2417.879907 289.4827591 154.4322242)
(1531.843239 85.35750738 43.50157876)
(1598.651128 97.1873563 115.2288179)
(1430.890532 206.1773337 -309.6249216)
(1959.312761 -81.1300135 156.0836248)
(1454.135258 99.90919293 41.23794641)
(1841.640016 -179.8261899 495.2401438)
(1635.67046 261.9910654 -38.75228968)
(1901.188747 -170.4308863 228.7849402)
(1594.537311 -402.4807915 379.4436427)
(1381.654386 -522.6380679 -260.3973985)
(1576.934667 -336.8324181 38.51423512)
(1781.727789 403.4164842 358.0010907)
(1092.220321 107.3462597 502.2721777)
(1735.608844 155.9989288 103.5926999)
(1269.558921 -271.84708 144.6807458)
(1433.970444 520.3286759 -680.0194588)
(1760.595936 292.6459772 -170.0243588)
(1485.20052 -240.7387012 250.8613192)
(1938.99112 256.9694886 125.6643181)
(1164.984949 -268.572488 654.8000963)
(1846.823501 182.8863163 49.8535882)
(1503.114703 -35.78555682 -122.924876)
(937.963603 -206.0348389 464.2858435)
(1572.371724 113.4460964 106.9167509)
(1753.257738 132.8426461 92.94168976)
(1490.579455 188.6456707 56.90614662)
(881.520153 585.6164627 -256.4202196)
(1256.261959 -296.2166672 462.3243706)
(1411.7841 366.9200725 -329.9815541)
(1343.049891 -76.85007512 273.3752081)
(2007.993685 -99.44206686 261.8450181)
(1324.740552 -116.5907157 -265.8311234)
(1188.727821 -246.8686034 35.30201497)
(1854.665992 71.38810622 270.3202179)
(1613.677656 288.5271178 -467.2681826)
(1271.663858 163.7669856 597.0314621)
(1258.798124 -40.80635142 -150.3028626)
(1521.504514 -152.8042903 71.71251464)
(2130.004853 -44.82061442 198.2718137)
(1337.475326 -337.1753722 -578.2957416)
(1593.136099 293.9674327 -84.68690636)
(1408.017307 -130.1407433 -262.015684)
(1523.736647 282.6638801 -102.5136651)
(1777.339948 -609.2457579 -136.9781118)
(1679.762916 -89.61319124 607.8653697)
(1562.997145 -233.6322442 -393.7895965)
(2064.322082 110.891359 -410.5850229)
(2153.708385 -43.64818229 7.672765291)
(1529.970299 105.456124 -89.25952131)
(1311.18122 -405.5308362 -181.4213134)
(2042.932233 -8.16429843 -164.4502376)
(2047.146077 -121.3751422 -134.9928945)
(1346.773645 865.205528 -311.8563612)
(1654.697121 -63.62522712 518.0787552)
(1769.630515 -45.68044008 -233.0996327)
(1442.609277 523.6329563 260.3509615)
(1187.599127 -371.2524442 214.2504946)
(1673.613923 137.7550984 169.4343577)
(1127.098496 -385.9677215 633.2630143)
(1580.471061 217.7960535 -283.3477011)
(1670.086181 -250.0803444 -146.1997295)
(1045.103069 -216.5621898 -376.2826025)
(1865.738972 -367.3351907 -304.0528678)
(1229.105995 -48.28594471 111.6124961)
(1749.487003 109.0232374 352.515375)
(1455.380467 -550.2216315 -23.77798489)
(1464.43788 193.9199526 237.9002943)
(1450.370494 -124.543432 -220.7122035)
(1342.435669 -241.5377976 297.9221098)
(1801.395363 -505.9491156 2.820471346)
(1559.002657 38.572949 98.4926215)
(1846.336231 244.6823112 188.4221901)
(1920.37232 -36.05530207 -140.9054316)
(1548.457582 373.8907401 338.071891)
(1775.235054 -42.70263593 -504.7809358)
(1246.817274 -438.0115469 -106.3545992)
(1084.415045 430.0694953 149.5601738)
(1693.512509 -720.9415525 -166.0654838)
(1880.026808 132.4957723 -127.3359371)
(1921.06828 57.58336596 -122.3582129)
(2124.99142 289.3297767 -250.6217783)
(1717.505979 409.9056583 546.5446137)
(1773.679637 230.3905425 118.7032675)
(1617.054899 -66.12428965 275.7038879)
(1930.419281 155.25315 -69.31672753)
(1698.495458 557.4251389 -244.8678482)
(1330.594799 431.8385661 186.5513393)
(1829.315765 -491.7774273 -239.8765189)
(1601.049451 -241.7913587 363.8350928)
(1589.496564 6.773827916 -339.1342722)
(1435.997621 -59.92524708 -207.2776895)
(2099.051147 208.99917 -317.245685)
(1090.979131 70.22654404 375.0681782)
(1629.761691 -307.7652447 -64.54018788)
(1684.630397 124.9324026 348.32818)
(1113.246745 164.7220585 -141.8211174)
(1880.369393 -234.5019491 -371.5599964)
(1256.169205 -100.5597149 -466.0564924)
(1261.215744 183.5026634 71.42623209)
(1648.785365 -101.9586602 -78.92166748)
(1471.450601 -317.2163366 204.9470426)
(1467.03972 518.749167 91.6394505)
(1267.669676 -497.0422498 -464.6708301)
(1320.22059 597.3740463 -286.1069932)
(1662.296003 193.7992249 229.3217272)
(1934.342018 -341.9605427 -23.04188243)
(1740.267004 155.2652709 -743.8112733)
(2179.344116 763.8991691 -52.64529819)
(1529.046623 -74.57273206 -596.2151881)
(1399.77879 242.5752955 496.3725296)
(1749.884724 92.20549996 56.28878209)
(1825.43643 -504.0151278 26.51438816)
(1453.342598 -353.4785272 499.691709)
(1314.196406 -69.95714149 -366.7919608)
(1595.185886 -132.4241805 -228.5858763)
(1661.200628 -152.7762323 201.3164505)
(1689.42657 -185.3756869 -77.38765893)
(1366.794556 339.1898804 188.6637224)
(1291.499088 8.238881974 322.0063632)
(1655.795504 -6.514458294 136.5366722)
(1463.042594 462.624421 250.6789193)
(1557.088916 133.3226604 16.54336768)
(1461.002839 -279.1008043 -72.64014316)
(1736.18539 41.84521319 -115.5377602)
(1432.770283 338.361552 115.6626924)
(1732.254129 -374.9496398 -518.6296195)
(1561.211555 300.3816625 -101.3671117)
(1157.48872 -51.27930269 -33.64068068)
(1827.978835 359.8329171 -711.4411885)
(1188.21334 257.1546918 -48.43842544)
(2081.134771 -237.6483907 9.891444205)
(1517.071435 -105.5304252 307.4534581)
(1560.210209 -46.05858619 -307.4135127)
(1633.948159 407.2673205 456.6479379)
(1450.440515 -389.9276946 48.97375403)
(1152.856288 -55.75466702 -94.73910287)
(1616.887901 -136.5820337 63.81711506)
(1570.625483 533.759192 -449.4717616)
(1712.492705 101.3730116 85.81240927)
(1468.81783 -177.4474011 -201.7810147)
(1114.914795 -679.1582249 2.766436023)
(1745.915808 292.5910713 18.15408193)
(1465.777892 325.9223251 205.7112242)
(2071.11896 -215.601704 202.2522142)
(2027.073355 403.2911059 135.2294182)
(1816.32931 153.4519226 -106.3246156)
(1676.679926 -192.1290766 41.65509887)
(1187.873138 227.393345 -639.660796)
(1751.021305 353.6745755 -252.0825884)
(1187.390935 13.61583365 486.1848242)
(1534.277589 109.6662661 74.78250967)
(1956.166101 -222.4294457 543.3391282)
(1017.725509 262.4384087 374.1882098)
(2101.378185 373.8074741 505.8088883)
(1423.770133 -162.2300293 -388.616231)
(1640.573126 -348.7695811 -605.767334)
(1713.121564 402.5442026 -449.2046384)
(948.447864 -148.4438025 382.8410375)
(1974.661627 66.833194 -525.0116862)
(1603.562821 -23.76186512 284.5685346)
(1706.288056 -202.4620236 124.3568067)
(1649.549982 -176.2965125 353.4325402)
(1735.54855 549.4108814 234.0183475)
(1373.084891 -128.7367139 -156.2268773)
(1264.04814 8.575672511 -317.6305971)
(1609.589777 387.9831333 -442.3039637)
(1601.134831 -98.23595559 -356.8094975)
(1248.39702 198.7180581 -123.33659)
(1434.41595 88.18504031 -396.7398935)
(1350.398262 75.08609455 -233.9402926)
(1799.149826 133.8786094 461.6259973)
(1517.139771 -439.4807553 229.3537334)
(1611.11631 250.648151 -338.2795355)
(1383.620103 193.4635503 4.773423742)
(1566.432122 130.981559 -325.3869087)
(1607.958502 -538.8747364 4.466619835)
(1964.011205 -107.3862145 352.7570346)
(1863.364812 -446.2319251 -182.6905297)
(1967.299059 -280.0482799 -235.7156634)
(1164.715553 139.3863437 -61.89431172)
(1601.120546 39.92573876 -8.159524537)
(1833.206013 -244.4175449 272.6786886)
(1803.492174 62.16003137 277.190984)
(1998.29222 -539.1668286 306.0554096)
(1445.40268 29.95279214 -438.7548796)
(1725.891115 386.4411932 -493.4801154)
(1577.741611 -356.2812626 -71.7469423)
(2275.408463 528.4601609 318.5395757)
(921.5990225 125.3199531 -63.75419307)
(1467.718707 68.68560418 116.8782996)
(1296.563057 384.5790044 -81.86027177)
(1755.083756 -219.055826 364.6768512)
(1636.543147 -429.8486838 -123.3289019)
(1882.930438 -508.5493074 -123.0885325)
(1439.36698 483.9842152 70.58183962)
(1750.974868 363.4633164 394.6879577)
(1925.198478 156.667848 380.2758248)
(1082.57343 142.5022481 443.2348482)
(1717.424095 342.2696628 390.7724846)
(1332.468401 89.43745874 -87.64592893)
(1296.31835 -147.4144474 -447.6475182)
(1846.832558 85.93022649 77.49008729)
(1806.422485 -21.09171021 -348.1723418)
(2060.594649 317.383853 -310.8981795)
(1788.866568 -460.4124219 -27.69180611)
(1546.827073 -285.4306102 363.2389047)
(1717.997785 -341.497438 -143.7032415)
(1638.861359 436.6496188 -153.8878856)
(1618.328864 -107.5398992 -111.3979717)
(1535.540133 -157.1701957 -231.9451295)
(1263.029613 -329.1336128 -71.75589187)
(2077.437498 -230.5410618 -104.5109185)
(982.8512658 -17.93763309 -255.881117)
(1160.217972 -86.65413745 -77.24669316)
(2120.580131 258.0602403 119.9107411)
(1399.085511 138.4832903 -26.63364894)
(1285.345069 -268.0181238 -243.1213834)
(1144.452474 -671.7538933 -318.3485097)
(1610.515749 120.0260502 12.2638231)
(1501.379206 73.43998559 -337.8523034)
(1606.447786 -235.0503222 482.6745603)
(1778.035339 28.9746401 13.61886964)
(1490.108283 128.3544872 469.0468739)
(1592.225577 29.94057452 -19.73135728)
(2011.222182 -188.4639245 384.8004376)
(1731.72921 -94.95352476 -385.8906984)
(1833.834087 481.8183745 206.4509863)
(1313.413583 45.41613208 51.14176116)
(887.1733829 -162.9332898 -476.6050181)
(1680.109536 -31.5262452 -435.7260382)
(1734.73345 -213.7486767 -183.8974893)
(2055.709852 134.8556084 341.2239355)
(1736.873286 -510.5204131 17.06502649)
(2003.710243 -292.6541007 94.90322594)
(1404.340121 176.7431625 507.2693214)
(1732.304823 -73.96116959 -39.28282281)
(1479.177122 148.9539256 -366.656628)
(1539.141933 123.0350544 187.3322886)
(2002.638051 -457.1082667 70.8750185)
(1935.808274 -9.196312524 -198.9711884)
(1622.870113 101.3807383 45.7451413)
(1667.953772 500.2289695 -536.4479931)
(1764.666609 368.1444539 71.83146859)
(1746.680994 120.2538843 -544.7819558)
(1601.530673 -190.5004533 -158.965864)
(1532.917735 430.6139762 -378.4076611)
(1793.55519 -615.2499354 -124.1281426)
(1705.375616 101.1183043 -399.7064405)
(1476.174314 -196.9007743 -221.6123648)
(1314.156686 -320.7270107 -125.2749449)
(1928.691724 -13.40377193 -180.988559)
(1842.696687 103.934732 -53.10024664)
(1824.978916 -107.5355787 -41.06358664)
(1691.974466 -206.9581249 125.542132)
(1479.902716 129.517536 287.3061965)
(1842.737409 -220.3831397 81.62171289)
(1956.842871 -420.1307704 202.8495292)
(2252.482613 110.2160593 -160.9665813)
(1480.321657 92.71211243 239.4733888)
(2030.951274 -12.18136233 -91.7973278)
(1757.488732 -197.5171172 590.0940639)
(1760.806422 -93.15992871 333.7075024)
(1843.417779 346.1676684 215.1708466)
(1244.54562 228.9419314 239.7438331)
(1730.540372 -183.8875975 36.64535007)
(1773.889089 -327.7095406 297.1445566)
(1938.505651 149.3940381 -757.5709773)
(1215.850932 1.115000637 -221.0358108)
(1755.633159 -166.1023473 -5.424812408)
(1409.083845 101.3631114 239.3814098)
(1649.626884 -121.4730595 -79.06712624)
(1522.373105 -475.0337255 -151.9133643)
(1386.165995 -118.047781 -178.5525441)
(1218.074142 -149.9368095 -16.18589678)
(1809.828087 -495.7987596 3.464278654)
(1757.802347 -6.101873292 -462.9558057)
(2100.421964 -102.0518563 174.7087197)
(1576.995124 479.1149617 -123.9816127)
(1998.470422 -416.5880707 -250.3682395)
(2113.120104 486.9516756 517.8527981)
(1245.747846 -54.49848224 -116.9701425)
(1701.797038 412.6923513 170.3829499)
(2064.798336 297.5395807 -388.4274303)
(1473.804284 -100.6993476 486.2295915)
(1061.37382 82.8980543 -10.15379411)
(1666.735615 -588.1191582 106.7288113)
(1263.234726 -610.2495873 -91.59854796)
(1582.334397 -489.3536425 73.16487755)
(1955.489726 -516.103819 144.1423798)
(813.0931319 129.9614291 353.8359608)
(1677.888756 -257.6581144 -122.0046884)
(1204.027883 390.9815359 -156.3446679)
(1712.719172 -404.7597674 -176.810124)
(1395.390288 -184.8040583 349.8253935)
(1808.756634 -359.8413478 543.3546681)
(1604.462144 -401.0105434 172.706679)
(1440.99768 -243.9966087 158.0101422)
(1783.870495 -63.33023862 -191.4813132)
(1869.558369 -173.044187 10.81386908)
(2055.534655 -551.3156602 189.3746665)
(2001.363304 -159.9938464 75.15818179)
(1434.159425 450.1027817 -522.4171635)
(1779.014874 287.4240631 -346.0737783)
(1799.178261 -662.7087696 -12.67595284)
(1470.088105 -827.2575608 -270.4737713)
(1789.046555 -386.1363971 145.9627606)
(1394.077587 438.4167107 -108.0301831)
(1564.941627 48.06919376 -37.4173656)
(1700.302002 213.5396184 -229.7164698)
(1533.364716 -328.5958411 138.6933394)
(1400.707055 -300.4892278 411.8763507)
(1741.302009 -203.5658788 -28.99086913)
(1661.418801 -121.8461363 -233.3948985)
(1083.365871 -220.7713357 -245.2175149)
(1761.643136 75.34423798 208.2697961)
(1975.672987 513.3527446 -793.1022189)
(1870.11093 138.4161643 -123.0376168)
(1521.401643 115.3570815 654.5103457)
(1793.711663 150.0814383 21.27842193)
(1993.310494 -199.4011863 254.9366969)
(1576.718418 113.7916139 -296.3033613)
(1605.441648 -284.5138074 -461.0776983)
(1712.788794 -751.4099633 117.2865152)
(1802.67645 -204.6707316 -218.5242647)
(1823.689606 -212.4195064 128.7801216)
(2127.640395 833.1462952 -451.4917877)
(1683.350414 330.9570539 44.94440809)
(1600.710234 6.329648831 -66.92911987)
(1558.573343 24.56642117 153.1348633)
(1821.107408 -164.6614392 130.849998)
(1840.032351 -162.787768 -358.9633362)
(1822.778858 204.9567821 -137.7025789)
(1585.157298 104.1698171 -488.3559771)
(1831.871361 -57.20951825 16.46758663)
(890.9466877 -607.881999 241.6327096)
(1338.928705 -511.825716 -121.7002779)
(2023.854756 -433.0818447 -278.1473624)
(1765.18981 429.4326117 84.03927653)
(1797.390126 35.85634831 -208.0237464)
(1129.709298 -8.441560979 -282.1239251)
(2131.842036 -293.1107428 299.6961131)
(1502.049216 -257.0054741 36.91510408)
(898.9674236 169.061924 -97.61735282)
(1401.868967 -121.6093865 -237.135163)
(2087.679243 94.82307854 268.9893843)
(1586.681139 -137.2932051 -24.70846134)
(1999.174594 127.0339656 -344.4495742)
(2098.580285 55.77640742 41.52165801)
(1735.254049 -401.2848065 -359.1932462)
(1961.031918 176.9086299 88.66560759)
(2439.206492 -121.7207195 573.2694653)
(1706.633519 247.9481365 216.3145349)
(1535.815926 -91.56327869 -219.5644616)
(1704.452823 743.2042569 837.7676198)
(1372.311977 -96.17386999 166.2423885)
(1508.057296 62.4123182 192.8921351)
(1025.926519 -10.79303713 379.0023558)
(1832.783071 516.6142302 -112.0892159)
(1970.072588 283.1019452 -265.3944891)
(1740.350963 8.73627067 -260.2505295)
(1800.19998 -35.38721306 663.3137454)
(1568.763472 710.0395578 139.9956872)
(1642.033084 87.84344771 -93.45737334)
(1610.884414 -154.2552735 313.0059873)
(1624.631514 69.16864181 -15.13328683)
(1399.552921 107.9958155 -51.32859541)
(2295.655122 -184.5362033 30.60653838)
(1514.968098 329.2089728 24.5186207)
(1922.009361 -35.35561384 -242.4776902)
(1575.332077 -239.4289681 -254.4248992)
(1295.513997 181.4519742 373.5419461)
(1797.111969 -110.2687936 204.6101523)
(2053.972859 -222.3491742 -334.334466)
(1566.284814 320.622939 211.2627121)
(1653.147174 220.4211146 -212.0356677)
(2025.210894 202.2572316 315.4539021)
(1256.275342 -240.3726928 -116.8571929)
(1162.049203 -208.6952254 229.9914211)
(1726.397802 465.8154075 473.38882)
(1417.07372 -90.72034288 14.6660151)
(1693.64809 47.42821643 -151.8864925)
(1449.028568 -328.4290837 63.5690156)
(1794.038152 103.82404 -373.8139625)
(1826.846601 -211.1854465 467.2589316)
(1020.432432 206.7703508 -128.0104743)
(1680.378497 567.5227031 -95.50969797)
(1275.96761 552.7150744 -203.3836591)
(1645.50394 -297.9106414 478.3004276)
(1738.734245 -263.6554513 614.7646753)
(1609.179386 25.02314795 -221.3509674)
(2435.956733 -567.7272344 319.936171)
(1610.842037 105.0352718 78.01931842)
(1791.652021 -159.0029784 -0.6175813791)
(1379.851838 -93.38001222 -240.3371144)
(1966.858709 287.1873558 196.6791576)
(1618.919807 -139.1247771 504.9630272)
(1856.865228 -113.1661371 -375.9334117)
(1703.5957 146.6397293 -199.1393659)
(1355.691637 -60.92105794 -533.2319777)
(1229.674844 -244.943183 467.2323901)
(1637.299189 -125.7411758 -349.4793355)
(1469.660015 534.656566 92.48483151)
(1470.607288 119.2332246 -31.70062959)
(1924.257487 275.621663 453.536189)
(1683.632682 228.3203273 -33.48276364)
(1591.540061 327.3237016 375.9388914)
(1846.304272 114.8468804 465.063401)
(1841.166334 -252.2162265 100.7059164)
(1967.120145 177.6852558 -165.4522811)
(1654.495834 222.524063 -3.507425998)
(1698.278119 131.6020055 -267.3393703)
(1628.693035 671.8393418 -161.9467669)
(1369.592004 62.83774217 -18.28039769)
(1591.332816 -303.6523152 -487.3550493)
(1793.480087 134.9170119 153.9360043)
(1673.535929 67.55457925 306.1964226)
(1319.389464 152.1435983 -222.2363678)
(1620.819967 62.68342228 -411.8901302)
(1842.24383 -40.83220569 115.0100216)
(1570.372931 -18.00363343 240.7987466)
(1555.924806 -236.7108013 376.6570967)
(1709.254113 90.90432088 -126.448733)
(1502.090956 -350.9035878 489.4858618)
(1543.56538 636.0275937 47.75280821)
(1566.540786 -168.1213808 -334.943129)
(1656.175458 -223.3918394 156.5099063)
(1508.311142 356.2412202 -459.9950576)
(979.9252483 107.5346921 39.32372123)
(1965.920689 -82.36978389 311.4055788)
(2229.212508 14.17760303 -406.4967603)
(1751.274765 326.4183499 -103.0326622)
(1734.235033 -125.5683413 40.2119167)
(1159.332 96.3484396 30.39390159)
(1821.24177 -29.5773398 189.900432)
(1720.0491 108.0514357 -327.4827796)
(1641.566298 291.7229571 -111.8505574)
(1696.054645 -240.2490692 -49.16644952)
(1549.756593 -129.6982974 -306.4281587)
(1426.689671 326.9771303 633.1479441)
(1973.319274 -315.8273128 -506.1229296)
(1533.909914 54.09614017 -202.6657143)
(1684.270354 631.7279709 312.0395804)
(1738.002464 -336.5284282 442.37603)
(1534.60842 -3.322187768 -10.8455167)
(1171.453202 -9.386707213 -40.72637219)
(1365.968792 -494.6293393 228.0575397)
(2087.589126 266.7794876 318.2285192)
(1531.745031 -124.9015866 -56.94993674)
(1904.296616 264.2859668 400.581766)
(1990.627774 10.90278682 -106.1421885)
(1862.29808 236.467683 394.2124586)
(1645.465985 -17.61309512 -8.662365841)
(2077.516631 -675.1896889 30.52554182)
(1469.51039 -51.57715825 436.9733341)
(1301.332416 86.06362471 -519.505712)
(1669.477736 267.8656411 479.077922)
(1530.038338 216.6456587 347.8106511)
(1987.514626 -55.79793048 -129.7118748)
(1676.419036 -100.4087693 236.0568509)
(1677.79446 -228.3584893 11.69669576)
(1733.807475 -37.14594746 -687.5665226)
(1228.033423 -276.3892473 -327.3534273)
(1681.432939 -17.4815931 44.05519678)
(1655.48578 483.6956601 -33.89785445)
(1985.732462 -34.30610668 -312.7294086)
(1865.40057 127.3142807 -293.9440687)
(1652.973087 -259.8119617 146.2156005)
(1821.345039 -253.8215258 -156.1702781)
(1713.983311 -210.9977604 -845.9051813)
(1366.831146 134.4400256 65.62711809)
(1937.919188 -48.33823709 -202.3115468)
(2078.511739 -236.0679474 522.1539462)
(1746.723095 281.8000368 58.30134235)
(1973.345295 316.4789963 -413.2317456)
(1920.1156 298.0875235 226.0336144)
(2152.746226 -58.81364951 430.8934698)
(1943.499756 -415.060858 356.1204796)
(1779.129941 -58.29146741 -299.0002279)
(1502.513451 136.8532414 -210.4607541)
(1848.281038 -85.82265378 118.3960999)
(1552.911121 654.1537912 503.1310375)
(2214.233548 -365.4699908 249.2465325)
(1610.802475 -156.8458134 120.554547)
(1876.439326 -216.9801663 -263.9725664)
(1780.951926 188.0000847 -202.7986959)
(1766.613544 -222.1267611 269.7824722)
(1526.617894 -471.0647053 200.5397065)
(1626.56401 111.1840747 -214.7015446)
(1527.341961 260.0268358 202.6464587)
(1508.010938 -44.63860232 -277.7848788)
(1717.858453 -363.833464 -108.3971042)
(1348.5697 -258.8467078 -345.4049416)
(2508.769426 -229.6815796 399.9823469)
(1990.645983 149.2972734 -50.78276449)
(1022.336549 -566.6451986 -956.0184571)
(1870.165254 204.9084614 301.6269824)
(1134.462449 -170.6667751 -380.9631173)
(1810.440471 30.83550191 -365.0049172)
(1232.344295 -247.4559096 366.5806089)
(1818.019214 63.88739016 -121.8136378)
(1733.002116 104.9633887 -53.85557268)
(1199.605051 8.325059572 181.1832664)
(1923.834979 -448.3043259 147.8329975)
(1585.181633 293.7106205 223.3127717)
(1915.380408 461.0374834 20.20951225)
(1455.34884 60.68846428 699.6445598)
(1643.716024 -52.86244398 -284.0814576)
(1458.152078 59.79144546 79.21968798)
(1191.559405 246.6201845 -577.4825253)
(1664.564539 35.91925744 -192.471276)
(1936.212306 259.8760126 235.769431)
(1829.401692 -245.2715521 -32.68187797)
(1387.823753 38.27673792 -65.36539021)
(1465.877742 836.010577 -265.9139046)
(1909.532649 133.960237 226.7785923)
(1499.831314 175.4612711 -167.3127041)
(2086.950318 173.6391505 113.1201778)
(1401.796903 207.2152807 64.53321773)
(1795.344772 414.8413041 27.32838032)
(1575.471124 -35.15848554 524.3160243)
(1803.465261 210.2923323 102.2643492)
(2068.572471 -413.3076618 385.1256793)
(1637.140219 242.5741692 -38.17013534)
(1810.235279 237.4297428 -111.0500122)
(1508.252739 263.6994576 -91.90962791)
(1640.767288 17.08059423 -416.2043026)
(1225.534547 464.1185337 -489.7870967)
(1871.499746 -359.2393438 89.93120998)
(1619.565258 -249.2932037 -174.6793315)
(1450.632279 -66.76234557 -321.6888195)
(1705.946441 3.530802523 303.6092817)
(1560.72348 220.6071062 -11.71583955)
(1742.778607 -61.25831882 -13.36190188)
(848.3497402 318.3503781 154.6958062)
(1813.641768 -171.9758722 -62.38194329)
(2144.594421 187.0929021 -251.5487188)
(1818.593251 -295.0985645 -213.541448)
(1576.535894 -100.7908343 -25.01808345)
(1895.107696 144.1312023 -315.7625093)
(1635.955352 -292.9563257 -106.2529657)
(1981.650553 141.7215796 -297.9838052)
(2025.908361 139.6819069 429.7151394)
(1664.33166 320.4385984 -100.0089872)
(1922.763295 -97.7625287 193.011781)
(1911.078198 234.909666 -8.651241857)
(2063.863599 -137.6330027 119.776226)
(1738.832999 -43.44166128 149.4002348)
(1957.946021 -544.7396111 -98.04718042)
(1450.40281 323.2602046 13.80685029)
(2176.0471 182.3967522 326.7591867)
(1766.440075 84.81833129 87.95963793)
(1637.26156 -379.6177966 -114.042695)
(1511.874649 129.259575 24.03089751)
(1875.913951 136.1989315 -239.1819312)
(1649.314073 136.2470283 -94.62234509)
(1516.702832 137.6582071 -307.8672214)
(1702.516075 8.551636934 -327.7997679)
(1924.525144 499.4836029 -407.6640958)
(1318.504324 -243.5348961 -266.8789689)
(1437.378207 124.3635319 5.792624513)
(1875.633613 -10.24629217 112.1649902)
(1834.435386 -100.2802037 -0.5621841091)
(1219.549541 -195.6343845 -36.69041241)
(1768.829423 -63.23680858 -546.2096437)
(1522.409159 108.7634482 479.8959246)
(1754.658635 630.4696489 21.48870039)
(1427.920632 -217.7265846 171.4609474)
(1603.689909 6.373874551 -334.3898226)
(1186.76854 -35.66835612 -63.71054959)
(1291.398691 -29.70999742 -365.2504592)
(1746.835346 -233.7840852 -293.510618)
(1796.962142 -76.90486968 -375.3608575)
(1818.401182 -134.1828105 -115.3472437)
(1661.992841 656.276894 261.8752327)
(2017.450549 110.7239077 -126.8094532)
(1730.480905 149.2028534 -177.8559256)
(1655.736586 -569.7419412 102.4081833)
(1565.644943 -270.8232973 -66.14229757)
(1508.532707 1.338450322 227.4414357)
(2295.273202 223.0981828 -829.254629)
(1462.663293 -448.8578529 191.4510851)
(1700.782629 398.3749608 634.9741185)
(1773.589112 -25.31329994 18.48335892)
(1312.928675 260.1655185 -266.6241116)
(1051.662351 -3.414050118 141.0936316)
(1836.357979 304.2835297 154.621598)
(1325.366563 95.36598818 96.13261297)
(1942.893389 -52.2067632 -440.3584544)
(1696.525042 173.630786 -50.44738101)
(1914.375342 -302.6119484 -67.01314582)
(1887.055755 -225.9923314 133.377634)
(1829.619501 291.1499602 -232.4485317)
(1739.779621 576.9924627 315.797367)
(1630.508631 349.9654119 394.0907085)
(1869.402357 -111.1826612 -346.0116094)
(1777.001075 649.6154712 98.92734497)
(1697.820977 -346.245491 511.9662257)
(1931.051491 -80.76356101 328.323876)
(1666.572351 -359.8424238 318.4508999)
(1662.927797 -133.2437348 -34.39580821)
(1833.815676 -53.48326017 -457.3998709)
(1758.38943 194.1306937 426.8993332)
(2085.755486 -213.585188 -194.8234011)
(1774.913676 -567.2596644 309.4033186)
(1420.657423 345.0897001 -77.78792873)
(1966.734389 -8.499568944 55.91447628)
(1836.347384 -164.4721757 -572.4631695)
(1262.323763 -356.1643022 735.4328904)
(1485.028381 -319.4776073 -354.0816002)
(1606.083556 -227.193907 160.7817936)
(1749.150816 341.2898643 -473.0522448)
(1840.427719 112.8905726 -12.39026505)
(1586.096669 244.7246464 -59.67257164)
(1504.032436 253.9928021 409.4647354)
(1838.095297 281.7641978 -308.2633304)
(2094.305072 60.67139117 814.4675655)
(2214.191138 -157.4510768 62.35058859)
(1973.467211 322.777269 -267.0119231)
(1287.488749 -60.14510709 375.5047814)
(1886.01396 86.58077782 186.0637055)
(1788.835629 -237.6418318 -209.1717184)
(1717.823328 83.22755008 515.1884937)
(1958.246434 -373.2141015 484.4230822)
(2004.729344 13.81622023 288.0890563)
(1667.585533 -266.4945172 321.8687417)
(1812.03731 -305.2748069 130.9767489)
(2018.255233 -619.3257245 113.0515873)
(2087.042765 -22.82545176 -28.44766509)
(1920.722149 -244.4778626 -130.1477767)
(1414.502838 64.03920037 -289.0151077)
(1904.878717 -161.139602 -98.41576642)
(2352.421342 -352.1692641 41.74235105)
(2025.024854 34.20740372 -160.339378)
(1648.070384 -186.4139886 334.6353946)
(1860.203746 -754.7503568 161.8817712)
(1671.307852 416.0783169 -86.10121732)
(1532.184376 176.3812465 -363.7131245)
(1504.511678 243.2300188 -69.98466574)
(2099.664829 101.464495 -188.0170808)
(1835.741948 446.1082805 196.6877682)
(1954.26406 -162.4680621 5.483398571)
(1691.182496 -147.1451714 -97.66810929)
(1606.684512 -5.78654759 186.9028498)
(1502.787904 276.6649749 43.72310523)
(2089.498182 -79.86392135 -1.393848208)
(1474.95411 -15.20377497 422.6262324)
(1613.993208 82.15401338 -314.2508825)
(1569.78244 212.5123958 -281.6022237)
(1123.57513 -135.5892024 87.84049551)
(1637.553975 485.9278888 -161.5444958)
(1948.409814 111.1852049 -249.366157)
(2008.204368 -178.1163421 -108.9312363)
(1740.095452 -108.1952902 146.0459229)
(1449.202605 516.8615587 -492.0589837)
(1563.557353 -158.5131505 189.4146377)
(1473.966687 -72.79343721 162.143119)
(1835.228828 -442.6941631 -48.07949961)
(1803.967741 -81.77235941 -275.1974463)
(1918.258546 -16.85672973 204.5823922)
(1650.11109 -679.3246817 341.651309)
(1494.244571 423.4610112 -55.54305814)
(1658.669244 353.5755617 -442.5216718)
(2143.997009 53.71463287 372.3893542)
(1763.050557 -294.0610036 314.3564356)
(1786.65268 39.05802883 -20.75014307)
(1573.63494 -6.520415605 2.547086847)
(1760.559619 261.9376724 -54.54213567)
(2144.142547 36.14807496 -272.6570474)
(1915.871688 -25.12111837 127.9372965)
(2057.690519 199.6268302 263.045755)
(2102.367041 -463.1379584 -97.48496065)
(1554.028192 -154.3271424 82.4888444)
(2069.441164 -454.0394413 -570.3839132)
(1752.526576 -82.37836409 204.0981311)
(1036.291558 -343.6369767 -338.09237)
(1451.742699 226.1111879 390.5096706)
(2285.36391 -524.7468726 -224.8367184)
(1701.455183 386.0347535 485.7172244)
(2013.184941 113.8419428 466.7354068)
(1334.346733 133.6777564 133.485048)
(1942.010509 -401.7835333 -272.6599989)
(2233.790163 -128.6403332 -13.38683018)
(1765.687796 94.09027217 175.2142667)
(1799.361182 -87.59156644 486.1435226)
(1952.98767 28.9755095 162.6955409)
(1713.650372 244.745384 170.0147234)
(2015.957911 -232.3903625 -336.3739371)
(1333.22115 16.16185424 54.00278914)
(1590.119008 375.0154228 488.0648047)
(2061.604358 -18.57677391 351.219338)
(2019.714012 -176.285367 -107.0765273)
(1711.908735 133.3795824 -30.76920299)
(1232.531881 -346.4377346 295.2189503)
(1741.680869 -173.8502838 -396.3083109)
(1454.365049 135.7931521 -86.34386844)
(1323.675033 -180.4407455 2.25392)
(2079.543538 226.9066902 -101.4418241)
(1870.127816 -52.19377394 -276.5602884)