/*--------------------------------*- C++ -*----------------------------------*\
| =========                 |                                                 |
| \\      /  F ield         | OpenFOAM: The Open Source CFD Toolbox           |
|  \\    /   O peration     | Version:  2406                                  |
|   \\  /    A nd           | Website:  www.openfoam.com                      |
|    \\/     M anipulation  |                                                 |
\*---------------------------------------------------------------------------*/
FoamFile
{
    version     2.0;
    format      ascii;
    arch        "LSB;label=32;scalar=64";
    class       Cloud<dsmcParcel>;
    location    "0.008/lagrangian/dsmc";
    object      coordinates;
}
// * * * * * * * * * * * * * * * * * * * * * * * * * * * * * * * * * * * * * //

9444
(
(0.6657460068 0.07793089609 0.08919610052 0.1671269966) 149 235 2
(0.1041013078 0.3507551348 0.4479493461 0.09719421133) 55 110 2
(0.5107909297 0.2446045351 0.1253682937 0.1192362415) 266 524 2
(0.2198005784 0.3900997108 0.1900668449 0.2000328659) 232 455 2
(0.09656002079 0.1324524424 0.3192675473 0.4517199896) 27 54 1
(0.2176271231 0.3590932131 0.03209322532 0.3911864385) 204 402 1
(0.3167050375 0.2934371936 0.3416474812 0.04821028767) 143 283 2
(0.1129041647 0.1292911523 0.3142567653 0.4435479176) 87 172 1
(0.2079417322 0.1537858575 0.3960291339 0.2422432764) 205 402 1
(0.1958081595 0.4020959203 0.3995234449 0.00257247533) 86 168 2
(0.07831689666 0.4608415517 0.4065231101 0.05431844158) 149 1045 2
(0.09557982472 0.248082379 0.4522100876 0.2041277086) 25 51 2
(0.3217063006 0.2516200088 0.3391468497 0.08752684089) 146 289 2
(0.2644542704 0.3677728648 0.3276471769 0.04012568789) 110 159 1
(0.6152139243 0.1923930379 0.12867835 0.06371468786) 24 1080 2
(0.08721692607 0.3423393151 0.456391537 0.1140522219) 28 54 1
(0.5838454112 0.09515602369 0.1129212707 0.2080772944) 58 57 2
(0.9204592988 0.01382605167 0.02594429893 0.0397703506) 179 294 2
(0.7612211952 0.1193894024 0.1134964799 0.005892922517) 266 525 1
(0.157494845 0.4212525775 0.103653981 0.3175985965) 59 1042 2
(0.262474049 0.2671032777 0.1016596978 0.3687629755) 145 286 1
(0.3205239653 0.3397380174 0.2274917508 0.1122462666) 327 644 2
(0.1962168223 0.1563100083 0.4018915889 0.2455815806) 148 293 2
(0.2574226312 0.3712886844 0.3132732961 0.05801538825) 200 336 1
(0.3923368935 0.3038315532 0.1470620123 0.1567695409) 267 468 1
(0.3952583498 0.3023708251 0.2266905804 0.07568024474) 117 231 2
(0.0298209803 0.09261061691 0.4850895098 0.3924788929) 58 116 2
(0.227360754 0.07675478547 0.3095648376 0.386319623) 238 411 2
(0.2069705156 0.277680748 0.3965147422 0.1188339942) 177 350 2
(0.5751522719 0.2058167084 0.006607155671 0.2124238641) 200 394 1
(0.1536644288 0.3804915245 0.04267626107 0.4231677856) 22 44 1
(0.04544046435 0.4772797678 0.3439578278 0.13332194) 388 762 2
(0.02179348363 0.2536663325 0.4891032582 0.2354369257) 114 226 2
(0.3550160255 0.09475786564 0.3224919873 0.2277341216) 267 524 1
(0.1683227437 0.02820730709 0.4158386282 0.3876313211) 298 585 1
(0.002816519898 0.1086044291 0.3899873109 0.4985917401) 59 1042 1
(0.02304989275 0.06555956926 0.4884750536 0.4229154844) 87 173 2
(0.3106766939 0.3016917459 0.344661653 0.04296990712) 147 288 1
(0.5832866432 0.2083566784 0.1245983662 0.08375831223) 113 223 2
(0.2496147138 0.1764206281 0.198772015 0.3751926431) 76 92 2
(0.6194180484 0.1705272298 0.01976374594 0.1902909758) 111 161 2
(0.03011990178 0.4849400491 0.3917066548 0.09323339429) 83 162 2
(0.5243976897 0.06972448281 0.2378011551 0.1680766723) 28 54 1
(0.8311990909 0.08440045454 0.03307976823 0.05132068631) 50 41 1
(0.1508085309 0.4245957345 0.2247183324 0.1998774021) 385 700 1
(0.1385285189 0.2446880276 0.186047713 0.4307357405) 265 522 1
(0.2474509588 0.3762745206 0.2170368072 0.1592377134) 140 218 1
(0.6993563518 0.1338788218 0.01644300234 0.1503218241) 349 687 1
(0.6396276293 0.03970370106 0.1801861853 0.1404824843) 446 876 1
(0.3850604846 0.2379433559 0.3074697577 0.0695264018) 19 39 2
(0.4182433982 0.08388922994 0.2069890709 0.2908783009) 26 1082 1
(0.1440855705 0.4279572147 0.05337221004 0.3745850047) 81 158 2
(0.01966368139 0.2771348809 0.4901681593 0.2130332784) 202 399 2
(0.5019869777 0.2490065112 0.2380757335 0.01093077764) 119 233 2
(0.3109710155 0.1852135167 0.1593009755 0.3445144923) 169 275 2
(0.2693306561 0.365334672 0.2085883195 0.1567463524) 56 112 1
(0.2013741839 0.399312908 0.3106931647 0.08861974329) 81 158 2
(0.1313109071 0.4343445465 0.03690683 0.3974377165) 89 117 1
(0.7322489574 0.1338755213 0.07656329331 0.05731222797) 23 1079 2
(0.4119326861 0.005602392024 0.2884312649 0.2940336569) 28 56 1
(0.5077834309 0.2461082846 0.1959424481 0.05016583649) 239 412 1
(0.9322601227 0.0005131061133 0.03386993864 0.03335683252) 83 165 2
(0.3133841146 0.3421148141 0.3433079427 0.001193128585) 22 42 1
(0.1213679023 0.3491185629 0.09019748591 0.4393160488) 134 206 2
(0.3407710653 0.2503588913 0.3296144674 0.07925557609) 198 391 2
(0.2492155166 0.1529326573 0.3753922417 0.2224595844) 27 55 2
(0.1900291717 0.3190288928 0.08595652134 0.4049854142) 207 350 2
(0.01643953334 0.3408588962 0.1509213371 0.4917802333) 207 408 1
(0.1307976818 0.4346011591 0.04321936004 0.3913817991) 142 281 1
(0.06130251809 0.2496010211 0.2197477198 0.469348741) 116 171 2
(0.5805021181 0.2097489409 0.007455756035 0.2022931849) 86 112 1
(0.06289373891 0.4685531305 0.2509798213 0.2175733092) 147 290 2
(0.08632296267 0.4568385187 0.3433903918 0.1134481269) 146 289 1
(0.41351226 0.29324387 0.1551302196 0.1381136504) 298 588 1
(0.4837162997 0.1867068445 0.07143500563 0.2581418501) 59 1042 1
(0.2681576623 0.01012001804 0.3659211688 0.3558011508) 79 157 2
(0.4678877576 0.06294685456 0.2031092667 0.2660561212) 140 218 2
(0.3961026049 0.3019486976 0.005884707317 0.2960639903) 26 52 2
(0.1219018516 0.4390490742 0.2102474758 0.2288015985) 51 101 2
(0.05216184551 0.141143325 0.4739190772 0.3327757523) 24 49 2
(0.04326870528 0.4783656474 0.2312882911 0.2470773563) 80 159 1
(0.09356802389 0.2480078375 0.2052081506 0.4532159881) 117 231 1
(0.4524766258 0.2297283774 0.2737616871 0.04403330971) 22 45 2
(0.2748619175 0.3625690412 0.2673103581 0.09525868313) 80 156 2
(0.02114363348 0.4894281833 0.05052725263 0.4389009306) 110 159 1
(0.5137559494 0.2431220253 0.07527593769 0.1678460876) 25 51 1
(0.1245575587 0.2661692512 0.1715519695 0.4377212207) 84 166 1
(0.3390969285 0.3304515357 0.1363913668 0.194060169) 13 1069 2
(0.09059137866 0.2786883012 0.4547043107 0.1760160094) 177 350 2
(0.1411719966 0.4294140017 0.02331510614 0.4060988955) 85 110 1
(0.2979405652 0.2179168195 0.3510297174 0.1331128979) 54 108 2
(0.1341406075 0.4329296962 0.3804819575 0.05244773874) 416 817 2
(0.2733135806 0.326116622 0.03722658773 0.3633432097) 116 229 1
(0.416421756 0.291789122 0.1880298219 0.1037593001) 47 94 1
(0.0924404978 0.4537797511 0.3808832759 0.07289647519) 58 115 2
(0.1171033194 0.4414483403 0.2389330107 0.2025153296) 78 96 1
(0.2209361857 0.0339070411 0.3895319071 0.355624866) 383 755 2
(0.03093761372 0.4845311931 0.3094882888 0.1750429044) 171 335 2
(0.0191674853 0.2580847705 0.2323314869 0.4904162574) 172 281 2
(0.517284064 0.1007155802 0.1406423878 0.241357968) 28 56 1
(0.40999166 0.29500417 0.2428056028 0.05219856714) 21 43 1
(0.3640589241 0.105604944 0.3179705379 0.212365594) 385 759 2
(0.1594386567 0.1066293741 0.3136512975 0.4202806717) 52 45 2
(0.2784404471 0.197191488 0.1635882885 0.3607797765) 111 161 2
(0.4000326601 0.1933621898 0.29998367 0.1066214802) 142 278 1
(0.1602449129 0.4198775436 0.01569311104 0.4041844325) 53 105 2
(0.4909316178 0.2545341911 0.186825295 0.06770889607) 201 396 2
(0.09240556169 0.2255788307 0.2282183885 0.4537972192) 29 1085 1
(0.4514644195 0.1096895734 0.2742677903 0.1645782169) 48 93 1
(0.4113481447 0.1914264693 0.1028994583 0.2943259276) 83 106 2
(0.5740999335 0.2129500333 0.000332318446 0.2126177148) 117 173 1
(0.148216814 0.1215188088 0.425891593 0.3043727842) 18 34 1
(0.2147397296 0.3825178561 0.0101122791 0.3926301352) 293 577 1
(0.5203579513 0.2145879484 0.2398210243 0.02523307596) 239 471 2
(0.3155683504 0.0423673443 0.2998484805 0.3422158248) 15 1071 1
(0.2613566741 0.3693216629 0.171066997 0.1982546659) 146 286 2
(0.2114624791 0.3738389067 0.02042985369 0.3942687604) 176 347 1
(0.5380046647 0.1983751018 0.03262256587 0.2309976676) 89 117 2
(0.3483367982 0.04136719202 0.3258316009 0.2844644089) 51 99 1
(0.4082132925 0.2958933537 0.01357444312 0.2823189106) 76 150 2
(0.06447884014 0.1856128493 0.4677605799 0.2821477307) 22 45 2
(0.4092431632 0.1538908445 0.141487574 0.2953784184) 57 55 2
(0.2024564368 0.3987717816 0.12984674 0.2689250416) 58 115 2
(0.2034069808 0.3982965096 0.2639187651 0.1343777445) 53 47 1
(0.9232769666 0.03836151671 0.001346768629 0.03701474808) 320 572 1
(0.6058481631 0.005130034725 0.1919458837 0.1970759185) 239 412 2
(0.454001755 0.2262074433 0.04679167914 0.2729991225) 238 411 2
(0.6771686517 0.1614156741 0.1023251719 0.05909050221) 140 276 2
(0.2503925741 0.06052064323 0.374803713 0.3142830697) 75 146 1
(0.2477820208 0.3761089896 0.2997592888 0.07634970078) 172 339 2
(0.1615328538 0.2134636347 0.2057699384 0.4192335731) 27 54 1
(0.07817320625 0.4609133969 0.1069841842 0.3539292127) 81 160 2
(0.06851208034 0.4657439598 0.1108355932 0.3549083667) 144 284 2
(0.4266818469 0.2602062417 0.2866590766 0.02645283484) 85 166 1
(0.5639131277 0.2180434361 0.1772094522 0.04083398394) 235 461 2
(0.5972190749 0.1388184571 0.2013904626 0.06257200543) 174 344 2
(0.05418067992 0.1420216752 0.3308879849 0.47290966) 47 35 2
(0.2114383072 0.3942808464 0.3907623442 0.003518502264) 319 628 2
(0.4259245337 0.2870377332 0.09490340175 0.1921343314) 205 405 1
(0.3612578517 0.2873292398 0.3193710741 0.03204183431) 78 152 1
(0.6214081712 0.1892959144 0.06060679323 0.1286891211) 441 810 1
(0.1668512429 0.4165743785 0.402692957 0.01388142153) 82 162 2
(0.6631128272 0.1684340209 0.1684435864 9.56553701e-06) 119 233 1
(0.4117747324 0.02595113581 0.2941126338 0.268161498) 78 152 1
(0.1232821581 0.424500524 0.01385839692 0.438358921) 206 348 2
(0.2069564919 0.396521754 0.2851562672 0.1113654868) 141 220 1
(0.152149332 0.423925334 0.2324219389 0.1915033951) 146 230 1
(0.3767118261 0.3116440869 0.0693739942 0.2422700928) 82 160 2
(0.3309141151 0.2003201626 0.1342227799 0.3345429424) 146 230 2
(0.5339146714 0.2330426643 0.2039375848 0.02910507955) 147 291 1
(0.4779320815 0.1570857527 0.1039482066 0.2610339592) 198 390 1
(0.1647975452 0.1414209553 0.2761802721 0.4176012274) 111 219 1
(0.1147100746 0.3065114019 0.1361335608 0.4426449627) 116 171 2
(0.03840395246 0.1006278667 0.380170157 0.4807980238) 234 461 1
(0.2249929997 0.3875035002 0.3412142943 0.04628920584) 165 323 2
(0.2549232187 0.3725383906 0.1928712432 0.1796671474) 16 33 1
(0.5130888889 0.2434555556 0.0293362061 0.2141193495) 26 50 2
(0.1263297804 0.2531728106 0.1836622992 0.4368351098) 20 40 1
(0.267155727 0.283445485 0.08297665155 0.3664221365) 264 520 1
(0.3544370322 0.1735531191 0.1492283648 0.3227814839) 232 399 2
(0.4874864264 0.2562567868 0.03558381806 0.2206729687) 199 334 1
(0.3794681735 0.3102659132 0.1095203421 0.2007455711) 179 351 2
(0.6583226934 0.01871021481 0.1521284385 0.1708386533) 115 227 1
(0.812039222 0.05453691123 0.09398038898 0.03944347775) 27 55 2
(0.2707743928 0.3646128036 0.1918367905 0.1727760131) 28 56 2
(0.03795020644 0.4810248968 0.4528105338 0.02821436294) 57 114 1
(0.4202352275 0.1013205162 0.2898823862 0.18856187) 58 116 2
(0.4096771383 0.2749077457 0.2951614308 0.02025368512) 44 88 2
(0.1308045581 0.4345977209 0.4073039358 0.02729378512) 50 41 1
(0.0771955466 0.1832132612 0.4614022267 0.2781889655) 173 339 1
(0.5207552391 0.2396223805 0.1142693094 0.1253530711) 119 233 2
(0.7235012683 0.1382493659 0.1121801935 0.02606917238) 232 457 2
(0.8492393797 0.07538031017 0.01466594494 0.06071436524) 205 404 2
(0.8922712081 0.05386439595 0.04424605993 0.009618336026) 59 58 1
(0.1036796127 0.009244879082 0.4389153146 0.4481601937) 147 232 2
(0.4502195789 0.01907278954 0.255817421 0.2748902105) 29 1085 1
(0.1505831207 0.4247084397 0.1668212363 0.2578872034) 19 39 1
(0.7141025369 0.03619881576 0.1429487315 0.1067499158) 89 174 1
(0.107186805 0.4464065975 0.2739303153 0.1724762822) 81 158 2
(0.4331879134 0.1576900577 0.2834060433 0.1257159856) 75 146 1
(0.001390336381 0.4993048318 0.1169500928 0.382354739) 140 277 1
(0.2710496023 0.3644751988 0.09442741038 0.2700477885) 20 40 2
(0.4468758851 0.1392114181 0.2765620574 0.1373506393) 148 293 2
(0.9351154594 0.01835382783 0.0324422703 0.01408844247) 299 589 2
(0.2926960171 0.3219020672 0.03174992422 0.3536519914) 111 219 1
(0.8209185655 0.08954071727 0.06091674221 0.02862397506) 185 362 2
(0.4681334912 0.07854618895 0.2659332544 0.1873870654) 87 170 1
(0.157152586 0.3049544976 0.421423707 0.1164692094) 108 211 1
(0.3103499878 0.3448250061 0.2487455855 0.09607942055) 205 405 1
(0.7684411117 0.09722693168 0.1157794442 0.0185525125) 111 220 2
(0.7286823892 0.1356588054 0.02535096486 0.1103078405) 21 1077 2
(0.2055728843 0.1683667814 0.3972135578 0.2288467764) 259 511 2
(0.2338471635 0.3830764183 0.1631970248 0.2198793935) 208 408 2
(0.2020029096 0.2099900688 0.1890084764 0.3989985452) 416 819 1
(0.1060157304 0.4469921348 0.2825409001 0.1644512347) 58 116 1
(0.5994964632 0.1096156448 0.09063612358 0.2002517684) 29 1085 1
(0.2837737903 0.3215753328 0.3581131048 0.03653777204) 26 53 2
(0.9398896641 0.02947313226 0.03005516796 0.000582035697) 137 268 1
(0.04329510273 0.4783524486 0.1626000057 0.315752443) 208 352 1
(0.3214111885 0.3392944057 0.0946411425 0.2446532632) 356 702 1
(0.07297016268 0.2276885659 0.4635149187 0.2358263528) 115 225 1
(0.6255464944 0.1088854599 0.07834129287 0.1872267528) 18 36 1
(0.5627873995 0.1672824595 0.05132384072 0.2186063003) 297 527 2
(0.4117194704 0.2941402648 0.1506285834 0.1435116814) 295 579 2
(0.1298127523 0.2297717553 0.2053218686 0.4350936239) 443 872 1
(0.1539271702 0.2940083799 0.4230364149 0.129028035) 21 40 1
(0.2500841023 0.1402117621 0.3749579488 0.2347461867) 351 689 1
(0.08870871682 0.4556456416 0.3174066778 0.1382389637) 137 268 2
(0.9431356697 0.02843216513 0.00889132894 0.01954083619) 358 705 2
(0.2753719651 0.01170217853 0.3623140174 0.3506118389) 55 110 2
(0.2368842646 0.3815578677 0.08627146976 0.295286398) 299 587 2
(0.03769506612 0.09568308266 0.4811524669 0.3854693843) 57 111 1
(0.6036925674 0.1746067316 0.02354698473 0.1981537163) 143 282 1
(0.5229742954 0.2385128523 0.07832816073 0.1601846915) 59 117 1
(0.1154612441 0.1670988394 0.442269378 0.2751705386) 59 115 1
(0.2618579367 0.3690710316 0.01423040962 0.354840622) 59 1042 2
(0.4835679251 0.2582160375 0.1259732807 0.1322427568) 225 443 2
(0.5758082188 0.1349911866 0.07710470394 0.2120958906) 109 157 2
(0.6274381661 0.1133019544 0.07297896257 0.186280917) 47 35 2
(0.2529385857 0.3108967981 0.06263390907 0.3735307072) 85 110 2
(0.6259397588 0.1870301206 0.08895332843 0.09807679216) 29 1041 2
(0.4970677768 0.2514661116 0.0008717088633 0.2505944027) 357 701 2
(0.01895513835 0.4560698982 0.03445253265 0.4905224308) 25 1081 1
(0.04295821387 0.4364159035 0.04210498956 0.4785208931) 269 1049 1
(0.2923076736 0.3027620996 0.05108406356 0.3538461632) 357 703 1
(0.3078672927 0.005307799913 0.3460663536 0.3407585537) 356 699 1
(0.4091429099 0.07826830369 0.2954285451 0.2171602414) 53 103 1
(0.5768625022 0.090636461 0.2115687489 0.1209322879) 327 645 2
(0.3870552776 0.3064723612 0.124613333 0.1818590282) 227 389 1
(0.6525370496 0.1737314752 0.1418375792 0.03189389595) 83 164 2
(0.3108416811 0.3445791595 0.011546698 0.3330324615) 171 279 1
(0.2422750073 0.0711000344 0.3077624619 0.3788624963) 85 168 1
(0.06542123485 0.4672893826 0.3013443111 0.1659450714) 25 51 1
(0.3031883698 0.3484058151 0.04843286067 0.2999729544) 359 707 1
(0.2049941862 0.3975029069 0.1828277602 0.2146751467) 85 169 1
(0.4123104868 0.2938447566 0.04111168964 0.252733067) 29 58 1
(0.3127166687 0.3436416657 0.1620495787 0.1815920869) 21 42 2
(0.07867847979 0.3716004011 0.08906035898 0.4606607601) 329 589 2
(0.4918583822 0.1975475846 0.05652322435 0.2540708089) 170 335 1
(0.3047885873 0.3476057064 0.3119959694 0.03560973694) 57 55 1
(0.05701580389 0.09642229567 0.3750698024 0.4714920981) 23 46 1
(0.6874972936 0.1562513532 0.1195965926 0.03665476055) 179 1046 2
(0.3875132156 0.1091835253 0.1970598669 0.3062433922) 13 26 1
(0.05362061356 0.3153327701 0.4731896932 0.1578569231) 114 223 1
(0.34744911 0.16603333 0.326275445 0.160242115) 136 266 1
(0.5559364927 0.09991844479 0.2220317537 0.1221133089) 107 209 1
(0.09442787693 0.4527860615 0.1114361783 0.3413498833) 269 530 1
(0.5782108078 0.08241127518 0.2108945961 0.1284833209) 86 168 1
(0.004039728651 0.4979801357 0.1142097334 0.3837704023) 119 233 2
(0.06712126163 0.4664393692 0.3792235538 0.08721581539) 327 645 1
(0.5751225655 0.03162654067 0.1808121766 0.2124387173) 84 108 2
(0.3042723715 0.3478638143 0.04092224858 0.3069415657) 118 233 2
(0.2938576088 0.3530711956 0.03478781581 0.3182833798) 75 148 2
(0.1026836964 0.4486581518 0.05180339441 0.3968547574) 238 469 2
(0.7049381487 0.06149835208 0.08603257355 0.1475309256) 146 288 1
(0.5504098468 0.1225815467 0.2247950766 0.1022135298) 25 48 1
(0.2064282124 0.2497731016 0.1470127922 0.3967858938) 88 174 1
(0.007587700703 0.4962061496 0.1765604641 0.3196456855) 79 157 1
(0.05923982939 0.4703800853 0.09921655418 0.3711635311) 114 225 2
(0.3475778294 0.1451827694 0.3262110853 0.1810283159) 200 392 1
(0.3644876171 0.3177561914 0.2439810111 0.07377518032) 208 410 2
(0.08676337201 0.456618314 0.07006359005 0.3865547239) 24 48 2
(0.06956804708 0.04121437738 0.4240015991 0.4652159765) 172 281 2
(0.3753803632 0.128610533 0.1836992853 0.3123098184) 137 212 2
(0.6094739458 0.1952630271 0.06886411326 0.1263989138) 299 587 2
(0.05944696936 0.4702765153 0.3709961696 0.09928034571) 131 259 1
(0.7001957232 0.1499021384 0.02418083694 0.1257213014) 115 169 1
(0.6135444645 0.005963008193 0.1932277677 0.1872647596) 418 824 2
(0.3891310949 0.1956968258 0.3054344526 0.1097376267) 82 160 1
(0.7892372857 0.1053813571 0.03068886669 0.07469249045) 119 176 1
(0.2647074817 0.04869546662 0.3676462592 0.3189507926) 22 45 2
(0.5298629251 0.2350685374 0.051806568 0.1832619694) 89 176 1
(0.1602750796 0.4198624602 0.3435585593 0.07630390089) 177 349 2
(0.7124168455 0.1437915772 0.1041091194 0.03968245778) 175 343 2
(0.421769568 0.289115216 0.06974946332 0.2193657527) 45 90 1
(0.4114006354 0.05050811151 0.2942996823 0.2437915708) 28 54 1
(0.05729774544 0.3086147606 0.1627363667 0.4713511273) 89 1043 1
(0.1354105349 0.115612929 0.3166818036 0.4322947326) 87 172 1
(0.4002376804 0.2679208514 0.2998811598 0.03196030834) 56 112 2
(0.3453242051 0.3273378975 0.03730299722 0.2900349002) 220 431 2
(0.0292441439 0.485377928 0.26440551 0.220972418) 140 274 2
(0.3665297625 0.3167351188 0.1087947356 0.2079403832) 143 280 2
(0.9907677013 3.107335932e-05 0.004616149335 0.004585075975) 9 19 2
(0.5053258607 0.0436909805 0.2473370697 0.2036460892) 174 341 1
(0.2374127513 0.3812936243 0.23420281 0.1470908143) 50 100 1
(0.3563388636 0.3218305682 0.2387743972 0.08305617099) 292 576 1
(0.3299993126 0.05760472769 0.277395616 0.3350003437) 87 172 1
(0.7270059766 0.1364970117 0.1333289002 0.0031681115) 268 470 1
(0.4876625531 0.07667146457 0.2561687234 0.1794972589) 83 162 1
(0.2771238239 0.3501208465 0.361438088 0.01131724151) 318 627 2
(0.4087776107 0.2956111946 0.09346206857 0.2021491261) 48 96 1
(0.4534451415 0.05926661164 0.2732774293 0.2140108176) 418 824 2
(0.6905436189 0.07451140179 0.1547281906 0.08021678877) 81 161 2
(0.09607401361 0.319255455 0.4519629932 0.1327075382) 204 403 2
(0.09453677695 0.4489117964 0.003819815108 0.4527316115) 328 588 2
(0.4396084348 0.2801957826 0.1621268999 0.1180688827) 410 749 1
(0.2512242898 0.326356787 0.3743878551 0.04803106804) 23 44 1
(0.6548863041 0.03367585658 0.172556848 0.1388809914) 167 330 2
(0.8680108142 0.0482925575 0.06599459292 0.01770203543) 53 106 2
(0.3137134082 0.2294395309 0.3431432959 0.113703765) 199 393 2
(0.3100675085 0.3449662458 0.1097911221 0.2351751237) 51 101 2
(0.4126646261 0.2029504841 0.09071720283 0.2936676869) 118 233 1
(0.1260632674 0.4369683663 0.1838592624 0.2531091039) 168 329 2
(0.4652571552 0.2673714224 0.1291732415 0.1381981809) 58 115 2
(0.3337264997 0.3331367502 0.2305505795 0.1025861707) 141 278 2
(0.3253292009 0.3373353996 0.1738793349 0.1634560647) 99 193 2
(0.8170117489 0.09149412553 0.05760209882 0.03389202671) 376 738 2
(0.1812241185 0.4093879408 0.2691587902 0.1402291505) 107 153 1
(0.4862728501 0.2568635749 0.1364935128 0.1203700621) 51 99 2
(0.4227503999 0.2886248 0.2284107479 0.06021405215) 419 766 1
(0.1302057819 0.2540024213 0.434897109 0.1808946877) 117 229 1
(0.5512800452 0.2243599774 0.2005222654 0.023837712) 239 1048 2
(0.565790018 0.1924475347 0.217104991 0.02465745628) 50 97 1
(0.7045878241 0.05381981956 0.0938862684 0.147706088) 46 33 2
(0.1951965328 0.1926610014 0.2097407322 0.4024017336) 206 348 2
(0.1932772222 0.3339978664 0.4033613889 0.06936352253) 112 222 2
(0.402864242 0.06119994449 0.298567879 0.2373679345) 47 94 2
(0.3697634106 0.3040910323 0.3151182947 0.01102726242) 83 162 1
(0.4283062297 0.2858468851 0.1695023023 0.1163445829) 11 20 2
(0.3117888934 0.3441055533 0.02767140541 0.3164341479) 173 342 1
(0.3819613836 0.3090193082 0.0539869224 0.2550323858) 388 764 2
(0.5342189727 0.1127547011 0.2328905136 0.1201358126) 291 571 1
(0.1305457664 0.2771641046 0.4347271168 0.1575630122) 75 146 1
(0.1996780794 0.3835773853 0.01658357502 0.4001609603) 115 227 1
(0.09088378975 0.4545581051 0.02719178355 0.4273663216) 207 408 2
(0.2623079117 0.3651282093 0.003717834807 0.3688460442) 174 285 2
(0.5259228718 0.2370385641 0.1133577612 0.1236808029) 58 115 2
(0.6943724916 0.1528137542 0.005018770306 0.1477949839) 118 233 2
(0.9196590695 0.04017046524 0.0280156858 0.01215477944) 144 285 1
(0.6114085077 0.1172825721 0.1942957462 0.07701317403) 143 283 2
(0.1896013001 0.40519935 0.09446803219 0.3107313178) 294 577 2
(0.08871343244 0.2222490066 0.2333942772 0.4556432838) 109 215 1
(0.2954749596 0.3522625202 0.1973149545 0.1549475657) 29 1085 2
(0.6353765014 0.1823117493 0.1357980942 0.04651365508) 19 38 2
(0.3370115901 0.331494205 0.2034792424 0.1280149626) 86 168 2
(0.1666281965 0.4166859017 0.145894367 0.2707915347) 106 209 2
(0.3030315945 0.3484842027 0.2053400528 0.14314415) 231 455 2
(0.07835291804 0.460823541 0.238908072 0.221915469) 57 114 1
(0.1757196619 0.1360143062 0.2761258628 0.4121401691) 51 101 1
(0.2438136222 0.3780931889 0.05302482579 0.3250683631) 134 264 2
(0.3629528611 0.2590509857 0.3185235694 0.05947258371) 20 41 2
(0.03537194905 0.4522245837 0.4823140255 0.03008944181) 296 581 1
(0.1533924067 0.4233037966 0.2683896599 0.1549141368) 28 1084 2
(0.2786614868 0.3606692566 0.3094509663 0.05121829032) 56 109 2
(0.5532143377 0.1907335039 0.03265932732 0.2233928312) 47 93 1
(0.2504029637 0.3747985182 0.1297981413 0.2450003769) 28 57 1
(0.3284735114 0.3357632443 0.1587608576 0.1770023867) 20 1076 2
(0.08485646859 0.4354400573 0.4575717657 0.02213170836) 55 107 1
(0.4213827688 0.1493810447 0.1399275709 0.2893086156) 264 462 2
(0.3002293572 0.3105993574 0.3498853214 0.03928596406) 51 102 2
(0.1743766186 0.3836232491 0.02918844156 0.4128116907) 229 393 2
(0.3710067738 0.08398205212 0.230514561 0.3144966131) 52 103 1
(0.3372869532 0.3313565234 0.1353309024 0.196025621) 293 577 2
(0.03948286273 0.4802585686 0.2735735362 0.2066850324) 147 290 2
(0.6814174954 0.1592912523 0.1477920612 0.01149919109) 208 410 2
(0.3394196429 0.3302901785 0.326052293 0.004237885518) 23 1079 2
(0.2734714236 0.25912337 0.3632642882 0.1041409181) 27 55 2
(0.4207292362 0.2640810195 0.2896353819 0.02555436242) 86 168 1
(0.5154486602 0.0940067419 0.148268928 0.2422756699) 111 219 1
(0.2953221554 0.2290257775 0.1233131449 0.3523389223) 58 57 2
(0.1491297791 0.268527522 0.4254351105 0.1569075884) 170 333 1
(0.5577534673 0.2211232663 0.05350834842 0.1676149179) 473 930 2
(0.2081982047 0.3959008976 0.2359390917 0.159961806) 119 235 1
(0.5253792886 0.2373103557 0.1566327313 0.08067762445) 52 101 2
(0.01873137346 0.3022729927 0.1883613205 0.4906343133) 51 101 1
(0.3005479591 0.3497260205 0.09838305861 0.2513429618) 141 276 2
(0.5052965245 0.2473517378 0.1906081009 0.05674363686) 53 105 2
(0.05390509995 0.47304745 0.101040866 0.372006584) 21 42 2
(0.2817473995 0.2174915312 0.3591263002 0.141634769) 113 224 2
(0.4158203231 0.1816180314 0.110471807 0.2920898384) 18 1074 1
(0.117062971 0.4414685145 0.2142013067 0.2272672078) 54 105 2
(0.8370533555 0.01466747665 0.06680584558 0.08147332223) 19 1075 1
(0.2568413457 0.183917847 0.3715793271 0.1876614802) 268 526 1
(0.2285394779 0.3857302611 0.3767672783 0.008962982807) 119 233 2
(0.0843891823 0.4578054089 0.4534363214 0.004369087407) 173 341 2
(0.04095271441 0.4492727094 0.03025093337 0.4795236428) 238 469 1
(0.177079239 0.4114603805 0.2296974716 0.1817629089) 176 348 1
(0.6283193754 0.1858403123 0.147014286 0.03882602627) 146 289 1
(0.5427342189 0.1867481003 0.04188479025 0.2286328905) 134 206 2
(0.4092766956 0.2127426407 0.08261901147 0.2953616522) 67 74 2
(0.206445121 0.3967774395 0.3575764654 0.03920097406) 57 113 2
(0.2352881391 0.3823559304 0.1190688237 0.2632871068) 88 174 2
(0.3176459193 0.05426555025 0.3411770404 0.2869114901) 201 397 2
(0.1605372496 0.2662349947 0.4197313752 0.1534963805) 86 168 1
(0.2906852978 0.1235328568 0.2311244943 0.3546573511) 232 399 2
(0.5452002478 0.2273998761 0.02772807551 0.1996718006) 136 266 2
(0.6120231199 0.1642348361 0.02975360392 0.1939884401) 27 54 1
(0.03394934496 0.4830253275 0.376220938 0.1068043895) 113 165 1
(0.799080605 0.09488820785 0.005571489648 0.1004596975) 207 350 2
(0.3290932454 0.3354533773 0.1135293982 0.2219239791) 137 212 1
(0.21232909 0.393835455 0.04533271488 0.3485027401) 88 175 1
(0.6809480849 0.1595259575 0.01097864663 0.1485473109) 115 227 2
(0.2440568351 0.0904985971 0.2874729854 0.3779715825) 25 1081 1
(0.365029839 0.2848935869 0.3174850805 0.03259149358) 109 216 2
(0.6972311492 0.1513844254 0.1270680406 0.02431638477) 205 402 2
(0.3347971048 0.0665044262 0.2660970214 0.3326014476) 323 636 1
(0.8103122719 0.09484386406 0.01666444106 0.078179423) 86 112 1
(0.4194727395 0.2902636302 0.1400389922 0.1502246381) 207 408 2
(0.3057132644 0.1781619687 0.1689813991 0.3471433678) 318 626 1
(0.2521563077 0.2437387624 0.3739218462 0.1301830838) 141 279 2
(0.3381750357 0.09052580093 0.2403866812 0.3309124821) 51 43 2
(0.104889495 0.07306478176 0.4475552525 0.3744904708) 52 101 1
(0.295387479 0.3523062605 0.2092465006 0.1430597599) 177 350 1
(0.2657725805 0.3671137098 0.2361377033 0.1309760064) 232 455 2
(0.08655228104 0.4567238595 0.1780103964 0.2787134631) 294 579 2
(0.389539081 0.1537747275 0.3052304595 0.151455732) 84 167 2
(0.2134652197 0.3932673902 0.2274196538 0.1658477364) 236 407 1
(0.5242864884 0.1679929229 0.2378567558 0.06986383292) 318 627 2
(0.5317601782 0.1892078974 0.04491201346 0.2341199109) 24 48 1
(0.6733420766 0.123169325 0.1633289617 0.04015963674) 168 329 1
(0.303279847 0.3483600765 0.01960630544 0.3287537711) 139 274 2
(0.6791487158 0.1163655428 0.1604256421 0.04406009929) 440 864 1
(0.8068222731 0.0273920752 0.06919678826 0.09658886347) 143 282 1
(0.8699116817 0.06504415915 0.01954027862 0.04550388053) 208 411 1
(0.2613491975 0.3693254012 0.2342161649 0.1351092363) 141 278 2
(0.1525195291 0.4237402355 0.3819205439 0.0418196916) 148 293 1
(0.1276496186 0.1612374903 0.4361751907 0.2749377003) 359 705 1
(0.3673248044 0.3163375978 0.164227193 0.1521104048) 143 282 2
(0.2847476082 0.2359242868 0.1217019091 0.3576261959) 160 257 2
(0.5096516357 0.2451741821 0.1627585263 0.08241565579) 256 505 1
(0.05821929323 0.05763598787 0.4708903534 0.4132543655) 15 31 2
(0.08330404838 0.374688422 0.08365955378 0.4583479758) 192 378 1
(0.2394730087 0.2706020642 0.3802634956 0.1096614314) 206 407 2
(0.8450874832 0.07745625838 0.04401184728 0.0334444111) 209 353 1
(0.06570757681 0.4671462116 0.2422182088 0.2249280028) 105 149 1
(0.9061629641 0.02458856176 0.0223299562 0.04691851796) 28 1084 1
(0.5150458505 0.2424770747 0.03901876037 0.2034583144) 42 25 1
(0.4568673247 0.2006169442 0.2715663376 0.07094939341) 20 38 1
(0.004233871794 0.4978830641 0.01451750746 0.4833655566) 235 464 1
(0.5662575611 0.07682757114 0.1400436483 0.2168712195) 28 56 1
(0.5646017386 0.2176991307 0.1767729937 0.04092613702) 139 216 1
(0.3070486977 0.3464756512 0.1615952665 0.1848803846) 179 353 1
(0.4335298436 0.05924213003 0.2832350782 0.2239929482) 86 171 2
(0.3767186485 0.2886298746 0.0230108012 0.3116406758) 205 346 2
(0.03284326983 0.3128123963 0.4835783651 0.1707659688) 388 765 2
(0.3548264409 0.3225867795 0.09332651551 0.229260264) 388 762 2
(0.2195525577 0.0253421426 0.3902237212 0.3648815786) 78 155 2
(0.5007263232 0.1784525112 0.2496368384 0.07118432719) 236 463 1
(0.1329186875 0.4335406562 0.1352942803 0.2982463759) 197 386 2
(0.6753963344 0.1623018328 0.1610937645 0.001208068267) 53 103 2
(0.4507753778 0.2746123111 0.2009591093 0.07365320182) 80 156 2
(0.2946835453 0.3526582273 0.004476022093 0.3481822052) 233 460 1
(0.03039282791 0.01660323618 0.4682003499 0.484803586) 268 528 1
(0.5274229044 0.2362885478 0.07680896487 0.1594795829) 239 412 1
(0.02151470599 0.489242647 0.3315579834 0.1576846636) 83 165 1
(0.03396022047 0.3826024107 0.100417479 0.4830198898) 89 1043 1
(0.4675210302 0.1524517499 0.113787735 0.2662394849) 163 263 2
(0.151686198 0.424156901 0.054098666 0.370058235) 357 704 1
(0.0174863592 0.4912568204 0.05159587961 0.4396609408) 171 337 2
(0.2966252534 0.3516873733 0.1759173059 0.1757700674) 23 1079 2
(0.7385934724 0.02472509428 0.1059781695 0.1307032638) 88 174 1
(0.8605213601 0.01138331104 0.05835600891 0.06973931996) 43 27 2
(0.009176663015 0.3359248267 0.1594868418 0.4954116685) 52 45 2
(0.6428443676 0.0921901527 0.1785778162 0.08638766349) 209 412 2
(0.5388202259 0.2305898871 0.1029418679 0.1276480192) 103 204 1