/*--------------------------------*- C++ -*----------------------------------*\
| =========                 |                                                 |
| \\      /  F ield         | OpenFOAM: The Open Source CFD Toolbox           |
|  \\    /   O peration     | Version:  2406                                  |
|   \\  /    A nd           | Website:  www.openfoam.com                      |
|    \\/     M anipulation  |                                                 |
\*---------------------------------------------------------------------------*/
FoamFile
{
    version     2.0;
    format      ascii;
    arch        "LSB;label=32;scalar=64";
    class       scalarField;
    location    "0.008/lagrangian/dsmc";
    object      Ei;
}
// * * * * * * * * * * * * * * * * * * * * * * * * * * * * * * * * * * * * * //


9444
(
6.138653824e-21
9.58621094e-21
1.56353594e-21
1.358549843e-20
1.439117472e-21
5.527003998e-21
1.894826495e-21
7.246932851e-21
1.226541056e-20
6.640018016e-21
4.853449595e-20
8.363229246e-22
5.826013682e-21
2.586097406e-20
6.284355507e-21
5.388982966e-21
2.236248908e-20
2.085828321e-20
4.672263798e-22
2.402816382e-20
2.553922897e-20
6.725380645e-21
9.990363695e-21
7.076288335e-21
2.636019383e-21
2.131702711e-20
4.812317305e-20
1.279002577e-20
5.888989982e-21
1.370572286e-20
2.843661871e-20
1.081912256e-21
2.887775421e-22
1.340770215e-20
1.221859841e-20
1.908931887e-20
1.668099157e-20
2.332622642e-20
1.377403183e-21
5.498003365e-21
2.008273487e-20
1.032047324e-20
1.184513249e-21
5.917243845e-22
1.819390951e-20
1.742747637e-20
2.766751393e-20
5.983662582e-21
2.230444601e-21
1.34656113e-20
9.092871575e-21
6.505689914e-21
5.450004483e-21
5.197604983e-22
1.419330913e-20
4.386685128e-20
4.114570915e-21
1.355962981e-20
1.582387561e-20
2.822915912e-20
4.962939349e-21
1.701323849e-21
6.496385272e-22
1.036097209e-21
1.182299287e-21
6.889114965e-21
9.317185784e-21
3.340376336e-21
1.380766758e-20
1.638125236e-20
8.475297553e-21
8.040808621e-22
9.652463194e-21
9.291392816e-21
3.845723898e-21
4.482556314e-22
5.095528462e-21
2.731588294e-21
2.792635455e-20
4.788032798e-20
1.203629906e-21
1.144905132e-21
1.629706924e-20
9.839508342e-23
4.904634611e-21
3.721268887e-21
8.88656513e-21
4.410764929e-21
2.43815149e-20
4.837157777e-22
6.223325056e-21
1.392293236e-20
1.337365973e-20
5.364197289e-21
2.785198912e-21
5.039935191e-21
1.248856288e-20
8.438380497e-21
4.646649516e-21
1.435260464e-20
2.674667029e-22
2.196034527e-21
2.644195169e-21
7.385206576e-21
8.197635969e-21
2.838572039e-21
8.899099799e-22
2.027486079e-21
1.851650241e-21
9.609118184e-21
5.746269365e-21
7.74753843e-21
4.640296131e-20
1.065604475e-20
6.455498381e-21
2.932371241e-20
1.718270947e-20
3.025688189e-21
6.607592946e-21
4.863115668e-21
4.571845733e-21
2.528087523e-20
2.72010083e-21
3.683251878e-21
2.667413029e-21
2.396389559e-20
1.032214605e-20
6.576152922e-21
4.540201235e-22
3.602283915e-21
1.853492791e-20
1.088082685e-20
8.424546296e-21
1.787158725e-21
3.381757233e-21
1.109235192e-20
6.107166386e-21
1.794092311e-20
4.579345509e-21
8.387955506e-21
3.924947444e-21
3.69020725e-21
6.906824037e-21
3.718445507e-21
4.157814154e-20
1.126483844e-21
2.532585638e-20
2.042703398e-20
3.782160145e-23
2.007943206e-20
4.721492728e-21
1.510059701e-20
1.150179041e-20
3.206941937e-21
1.542502672e-21
1.332544571e-21
1.071951925e-20
7.951571525e-21
4.399895843e-22
8.431115523e-21
9.601777243e-21
7.686877687e-21
4.924615783e-21
9.130602776e-21
5.089242995e-21
2.377767614e-20
6.356997732e-21
2.223356436e-20
1.387805554e-20
3.169241328e-20
7.772649313e-21
1.436660997e-20
8.180129442e-21
4.678799987e-21
1.856414327e-20
2.075472581e-20
1.425927394e-21
4.089587978e-21
6.085319309e-21
2.447773781e-20
1.441841993e-20
1.370495831e-21
1.478582808e-21
1.232992757e-21
5.972994865e-21
3.331223714e-20
3.84286708e-20
1.20760019e-20
1.209385413e-20
5.551670841e-21
4.556977321e-21
1.943533195e-21
2.162326558e-21
8.083291371e-23
1.800449015e-21
2.153369776e-21
5.225636167e-21
1.257282134e-21
1.181571225e-21
1.136820095e-20
1.052808832e-20
1.194434063e-20
4.49337982e-21
8.387403295e-22
7.757424602e-21
4.667454269e-21
7.739945548e-21
1.10481136e-20
2.171886847e-20
9.914052183e-21
2.433776887e-21
6.167215741e-22
1.290832909e-20
3.918888405e-21
3.722356505e-21
5.598963701e-21
2.224548657e-20
2.362694797e-20
6.963683633e-21
1.012343626e-20
7.826252641e-22
9.496361021e-21
5.736177864e-21
3.710421385e-20
1.23060345e-20
1.922017313e-22
1.58340883e-20
1.100332888e-21
2.047343606e-22
5.025038141e-21
3.922006323e-21
1.980631368e-21
3.964647504e-20
5.806543084e-21
3.882426703e-21
1.112504972e-20
5.451452811e-21
8.507973092e-22
3.69052118e-21
1.73492854e-20
4.621736747e-21
1.660854272e-21
9.770559381e-23
2.463650641e-21
2.586171703e-20
5.391314001e-21
6.259230524e-21
1.138972978e-20
6.269586757e-21
1.214269761e-20
2.193434021e-20
3.025591302e-20
1.36427542e-20
6.013807939e-21
9.112497301e-21
4.336345493e-22
6.431933236e-21
6.351362739e-21
3.18402312e-21
6.49265133e-22
4.494882388e-21
7.298130133e-21
2.725045326e-21
3.987551368e-20
1.184217602e-21
2.404950132e-20
1.273659291e-20
1.555335693e-21
2.627479084e-20
8.997744507e-21
9.291060772e-22
1.892933013e-22
1.965251257e-21
1.597274661e-20
1.178296809e-20
1.954647083e-20
2.634767536e-21
1.939380563e-22
1.194473028e-20
5.539501973e-23
1.695048854e-20
1.895201986e-21
8.618440488e-21
4.059312544e-21
2.233842288e-21
6.218325312e-21
2.228169634e-20
1.227817235e-20
3.603659632e-21
1.158875831e-20
5.2174268e-21
4.961279477e-21
4.767405407e-21
1.116519241e-20
4.473208969e-21
4.13415358e-21
1.591404764e-21
1.432111309e-20
4.494649393e-22
2.7750589e-20
5.187138985e-21
1.003442224e-20
1.385033007e-22
1.391757244e-20
1.125482037e-20
9.084263432e-21
2.752481078e-20
1.189059222e-20
7.347030511e-23
1.966506651e-20
1.082360842e-20
8.239960209e-21
1.87838286e-20
1.222414884e-21
2.257717935e-20
1.535532499e-20
1.718998437e-20
5.598836439e-21
6.633391448e-21
1.415407081e-21
3.205025596e-20
7.081681104e-21
4.944567268e-22
2.309264801e-20
1.598434591e-20
8.232502807e-21
5.798941781e-21
9.735825225e-21
4.218587943e-21
1.155347999e-21
2.632595531e-20
1.750603563e-20
5.054527286e-21
4.726935478e-22
2.220749926e-21
1.288936259e-21
5.419477056e-21
9.614083984e-21
2.418815241e-21
1.416353109e-21
1.559073548e-20
3.143847631e-21
1.654381848e-21
2.121513587e-20
3.802664094e-21
1.744153639e-20
5.793307642e-22
2.452797039e-22
2.659343951e-20
4.741249601e-21
3.685361336e-21
9.391975317e-22
3.32726217e-20
1.413723706e-20
8.680978994e-21
2.017351908e-21
1.138103751e-21
1.196694895e-20
1.523857056e-20
2.648820523e-21
1.883232842e-20
1.572057862e-21
1.212476579e-20
2.23528428e-21
2.067474638e-20
5.747554774e-22
1.263447623e-21
1.340710797e-21
1.117667803e-22
1.168610079e-20
6.36717354e-22
1.289804846e-20
6.835017021e-22
2.195742018e-21
1.189042382e-20
7.67958755e-21
3.666516353e-21
1.657940181e-20
1.450912139e-20
1.47509348e-21
1.809917921e-21
1.065860619e-20
1.68116471e-21
1.198257116e-20
2.004905172e-20
5.186255879e-21
1.009836684e-20
1.202643788e-20
5.162975036e-22
7.15447016e-21
1.160784233e-21
1.387679872e-21
1.249136362e-20
3.48394586e-21
1.191112352e-20
1.139136554e-20
4.489380392e-20
2.301620632e-21
1.433686182e-20
1.367426538e-21
1.566874222e-20
1.290443115e-20
7.414711286e-21
3.863823749e-20
4.417129195e-21
2.064902889e-20
5.506796846e-21
3.466994086e-20
6.762547437e-21
5.693931111e-21
6.869283363e-21
5.402429616e-20
7.546110687e-24
9.614584019e-21
7.654766786e-21
6.683978929e-21
9.321213322e-21
9.570028749e-21
6.08297772e-21
1.591299231e-20
1.498059675e-20
1.359417442e-20
1.958700103e-21
6.018276843e-21
2.135859498e-21
5.197868559e-22
4.237104075e-22
5.063072538e-21
6.064554026e-20
6.48976974e-22
3.344586151e-20
4.107125132e-21
9.064086098e-21
3.456624265e-20
1.855022454e-20
1.786668802e-20
1.487309745e-20
9.913694256e-21
1.866926906e-21
3.64946785e-21
8.746006995e-21
1.743326744e-20
6.611105869e-21
2.415239261e-21
1.152213291e-20
5.250360056e-21
2.377070976e-22
9.62518957e-21
1.709475211e-20
1.158947673e-20
2.074054752e-20
1.695519235e-20
1.209887752e-22
4.515889957e-20
1.480422771e-20
1.583041768e-20
1.215093883e-20
2.448111208e-21
3.140423335e-20
7.026373955e-21
2.181375594e-20
4.012294226e-20
4.257466367e-21
7.37973668e-21
1.227959831e-20
4.447586978e-21
1.45578861e-20
2.993701141e-20
2.808831655e-20
2.011888569e-20
4.708342436e-21
3.655141285e-21
6.877677652e-21
2.026244705e-20
6.901346357e-21
2.14979459e-21
1.882698504e-22
1.270532586e-20
3.087380009e-20
8.22947252e-22
2.082049143e-21
2.764074658e-21
1.17816675e-21
8.303926688e-21
1.576189005e-21
3.379870509e-20
4.336106841e-21
4.360535062e-21
1.171124965e-20
9.066059951e-21
3.907146758e-20
1.992151739e-20
2.983049249e-21
1.111489559e-20
6.921830942e-22
2.170025595e-21
1.935971401e-21
1.572266661e-20
3.301067989e-21
1.458847429e-20
5.506762583e-21
2.046017376e-20
1.560533484e-20
6.55862482e-21
1.01290734e-21
1.741172686e-20
6.427928553e-20
4.220520849e-21
1.610214326e-21
1.125375395e-20
1.71008051e-20
3.375124972e-21
8.580793396e-22
3.151217007e-22
1.533163741e-20
2.751244472e-20
1.266944327e-20
2.965390085e-20
7.327625656e-21
1.015856955e-22
7.750397551e-23
1.147574794e-20
1.493241983e-20
2.40455437e-21
2.157524744e-20
4.068559617e-20
3.085287011e-21
2.059574676e-20
2.619437685e-22
1.651427057e-20
9.453321723e-21
1.332462673e-20
1.265767812e-20
2.508210541e-21
7.368785344e-22
4.361314213e-20
6.199525328e-21
1.93709847e-20
4.833309731e-20
3.543245166e-21
2.059358281e-20
1.33161338e-20
2.083333789e-21
8.511964629e-21
5.624640591e-20
4.009425986e-21
1.321770144e-20
6.409978526e-21
1.141667344e-22
4.259291399e-21
4.403253031e-21
3.562298269e-21
1.24487271e-20
8.526178239e-21
1.401868339e-20
1.563831899e-20
1.082950777e-20
1.665678775e-20
6.862060446e-21
1.688561323e-20
1.088353899e-20
1.099643284e-21
3.151142041e-20
8.318906301e-22
1.043636705e-20
4.801855958e-21
4.962723134e-21
5.327944103e-21
5.100629765e-21
1.015635752e-20
3.160427063e-20
1.801943413e-21
9.715951447e-21
2.580575474e-20
1.895367706e-20
5.60447694e-20
1.298477448e-20
4.329722945e-21
4.912263069e-21
7.357395348e-21
1.84158179e-21
2.976658306e-22
4.293587919e-21
3.575265493e-20
1.115797401e-20
7.354922641e-21
6.486014352e-21
1.67880422e-21
7.579424859e-21
1.232645008e-20
7.392192774e-21
1.401661625e-21
2.618020267e-21
1.185730733e-20
5.691065909e-21
9.555395716e-21
1.211057423e-20
2.916212407e-20
4.959400459e-23
1.703721809e-20
2.044388871e-20
8.769893973e-21
2.484858768e-21
5.586503572e-21
3.013270834e-21
1.944863711e-20
1.526965263e-21
2.490614594e-21
9.602954638e-21
5.471070698e-22
5.463568659e-21
3.244457873e-21
2.259261458e-20
1.271705065e-22
4.109577238e-20
8.204808394e-21
8.64072064e-21
4.86019838e-21
2.334484758e-21
4.004916927e-20
1.599805348e-20
5.691553221e-21
1.763447089e-21
1.606071041e-20
6.359608609e-22
6.744357273e-21
2.886160217e-20
2.020187953e-21
6.854730796e-21
3.753347442e-20
1.937275335e-20
4.142040369e-21
5.123422632e-21
1.083502558e-21
5.173196485e-21
1.888058178e-20
1.46161703e-20
1.486029948e-20
3.221938921e-21
3.450478273e-21
8.026174235e-21
3.791451911e-21
3.430905334e-20
4.087263563e-22
1.751197648e-20
2.770250159e-21
1.478531917e-20
1.209061592e-20
1.531160063e-20
3.694176327e-20
6.030576849e-21
3.180564062e-20
3.308187301e-20
2.840437906e-22
3.252244117e-21
2.295706894e-21
1.404698174e-20
1.505139676e-20
3.438619096e-21
1.372809488e-20
8.078256106e-21
9.646846748e-21
2.126282856e-20
5.829620618e-21
3.561164877e-20
3.705295975e-21
1.138634573e-21
3.359891896e-21
8.828665342e-21
1.191266275e-20
1.705499763e-20
1.088599475e-20
2.256042864e-21
2.378195126e-20
1.268286577e-23
1.323383424e-21
1.1401042e-20
2.392421688e-21
8.40134207e-21
5.124337039e-21
6.970854209e-21
5.381202383e-21
4.869103961e-21
2.665218902e-21
5.61747088e-21
4.206427702e-21
2.391264984e-20
7.553271245e-22
9.239217875e-21
3.152013338e-21
2.163675742e-20
8.09191869e-21
1.018729753e-20
6.321318316e-21
6.156101428e-22
4.187412972e-20
3.66125849e-20
1.323684157e-20
1.091865836e-22
8.936301756e-21
1.926895064e-20
2.492098964e-21
3.597221765e-20
9.939236615e-22
1.039229088e-20
1.518549068e-20
1.177946151e-20
4.684934172e-21
7.013338581e-21
2.065498599e-20
2.231271353e-21
5.964618968e-21
4.498237279e-21
2.043577381e-20
6.075244757e-21
1.666438914e-20
8.491211905e-21
3.889800031e-21
2.494231686e-22
3.948290915e-22
2.070281791e-20
2.295940172e-21
1.084432648e-21
9.413936872e-21
1.296661836e-21
1.765794388e-20
4.108512272e-21
3.169046527e-22
4.211855605e-20
2.095606488e-21
2.378437589e-20
1.225498878e-21
3.685010242e-21
4.257012394e-20
6.309054813e-24
4.774423583e-21
1.778529076e-21
9.310128594e-21
8.615486915e-21
2.350813728e-20
1.502634516e-20
2.71520375e-20
1.182875923e-20
1.019471514e-20
1.176553195e-20
9.718947652e-22
1.429989737e-20
7.384366762e-21
8.391074984e-21
7.680005982e-21
2.645274094e-20
1.137275745e-20
7.139505319e-21
2.628256546e-20
1.938069964e-20
2.930310799e-21
5.456597851e-21
3.723903924e-21
2.765021213e-20
2.800226947e-20
4.093268624e-20
1.162185117e-20
5.591291632e-20
2.03091297e-20
4.094561465e-21
8.674795414e-21
4.150627545e-21
1.77193335e-20
2.742800038e-20
1.265237146e-21
1.265849678e-21
4.281669784e-20
1.569530013e-20
1.198361693e-20
2.760348509e-21
2.356188785e-20
1.927625759e-21
8.035509117e-22
5.323444338e-20
1.979360572e-20
2.866192103e-20
2.084696122e-21
1.727749249e-20
1.099327601e-20
6.429260784e-20
3.200758994e-21
2.352193146e-21
8.655974506e-21
4.046207762e-22
1.580925473e-20
1.84483302e-21
1.118375304e-20
5.387375176e-21
9.67959832e-22
2.923809286e-21
2.276232242e-20
7.216135891e-21
1.417989549e-20
4.499618162e-21
1.946663396e-20
3.179858477e-22
2.53242027e-20
3.313141785e-21
4.08934209e-22
7.382104626e-22
3.266848464e-20
1.482033168e-21
3.111198833e-20
4.141891244e-21
1.823668038e-21
1.993663808e-22
3.067946193e-21
9.110712368e-21
2.234509294e-20
1.684006661e-20
2.208365388e-21
8.785635987e-21
5.434524317e-22
2.813344915e-20
4.699585502e-21
1.20327582e-20
7.737086609e-21
2.23778356e-21
2.163924382e-20
6.106380212e-21
2.624028639e-21
3.247966211e-22
1.246507583e-21
1.596700248e-20
1.428756228e-20
5.558631183e-21
8.47194501e-21
2.86097319e-21
8.141594606e-21
1.407555871e-20
1.119001454e-20
5.94368624e-21
1.990622243e-20
1.255148569e-21
4.388970303e-22
7.396225184e-21
7.957735274e-22
1.224017139e-20
2.089376972e-20
1.940123396e-20
1.348464979e-20
5.370119994e-21
1.052232394e-20
1.312269064e-21
1.686351255e-20
7.437872937e-21
1.508462362e-21
2.679024948e-22
1.591886832e-21
9.365833026e-21
1.963355763e-20
5.736480523e-20
8.193155772e-23
3.959108336e-21
1.102513167e-20
6.51757537e-21
2.642471182e-21
1.752306501e-21
8.399273364e-21
9.536314398e-21
3.690438517e-21
3.514981449e-21
5.209529574e-21
4.251135135e-21
3.955274439e-22
1.39833498e-20
1.324034816e-20
5.934138461e-21
3.989702245e-21
1.465970246e-20
1.534149784e-21
2.583818174e-20
2.057057188e-21
3.219207907e-21
8.521894518e-21
6.014160349e-21
3.502379422e-20
1.808164505e-20
1.128989368e-21
4.140855454e-22
4.174322151e-21
6.738836711e-21
2.454382852e-20
9.361154501e-21
3.732202333e-21
2.029600173e-20
3.189048168e-20
2.277193732e-20
1.596082487e-21
8.721848771e-22
3.703511175e-21
7.61113458e-21
8.127373248e-22
3.162009747e-21
4.957935694e-21
1.037107805e-21
2.809525188e-20
9.856033615e-22
8.4777498e-21
1.60850652e-20
2.037223674e-21
1.775565219e-21
2.622510319e-20
4.771585928e-20
3.816027019e-21
1.353426923e-22
2.712820819e-20
7.547923932e-21
4.16983149e-21
4.04803562e-20
6.307303344e-23
1.129720406e-20
1.119591279e-20
5.462143861e-21
5.384394401e-21
1.22640822e-20
6.065012535e-21
2.330261669e-21
1.841149375e-20
1.744343213e-20
9.660701936e-22
1.799956949e-21
9.697023512e-21
1.625232159e-20
1.130396523e-20
2.209725412e-20
1.495437148e-21
1.827573312e-20
6.384853081e-21
1.425098943e-21
2.685482342e-21
5.337485031e-21
2.856200292e-21
1.370434679e-21
5.56171736e-21
7.928697388e-20
7.911869481e-21
6.366401222e-21
7.943114387e-20
4.355107476e-21
1.364757997e-20
6.138863334e-22
8.582130115e-21
2.555268828e-21
1.7193459e-20
1.510962581e-20
4.295750565e-20
1.606998519e-20
5.170571447e-21
6.923673754e-21
1.67102602e-20
9.008409629e-21
1.951829516e-20
1.76094146e-21
2.380440552e-20
7.987718973e-23
9.854482709e-21
2.376625713e-21
1.748886507e-20
6.820727658e-22
1.259819696e-20
2.398175248e-20
1.548163143e-21
3.365228256e-21
1.031969973e-20
3.187527556e-21
8.738958753e-21
2.503480748e-21
2.415900602e-20
7.861901776e-21
3.494066945e-21
3.057439505e-20
8.61047654e-21
1.11666458e-20
1.362088236e-20
3.022395448e-21
1.473950371e-20
5.588574094e-21
1.670450283e-20
8.506234442e-21
1.053966831e-20
7.363060805e-21
5.999139926e-21
1.647927463e-20
2.440776187e-21
4.788077778e-21
2.501246206e-22
5.341677626e-22
4.672422062e-22
1.771418105e-21
8.299450322e-21
3.148162236e-20
1.073395009e-20
2.003050578e-20
1.277272124e-20
1.701837793e-22
1.113602095e-20
3.678999501e-21
5.008263299e-21
1.097242969e-20
2.440803474e-20
4.417517903e-21
4.725810014e-20
5.879372175e-23
7.248679684e-22
3.285922761e-21
1.468288793e-20
3.111770432e-21
5.221592501e-21
1.960237017e-20
2.043674384e-21
2.458964004e-20
2.10544596e-21
7.228997422e-21
1.636410317e-20
7.845791749e-21
1.244630667e-21
5.105810497e-21
4.380824838e-21
4.390579711e-20
2.040196768e-20
5.585614266e-20
1.00974315e-21
7.017493784e-21
6.897388045e-21
1.194792054e-20
5.781046693e-20
4.827691768e-21
8.556036966e-21
1.981265112e-20
5.383641279e-21
3.327300807e-20
6.703752169e-21
2.408790133e-20
9.120523254e-21
5.871386972e-22
1.929555696e-20
1.534548744e-21
5.359029352e-20
1.068573921e-21
4.585810672e-21
1.140275663e-20
1.409335014e-20
1.563418883e-20
3.561342315e-21
1.092258951e-20
6.627763216e-21
2.483541547e-20
3.021605056e-21
5.642438159e-21
1.814102618e-20
3.202404063e-21
4.808102544e-21
5.58725757e-21
9.775472875e-22
7.489512745e-21
8.217223885e-21
6.461694295e-21
2.813117832e-21
4.517669288e-21
8.162977874e-21
1.280099031e-21
3.688156684e-21
1.958998079e-20
9.492707815e-21
2.162150876e-20
2.069584964e-20
1.847151245e-20
5.95325139e-21
2.895427261e-21
6.896462713e-21
9.46800249e-21
1.075218409e-21
5.214237704e-21
8.539257734e-21
8.979368175e-21
1.654361238e-20
9.201718368e-21
1.585962399e-20
1.384364062e-20
1.439692354e-20
2.178142216e-21
2.288906997e-20
3.351908397e-20
9.635209991e-21
3.06829759e-21
1.074562115e-20
2.968467306e-21
1.527947612e-20
1.723883425e-20
3.280688205e-20
6.196842515e-21
6.862802646e-21
1.536746469e-20
1.361337672e-20
9.780589398e-21
6.785948294e-21
1.076028707e-20
2.772530386e-20
1.389967548e-20
1.178750106e-20
9.651110274e-21
1.5885246e-20
7.503700038e-21
2.141840965e-21
7.768102831e-21
4.267437554e-21
5.24973044e-23
4.968471366e-21
9.147090115e-21
4.04416065e-21
5.796640759e-23
2.67971578e-21
1.00072206e-20
8.821615572e-21
3.451414063e-20
5.181920347e-21
1.044443783e-21
5.158546265e-21
2.373615451e-20
5.709286123e-21
1.688175401e-20
1.422612393e-20
2.054863227e-20
8.073434872e-21
4.887719112e-20
5.321302998e-21
6.711947664e-21
1.417721739e-21
1.192279681e-20
3.192800017e-20
7.901402693e-21
1.137481636e-20
4.470951686e-21
4.430401665e-21
6.119637001e-21
1.96177973e-20
1.676353191e-20
2.003406417e-21
1.544395606e-20
2.40328184e-20
9.594924623e-21
4.300009961e-21
1.523854243e-20
3.353993779e-22
1.092255024e-20
5.828208582e-22
2.871966834e-21
1.436022961e-20
8.051303304e-21
3.791822178e-20
7.414642913e-21
3.714607966e-21
3.184174949e-21
3.097632718e-22
3.824316947e-21
6.013828677e-21
5.974486785e-22
1.104476382e-20
3.504706765e-22
1.270967309e-20
4.818755644e-22
3.220127143e-20
1.002748432e-20
9.517308634e-21
2.874340285e-22
5.898181247e-21
5.553848311e-21
5.814688922e-21
7.592406777e-21
3.949481704e-20
1.446521982e-21
6.256895232e-22
5.755569941e-22
3.741098802e-21
1.13918175e-20
1.692367575e-20
1.491083783e-21
3.787218608e-21
9.144849433e-23
2.204041347e-20
1.436845273e-20
2.486881631e-20
1.475864935e-20
4.108341336e-22
1.141977708e-21
2.966251216e-21
3.739622663e-21
1.22261539e-20
6.421312559e-21
5.042149123e-21
1.75024965e-21
2.093917561e-20
6.825015694e-22
2.181941314e-20
3.111706608e-20
6.830372732e-21
8.3018089e-21
4.612543128e-21
1.935964651e-21
8.089275042e-22
1.767274145e-20
1.264330523e-20
3.389994209e-21
1.533475006e-20
4.020685732e-20
1.678060104e-20
2.701810938e-20
4.317083355e-21
3.083195646e-21
3.865639115e-21
6.343719005e-21
5.815498922e-20
5.324764403e-21
6.526915424e-21
1.037938719e-20
2.970723666e-21
7.622372382e-21
1.556395811e-20
8.208185533e-21
9.438532019e-21
2.638437023e-22
8.916228893e-22
1.582528024e-20
1.005104614e-20
7.831523813e-21
1.996288623e-20
1.047428259e-20
3.343326889e-20
7.848881202e-21
2.213491635e-21
8.450290077e-22
2.032554739e-20
3.016820294e-20
9.908002936e-21
2.397156299e-21
2.560923296e-21
1.296068642e-20
1.108207739e-21
5.008781447e-21
6.755912536e-21
6.936836419e-21
1.019291894e-20
3.294669554e-21
3.874714563e-20
7.572467056e-21
3.58378788e-20
5.106498415e-23
1.670526794e-20
1.327626582e-21
5.646559298e-21
2.770031514e-20
1.954496097e-21
1.014555057e-20
1.967540937e-21
5.559603817e-21
4.340551261e-21
1.376878796e-20
1.62804038e-20
2.154794899e-21
4.154506469e-21
2.285776801e-20
1.049898758e-20
7.285774761e-21
1.344061739e-20
3.999229896e-20
2.244088153e-20
2.889402533e-20
2.521750971e-21
7.643357248e-21
4.379239061e-22
7.313671465e-21
4.791072401e-21
2.091930179e-21
2.189772015e-20
1.088137742e-20
2.533664507e-20
1.417804751e-20
2.276954206e-21
6.673903181e-21
1.68434706e-20
3.281906998e-21
1.849835069e-20
4.729392149e-21
2.046374796e-20
4.568667546e-21
1.061592798e-21
1.663085256e-21
1.069552037e-20
3.503291768e-21
1.747994402e-21
1.109905923e-20
1.939407955e-20
6.420592332e-20
3.570582293e-20
3.052454221e-21
8.00342229e-21
8.882650078e-22
1.419458928e-20
1.93265325e-20
1.927812717e-20
5.56632058e-21
9.895319669e-21
6.300497892e-22
5.728795442e-21
2.225050716e-20
1.416775342e-20
1.173734167e-20
4.125845246e-21
7.119502496e-21
2.441101429e-21
1.760597348e-21
1.521943889e-20
1.866369759e-20
5.676886951e-21
1.88913477e-21
9.964863026e-21
1.52349089e-20
1.94210633e-20
6.192174032e-21
2.042087847e-20
3.98595984e-21
1.859305789e-20
5.715005025e-21
2.758690927e-21
2.171200388e-21
2.05737779e-21
2.151699635e-21
3.364220144e-22
1.282530389e-20
1.852200495e-20
6.743473723e-21
7.01919277e-21
1.044450785e-20
1.944759999e-20
5.063617117e-20
2.92550207e-21
2.009509617e-20
6.667270798e-21
5.929906128e-21
1.63723806e-20
2.013941336e-20
2.641030658e-20
3.533362176e-21
3.53927465e-21
2.740079219e-20
3.167629562e-21
7.794977011e-21
7.850285415e-21
4.48964565e-21
1.145806031e-20
3.467423686e-21
1.191524526e-20
5.438108126e-21
1.388852723e-20
3.074593595e-21
1.072262779e-20
5.505303094e-21
4.341739681e-21
1.420111817e-20
9.507155183e-23
5.346314623e-21
3.186600052e-20
1.804264772e-20
1.3798961e-20
4.114924088e-21
2.150599412e-20
1.808089148e-21
2.92474578e-21
3.103859849e-21
2.087664177e-20
2.558370169e-20
1.585603369e-20
1.300348498e-20
2.004248975e-20
4.938348586e-22
3.311185288e-20
1.818295121e-21
9.183556032e-22
3.347122026e-20
8.10020763e-21
3.215122868e-21
1.95434099e-21
2.184136754e-20
6.172168068e-21
5.29727987e-21
4.08874692e-21
7.077978026e-21
1.353725186e-20
2.458332368e-20
1.704674068e-21
2.15569652e-20
5.53692147e-21
2.16740211e-21
1.532384456e-20
1.794639251e-21
8.318620316e-21
1.597131935e-21
5.636235911e-21
3.181310584e-21
3.37277872e-21
3.69028066e-21
2.163297962e-20
6.617858138e-21
1.716297232e-20
3.285945586e-21
4.186243609e-21
1.24183646e-20
5.852967526e-22
1.680991945e-21
2.65708373e-20
6.0632016e-23
6.04291456e-21
5.814327476e-21
2.633865972e-20
3.042649628e-20
7.704486756e-22
3.008817304e-21
4.297865103e-21
8.02304882e-21
1.284815409e-20
2.216539968e-20
1.801751733e-21
7.517765123e-21
1.012621735e-20
1.681951539e-20
1.492782194e-20
1.652578549e-20
3.135426692e-21
1.623777717e-21
1.141694199e-20
1.105048111e-20
2.420099779e-20
2.70762911e-21
2.096740019e-21
4.251060253e-21
8.998268377e-21
2.347920826e-21
1.470204537e-21
1.862160638e-20
3.274687149e-20
2.927753142e-20
1.013328619e-20
1.359589655e-20
6.110055309e-22
2.377541921e-20
7.386106204e-21
3.187990159e-21
3.556125993e-20
4.795103341e-21
4.467113351e-20
1.106708991e-20
2.681410501e-20
1.245918979e-20
4.569021425e-20
1.108111131e-20
3.421946553e-21
1.329710401e-20
2.129476469e-20
5.402904367e-21
5.75129308e-21
6.976476284e-21
7.537053759e-21
6.904650998e-21
2.755703347e-21
2.137661261e-20
4.175866865e-21
1.575024885e-20
1.101551122e-20
5.416407162e-21
3.065776612e-20
6.135273995e-21
6.098029819e-21
9.595079563e-21
2.175658627e-20
2.67886684e-21
7.899970818e-21
6.462376516e-22
1.050612816e-20
1.029816893e-20
3.71559032e-21
1.187014432e-20
4.434132012e-20
2.182730515e-22
2.398524955e-20
6.042272707e-21
8.373594559e-21
5.33585429e-21
2.38389049e-20
7.334369495e-21
3.926667548e-21
3.564297464e-21
8.789654139e-21
1.690153084e-20
3.533628697e-21
1.939966415e-20
9.021554355e-21
5.448594147e-21
2.285171791e-21
1.561622854e-20
3.09590573e-21
1.614029765e-21
1.756343349e-21
3.007179945e-20
3.084333482e-21
2.106090565e-20
7.291443639e-21
1.644252384e-20
2.818002376e-23
5.863897495e-21
5.230080781e-21
1.612579189e-20
5.464538537e-21
2.042616361e-20
1.912584547e-21
5.807079772e-21
4.37492118e-21
1.456431021e-20
2.765058945e-20
3.433035883e-21
2.468445719e-20
6.304960811e-20
2.55609307e-21
6.254484231e-21
1.298552259e-20
6.446568783e-21
9.343249791e-21
1.720647981e-20
7.746294444e-21
2.105702228e-20
4.335844074e-21
6.195752966e-21
1.80763362e-20
6.728108868e-21
1.534027086e-20
1.165459401e-20
3.189265374e-20
2.970521179e-21
1.018943558e-20
3.989976765e-21
1.137888388e-20
9.075949749e-20
3.350806242e-21
8.553198352e-21
6.939394915e-22
1.298592663e-20
9.366866433e-21
7.860311985e-21
4.199419328e-21
1.320682751e-20
9.885994591e-21
5.685689413e-21
9.530728843e-21
1.64751683e-23
1.332005278e-20
3.515950966e-20
9.638019379e-21
5.395581894e-21
1.199990948e-21
1.991190838e-20
1.381559778e-20
2.522930335e-20
8.869636848e-21
1.472948717e-20
6.185386058e-21
1.411774635e-20
4.209866273e-21
8.581455797e-21
9.382471223e-21
1.532376211e-21
4.079974768e-20
8.609760224e-21
8.232138424e-21
5.78254424e-21
8.009992845e-21
2.4046783e-20
5.937564314e-21
1.080343578e-20
1.562215955e-20
1.964714942e-20
1.081003414e-20
7.246971458e-21
6.699815116e-22
3.081796436e-20
2.795840666e-20
7.980785688e-21
2.577259522e-20
1.8845518e-23
1.209143345e-20
7.328750698e-21
6.098813017e-20
5.828892243e-23
1.256041293e-20
1.812408954e-22
2.70497669e-20
2.280713077e-20
7.53918757e-21
1.831065422e-20
2.501859313e-21
2.043407643e-21
2.28772261e-20
9.597549103e-21
8.790963426e-21
3.251688889e-21
1.789687139e-22
1.108412387e-21
3.659050947e-21
3.696559494e-21
1.325969111e-20
3.815891289e-20
5.199481968e-21
4.334655825e-22
4.213547334e-21
7.351434471e-21
1.665029836e-20
6.756886396e-21
9.747439135e-21
8.07616367e-22
3.396494649e-21
1.035114112e-20
6.689350273e-21
9.305677075e-21
7.294532366e-23
9.333930253e-21
3.07749354e-20
1.27474947e-20
8.160883139e-21
2.25721277e-21
1.866245099e-21
2.195337001e-20
1.39553497e-21
1.461317718e-20
3.827862524e-20
1.103110361e-20
1.231111453e-20
8.66635415e-21
6.281765013e-21
1.320453148e-20
6.115292181e-21
1.870412332e-20
4.277028404e-20
3.01295995e-20
1.576941266e-20
2.147097048e-21
1.192266725e-20
5.009937557e-21
1.091707073e-20
9.052198172e-21
8.391500265e-21
1.448970531e-21
4.180510064e-21
2.06313548e-20
1.916162805e-22
1.627726444e-22
1.069737752e-20
8.306951127e-21
2.562828287e-20
3.227795552e-21
1.650604493e-20
8.542598524e-22
4.838202653e-21
1.178834396e-21
4.779471747e-21
7.813710318e-21
1.272749816e-21
1.611358621e-20
1.162965211e-20
6.953569924e-22
1.466700948e-21
1.003775623e-21
7.006061492e-21
8.785096419e-21
1.544391752e-20
8.091631628e-20
1.336719581e-20
8.005054846e-22
9.673777474e-21
2.582253396e-20
3.177687457e-20
1.040591492e-21
9.542216698e-21
1.317708222e-20
2.101855533e-20
4.366300937e-21
7.909499328e-21
7.592202208e-21
6.381999981e-22
8.162709977e-22
1.14354339e-21
8.338365998e-21
1.33783216e-21
1.842936775e-20
2.37692002e-20
7.961414884e-21
4.863939703e-21
1.789825695e-21
1.717703004e-20
1.57768258e-20
3.921722095e-21
7.941635381e-21
3.243072363e-21
8.932257437e-21
4.729503887e-21
1.011177075e-20
7.637988346e-22
5.452483191e-22
5.38125844e-21
2.140950313e-21
4.695408706e-21
3.563194189e-21
3.94013712e-21
3.911106901e-20
3.16811581e-20
2.669269223e-21
9.813419905e-21
2.969055567e-21
2.965471803e-21
4.711191793e-21
1.484225143e-21
1.173748803e-20
4.796263965e-21
7.062185494e-21
1.295869346e-21
5.420211425e-21
2.42353866e-20
1.327870757e-20
1.060636137e-20
3.916178078e-21
1.218651724e-20
3.735937277e-21
4.465180955e-21
3.649642302e-20
1.310149392e-20
9.726040722e-21
3.797616068e-21
6.461435906e-21
1.163004403e-21
2.447751298e-21
1.803596696e-20
5.050072138e-21
1.632726787e-21
4.975265587e-21
5.813529321e-21
8.336838809e-20
2.614894502e-20
3.068733222e-20
5.016188093e-21
9.617390453e-21
8.662683131e-21
5.071159672e-21
7.252485182e-21
1.294360367e-20
6.870331382e-21
1.511167639e-20
2.588906038e-20
1.700004888e-20
1.709087392e-20
2.243757145e-21
4.620858515e-21
1.014491775e-20
6.612418135e-21
1.34142532e-20
1.88632083e-20
2.576854367e-21
3.290522573e-20
7.216693892e-21
9.726956309e-21
9.047061358e-21
2.336057388e-21
4.106828387e-21
9.857119253e-21
5.855061189e-21
1.999597534e-20
5.880427809e-21
9.71470993e-21
2.281763008e-21
2.179174116e-20
6.534180374e-21
3.383944495e-21
1.442541683e-20
9.440175234e-21
1.016508464e-20
1.88431318e-21
2.253447604e-23
1.342398173e-21
1.312850696e-20
2.498974418e-21
3.204509164e-21
3.117906647e-20
3.296236124e-21
5.677013228e-21
3.891742911e-20
1.957691749e-22
1.843093244e-21
2.413333051e-20
3.497385586e-21
5.181251538e-21
2.050072398e-20
5.984789073e-21
7.936568893e-22
3.419471551e-22
1.037692705e-20
3.536929637e-21
1.129722085e-20
9.518254432e-21
1.107865629e-20
3.302427843e-22
2.849513558e-20
3.372658407e-20
9.825200861e-21
4.803750907e-21
5.908702189e-21
1.166694521e-20
4.670641074e-21
6.005965218e-20
5.101709402e-21
6.597466222e-21
5.722862958e-22
9.820842014e-21
1.414541971e-20
1.010463464e-20
1.116520288e-20
1.594433565e-20
2.808873983e-21
1.001238487e-20
9.140716727e-21
2.442167462e-21
1.209846864e-20