/*--------------------------------*- C++ -*----------------------------------*\
| =========                 |                                                 |
| \\      /  F ield         | OpenFOAM: The Open Source CFD Toolbox           |
|  \\    /   O peration     | Version:  2406                                  |
|   \\  /    A nd           | Website:  www.openfoam.com                      |
|    \\/     M anipulation  |                                                 |
\*---------------------------------------------------------------------------*/
FoamFile
{
    version     2.0;
    format      ascii;
    arch        "LSB;label=32;scalar=64";
    class       labelField;
    location    "0.008/lagrangian/dsmc";
    object      origId;
}
// * * * * * * * * * * * * * * * * * * * * * * * * * * * * * * * * * * * * * //


9444
(
368371
370124
370918
368180
369997
371448
375025
373127
368999
374627
370233
373082
373630
373314
372205
374817
376717
379042
373690
375629
377587
376971
376645
378414
379060
374606
378508
379070
379003
380069
380667
382995
378831
379318
379545
379946
379962
379314
376061
372696
379646
382204
379228
381498
379324
380863
379407
372174
383134
381894
383018
379629
380546
382415
377482
377575
381977
382230
382821
383114
377262
381464
378597
380965
381251
381997
383197
383417
383527
380459
382497
383264
383820
380771
382835
383274
383342
383536
381770
378801
379334
380063
381046
381970
382126
379847
380500
383216
384139
383754
381509
383115
383720
383926
381395
383721
384653
384974
379821
381467
383028
384134
384161
380348
382279
384114
384485
385200
385286
380481
381680
382595
383421
384953
383717
381678
383325
383331
374720
380145
384867
384136
384445
386079
379312
384471
385069
384883
385212
385786
382582
384224
384871
385709
378816
385971
384437
385672
387094
381455
383423
385342
384954
385052
379927
385146
385476
385882
385985
386052
385061
385241
387815
383208
386584
387180
387699
387701
381372
387516
387801
382592
382685
387177
385057
329373
384335
385957
386189
386614
380782
384754
386287
387121
387628
385546
386374
387284
387923
384858
385532
387503
384225
386704
387735
383123
382701
383611
385368
385447
386078
386894
385244
386073
386364
386478
387200
387733
390342
380835
386492
387075
388734
384366
386481
386493
387283
387945
387117
387290
388259
331328
384552
386919
387870
383337
386282
387392
388025
388933
389044
384218
381975
383656
384865
384967
386999
387013
388262
386511
387842
388036
377888
382690
385777
387211
387911
390175
386178
384468
387953
388961
389247
389943
390142
387793
388318
388561
389166
383806
387499
387584
388115
388253
389874
383141
384243
385260
385442
386792
388423
388657
388843
384530
388132
388626
388719
388849
386066
386987
387088
388723
389349
389902
382784
384229
387434
387709
388310
389533
389712
391480
382182
384952
386688
387192
388245
388815
388834
389150
389335
388312
389038
390295
390653
387926
389367
389761
390300
384634
385554
385756
386398
387195
387407
387415
388032
389240
389344
389605
390188
390574
390779
386798
386876
388541
388644
389303
389556
389795
390774
392397
381982
383204
386155
386389
389343
389577
389995
390648
391070
380344
384749
387609
389019
389357
389642
389862
390484
390567
385755
386397
386698
388861
389243
389552
390488
391527
380029
388333
388924
389341
389464
390191
390566
390689
391580
388013
389176
389969
390996
385456
386390
387093
387604
388011
388027
388524
389131
389238
389978
390183
390692
390759
391118
391223
391392
387941
388732
389965
390077
390089
390281
390676
391083
391106
387307
388345
389024
389142
390059
390253
390685
392247
389683
390358
391304
391798
387175
387634
389600
389660
389957
390283
390372
390375
390388
390763
391009
391187
385446
386384
388007
388343
388425
389070
390092
390383
390879
392291
388922
389666
390556
390799
390873
390891
391781
387188
388525
388575
389160
389854
390473
390924
391190
391426
391492
391608
391722
384860
386062
386886
388736
389546
390154
390346
390902
391698
391997
386994
388745
389970
390784
391316
391409
391416
391916
389332
389796
390272
390467
390582
390788
390819
392035
392238
393109
386499
385757
389652
389741
390087
390270
391096
391333
391927
392010
392118
392661
394036
385553
387920
388225
389968
390262
390392
390519
390705
390782
391107
391499
393030
393927
387820
388308
389454
390155
392092
386281
390150
390203
390792
391006
391896
392240
392362
388412
388718
389696
391140
391373
391681
391809
392105
392119
385969
387717
391172
391179
387715
389016
387918
388627
389977
390271
390285
390864
391305
391910
392108
392420
384934
389956
391065
391961
392236
392288
392448
392513
392947
393325
393432
393973
394955
391395
388712
391699
392141
392631
392641
392720
392741
392768
392939
392949
393422
388022
388208
389973
392000
392103
392644
392729
392832
393117
393529
385347
390174
390457
390884
390898
391417
391490
391593
391912
392403
393433
393448
386071
390981
391197
391382
392115
392259
392260
392390
392656
392853
392925
392955
393416
393864
387805
389960
390190
391825
391943
392230
392298
392620
392630
392655
392662
393825
395155
391196
387740
389758
390505
390754
390960
391174
392600
392918
393255
389863
390706
390881
391298
391595
391911
391955
392323
392412
392688
392769
393022
393126
393374
385671
389850
390560
391210
392307
393344
393455
393468
393760
393946
388220
388640
389334
390045
390674
391393
391398
391714
392199
392338
392409
392758
393078
393370
389242
389456
389959
390162
390999
392605
393157
393158
394277
394550
388316
391117
391705
393143
393335
393340
388314
391073
391130
392135
392401
392609
392948
393108
393166
393466
393654
393749
393948
394172
394794
386995
388614
388825
392082
392414
392650
392711
393266
393368
393450
393536
390398
391089
392350
392835
392922
392963
393110
393845
394142
394175
394259
389119
389234
389235
390661
391282
392008
392023
392426
393112
393236
393242
393658
393743
394302
394375
394594
394752
338084
389032
390048
392339
392525
393054
393366
393538
394255
394381
394585
394792
389232
394073
385174
389940
391519
391590
391984
392214
392645
392817
393247
393364
393765
393766
394097
394158
394369
394581
395051
395504
390568
391779
392443
393346
393427
393551
393754
393836
393886
394057
394258
395408
386080
389355
392703
393217
393758
394269
394387
394588
394798
388233
391066
389842
390564
392221
392408
392540
392735
393761
393850
394049
394062
394106
394250
394266
395079
395103
396186
388722
388733
388830
389663
390458
391291
391689
392410
392821
392931
393549
393612
393650
393762
393853
393960
394264
393837
393844
394404
395601
387501
387691
389861
391588
392436
393418
394180
394871
395300
395778
396007
392516
388328
393635
393636
393855
394043
394141
394167
394285
394408
394457
394648
394661
394751
395302
395925
393137
388934
390481
391188
393229
393234
393611
393661
393851
393891
394156
394257
394450
394463
394560
394571
394576
394729
394864
395093
395167
395367
395493
395887
396030
397203
397620
392494
379848
385257
389985
391386
391501
392109
392201
392243
392603
392737
393049
393221
393528
393639
393753
394251
394455
394589
394758
395091
395173
395371
395473
389348
391483
392203
392331
392731
392851
392950
393542
393544
393645
394037
394154
394182
394468
394660
394766
394884
396451
396798
398220
393634
389436
389542
390159
391585
391680
392602
393873
394159
394196
394567
394603
394872
395184
395983
396315
396490
391987
390995
386701
388746
389637
390808
391710
392724
393954
394153
394179
394181
394354
394572
395082
395188
395271
395595
395641
395667
391789
390168
390248
390263
391796
391907
392924
392935
393027
393122
393719
394249
394546
394850
394876
394976
394989
395305
395524
395687
396491
396741
397718
392745
392747
393140
393424
393440
393827
393957
394555
394972
395090
395191
395254
395265
395276
395296
395387
395393
395485
395573
395692
396025
340090
389653
391280
391506
391884
392721
392936
393329
393656
394046
394155
394689
395194
395275
395623
395665
396012
396022
396106
396400
396516
396592
396721
384322
398424
389465
392635
393617
394995
395280
395289
395511
395683
395702
395775
396082
396584
396694
397102
392301
394565
388018
389658
392197
393230
393332
394372
394602
394780
395255
395365
395375
395500
395501
395688
395694
395725
396128
396296
396468
396724
397410
394684
394458
394343
392311
393638
393732
393857
394469
394545
394663
394858
395175
395374
395670
395685
395799
395888
396135
396185
396313
396844
396998
398527
390482
391495
391626
392831
393225
393425
393518
394417
394879
394977
395177
395262
395834
396045
396192
396433
396994
394085
394281
394562
395183
395392
395705
396015
396101
396216
396286
396499
396527
396646
396756
399046
393670
386877
390072
390499
393127
393926
393977
394667
394785
394813
394857
394985
395284
395372
395536
395792
396013
396404
396510
396720
396831
397101
397232
397238
391599
391284
393254
393720
393757
395611
395807
395811
395814
396105
396306
396333
396411
396429
396623
396920
398730
391372
392715
393940
394486
394757
394849
395111
395125
395394
395684
395908
396010
396188
396293
396440
397122
397196
397204
397343
397733
391786
393315
393347
394038
394706
394906
394960
394980
395486
395510
396204
396357
396635
397092
397129
397425
389248
390878
393831
393843
394442
394784
394790
394875
395084
395397
395465
396121
396197
396520
396613
396820
397340
398323
392305
389563
393420
393736
394577
394779
394981
395071
395076
395195
395617
395664
395813
396209
396309
396328
396622
396807
397011
397096
397296
397470
397832
393854
394772
390976
392607
392622
393747
393949
394160
394670
395180
395679
395905
395927
395997
396568
396604
396715
396740
396787
396840
397137
397237
398837
387810
390361
390765
393924
394261
394966
394984
394994
395277
395457
395785
395789
395794
395901
396024
396127
396189
396338
396542
396732
397002
397099
397125
397341
397764
397780
394151
393421
383716
391990
392629
393333
394580
394789
395066
395213
395358
395690
396057
396445
396515
396538
396932
397006
397130
397335
397456
397982
392836
393034
393328
393625
394755
395068
395087
395476
395571
395704
395803
395812
396019
396319
396448
397029
397127
397443
397461
398127
388624
392095
392727
393454
393534
393727
393730
395156
395582
395600
395784
395815
395816
395977
396089
396094
396146
396261
396318
396422
396612
396727
396836
397133
397136
397145
397306
397469
397544
397673
397698
397721
398952
392013
393621
394467
395984
396389
396717
396800
396846
396934
396995
397338
397448
397555
397659
397743
397829
398078
398163
391419
391790
391899
392501
394364
394482
394717
395494
395822
395939
396414
396606
396628
396718
396722
396816
396825
397157
397199
397241
397331
397351
397414
397590
397701
397757
397786
397956
398280
398496
398561
398948
399760
401400
393026
393740
395612
395796
396219
396752
396833
397431
397592
397785
398005
398140
398148
398151
398691
400890
391895
393345
393428
394543
394586
394769
394776
395059
395267
395378
395451
396617
396855
396867
396914
397018
397126
397147
397202
397258
397390
397436
397549
397566
397643
397756
397765
397864
397964
398057
398155
398171
398224
398253
398503
398756
399008
391605
390354
392712
393264
394252
394254
395054
395459
395771
395876
396083
396725
396854
396915
396923
397248
397320
397323
397332
397336
397345
397354
397511
397551
397574
397665
397842
397862
397924
398065
398086
398386
398437
398484
399253
399316
399586
390595
392610
393322
393525
393722
394144
394462
394669
395598
395891
395929
395996
396016
396104
396214
396272
396758
396926
396931
397153
397236
397280
397389
397440
397547
397667
397668
397966
398055
398250
398420
398434
398526
398566
398686
399090
399171
400161
395978
391485
394349
395163
395273
395572
395693
396320
396909
396936
397007
397025
397231
397640
397653
397669
397737
397753
397790
397850
397935
397945
398270
398951
399360
399704
400158
341154
389476
387812
390959
392402
392920
393023
394044
395050
395391
395584
395587
395616
396047
396418
396434
396608
396838
396927
397229
397413
397490
397752
397839
397928
397976
398048
398063
398274
398733
400270
393531
393737
394145
394162
394166
395252
395594
395671
395877
396184
396284
396609
397174
397208
397240
397330
397447
397537
397639
397761
397866
398136
398152
398237
398257
398639
398840
398865
398947
399158
399248
396311
396008
389639
391286
392011
393523
395368
396403
396425
396512
396625
396813
397344
397548
397763
397775
397857
397860
397919
397975
398337
398369
398371
398588
390658
390673
393024
393113
394986
395281
395583
396194
396205
396298
396929
397315
397337
397428
397633
397728
398069
398072
398075
398247
398363
398578
398658
398783
398786
398946
398976
399201
399302
399318
399436
400685
341670
392822
391184
392428
394370
394564
395481
396437
396842
397000
397333
397660
397760
397820
397846
397943
397973
398267
398333
398347
398379
398458
398558
398649
398760
399761
401188
391383
399142
390471
392186
394456
394460
394665
395072
395080
396091
396594
396739
396751
396828
397230
397356
397717
397736
397783
397886
398173
398180
398256
398262
398359
398384
398423
398445
398725
398849
399020
399181
399281
399287
399296
399388
399482
399577
400399
392493
393569
394134
395169
395270
396109
396212
396438
397039
397228
397744
397766
397768
397840
397958
398338
398348
398358
398374
398456
398486
398549
398641
398652
398690
398753
399076
399105
400575
392623
394547
395666
395890
395990
396797
396924
397111
397281
397316
397409
397533
397545
397558
397631
397844
397854
398056
398059
398179
398346
398417
398582
398591
398651
399001
399072
399104
399280
399478
399576
399583
399596
400596
397503
394549
390148
395517
395906
396103
396299
396424
396432
396990
397213
397324
397635
397813
397920
397936
397953
397983
398071
398102
398258
398331
398421
398539
398628
398630
398770
398961
398995
398997
399099
399255
399299
399325
400156
400288
400303
400363
402322
390895
389648
390656
392106
392194
392504
394147
395176
395882
395995
396308
396326
396701
396894
397216
397223
397423
397452
397468
397621
397742
397776
397874
397963
398252
398334
398342
398372
398470
398541
398570
398581
398847
398919
398977
399103
399178
399190
399385
399516
399572
400000
400019
400432
342122
402727
392110
395369
395989
397008
397009
397222
397309
397568
397749
397823
397852
398089
398166
398176
398460
398580
398694
398754
398906
398943
398979
398994
399011
399030
399069
399100
399289
399400
399537
399715
399780
400160
400599
341666
391301
393520
395159
395278
395361
395982
396203
396305
397239
397319
397650
397817
397828
397937
397948
398238
398360
398467
398482
398553
398653
398676
398757
398765
398782
398838
398904
398944
399086
399183
399232
399317
399402
399406
399494
399520
399615
399629
399647
399709
399716
400308
400477
398802
392411
395991
396294
396393
396507
396804
396895
396918
397028
397411
397769
397931
398160
398367
398443
398667
398844
398941
399221
399292
399298
399501
399503
399653
399688
399729
399757
399895
342294
392512
394856
395462
395474
395672
395676
396301
396341
397647
397648
397934
398025
398154
398236
398261
398349
398352
398355
398381
398444
398552
398661
398674
398688
398862
398878
398973
399077
399170
399185
399208
399295
399517
399592
399627
399795
399799
399904
400096
400212
400265
400307
400499
401087
391897
392827
395075
395497
395795
396303
396605
396993
397538
397622
397916
397987
398223
398536
398560
398781
398909
398938
399192
399275
399310
342383
399390
399395
399405
399561
399598
399601
399790
399886
399925
400008
400083
400107
400136
400434
400785
390554
393527
394675
394952
394974
395863
396713
397725
398259
398276
398633
398860
398890
399079
399092
399177
399184
399216
399646
399888
400195
400344
400508
401015
401058
401495
394662
391991
390277
391180
394863
396096
396300
396489
396908
397115
397543
397845
397917
397930
397947
398034
398036
398052
398058
398095
398177
398451
398780
398852
398885
398889
398996
399095
399098
399160
399163
399168
399374
399380
399495
399689
399710
342638
399769
399804
399891
400001
400080
400088
400113
400142
393334
392608
392812
394544
394771
395777
395810
395897
396821
397433
397534
397836
398008
398251
398328
398330
398446
398449
398463
398528
398648
398814
399153
399429
399499
399593
399612
399680
399695
399735
399857
400148
400181
400189
400197
400496
400513
400576
399554
400813
400915
400923
401796
402209
341856
396703
396193
393718
394359
396822
397221
397234
397833
397922
398150
398266
398361
398579
398640
398836
398857
398867
398880
398916
398984
398989
399176
399223
399271
399367
399392
399403
399485
399496
399536
399552
399692
399713
399902
399933
399980
400070
400087
400117
400188
400336
400401
400438
400470
400613
400619
400634
400697
400959
401634
394566
394847
396131
396586
396907
397219
397227
397624
397885
398142
398801
398858
398869
398898
399173
399189
399297
399303
399455
399502
399518
399522
399525
399658
399690
399693
399764
399824
399826
399926
399987
400023
400032
400093
400198
400225
400293
400299
400302
400412
400593
400722
400740
400935
401447
393231
394474
397723
398387
398657
398669
398882
398969
398985
399065
399314
399356
399422
399527
399566
399683
399685
399794
399812
399976
400034
400062
400072
400173
400269
400383
400418
400471
400518
400711
400733
400949
401636
394140
395060
396901
396987
397218
397408
397446
397512
397526
398061
398149
398159
398226
398345
398350
398647
398650
398779
398926
398980
399078
399130
399277
399291
399437
399461
399470
399486
399487
399505
399632
399823
399866
399875
399979
400075
400082
400094
400310
400364
400375
400378
400411
400419
400427
400548
400610
400625
400642
400922
400930
400932
400941
400962
401041
401112
401159
401207
401235
395355
393849
395907
393215
393939
395895
396210
396728
396746
397540
398231
398245
398344
398740
398772
398863
398982
399073
399083
399191
399252
399322
399463
399550
399573
399582
399782
399985
400056
400081
400126
400210
400292
400492
400533
400624
400737
400862
400946
401046
401086
401092
401427
401663
398356
398454
386678
391683
393829
394651
396130
397139
397654
397951
398132
398432
398646
398775
398866
398968
399058
399088
399110
399118
399143
399197
399282
399590
399591
399600
399674
399744
399775
399809
399852
399897
399919
399958
399989
400009
400130
400203
400206
400228
400277
400346
400391
400408
400430
400436
400485
400601
400747
400768
400807
400870
400928
400938
401024
401135
401221
401335
401795
402047
399159
392101
392510
394860
396111
396548
397215
397515
397843
397952
398038
398572
398750
398788
399026
399151
399169
399338
399372
399391
399491
399763
399805
399816
399832
399839
399844
399873
399882
399913
399962
399996
400091
400106
400171
400182
400211
400236
400263
400298
400313
400329
400504
400512
400570
400816
400827
400834
400919
400925
400933
401030
401044
401045
401226
401240
401469
401908
344237
395482
398164
396603
394452
394676
394975
395373
396588
396601
396707
397652
397838
397932
398447
398643
398729
398745
398871
399080
399081
399293
399379
399401
399483
399504
399513
399584
399675
399778
399817
399825
399892
400006
400086
400116
400127
400190
400199
400205
400325
400395
400404
400638
400873
400954
401016
401091
401323
401548
401554
401667
401924
343968
393029
393944
394352
394454
395381
395773
396312
396991
397437
397530
398764
398886
398974
399061
399067
399157
399476
399477
399657
399691
399696
399739
399885
399896
399899
399939
399955
399994
400209
400216
400319
400396
400398
400415
400498
400515
400636
400644
400649
400701
400826
400853
400934
400945
400990
401002
401034
401040
401071
401111
401128
401130
401279
401331
401338
401339
401417
401431
401535
401910
401975
402141
402146
343427
343526
387300
399378
401399
396600
397210
397313
397353
398146
398290
398438
398525
398529
398797
398962
399057
399085
399384
399389
399393
399414
399456
399457
399589
399597
399878
399890
399924
400030
400035
400077
400099
400133
400196
400202
400213
400286
400291
400402
400406
400447
400514
400522
400536
400622
400771
343067
400821
400838
401088
401149
401197
401208
401415
401450
401457
401615
401652
402529
393627
394066
394671
395880
396110
396989
397325
397426
398222
398234
398430
398440
398490
398752
398769
399059
399304
399535
399609
399652
399673
399676
399806
399903
399993
400022
400028
400108
400163
400217
400218
400250
400294
400327
400424
400431
400435
400479
400581
400584
400591
400615
400620
400753
400763
400823
400844
400966
401055
401217
401220
401248
401251
401263
401325
401488
401735
401771
401826
401871
402148
343955
401381
397637
394360
396420
396583
397321
397619
397730
397738
397837
398189
398392
398452
398724
398792
398954
398986
399047
399064
399250
399261
399398
399411
399464
399472
399479
399484
399507
399567
399580
399768
399977
400014
400223
400240
400340
400410
400535
400603
400635
400647
400724
400728
400762
400803
400829
400921
400924
400943
401114
401168
401210
401232
401420
401423
401539
401623
401643
401645
401726
401901
401978
402131
403335
395272
395793
395826
395904
396114
397815
398043
398693
398959
399284
399308
399468
399617
399787
399797
399923
399983
399984
399991
400235
400243
400285
400300
400359
400531
400617
400618
400688
400696
400719
400758
400790
400848
400956
400983
401013
401037
401127
401223
401228
401229
401336
401353
401361
401362
401443
401564
401603
401748
401823
401860
401960
401971
401982
401997
402149
402315
402539
399409
398846
342645
342388
397754
397816
398351
398966
399068
399382
399619
399699
399705
399712
399792
399813
399819
399840
399974
400059
400174
400389
400397
400517
400641
400666
400809
400830
400907
401018
401027
401049
401056
401125
401209
401341
401342
401452
401459
401464
401557
401619
401641
401716
401733
401746
401747
401774
343165
401834
401879
401951
402031
402167
402316
402956
403436
344229
342823
390644
392113
393320
395585
397438
397541
398144
398731
398839
398856
398978
399263
399381
399571
399679
399723
399889
399900
399978
400159
400207
400324
400403
400527
400611
400640
400746
400752
400836
400837
400863
400889
400900
400906
400911
400940
400964
401062
401094
401124
401144
401175
401211
401214
401247
401258
401288
401328
401621
401627
401677
401704
401845
401847
402321
402421
402469
402471
344828
402724
402726
344218
390965
393923
396744
396903
397731
398835
399154
399175
399488
399578
399706
399777
399808
399894
399917
400078
400100
400233
400297
400316
400495
400529
400605
400628
400706
400714
400864
400912
400986
401131
401133
401139
401143
401204
401216
401244
401322
401523
401549
384624
401631
401635
401679
401717
401725
401744
401749
401765
401775
401791
401831
343775
402020
402106
402121
402125
402180
402276
402398
402450
402477
402617
395898
342925
344852
399648
398053
390776
395073
395686
396581
397140
397314
397825
398243
398435
398644
398685
399654
399796
399963
400262
400381
400387
400524
400571
400729
400738
400755
400811
400999
401014
401148
401303
401318
401332
401337
401419
401448
401527
401544
401565
401737
401863
402015
402243
402269
402301
402318
402377
402482
402652
402786
403538
344757
394371
395695
397095
397328
397732
397831
397939
398455
399558
399575
399700
399884
400177
400289
400342
400379
400500
400520
400530
400621
400736
400757
400789
400794
400831
400871
400905
400974
400991
401023
401035
401195
401212
401224
401355
401359
401424
401430
401463
401496
401516
401540
401566
401640
401664
401819
401852
401875
401941
401964
402050
402105
402208
402226
402270
402496
402507
402592
402595
402664
404161
344922
341630
395581
394367
396198
397421
397929
398453
398500
398739
398899
398908
398955
399056
399186
399187
399454
399559
400085
400121
400268
400367
400392
400414
400519
400595
400695
400705
400720
400741
400825
400881
400896
400903
401011
401032
401067
401068
401154
401237
401259
401276
401330
401340
401343
401370
401410
401435
401437
401519
401521
401528
401531
401618
401624
401658
401709
401719
401722
401758
401761
401790
401820
401920
401928
401946
402042
402043
402059
402070
402086
402104
402160
402177
402574
402577
402638
402645
402782
402793
402802
402826
403072
403113
400856
405172
344221
396802
392932
395680
397746
397758
398039
398126
398426
398594
398660
399145
399290
399784
399975
400048
400320
400348
400349
400380
400505
400506
400507
400721
400725
400727
400734
400833
400850
400961
401072
401140
401254
401300
401392
401441
401480
401616
401724
401740
401767
402029
402036
402055
402103
402122
402153
402158
402189
402231
402237
402260
402275
402278
402285
402358
402434
344393
402553
402673
402897
403270
403416
403537
404065
399560
344918
397347
400187
394233
396211
397914
398134
398225
398861
398999
399256
399387
400065
400076
400155
400175
400290
400521
400573
400592
400626
400655
400658
400693
400713
400723
400820
400828
401020
401039
401141
401142
401398
401407
401409
401411
401451
401529
401625
401632
401650
401655
401720
401755
401805
401814
401825
401844
401868
401933
401974
402023
402025
402035
402075
402093
402133
402138
402241
402262
402475
402497
402506
402557
402590
402629
402747
402911
402986
402987
403063
403174
391496
395565
396917
397114
397235
397304
397516
397642
398436
398492
399465
400170
400585
400822
400918
400942
401003
401008
401063
401075
401079
401238
401272
401347
401378
401442
401508
401551
401644
343065
401732
401756
401816
401829
401864
401944
401954
401979
401995
402085
402136
402142
402157
402163
402165
402181
402206
402242
402457
402631
402672
402706
402768
402772
402948
403079
403402
403437
403837
403851
345280
344747
405173
343878
401089
394157
394176
395350
395802
395988
396705
397539
397927
399254
399971
400147
400275
400475
400493
400604
400661
400745
400776
400824
400931
400937
401019
401116
401132
401215
401256
401306
401329
401374
401555
401763
401824
401839
401872
401885
401938
401983
401988
402017
402032
402128
402159
402173
402176
402211
402219
402247
402255
402256
402367
402447
402660
402663
402689
402779
402877
402900
402952
402966
403131
403222
343083
403405
403452
403536
403643
403692
344312
404565
401903
397322
397528
397532
397542
398545
398642
398993
399005
399172
399268
399568
399651
399877
399965
399992
400238
400405
400503
400578
400653
400804
400805
401017
401031
401107
401115
401147
401199
401219
401230
401283
401319
401344
401475
401478
401572
401575
401620
401642
401672
401711
401731
401752
401793
401849
401859
401914
401935
401955
401959
401965
402040
402130
402168
402175
402232
402235
402250
402281
402284
402294
402298
402337
402376
402451
402464
402481
402490
402492
402537
402552
402564
402596
402648
402677
402678
402681
402758
402759
402829
402853
402858
402873
402878
402908
402940
402991
403098
345275
403637
388716
390366
395379
396100
396419
398562
398763
398942
398960
398987
399876
400157
400330
400386
400400
400700
400781
400806
401036
401123
401193
401205
401227
401314
401327
401365
401396
401445
401446
401509
401517
401648
401683
401699
401729
401769
401841
401848
401862
343520
401932
401937
402045
402064
402088
402097
402207
402218
402234
402264
402292
402353
402368
402460
402473
402542
402733
402753
402799
402803
345188
403036
403041
403192
403353
403644
403689
404563
343789
405489
405693
344560
342048
396280
397946
399070
399759
400068
400079
400491
400547
401061
401206
401231
401292
401297
401433
401456
401486
401534
401546
401577
401630
401669
401718
401803
401966
402061
402065
402082
402139
402333
402381
402382
402394
402456
402602
402650
402692
402752
402769
402789
402871
402875
402882
402984
402990
403059
403088
403103
403277
403533
403581
344556
390344
344308
399353
344051
344045
401203
394355
398546
398734
398738
399161
399404
399458
399791
400110
400193
400219
400276
400388
400814
400926
401097
401134
401177
401236
401266
401354
401414
401511
401532
401628
401633
401649
401696
401773
401835
401838
401936
401952
401956
401957
402022
402030
402038
402053
402068
402147
402150
402154
402179
402212
402225
402259
402346
402422
402528
402547
402568
402624
402636
402659
402712
402745
402872
402924
402941
402974
402978
403038
403081
403196
403296
403318
403498
403530
345109
402000
345545
401894
396810
398030
398045
399489
399581
399786
399973
399988
400287
400311
400589
400810
400843
401021
401026
401080
401108
401161
401233
401253
401432
401553
401939
402033
402044
402049
402108
402110
402190
402240
402254
402274
402351
402364
402372
402387
402527
402559
402560
402566
402572
402651
402781
402808
402870
402898
402905
402945
403054
403068
403105
403169
403367
403393
403564
403948
404529
404601
405169
405803
399371
398732
392006
394882
397629
398533
399062
399273
399319
399383
399665
399881
400341
400679
400854
400875
400914
400936
401239
401264
401320
401391
401436
401536
401568
401573
401599
401646
401700
401734
401821
401942
401943
401949
401961
401962
402048
402057
402060
402244
402261
402305
402343
402345
402354
402371
402375
402403
402410
402437
402438
402472
402488
402489
402505
402545
402578
402584
402588
402591
402653
402656
402665
402666
402667
402685
402696
402774
402783
402784
402798
402834
402849
402867
402868
402891
402895
402920
402980
402997
402999
345528
403056
403082
403109
403155
403175
403195
403208
403254
403265
403297
403300
403313
345616
403499
403513
403527
403551
403560
403638
403784
345793
403841
395274
396587
396803
397105
397326
397535
397824
398755
398884
399660
399666
399880
399982
400066
400071
400084
400422
400650
400683
400801
400908
401025
401118
401196
401299
401313
401334
401425
401428
401584
401647
401723
401832
401857
402081
402120
402155
402230
402236
402249
402386
402417
402445
402449
402486
402491
402512
402575
402594
402597
402626
402657
402690
402754
402777
402929
403001
403020
403032
403071
403100
403159
403173
403179
403191
403256
403263
403290
403291
343870
403392
403394
403395
403454
403594
403749
403828
403926
403954
404011
404199
404207
404239
404466
404562
404581
345273
345620
345294
397417
397429
397722
399369
399995
400502
400689
400812
400819
401009
401033
401126
401393
401479
401512
401526
401541
401561
401639
401712
401714
401778
401840
401947
402019
402039
402135
402253
402286
402299
402348
402363
402393
402431
402501
402555
402558
402771
402785
402814
402854
402876
402927
402963
403083
403086
403090
403163
403166
403172
403202
403252
403269
403272
403294
403302