/*--------------------------------*- C++ -*----------------------------------*\
| =========                 |                                                 |
| \\      /  F ield         | OpenFOAM: The Open Source CFD Toolbox           |
|  \\    /   O peration     | Version:  2406                                  |
|   \\  /    A nd           | Website:  www.openfoam.com                      |
|    \\/     M anipulation  |                                                 |
\*---------------------------------------------------------------------------*/
FoamFile
{
    version     2.0;
    format      ascii;
    arch        "LSB;label=32;scalar=64";
    class       Cloud<dsmcParcel>;
    location    "0.008/lagrangian/dsmc";
    object      positions;
}
// * * * * * * * * * * * * * * * * * * * * * * * * * * * * * * * * * * * * * //

9444
(
(0.3016657392 0.1045733874 0) 149
(0.2712500267 0.08375110202 1.084202172e-19) 55
(0.2799909494 0.1221618097 0) 266
(0.2446762205 0.1084031038 -1.084202172e-19) 232
(0.289191546 0.08204526158 4.33680869e-19) 27
(0.2658696115 0.1085964842 2.168404345e-19) 204
(0.2556355894 0.0965183116 2.710505431e-19) 143
(0.28912918 0.0931273015 2.168404345e-19) 87
(0.267491073 0.1101610338 -2.168404345e-19) 205
(0.2750649032 0.08558469167 -4.065758147e-19) 86
(0.3045011497 0.1058653856 -2.439454888e-19) 149
(0.2720649085 0.07830525586 -1.084202172e-19) 25
(0.2787951047 0.1019583413 1.084202172e-19) 146
(0.2321028 0.08081322627 -1.355252716e-19) 110
(0.2624010194 0.07207550029 5.421010862e-20) 24
(0.2898917857 0.08108948288 2.168404345e-19) 28
(0.2942270409 0.08598269395 1.084202172e-19) 58
(0.3011822549 0.1106376515 0) 179
(0.2772607797 0.1229306748 -7.115076757e-20) 266
(0.3041990137 0.08796973428 2.168404345e-19) 59
(0.2733184781 0.09932211397 0) 145
(0.2883369438 0.1351048681 1.084202172e-19) 327
(0.2952401826 0.1061776838 0) 148
(0.2319665188 0.09859691029 0) 200
(0.2845531395 0.1220923999 -2.168404345e-19) 267
(0.2880517721 0.09625890018 -1.084202172e-19) 117
(0.2963605145 0.09035655544 0) 58
(0.2957275526 0.1185021679 2.168404345e-19) 238
(0.286654314 0.1097094172 1.084202172e-19) 177
(0.234025533 0.1013061714 -3.252606517e-19) 200
(0.2508736858 0.07037931939 -2.168404345e-19) 22
(0.2897328621 0.1452106453 3.252606517e-19) 388
(0.2646839063 0.09376711855 -4.33680869e-19) 114
(0.283290551 0.1248050343 0) 267
(0.2902003239 0.1326965461 0) 298
(0.3047892524 0.0919841221 0) 59
(0.2889724822 0.09405832058 -4.33680869e-19) 87
(0.2831218754 0.1013188912 2.439454888e-19) 147
(0.2568544126 0.08856901413 -5.421010862e-20) 113
(0.2034433266 0.06755408717 0) 76
(0.2401771923 0.08385348751 2.168404345e-19) 111
(0.2515745882 0.07966814756 -2.168404345e-19) 83
(0.2915548842 0.08182993145 3.252606517e-19) 28
(0.2320144031 0.07058385503 2.710505431e-20) 50
(0.2689860748 0.1408811178 -1.084202172e-19) 385
(0.2737914169 0.1225762013 -2.168404345e-19) 265
(0.2311952591 0.08648904804 0) 140
(0.2259316706 0.1294816166 1.084202172e-19) 349
(0.2767533033 0.1568198065 5.421010862e-19) 446
(0.225317709 0.0652102854 1.626303259e-19) 19
(0.2797048517 0.0761254916 4.33680869e-19) 26
(0.2367681734 0.07791088902 -2.168404345e-19) 81
(0.2492732045 0.1075464281 -1.084202172e-19) 202
(0.2990896033 0.09806687227 -2.710505431e-19) 119
(0.2260021919 0.09141948241 4.33680869e-19) 169
(0.2765390083 0.08463438596 1.084202172e-19) 56
(0.2369861279 0.07644291051 2.710505431e-19) 81
(0.2979607485 0.09120646548 0) 89
(0.2548291816 0.07040115347 0) 23
(0.2956081241 0.08355690479 0) 28
(0.3006047349 0.1203433952 1.626303259e-19) 239
(0.2555189602 0.08313222396 -1.626303259e-19) 83
(0.2450322544 0.06859249185 2.608861478e-19) 22
(0.1873766754 0.07556592721 0) 134
(0.2177721004 0.09961025616 -5.421010862e-20) 198
(0.2874436959 0.08189875494 2.168404345e-19) 27
(0.286403886 0.1107611762 0) 207
(0.28949727 0.114554514 0) 207
(0.2473199427 0.09510353059 -2.168404345e-19) 142
(0.2798041251 0.09202307139 0) 116
(0.2765851879 0.08704136109 1.084202172e-19) 86
(0.2893200099 0.1013419421 1.084202172e-19) 147
(0.2755128688 0.1018522216 5.421010862e-20) 146
(0.2921854861 0.1325737882 1.084202172e-19) 298
(0.3029541818 0.08977212452 -4.33680869e-19) 59
(0.2274997547 0.07808279821 4.33680869e-19) 79
(0.2339551408 0.08780965363 0) 140
(0.2804285714 0.07629002996 -4.33680869e-19) 26
(0.2433748833 0.0726743663 -4.33680869e-19) 51
(0.2654254566 0.07669284469 2.168404345e-19) 24
(0.2306473472 0.0795380607 0) 80
(0.2892029629 0.09810219869 -2.168404345e-19) 117
(0.2479830229 0.0709641996 5.421010862e-20) 22
(0.2296457248 0.07484206245 -2.710505431e-19) 80
(0.2290654596 0.07933739231 0) 110
(0.2699334697 0.07655913096 -1.084202172e-19) 25
(0.2662247322 0.08660643651 -2.168404345e-19) 84
(0.177589517 0.04865320657 0) 13
(0.2870907163 0.1101338506 0) 177
(0.2674147219 0.08347237152 0) 85
(0.2639026375 0.08132193192 2.168404345e-19) 54
(0.2748303044 0.1478824271 -5.421010862e-20) 416
(0.2808971037 0.09513925556 2.168404345e-19) 116
(0.2081149987 0.06670671407 1.084202172e-19) 47
(0.2968272603 0.0874004698 -5.421010862e-20) 58
(0.2156262053 0.07024198495 -1.084202172e-19) 78
(0.2579786247 0.1435198697 0) 383
(0.2363377021 0.09403766721 0) 171
(0.2494202596 0.09603394206 -4.33680869e-19) 172
(0.2952061184 0.0826363251 -2.168404345e-19) 28
(0.2381775659 0.068516135 1.355252716e-19) 21
(0.2721261512 0.145682911 0) 385
(0.2500391381 0.07328848882 2.168404345e-19) 52
(0.241275011 0.08312104118 2.168404345e-19) 111
(0.2453619046 0.09272376884 -3.252606517e-19) 142
(0.2584685698 0.07557940952 0) 53
(0.2419668499 0.1026519436 2.710505431e-19) 201
(0.3027284779 0.08136921748 2.168404345e-19) 29
(0.2150776588 0.06771787899 1.084202172e-19) 48
(0.2560517911 0.08136929084 0) 83
(0.2841265217 0.09452503739 -2.168404345e-19) 117
(0.2139239114 0.06220200387 -2.168404345e-19) 18
(0.2582606395 0.1240738486 -2.168404345e-19) 293
(0.3011792003 0.1231338122 -2.168404345e-19) 239
(0.1965931952 0.05365499809 0) 15
(0.2753142661 0.09825243328 -1.084202172e-19) 146
(0.281133112 0.1063362384 4.33680869e-19) 176
(0.3012354039 0.09315514606 -2.168404345e-19) 89
(0.237545247 0.07419653394 0) 51
(0.204182555 0.06831284044 0) 76
(0.2497996079 0.07257194956 -2.168404345e-19) 22
(0.2868257606 0.0835763536 -2.168404345e-19) 57
(0.2964074553 0.08621222704 0) 58
(0.2542449029 0.07451046707 -1.084202172e-19) 53
(0.2321229122 0.1243914629 0) 320
(0.3024490466 0.1210199784 1.084202172e-19) 239
(0.2937238938 0.118686453 0) 238
(0.2336362942 0.08896018203 -1.084202172e-19) 140
(0.1914526863 0.06879943202 2.168404345e-19) 75
(0.2505145755 0.09870145164 5.421010862e-20) 172
(0.2889436225 0.08134857852 0) 27
(0.24354173 0.07785190462 4.33680869e-19) 81
(0.266438582 0.09508265179 2.168404345e-19) 144
(0.2683232264 0.08630456674 -1.490777987e-19) 85
(0.2688452955 0.1137674877 -5.421010862e-20) 235
(0.2633634256 0.1032690919 2.168404345e-19) 174
(0.2120710784 0.06306881862 4.33680869e-19) 47
(0.2277932767 0.1237438048 8.470329473e-21) 319
(0.2697844089 0.1109267026 1.084202172e-19) 205
(0.2147344554 0.07288632193 -2.710505431e-20) 78
(0.2390459705 0.1484646258 -4.33680869e-19) 441
(0.2508233709 0.08167669676 2.846030703e-19) 82
(0.2997025404 0.09952841417 3.902969002e-20) 119
(0.2149266539 0.07436802821 -2.168404345e-19) 78
(0.2782348921 0.1087173583 -2.168404345e-19) 206
(0.2391802565 0.0882890493 -1.626303259e-19) 141
(0.2766698692 0.0971489481 -1.084202172e-19) 146
(0.2452731816 0.0799562158 0) 82
(0.2791508748 0.09825109464 0) 146
(0.2841928974 0.1026394094 -2.981555974e-19) 147
(0.2191565162 0.09855609318 2.168404345e-19) 198
(0.2432112148 0.08733626097 -2.168404345e-19) 111
(0.2791666781 0.09201560532 -2.168404345e-19) 116
(0.266553464 0.1164530959 -8.67361738e-19) 234
(0.1913560468 0.08334988379 1.084202172e-19) 165
(0.200458977 0.05908644797 0) 16
(0.2762719183 0.07668538847 -1.084202172e-19) 26
(0.2357379946 0.06721307751 0) 20
(0.2656806278 0.1202853492 -4.33680869e-19) 264
(0.2487851533 0.1085311197 0) 232
(0.2231058359 0.09727492684 1.084202172e-19) 199
(0.2986235308 0.1096603657 1.084202172e-19) 179
(0.271808039 0.09356946715 -2.168404345e-19) 115
(0.2860458473 0.07996163439 -2.710505431e-20) 27
(0.2961467638 0.08115851268 2.168404345e-19) 28
(0.2822993635 0.08675379957 -1.355252716e-19) 57
(0.2948043804 0.08888000001 0) 58
(0.1868422083 0.06128087971 6.776263578e-20) 44
(0.232201308 0.06855139696 1.490777987e-19) 50
(0.2517536829 0.1010496499 0) 173
(0.2991609994 0.09876641208 2.168404345e-19) 119
(0.2486994453 0.1102424313 -2.710505431e-20) 232
(0.2710795585 0.1092384828 1.084202172e-19) 205
(0.3009114343 0.08855976489 -6.09863722e-20) 59
(0.2890939331 0.1000058081 0) 147
(0.3029366676 0.08240609001 -2.168404345e-19) 29
(0.2235180079 0.06544286814 0) 19
(0.2998965098 0.09467282765 -5.421010862e-20) 89
(0.2366277921 0.07657044451 1.084202172e-19) 81
(0.1921481807 0.06780052069 -1.084202172e-19) 75
(0.2315188327 0.09177674222 0) 140
(0.2351858227 0.06438208631 -2.168404345e-19) 20
(0.2944139949 0.1052903015 -2.168404345e-19) 148
(0.3010918267 0.132943996 2.032879073e-20) 299
(0.242723218 0.08578297338 0) 111
(0.1174237335 0.07469052669 -4.065758147e-20) 185
(0.2837208721 0.09107285122 0) 87
(0.2139579087 0.07927054359 2.168404345e-19) 108
(0.2686127901 0.1109963987 -3.252606517e-19) 205
(0.2401671429 0.08565345119 6.776263578e-20) 111
(0.2391854457 0.06623629661 0) 21
(0.2265327008 0.1139257966 0) 259
(0.2904495882 0.113021624 1.084202172e-19) 208
(0.2811692074 0.1522227233 2.168404345e-19) 416
(0.2912164175 0.08883625402 2.168404345e-19) 58
(0.3016771038 0.08247789236 -1.084202172e-19) 29
(0.2784067861 0.07943409647 -5.421010862e-20) 26
(0.2093159823 0.08352993109 1.749123036e-19) 137
(0.2909637128 0.1113887837 -2.168404345e-19) 208
(0.2774069863 0.1411257998 -2.168404345e-19) 356
(0.2669776005 0.09287437639 0) 115
(0.2185933138 0.06206134537 -1.084202172e-19) 18
(0.286137822 0.1284913892 1.084202172e-19) 297
(0.268266305 0.1251992179 -1.084202172e-19) 295
(0.2585846867 0.1541043947 0) 443
(0.2368056157 0.06717226475 -1.084202172e-19) 21
(0.2371714447 0.1329184418 0) 351
(0.2060775086 0.08081314177 4.33680869e-19) 137
(0.2935811299 0.1421910332 -2.710505431e-20) 358
(0.273180093 0.08375531302 0) 55
(0.2980811289 0.1316760379 0) 299
(0.2820833995 0.0861626259 0) 57
(0.2567765518 0.09494846078 0) 143
(0.3003900482 0.09003086698 -2.168404345e-19) 59
(0.2976192249 0.089522314 -2.168404345e-19) 59
(0.3038007735 0.08766375225 0) 59
(0.1962750775 0.09816448127 1.084202172e-19) 225
(0.2253744242 0.08008549093 1.084202172e-19) 109
(0.2101027637 0.06430197512 -1.084202172e-19) 47
(0.270985829 0.08469926522 0) 85
(0.3024114697 0.08323269732 -5.421010862e-20) 29
(0.2838309439 0.1404323525 0) 357
(0.2707724203 0.07260715943 -4.33680869e-19) 25
(0.3046360753 0.1282610735 0) 269
(0.2884446116 0.1416021003 0) 357
(0.2754912041 0.1407745853 0) 356
(0.2530165441 0.07776614796 -1.084202172e-19) 53
(0.2866681567 0.1365779218 0) 327
(0.2081621763 0.0996957376 1.084202172e-19) 227
(0.2565901809 0.08302220887 8.131516294e-20) 83
(0.2374905827 0.09409674507 0) 171
(0.2733955516 0.08917028546 -2.168404345e-19) 85
(0.2682133835 0.07738481369 1.084202172e-19) 25
(0.3006191495 0.1455541503 4.33680869e-19) 359
(0.2691156843 0.08861813065 -1.084202172e-19) 85
(0.3006742919 0.08492078601 6.505213035e-19) 29
(0.2426468292 0.06688898434 0) 21
(0.3016681749 0.135839536 0) 329
(0.234343337 0.09574267638 -2.168404345e-19) 170
(0.2854768852 0.08293222408 -2.710505431e-20) 57
(0.2588624506 0.07440704707 0) 23
(0.3021765717 0.1108848027 -5.421010862e-20) 179
(0.1814015811 0.05298536517 0) 13
(0.2592839917 0.09055584441 -1.084202172e-19) 114
(0.1994419491 0.08216742457 2.168404345e-19) 136
(0.2078551622 0.07781889702 -3.252606517e-19) 107
(0.3001402982 0.1295684104 0) 269
(0.2765196584 0.08893991748 1.084202172e-19) 86
(0.2971953675 0.09828613615 -2.168404345e-19) 119
(0.282859927 0.137261799 4.33680869e-19) 327
(0.2642645406 0.08391931344 -2.168404345e-19) 84
(0.2960189404 0.09693668345 8.67361738e-19) 118
(0.1969988658 0.06627186676 0) 75
(0.2967881738 0.1186769925 0) 238
(0.2792501321 0.1006398118 0) 146
(0.268793925 0.07545681795 2.710505431e-19) 25
(0.2963922996 0.09401438087 0) 88
(0.2234445682 0.07785866603 2.168404345e-19) 79
(0.2664739617 0.08928322927 -4.33680869e-19) 114
(0.2299223759 0.1014267921 -2.168404345e-19) 200
(0.2957891676 0.114720845 4.33680869e-19) 208
(0.2663689415 0.07202261538 0) 24
(0.2508805061 0.09652350224 0) 172
(0.2109477927 0.08201518044 2.168404345e-19) 137
(0.2994984933 0.1320615232 3.252606517e-19) 299
(0.1610027082 0.07505767042 3.794707604e-19) 131
(0.2695480136 0.09129962892 0) 115
(0.2947933644 0.1546453355 0) 418
(0.2453204301 0.08101885769 1.626303259e-19) 82
(0.3004161782 0.09912305726 1.084202172e-19) 119
(0.2500789361 0.07206014675 -2.168404345e-19) 22
(0.3005921021 0.09554982696 0) 89
(0.2889484219 0.1076034917 2.168404345e-19) 177
(0.2694102484 0.1029175508 0) 175
(0.1937763035 0.06301894457 -1.084202172e-19) 45
(0.2911250272 0.0821371901 2.168404345e-19) 28
(0.3045813569 0.09614981013 0) 89
(0.2890433001 0.09311921225 -2.168404345e-19) 87
(0.2783712361 0.08473182646 -8.131516294e-20) 56
(0.1537139508 0.08947317695 0) 220
(0.2287112607 0.08656051104 1.084202172e-19) 140
(0.2528544265 0.09324732386 1.084202172e-19) 143
(0.1486200012 0.04310473603 -3.726944968e-20) 9
(0.2610024375 0.1027431924 1.084202172e-19) 174
(0.2306240798 0.07300026521 0) 50
(0.2458285617 0.1233614685 0) 292
(0.2883007877 0.09271424777 -2.168404345e-19) 87
(0.2933416015 0.1248924444 1.423015351e-19) 268
(0.2533152643 0.08342726725 -2.168404345e-19) 83
(0.2172547515 0.123866951 2.303929617e-19) 318
(0.2164556273 0.06886356892 2.168404345e-19) 48
(0.2949981069 0.1551240564 1.084202172e-19) 418
(0.2406374532 0.08010832531 0) 81
(0.2639006888 0.1105616957 -1.084202172e-19) 204
(0.2933985534 0.1342235517 0) 328
(0.2315079175 0.1406781797 1.084202172e-19) 410
(0.2524157582 0.07081849255 2.710505431e-19) 23
(0.2106047912 0.09097047898 1.084202172e-19) 167
(0.2554000303 0.07749960607 6.776263578e-20) 53
(0.2256547263 0.1014425664 -2.168404345e-19) 199
(0.2426569371 0.07245181636 0) 51
(0.2956053311 0.09902636459 2.168404345e-19) 118
(0.2138396251 0.08955349329 2.168404345e-19) 168
(0.2954046456 0.08667381107 -1.084202172e-19) 58
(0.2425666662 0.09083171365 1.084202172e-19) 141
(0.1460178831 0.06081644413 -2.168404345e-19) 99
(0.2012285069 0.1304637545 -2.981555974e-19) 376
(0.2084804903 0.07472491541 2.168404345e-19) 107
(0.2380700245 0.07184080309 -1.084202172e-19) 51
(0.3005286701 0.1530144668 2.168404345e-19) 419
(0.2824353285 0.09632153057 -2.168404345e-19) 117
(0.3026963645 0.1220195261 1.490777987e-19) 239
(0.2307525742 0.07090851442 6.776263578e-20) 50
(0.2026416983 0.06260591521 -1.084202172e-19) 46
(0.279727102 0.1092599071 4.33680869e-19) 206
(0.2481774775 0.08928458374 0) 112
(0.2113566017 0.06757319518 0) 47
(0.2528667286 0.08233485045 6.776263578e-21) 83
(0.1616496784 0.04543290449 1.084202172e-19) 11
(0.2550573985 0.1021884233 2.168404345e-19) 173
(0.2957224903 0.1468214965 4.33680869e-19) 388
(0.2382524355 0.1206385739 0) 291
(0.1909966967 0.06770947764 1.084202172e-19) 75
(0.2735580886 0.09322985081 -2.168404345e-19) 115
(0.2892132054 0.1112753058 4.33680869e-19) 207
(0.2629168484 0.09989500625 0) 174
(0.2951731539 0.08669408929 0) 58
(0.2945303744 0.09744950538 1.084202172e-19) 118
(0.2626713263 0.09644578282 5.014435048e-19) 144
(0.2558534177 0.09571620831 0) 143
(0.2598013101 0.1237857725 2.168404345e-19) 294
(0.2282615221 0.0834538261 0) 109
(0.2998075531 0.08114335288 0) 29
(0.2261757798 0.06331844765 -2.710505431e-20) 19
(0.2756020763 0.08682971239 0) 86
(0.205104268 0.0747410072 0) 106
(0.2426837826 0.1082446085 0) 231
(0.2839290658 0.08705580083 -1.084202172e-19) 57
(0.2431695414 0.07558360661 -2.168404345e-19) 51
(0.1895698055 0.07680743984 -2.168404345e-19) 134
(0.2328612016 0.06725654869 -1.626303259e-19) 20
(0.2744545637 0.1274945361 1.897353802e-19) 296
(0.292188656 0.07871621507 2.168404345e-19) 28
(0.2753800979 0.08051859302 1.897353802e-19) 56
(0.211249312 0.06592969636 0) 47
(0.2923794717 0.08319130298 2.168404345e-19) 28
(0.2310594504 0.06288828251 4.33680869e-19) 20
(0.2670228196 0.08024192667 5.421010862e-20) 55
(0.2639538682 0.1177901404 -2.168404345e-19) 264
(0.2403277074 0.07529133756 5.421010862e-20) 51
(0.225011473 0.1027632317 0) 229
(0.2500444054 0.07707729268 0) 52
(0.2577930485 0.122790034 2.168404345e-19) 293
(0.2894093412 0.1014237278 1.084202172e-19) 147
(0.2945798088 0.1147925511 -3.455894425e-19) 208
(0.2552358072 0.06937285724 -7.115076757e-20) 23
(0.2865419669 0.08159543257 1.626303259e-19) 27
(0.2759205591 0.08820659694 1.76182853e-19) 86
(0.2418733051 0.08625873483 0) 111
(0.2943079167 0.08520535877 2.168404345e-19) 58
(0.2291673711 0.09514852504 1.084202172e-19) 170
(0.2569518369 0.1574544328 1.084202172e-19) 473
(0.2991909135 0.1015803098 1.084202172e-19) 119
(0.2458387797 0.07373319242 -5.421010862e-20) 52
(0.2437685304 0.07522320867 4.33680869e-19) 51
(0.2373634344 0.08961399559 0) 141
(0.2571519915 0.0772426826 -2.710505431e-19) 53
(0.243634325 0.06603319335 2.168404345e-19) 21
(0.2563476797 0.09100367223 1.084202172e-19) 113
(0.2180095656 0.05967236069 0) 18
(0.2595253488 0.07694711038 1.084202172e-19) 54
(0.2252945342 0.06287623315 0) 19
(0.2905370614 0.1260996792 -3.252606517e-19) 268
(0.2980493846 0.09704844564 1.016439537e-19) 119
(0.2587580048 0.1010253881 -1.016439537e-20) 173
(0.2970237303 0.1210813164 0) 238
(0.276378687 0.1074480383 0) 176
(0.2770061382 0.1006747314 2.710505431e-19) 146
(0.1870063472 0.07679327461 0) 134
(0.1339775489 0.05045621312 2.168404345e-19) 67
(0.2887722461 0.08550670948 -1.084202172e-19) 57
(0.2962821743 0.0917262636 -4.33680869e-19) 88
(0.2422145181 0.10510767 -2.168404345e-19) 201
(0.2749307238 0.08868240741 1.084202172e-19) 86
(0.2494095556 0.1084829589 0) 232
(0.2001943383 0.08118603506 -1.084202172e-19) 136
(0.2872246405 0.07991502977 -2.168404345e-19) 27
(0.2544559605 0.08566595819 -5.421010862e-20) 113
(0.2857878179 0.1123219056 5.421010862e-20) 207
(0.2078571895 0.08112877781 1.084202172e-19) 137
(0.2930233213 0.09453910711 0) 88
(0.2717217074 0.09184581104 0) 115
(0.2726991534 0.07376361126 2.168404345e-19) 25
(0.2250363733 0.08317444687 1.355252716e-19) 109
(0.2693524774 0.1084687055 -2.981555974e-19) 205
(0.2578025488 0.1312289282 0) 323
(0.2775296133 0.08792947703 0) 86
(0.2879593748 0.1125349321 0) 207
(0.2198135933 0.12320514 0) 318
(0.241020608 0.09326574738 -1.084202172e-19) 141
(0.2418598862 0.07168229461 2.168404345e-19) 51
(0.2442390469 0.07643649726 -2.168404345e-19) 52
(0.2841538276 0.1088929713 -5.421010862e-19) 177
(0.2448511187 0.1081709022 -5.421010862e-19) 232
(0.266369747 0.1240799234 2.168404345e-19) 294
(0.2640418926 0.0868257919 -1.084202172e-19) 84
(0.2768650128 0.1143048924 0) 236
(0.2176995513 0.1232062763 1.084202172e-19) 318
(0.2646709904 0.0740385009 0) 24
(0.215921823 0.09139466684 1.355252716e-19) 168
(0.2274428638 0.08587480648 0) 139
(0.2311838526 0.1485032534 4.33680869e-19) 440
(0.2560014905 0.09502729537 0) 143
(0.2932160086 0.1149103611 -1.084202172e-19) 208
(0.2428428218 0.0907065856 -9.757819552e-19) 141
(0.2904588723 0.1051776076 -5.421010862e-20) 148
(0.2976655905 0.1445931753 -2.168404345e-19) 359
(0.2576784362 0.09415035751 -1.084202172e-19) 143
(0.1571359384 0.07526021897 0) 160
(0.2006870928 0.1076083007 -1.626303259e-19) 256
(0.1974586938 0.05890574173 0) 15
(0.1749421865 0.08853755844 -2.168404345e-19) 192
(0.2789642431 0.1134923558 -5.421010862e-20) 206
(0.3007301585 0.1158104833 -1.084202172e-19) 209
(0.192595705 0.07043906493 -3.252606517e-19) 105
(0.2935348475 0.08116015563 0) 28
(0.1698970192 0.05352134125 -1.084202172e-19) 42
(0.2303381728 0.06512091434 5.421010862e-20) 20
(0.2703993525 0.1179505895 0) 235
(0.2950192425 0.08258357917 -1.084202172e-19) 28
(0.2244750898 0.08582530312 1.355252716e-19) 139
(0.2997568292 0.1124297652 -1.084202172e-19) 179
(0.2798343334 0.09063589318 1.084202172e-19) 86
(0.2706831955 0.1077213233 2.168404345e-19) 205
(0.2946710443 0.1507049952 -5.421010862e-19) 388
(0.2909098108 0.1468210462 -2.168404345e-19) 388
(0.2199492204 0.07635144724 -2.168404345e-19) 78
(0.276224888 0.1167896409 1.084202172e-19) 236
(0.2062457135 0.09420482938 -2.168404345e-19) 197
(0.2540294791 0.0758276347 1.143494479e-19) 53
(0.2303149957 0.07540621361 1.084202172e-19) 80
(0.255234243 0.1138587308 2.168404345e-19) 233
(0.2970640253 0.1290129196 -4.33680869e-19) 268
(0.2997716481 0.120213084 -2.168404345e-19) 239
(0.2527434077 0.08508092695 1.084202172e-19) 83
(0.3046704108 0.09583203004 0) 89
(0.1799346573 0.08115948433 0) 163
(0.285336888 0.1430954019 -2.168404345e-19) 357
(0.2437732808 0.0950082045 -2.168404345e-19) 171
(0.2539289715 0.06889880079 -2.168404345e-19) 23
(0.2943616335 0.09327820186 0) 88
(0.1795102458 0.05710798912 -1.626303259e-19) 43
(0.2488652388 0.07254295966 0) 52
(0.3016444743 0.117418338 -2.168404345e-19) 209
(0.178282811 0.07129624519 1.084202172e-19) 103
(0.2754877568 0.142560183 6.776263578e-21) 386
(0.2803465105 0.1054340602 -2.168404345e-19) 176
(0.2141562533 0.06744968598 -2.168404345e-19) 48
(0.2828815444 0.1175079124 0) 237
(0.2517085594 0.1110604617 4.201283418e-19) 233
(0.2383957708 0.09124497392 2.168404345e-19) 141
(0.1887116985 0.06677644469 0) 74
(0.2658373484 0.1164431623 0) 234
(0.303144202 0.1147432749 0) 209
(0.2444153343 0.09262474571 -2.168404345e-19) 142
(0.2348998729 0.07263254758 -2.168404345e-19) 50
(0.1855488526 0.05941281816 0) 44
(0.2923983929 0.09202539309 -1.084202172e-19) 88
(0.2478930149 0.1055780802 -1.084202172e-19) 202
(0.2579538878 0.08632387896 -2.168404345e-19) 83
(0.1835549582 0.05216383829 0) 14
(0.1828369194 0.09178220753 0) 193
(0.260684569 0.07418577106 -2.168404345e-19) 24
(0.2663461284 0.09514338278 -2.168404345e-19) 144
(0.2628295578 0.1628983026 -2.168404345e-19) 503
(0.275409994 0.1044857634 0) 176
(0.2793433453 0.08109855227 -2.168404345e-19) 56
(0.2869509037 0.09534747892 -1.084202172e-19) 117
(0.3011685747 0.09626191466 4.201283418e-19) 89
(0.2281976051 0.06646115179 2.168404345e-19) 19
(0.1823948323 0.07268125812 4.33680869e-19) 103
(0.2511663321 0.1015515714 0) 172
(0.2415609238 0.07938831472 -1.253608762e-19) 81
(0.2216324569 0.05957088104 0) 19
(0.1483116686 0.06315560605 5.421010862e-20) 99
(0.2201205608 0.07495321392 0) 78
(0.2899483755 0.1272474136 -2.168404345e-19) 268
(0.2935695198 0.1245170341 -1.084202172e-19) 268
(0.2717766547 0.09083389667 0) 115
(0.2289100846 0.06733502969 0) 50
(0.2232693479 0.09953346084 0) 199
(0.2591071186 0.08115057127 -1.084202172e-19) 84
(0.260871189 0.1261993497 3.930232875e-19) 294
(0.2248621383 0.06065276356 2.168404345e-19) 19
(0.239124199 0.08168433729 0) 81
(0.1864840336 0.05025309388 -2.168404345e-19) 14
(0.2390826623 0.0713133954 -1.084202172e-19) 51
(0.2235557832 0.1067816453 -1.084202172e-19) 229
(0.1869523409 0.05926104465 2.168404345e-19) 44
(0.2452044881 0.07846123847 -2.168404345e-19) 82
(0.3016888482 0.09102926488 1.084202172e-19) 59
(0.2055811892 0.06149194604 2.168404345e-19) 46
(0.2081244578 0.09134467123 0) 167
(0.2053228623 0.08232874839 1.084202172e-19) 136
(0.2988520592 0.09600106355 5.421010862e-20) 89
(0.2999296314 0.08309062489 0) 29
(0.2770948616 0.1182887201 -4.33680869e-19) 236
(0.2020697636 0.05783583302 4.065758147e-20) 16
(0.2938934684 0.09866704438 -1.626303259e-19) 118
(0.276012815 0.1031942771 0) 176
(0.2399930163 0.09839856464 2.168404345e-19) 171
(0.2340778242 0.08206039782 0) 110
(0.2940291865 0.1339106291 2.710505431e-19) 298
(0.2130807274 0.06793764163 0) 47
(0.2440575689 0.1087046991 0) 232
(0.185854459 0.0898099417 -2.710505431e-20) 194
(0.2331642989 0.100224832 0) 200
(0.2508326003 0.07872735619 -2.168404345e-19) 52
(0.2978870112 0.1467815286 -5.421010862e-20) 389
(0.2691788886 0.07594387225 -2.168404345e-19) 25
(0.285766567 0.1161430895 0) 237
(0.279066465 0.1481342499 0) 416
(0.2794078462 0.08745648712 2.168404345e-19) 86
(0.1840494243 0.06606835726 1.084202172e-19) 74
(0.2519270391 0.1051255665 0) 203
(0.2622765889 0.09668598229 -9.486769009e-20) 144
(0.2772248978 0.1210015521 3.252606517e-19) 266
(0.3004371855 0.1412897821 2.168404345e-19) 359
(0.2914798908 0.07999844738 -5.963111949e-19) 28
(0.2607828499 0.0971892 0) 144
(0.2630620547 0.07645646537 0) 54
(0.1709079852 0.0686177777 -2.710505431e-20) 102
(0.2277714943 0.08580035088 -2.168404345e-19) 139
(0.272223771 0.1505340278 1.084202172e-19) 415
(0.2974082469 0.09285016571 -2.168404345e-19) 89
(0.2827700839 0.08951618062 0) 87
(0.2459008471 0.07333127229 1.694065895e-21) 52
(0.2617794054 0.08705277817 -2.168404345e-19) 84
(0.2624008546 0.09561245716 1.626303259e-19) 144
(0.2722191636 0.1019885539 -2.168404345e-19) 175
(0.3026705008 0.08114354071 0) 29
(0.2966592429 0.1107125263 2.168404345e-19) 178
(0.2585632336 0.07888577405 -2.168404345e-19) 53
(0.2404184431 0.1038068637 1.626303259e-19) 201
(0.2035024217 0.07402333087 0) 106
(0.1854725551 0.0515059712 0) 14
(0.2813567628 0.07716184244 1.084202172e-19) 26
(0.2480960443 0.07069719902 5.421010862e-20) 22
(0.2742786858 0.1164780627 -4.33680869e-19) 235
(0.2717699983 0.1147654968 -1.626303259e-19) 235
(0.3018464851 0.109011812 -4.33680869e-19) 179
(0.3034479436 0.09972044764 1.084202172e-19) 119
(0.2740925825 0.1239703159 4.33680869e-19) 265
(0.2977945498 0.139705746 2.168404345e-19) 329
(0.2803742784 0.09878067307 2.168404345e-19) 146
(0.291959781 0.1051053747 0) 148
(0.2498915465 0.08210075089 2.168404345e-19) 82
(0.2435559759 0.08640980669 0) 111
(0.2928763743 0.1156448733 0) 208
(0.2278446095 0.09068468987 -2.168404345e-19) 139
(0.2110110749 0.07585130141 0) 107
(0.2142266271 0.107613766 1.084202172e-19) 258
(0.2898372428 0.09014160494 2.168404345e-19) 88
(0.2394106872 0.09336687122 0) 141
(0.2470918952 0.08711787633 -3.388131789e-21) 112
(0.2915341626 0.1295767295 1.626303259e-19) 298
(0.1727822033 0.06564152784 -2.168404345e-19) 102
(0.2414570154 0.08470138448 1.084202172e-19) 111
(0.197024166 0.05509158264 0) 15
(0.2882456968 0.1189414811 1.423015351e-19) 237
(0.29170661 0.1094202441 1.084202172e-19) 178
(0.1899516792 0.06976306471 0) 104
(0.2718241872 0.08279847497 -2.168404345e-19) 55
(0.2366916914 0.0670171874 -1.084202172e-19) 21
(0.200774456 0.09595994521 -2.168404345e-19) 196
(0.2319653179 0.09629560361 0) 170
(0.2363106151 0.06836765171 -6.505213035e-19) 21
(0.2955892861 0.1238542666 -2.168404345e-19) 268
(0.2876291657 0.1117986036 0) 207
(0.2525962974 0.08356597926 0) 83
(0.2916910147 0.1225620139 3.252606517e-19) 268
(0.2444423462 0.07868572998 4.33680869e-19) 82
(0.2675478923 0.07319486491 1.084202172e-19) 25
(0.2904380157 0.08041288382 -2.168404345e-19) 28
(0.2865752484 0.1204007546 -1.626303259e-19) 237
(0.2449728752 0.07621901954 0) 52
(0.2547535233 0.08581037194 -2.168404345e-19) 113
(0.2691309178 0.09332308704 2.439454888e-19) 115
(0.2153784662 0.062525701 -3.252606517e-19) 18
(0.2487239523 0.1092535863 1.084202172e-19) 232
(0.2724086831 0.1402410355 -2.168404345e-19) 355
(0.2093581586 0.1150048301 1.084202172e-19) 287
(0.1699133875 0.04599654071 -2.168404345e-19) 12
(0.2661211432 0.07447181748 4.33680869e-19) 24
(0.215527923 0.08346814501 -1.084202172e-19) 138
(0.2905707411 0.1622833212 3.794707604e-19) 478
(0.2785521872 0.07529259879 -2.168404345e-19) 26
(0.2455873336 0.1110196514 0) 232
(0.2998353954 0.1304203964 1.084202172e-19) 299
(0.2540346502 0.0882933217 0) 113
(0.1336264413 0.04206304479 -5.421010862e-20) 7
(0.2966852921 0.1260749184 -3.794707604e-19) 268
(0.1935482407 0.06061706016 4.065758147e-19) 45
(0.1993393586 0.08128904428 9.486769009e-20) 136
(0.2458427309 0.1113777308 1.355252716e-19) 232
(0.2416394646 0.1407147433 1.084202172e-19) 381
(0.2375308647 0.1020635184 -1.44842634e-19) 201
(0.1873734798 0.05830168915 -3.252606517e-19) 44
(0.2168625238 0.08251611372 2.710505431e-20) 138
(0.287242733 0.08378366016 0) 57
(0.1988231584 0.06143179382 -1.084202172e-19) 46
(0.2847360069 0.08191121106 1.084202172e-19) 57
(0.2193204084 0.1065421313 0) 228
(0.2128562528 0.1341703737 0) 377
(0.2040570809 0.06494049499 -2.168404345e-19) 46
(0.1999011231 0.07886053101 2.168404345e-19) 136
(0.3045253064 0.1070056758 -2.168404345e-19) 149
(0.25222005 0.09044046479 -1.626303259e-19) 113
(0.2954471303 0.1273770526 0) 268
(0.2533997315 0.09645568331 1.084202172e-19) 143
(0.2359861945 0.1122915043 1.084202172e-19) 260
(0.2609710322 0.08998717246 2.168404345e-19) 114
(0.2705685116 0.09006950228 4.33680869e-19) 115
(0.2849941979 0.09081645887 -5.421010862e-20) 87
(0.2645441172 0.0959978765 -1.626303259e-19) 144
(0.2343386152 0.08934190869 -1.219727444e-19) 140
(0.2583783496 0.08463307841 2.168404345e-19) 83
(0.2530799034 0.09049468273 -1.084202172e-19) 113
(0.265127543 0.07762100483 -4.33680869e-19) 54
(0.2566049675 0.07320194778 4.33680869e-19) 23
(0.2063568304 0.09637473032 1.084202172e-19) 197
(0.1984960345 0.05702618304 -2.168404345e-19) 16
(0.2730508887 0.1478221776 0) 415
(0.2496835075 0.06764236352 0) 22
(0.2997851711 0.08109407871 1.084202172e-19) 29
(0.2900867212 0.09217610482 5.421010862e-20) 88
(0.2725361379 0.1128516452 -4.33680869e-19) 235
(0.2792251898 0.07801602698 1.084202172e-19) 26
(0.2236078473 0.08980371104 -2.168404345e-19) 139
(0.2399244947 0.1496465256 9.486769009e-20) 441
(0.253548926 0.111790571 -3.794707604e-19) 233
(0.2770745068 0.1193975446 -3.252606517e-19) 266
(0.2837285743 0.1281635979 -5.421010862e-20) 297
(0.2590793714 0.09391643495 -2.168404345e-19) 143
(0.1950076358 0.06658875995 1.084202172e-19) 75
(0.160692629 0.0630558387 8.131516294e-20) 101
(0.2688993064 0.1013244934 0) 175
(0.1330656994 0.05465795657 0) 67
(0.2597648772 0.08401799301 -1.524659305e-20) 84
(0.2953044138 0.1089973392 -3.794707604e-19) 178
(0.2510437384 0.1043275924 -2.168404345e-19) 202
(0.3028945031 0.1041249813 0) 149
(0.2951186021 0.1358076465 1.084202172e-19) 328
(0.2553690391 0.1002338368 3.794707604e-19) 173
(0.2757534528 0.1333671075 -1.355252716e-20) 326