/*--------------------------------*- C++ -*----------------------------------*\
| =========                 |                                                 |
| \\      /  F ield         | OpenFOAM: The Open Source CFD Toolbox           |
|  \\    /   O peration     | Version:  2406                                  |
|   \\  /    A nd           | Website:  www.openfoam.com                      |
|    \\/     M anipulation  |                                                 |
\*---------------------------------------------------------------------------*/
FoamFile
{
    version     2.0;
    format      ascii;
    arch        "LSB;label=32;scalar=64";
    class       vectorField;
    location    "0.008/lagrangian/dsmc";
    object      U;
}
// * * * * * * * * * * * * * * * * * * * * * * * * * * * * * * * * * * * * * //


9444
(
(1532.501063 346.6261675 -350.6413802)
(-301.4129001 344.1783706 -1007.475857)
(386.2718492 389.41064 10.44221065)
(38.60833308 418.4218133 -203.932919)
(-544.9913493 664.4785098 -86.91581484)
(1171.76651 1281.252663 39.36849757)
(667.6375026 270.4821084 290.7696207)
(209.6133951 217.8428082 300.5389774)
(1387.483589 84.61797703 -319.900214)
(120.97933 201.8573681 -366.4024182)
(1243.814834 43.35719123 -764.9019435)
(823.5418818 209.3208557 156.5780085)
(872.4017698 531.7743118 90.02143367)
(1100.383652 29.86056692 -310.4248808)
(451.7404381 555.1305891 194.7363573)
(727.7598017 287.161235 -253.7033768)
(523.2316891 163.1216518 751.6405137)
(-26.73871126 366.6344515 -730.9532312)
(977.8310522 332.8031268 -199.160007)
(79.15582399 582.0482308 -45.78037396)
(823.160904 116.4952634 80.07444572)
(743.8159436 1066.458962 133.3673025)
(1120.653947 617.2256357 -19.62179699)
(-87.38435543 32.93759451 -657.5783803)
(500.0088622 425.5519458 -383.3578413)
(-15.01272589 72.10524228 198.3585407)
(977.1370124 227.9831208 -512.0875238)
(594.3041887 46.53641917 -105.3795301)
(2062.04981 222.8129622 370.5889252)
(243.4526908 1387.516665 409.1650328)
(173.9505712 326.6407274 -668.0458782)
(906.4505782 739.0928899 714.7113818)
(-491.6410031 199.2015338 131.3420807)
(767.7541249 -174.1749677 -294.8549446)
(813.3158056 1217.61346 115.919549)
(509.9101462 -607.4092664 -125.7038628)
(421.3065045 41.93941166 -1044.390273)
(1198.223882 -188.38966 -370.2188228)
(817.9537973 149.4982025 198.335048)
(-194.9169324 782.5480783 169.16956)
(-210.6980763 271.379988 -734.1485526)
(511.8928277 -53.05503354 440.9316788)
(131.6578258 128.0270309 -111.0431018)
(100.3116489 -4.091790529 -93.98959333)
(444.8788332 193.9316023 -206.1322545)
(667.7088229 911.1831905 -326.298716)
(-151.6703287 525.3429507 -132.8437059)
(1429.928873 161.1201581 -630.9646849)
(706.6245778 575.3187527 -166.9284363)
(-434.795341 443.7267314 507.7912298)
(-278.1847302 -317.3742881 285.3542933)
(147.0062388 30.78317982 145.85668)
(482.1137484 404.7974174 251.7944451)
(256.1456677 348.9798936 304.2650844)
(895.6711978 966.9182528 719.4976503)
(-61.21012263 -388.1072457 -132.6997749)
(56.07657438 559.041786 -539.0204481)
(1442.70162 305.923452 -124.8770668)
(-518.3178751 204.4936073 199.8602973)
(-42.52037302 409.8367977 302.0194285)
(809.0702648 838.4640202 -59.85231522)
(-314.9845057 -1164.088105 -319.275828)
(-693.5572902 -451.9479892 -443.2113964)
(-502.2874343 445.1793897 -998.4866818)
(656.0210481 1459.534559 690.722808)
(-46.7587908 709.0355137 -616.5900693)
(1155.332374 1235.745143 -510.4477206)
(534.618997 31.7390381 587.2792582)
(322.248296 684.4689177 -280.8719435)
(1179.745105 1291.793133 490.865737)
(198.3611699 -153.8138496 -17.40827617)
(1059.142898 500.1417742 487.4978699)
(1017.598875 367.1900774 -743.0603929)
(602.024082 671.1771807 791.8794893)
(474.2003345 411.753456 776.7651829)
(1239.727311 401.1355831 -1027.967477)
(-63.57395401 136.9137861 -671.7265806)
(-138.1364247 510.6870694 200.9656275)
(-499.8795616 -44.13964501 -12.42374574)
(1933.778849 179.2373847 -193.3317425)
(1141.437961 -190.511806 -162.2832794)
(29.6551473 -773.5900074 147.2274674)
(437.6873614 109.7749399 -709.0601189)
(548.0233185 374.2475196 1150.334405)
(108.4531061 375.0041984 -113.9034665)
(-669.971943 102.7882077 465.021272)
(698.5019067 -1005.243279 54.18545394)
(-414.122445 395.0554248 -52.17261263)
(45.42143271 678.1442082 79.91508815)
(86.94361104 -234.4709349 -58.03414814)
(262.7139224 910.0306368 -458.4959476)
(1897.976171 903.4895031 -227.4326797)
(749.9876722 12.5571191 -445.5977625)
(215.8292539 -687.2460423 128.7025018)
(68.74602004 563.7651186 517.342393)
(623.477325 468.6506008 -351.6326873)
(1205.980156 472.0275742 331.549648)
(806.1662027 -440.154562 721.6244754)
(796.9782351 -158.4654146 -664.8348263)
(1000.266172 -112.5361744 -110.3916309)
(-386.1460569 -54.20763944 -58.27160642)
(344.7594353 653.2576229 -409.3963599)
(-161.2124451 -41.8628774 654.0795002)
(-237.3236774 569.091201 -219.5346074)
(363.8170618 838.3792701 -156.9573867)
(-214.1673772 672.7151655 -14.40369933)
(949.1091596 -68.22435389 342.6690884)
(-315.7763014 100.845738 134.3200379)
(863.7812911 127.1024772 -209.7034729)
(-164.4206826 83.17177553 211.2695574)
(305.9570763 211.875344 168.9804259)
(-169.2959307 -492.4205865 589.4799778)
(633.6860272 704.4325767 219.3496675)
(1376.174073 -451.2326314 -940.5597747)
(957.7913127 -272.937295 -604.739129)
(153.3272908 369.5981803 366.6210752)
(1355.187737 386.6431327 -188.0340511)
(718.8226574 480.4807277 -580.6203147)
(89.30509247 1205.293838 -65.19027351)
(324.2368811 579.0999609 104.0615428)
(590.5101986 524.966483 -65.82127295)
(-106.0223522 -115.9624402 -467.6596715)
(273.8420196 411.1374116 -290.2853697)
(447.2119929 129.2235375 78.16787106)
(270.7089823 807.8588305 185.0190554)
(1056.024564 225.9431988 -628.025486)
(838.658374 344.6517729 636.6000708)
(-151.9316912 784.5380471 512.5550997)
(863.5955516 809.9018043 -63.64281456)
(428.92823 1269.221383 832.2856075)
(460.5560826 28.36578809 90.35739521)
(1219.127385 84.34117295 491.9092732)
(298.3601224 400.3180876 873.3945906)
(-340.8250302 615.8484916 -79.84418627)
(957.0378933 -259.7545335 286.9951845)
(1790.701 1154.688943 -502.1234002)
(70.21939058 541.0858453 310.1246142)
(1083.637937 1281.404666 -799.1436468)
(1444.713192 766.5230315 557.1324121)
(430.2979673 31.89959502 743.2798656)
(610.2158639 442.5922818 -749.6245993)
(124.7088303 53.25101499 -664.2411523)
(583.8511444 -472.7959475 778.6778772)
(585.3339035 406.3977742 169.437546)
(471.5682749 449.9274318 13.97564624)
(49.71911014 556.0981842 205.4588139)
(1274.370393 401.1813483 -13.60420019)
(-325.6444197 798.963178 -203.8497741)
(517.7496413 470.5899389 260.6712122)
(378.3244562 106.0254666 -362.2791831)
(1237.82076 328.1786747 151.6934385)
(-80.39790616 683.4909112 -432.7741824)
(1148.957908 -726.3517846 298.4261726)
(2027.03853 1426.692856 1034.442121)
(680.8751083 460.8794836 -763.856587)
(-99.52402725 253.5690726 1077.041793)
(149.6649321 -276.6815979 -413.0969409)
(134.3700015 122.8669418 -367.8656273)
(1742.866627 -150.0514972 10.21332389)
(1362.076578 550.624541 -423.3714331)
(817.5680483 1266.009449 790.221538)
(1176.209921 40.2244785 143.1638375)
(1157.957318 108.7957066 619.4565403)
(195.7738289 156.4000367 174.8156324)
(883.4932593 114.7309818 -137.0686882)
(819.3847799 326.8245033 -42.73785087)
(890.6484159 216.2397433 -74.75605492)
(-391.0074161 314.3635179 15.80697219)
(-257.973467 153.1857357 -752.6178826)
(1359.204653 -141.0919046 -245.1835274)
(679.0702959 497.9382332 -1139.198781)
(548.8722459 38.08501488 627.7783838)
(1722.350669 303.7274695 -573.2361109)
(602.2010687 384.2681282 -392.4619991)
(151.5771756 -145.6949891 -1017.382741)
(574.6709275 -22.86630021 -107.473523)
(-185.8268538 -13.18650309 62.7235526)
(-47.54978233 273.9622786 -826.1980157)
(-249.0204671 406.2426854 -469.0123123)
(404.6620378 191.6580614 393.5171554)
(-46.57446993 679.9072931 -160.4922623)
(-205.1071755 -1238.346376 817.6539224)
(875.3943757 -564.684322 1048.390089)
(2.122256075 775.0912181 -21.10312067)
(719.3939911 838.9639411 520.4176992)
(1661.954378 1116.908293 376.3054383)
(-102.5315129 682.4247126 123.9113005)
(424.5251467 47.01899278 75.45481486)
(1110.455319 -201.2246058 -64.50236726)
(-101.3149939 -1121.247792 41.72401003)
(-410.7449821 403.5333631 -497.8790007)
(1455.444469 907.9074297 305.5754872)
(747.8681322 640.1153883 261.7936382)
(1096.704515 480.4011031 -310.8841563)
(192.2383372 -235.5228311 31.18167797)
(-833.467779 343.2558637 -102.7223492)
(-476.6214553 898.9760695 -350.018081)
(35.49289861 355.5398471 -776.3417377)
(572.3168794 697.8201922 1040.782778)
(767.3029137 -162.5074806 402.8049569)
(1247.268785 64.66877527 204.7437787)
(171.6221613 254.7301727 98.88790435)
(706.3668345 328.5701652 380.4661486)
(667.5923871 890.8557248 -383.933823)
(1613.445423 -524.9494284 398.3651016)
(460.3757166 576.5163391 90.10785995)
(755.9404117 785.6558854 -640.5079352)
(862.4550005 619.8004944 -113.1503929)
(864.4837082 816.6588352 301.7568992)
(308.763483 122.3749641 969.6764851)
(957.3135021 1327.966252 332.2061496)
(981.4525413 907.7476604 246.6977843)
(677.6483567 440.8181148 -198.1122622)
(194.0368686 -70.69837465 160.6873519)
(427.7095589 -425.6889982 -438.7264961)
(210.092764 312.4264496 -49.20849719)
(648.6294719 723.6616511 1031.746796)
(317.6193953 456.794048 -807.5708195)
(303.4846132 581.61466 -345.3279292)
(909.8832639 162.1838912 -523.5057996)
(729.120432 90.42412622 -321.7948632)
(504.9453456 903.9352085 -752.475566)
(-281.5030019 514.1791502 595.7531075)
(605.822176 409.5820256 -206.404495)
(1998.28383 973.6766281 230.635777)
(614.5353806 1177.032373 -109.6068659)
(-43.59049688 376.3770948 197.8850761)
(579.7531297 649.5477453 -333.0458396)
(1199.070261 469.4114693 -352.6896933)
(1492.428241 426.1299845 -251.9760002)
(732.3916827 380.8197767 -75.69489146)
(579.7297575 242.4563235 -598.9624823)
(947.3475094 -486.7877004 -1261.961146)
(1107.080018 270.0890921 1074.930702)
(176.7002815 754.9074484 -600.8381606)
(1061.198036 85.41882343 656.5653927)
(680.0416163 133.4580771 -391.9505437)
(1180.600966 570.2482301 186.1392231)
(204.2562914 -288.5303999 -1007.468655)
(249.7013244 -2.729363454 -343.3033754)
(548.5307245 340.2976351 196.8603653)
(646.358877 39.26380701 -223.9814259)
(70.62462248 407.0745194 194.3086501)
(210.1361292 838.8334266 -979.4723151)
(1080.612652 203.2799303 42.38336247)
(116.8986256 887.8235884 57.16656393)
(179.5897539 596.7078735 292.0812302)
(1175.257471 -852.7241861 42.43577142)
(1269.02636 -49.45413664 322.1026691)
(673.3340665 253.0344909 412.6022428)
(1355.56123 528.4083541 -395.5130295)
(976.0193978 491.726014 -423.8840115)
(213.4761647 -259.3795197 199.4980717)
(561.8377877 731.5008665 -169.6442343)
(443.3155264 -55.53512501 -494.8867573)
(336.9688196 -712.8162766 -71.33808199)
(1232.966357 561.9280637 486.0662707)
(169.0878925 643.1843117 -526.1887042)
(-103.6103083 527.0164484 168.1599443)
(314.6793707 1094.057217 563.3865758)
(1618.357359 258.565868 -646.9443507)
(-198.8720454 -358.7370511 -40.78230086)
(-868.9778389 820.7701049 251.7844833)
(500.7468506 405.8670584 64.80192313)
(401.3762626 509.9871347 -195.3780178)
(1030.807966 500.2002406 426.5338995)
(504.9210124 447.1192008 233.1394764)
(1295.662702 564.8863875 -444.2708029)
(1643.371605 5.382608718 -148.010562)
(919.4071719 -343.9093445 -94.70458599)
(-99.38795789 128.4301647 471.1011539)
(1001.538793 1387.622544 67.68316499)
(888.1041607 119.7478959 75.38466229)
(-149.2124146 -253.9412796 24.76702117)
(762.3288299 282.0134682 -153.5686295)
(1927.204156 -425.9352589 -79.15045433)
(413.2620174 -24.73908031 -117.9204732)
(543.75771 882.2646164 -262.116775)
(144.9102069 310.0769983 94.36153715)
(267.0636749 1130.710478 -386.2637869)
(144.954475 608.9684404 381.20189)
(-486.3430253 637.0410233 85.67905773)
(226.3800573 -146.2430052 313.7398186)
(1021.998683 316.6435726 185.6207637)
(642.5837007 -168.8307948 180.7831043)
(559.9406363 658.969359 102.3105582)
(677.3906543 -160.8192336 57.83756723)
(643.4210841 228.8885378 1415.301511)
(440.6679647 557.1583597 -529.7518445)
(1149.646252 489.602175 243.2642098)
(597.0108384 121.5574336 583.8933068)
(1305.883762 1054.562542 516.9354418)
(277.9897081 495.5456723 650.2195351)
(-20.40893647 1098.491348 -429.8165552)
(867.8660164 227.9257053 -742.1980257)
(930.7051606 984.6228731 -175.5662702)
(722.379644 -999.9484119 260.6141178)
(-46.72450645 587.0483855 -255.8564785)
(-729.7342202 913.1669792 236.4119572)
(464.3329855 737.1079145 548.6307643)
(-46.2938865 323.426929 -101.635715)
(1578.424756 -16.08112729 384.6438963)
(1192.920657 757.3279701 -1007.96248)
(580.3836799 -173.23791 415.1250742)
(-735.2290386 786.1858981 143.501792)
(-735.6666756 512.9468864 -945.8234515)
(663.0257981 366.3015626 -7.016036874)
(645.6519879 -568.4736154 828.9128136)
(-745.3251451 61.14441154 143.3784986)
(815.3524485 938.2263528 -233.6919442)
(470.7212325 778.4611901 300.606056)
(1055.513591 -399.8795004 210.2544423)
(45.02409544 -204.3269395 327.8446938)
(455.6326346 303.2818247 -45.06184154)
(1000.577413 5.081008119 -1275.954439)
(1114.174021 -771.2476223 -14.18551487)
(-131.4895622 -148.5916151 -682.5510231)
(317.7459307 538.2669932 -313.0876423)
(-561.0544788 1055.553061 423.7646949)
(176.306865 862.6107461 -36.54200907)
(1625.369115 693.472727 259.8651732)
(1033.165375 279.7957185 270.9209449)
(996.7126739 24.081798 817.8758047)
(701.0934893 541.1365526 -513.293503)
(1801.268494 -786.8196991 -642.6521373)
(1221.527265 423.7860355 -227.3116914)
(647.3788946 -210.0222248 -77.54627647)
(363.2594893 -633.225303 410.244794)
(2325.925886 -391.5028278 57.02619199)
(1153.507617 -495.1808341 392.448499)
(1944.994199 -263.0714863 -341.1776162)
(282.6638001 647.7830423 69.62769952)
(-369.5513423 677.1930428 -268.8855424)
(180.5746805 -120.966007 -57.21113999)
(211.9868779 -1236.502941 -280.2136094)
(107.1219087 446.5829702 -546.8537682)
(1091.735427 784.8467338 -30.0211763)
(610.9142549 192.5927528 349.2490992)
(-300.3850766 -84.21425589 -90.1313206)
(1056.409786 769.7367152 -71.48219665)
(533.4993286 328.8726258 465.2152086)
(-122.0082501 -99.68575597 134.8352479)
(690.272212 144.0837843 -496.3722541)
(603.713366 -1135.121011 -131.7072646)
(376.8024484 -267.4779571 776.7600248)
(10.96140585 221.7826189 -511.2332353)
(-46.66760935 191.902318 -1125.657027)
(-229.7262451 262.1318508 -793.3222912)
(263.5003029 164.2626635 431.7978992)
(204.9499873 247.1069024 162.1034388)
(1217.836238 317.2390862 -501.5177824)
(-166.8844752 138.4157569 350.2642379)
(1010.554183 726.5441995 271.0156025)
(1721.89859 -316.2231271 -345.3605458)
(686.6388942 852.3276593 171.3214002)
(-500.0467959 -8.416870125 415.4950848)
(1482.669066 -857.7234309 901.3548841)
(1074.779868 605.6586823 -851.7501955)
(591.5720948 637.7214529 -668.9333994)
(1068.737166 383.1914119 -57.18556725)
(543.6549035 87.66887374 731.4188142)
(1620.691298 563.9378036 781.8794257)
(1757.791161 75.26953854 256.1642611)
(275.9276419 -263.5001888 -351.8092723)
(537.6696909 -1230.666705 382.8256389)
(222.9042144 544.6613408 -794.0322732)
(-0.2958185723 -454.1803048 504.9771361)
(314.7864078 267.8718852 284.3164704)
(589.2370686 405.8543562 139.3490016)
(106.3081131 72.86292714 -159.5717464)
(110.9559421 255.9742022 -125.94895)
(-618.9144599 80.02213446 -255.1928616)
(1402.59635 -245.5575896 911.3811659)
(1367.550072 302.1680401 200.0119965)
(-302.3023184 -214.8269012 -918.1868415)
(800.462934 345.2279437 -220.2082594)
(822.2393642 588.6224031 76.78109317)
(1276.928798 359.2068941 -368.9682757)
(190.7037335 201.5809493 380.0630075)
(-336.2797939 236.9047261 650.6657857)
(-186.4612047 304.0076657 172.0726196)
(897.3909927 541.1654752 915.7918033)
(1289.010494 -88.87474766 -236.5090579)
(917.7805044 -933.186446 516.5276402)
(1202.169191 224.9322287 840.6613195)
(-168.6670413 68.05536232 633.4642811)
(-114.7859329 230.0508608 -344.3979089)
(-386.0997868 275.1949479 766.0973671)
(1486.234729 -114.6436306 277.4620196)
(874.6650727 1447.020345 94.6600611)
(889.805846 273.766411 -236.7818621)
(-475.5430874 566.8690011 -367.0819551)
(-247.2984783 184.6015053 -309.5836821)
(-140.0847015 20.02095924 -884.1046099)
(961.0486687 807.070423 -491.9397272)
(200.0361561 351.2829311 -808.9296809)
(955.6147087 -417.540877 405.586947)
(1228.812073 787.9887044 -363.6123521)
(634.1004809 472.7384803 62.31275604)
(388.2962876 856.3534056 336.251025)
(33.12099453 -76.80710171 860.8428177)
(-436.9973595 -59.25805548 224.2602439)
(720.6428457 -510.8574119 -129.9790428)
(578.4534675 715.1269045 52.54874849)
(390.3101029 1152.647306 -277.4596005)
(1102.42031 165.0440929 252.5749671)
(38.35508256 72.3101425 838.1729741)
(1128.158903 -575.9702751 452.0092861)
(-103.7214575 225.292357 -292.9262122)
(232.3219044 1048.608842 725.5498174)
(550.1899364 898.1953153 -570.7669716)
(408.9751338 694.5268526 -406.4281396)
(289.2662736 584.8194913 -879.732892)
(444.3731134 1343.757811 225.5831469)
(1119.858969 547.3266111 166.0597662)
(419.5726106 -598.8955277 -668.8169701)
(734.5339816 304.4865271 -369.7807378)
(60.08143957 433.0159889 893.1499875)
(190.6547213 672.5060748 272.3404218)
(1867.901258 153.7394582 -577.4742964)
(647.2903002 -387.9636567 -24.23073784)
(77.30868224 211.3393707 -1142.010882)
(1423.233534 912.6190605 -185.8255026)
(550.935198 96.86480124 327.9580962)
(-257.9998909 197.2938711 300.0335943)
(305.377321 206.7541517 741.4981499)
(396.1795561 32.12865693 38.49957227)
(-2.878775285 285.2098595 27.36841698)
(609.5866625 -291.1385569 326.4983298)
(283.283751 -164.6041872 942.1033041)
(888.6158677 291.6386174 755.9892192)
(725.7956016 447.2998858 287.8100494)
(961.7527932 -121.1414859 -897.1822807)
(592.4245641 195.9482779 -363.1742771)
(1560.01535 341.8617491 -335.2339976)
(1649.00233 402.8950466 221.6702654)
(1218.14863 323.2595905 535.4135541)
(-223.4058601 646.7035479 93.52690043)
(1074.47318 690.8605977 -303.0580423)
(582.1456645 83.71708559 -567.7071957)
(-332.9961695 878.2067053 208.4521205)
(856.4355985 -304.5422766 -167.7179198)
(1847.965062 948.1089402 -124.0876598)
(754.015261 127.6083403 274.0622219)
(739.2588774 138.5413155 307.2428523)
(651.7716049 447.0071412 -410.609414)
(1351.742728 449.9439604 257.6742077)
(2270.158837 442.9871032 -34.95298627)
(336.1805162 898.9500505 414.1523682)
(58.46032382 -472.2918911 -354.5063059)
(710.1574872 216.4915546 107.9948834)
(365.3577841 -425.4390957 -163.3383146)
(803.0496611 520.5751607 -85.01280357)
(1138.554068 97.09676959 250.822769)
(-517.1389114 677.7584046 -54.33321505)
(799.4174446 113.8746334 -813.0759246)
(967.6296096 89.59380871 561.073177)
(892.9240588 -69.1494932 167.3908103)
(1048.260882 575.6569313 254.1292534)
(967.5485989 8.748562263 54.52696217)
(956.4520934 801.4916875 391.1305082)
(566.6878846 866.8818519 -1377.018528)
(341.0011198 1522.717401 283.1140777)
(696.3917239 24.99535743 481.4609198)
(60.92128446 145.0838857 345.8694559)
(72.76298892 377.92173 -473.1232548)
(-1012.60664 0.2684084969 646.9261574)
(-25.00051851 692.7003728 299.4225101)
(957.6227905 189.207324 559.5772067)
(1298.289759 155.2869961 97.62883028)
(40.74321523 418.9988613 -835.7353892)
(910.2428555 517.7967707 843.9247387)
(136.3157847 289.5614392 696.9087165)
(662.237602 187.8646909 -766.3599552)
(729.7449638 439.8301902 -60.72481988)
(1192.02598 115.9532954 -446.2380468)
(250.5976661 187.4601279 93.48631018)
(1006.222999 264.5362548 -273.093645)
(407.6572191 -215.6545461 415.5516508)
(-3.522577016 454.7022969 194.8045339)
(-93.79570839 388.406557 562.0184764)
(1401.712734 194.0082902 -424.6490282)
(644.7276435 719.7917167 506.1777912)
(273.0424933 602.5416557 11.14552654)
(140.3706348 531.588614 -7.52210977)
(-143.0164352 285.1416941 1131.46366)
(1068.769773 1177.558667 55.39759958)
(1226.771519 63.33208273 -206.7228559)
(539.5764933 744.5599202 -102.0392146)
(-282.58274 445.660193 39.69121466)
(291.7941552 -57.58904169 -212.1187069)
(368.1222937 620.2041636 373.8914565)
(1522.826856 -165.1968162 260.2441043)
(-204.3087259 590.4692818 -167.8747756)
(-104.2642148 366.6360011 -389.5015519)
(698.2975673 50.80644101 -890.3019119)
(602.2108584 257.354505 212.5473169)
(780.5209835 299.9398855 255.5749333)
(-907.9730713 -140.6791395 654.7119324)
(-306.57001 112.1774618 284.7504824)
(264.1942247 374.0162438 301.3537081)
(1042.746658 -104.6736613 336.7998859)
(660.6003361 158.2176184 817.8275195)
(223.9791505 -262.1070037 43.45939531)
(1465.980279 -607.8056546 493.0064653)
(-305.7180341 939.9421006 141.1065872)
(816.431876 296.5873036 -812.3881636)
(591.0254965 -146.7503334 465.9771591)
(803.9625873 254.7023824 317.4466205)
(807.1311099 156.2123877 -536.9046089)
(393.0465828 735.7077584 -41.7239547)
(597.3027925 -7.378465986 -133.5663247)
(1759.291564 484.6436443 743.3498704)
(1129.231172 -195.1754979 -1.133909703)
(1056.312211 1220.805095 695.4510094)
(884.7863107 422.5600743 -50.67203674)
(563.6352304 -679.840868 -151.8033539)
(-12.10808441 -585.2992983 447.9216887)
(1246.54433 419.4997004 52.51756827)
(520.4776957 -1026.279515 -636.264418)
(1643.080772 -230.0073803 90.61913672)
(645.7034571 880.8965836 272.8879606)
(983.4419122 27.17179377 -503.4087873)
(-48.4950423 11.50230668 202.0938637)
(1891.072106 1383.061235 -744.8199933)
(795.0914728 -530.1248068 -597.6284503)
(896.7150768 917.3310655 -947.65917)
(1431.767568 526.96446 728.5259254)
(592.948464 -151.2790177 -6.438365876)
(626.9329416 203.6357309 674.8594365)
(353.5086277 380.0052464 -22.83926374)
(1055.336543 -173.9794598 416.4146255)
(-509.0696372 -27.03775642 -95.28531845)
(778.750809 833.1494261 664.4945237)
(618.807379 -262.5960932 -104.5511761)
(-90.44159361 -593.8562034 -403.0290084)
(-203.879513 -315.7663617 -395.290653)
(-155.7900896 64.53081213 -318.7924771)
(799.0528829 86.54447951 374.5247271)
(216.8551954 608.5729585 501.6105115)
(-216.2054955 70.07023598 -25.03209222)
(434.4079367 648.2316634 -428.3881349)
(179.9758544 290.7916124 -276.200249)
(751.9135296 665.3625607 1307.973644)
(470.3092076 -570.9037094 431.9175329)
(135.5089423 -394.0316478 -504.3748128)
(90.07597167 40.01250189 -138.3787942)
(221.5760743 -0.0911754203 -377.0257885)
(713.7258357 -122.8305664 -377.4858776)
(1010.093603 -182.1548969 -174.6650437)
(1540.433728 204.1832509 658.2797149)
(548.4226589 387.5252989 -505.0887736)
(1080.834576 590.414734 -351.8269733)
(760.0196771 241.1938653 -564.2446757)
(-285.2492144 -203.6897904 879.6157042)
(616.1697008 251.435985 -30.72496261)
(1540.902156 -212.2185243 2216.516307)
(94.68810833 552.4113304 410.2771947)
(1252.536297 916.1319785 541.355441)
(51.1540652 28.81147365 -612.4380307)
(1092.226062 246.8181809 693.2979005)
(60.10644724 725.6007029 -266.6723562)
(1108.731931 406.9489128 208.0523726)
(550.6080164 152.3843916 -326.1345404)
(513.3430594 289.6945328 306.3569682)
(2002.873867 371.1213095 694.1824189)
(148.0416557 567.7936532 -274.0896087)
(351.3769839 881.4839009 -465.5520619)
(641.9961373 565.4294189 -53.96649308)
(1475.092899 -85.08313745 232.9851914)
(-208.0350392 93.21611757 -35.03345819)
(-400.6318581 35.26293315 584.162536)
(913.8456563 146.6318393 571.8310557)
(359.9033664 163.9861682 664.3396501)
(592.8130657 278.2343401 -302.877276)
(41.06762161 1318.991196 652.1416242)
(668.5184187 180.9795327 -131.3554503)
(1294.332815 389.9416505 694.0590873)
(1202.437246 138.4669102 -58.1816686)
(66.1593681 -227.0253091 711.2480705)
(2031.06357 678.6975018 364.6748668)
(824.4782897 -63.11746337 186.5141794)
(-416.931949 902.8936233 574.9200263)
(115.6339283 249.8576484 513.1242835)
(1167.498471 365.6943195 128.9569773)
(140.163711 430.3469442 -443.1396645)
(159.5287088 894.2006542 -97.23646494)
(-169.5776815 896.8248788 -827.0209121)
(-23.26592388 528.3242144 -550.5230815)
(1017.243016 -61.60602336 -762.1205228)
(430.6364209 386.0218724 -322.8159945)
(669.1798657 625.409356 -115.9402169)
(-314.4710418 -358.9110505 294.6535065)
(774.0004564 -14.60515186 179.0566665)
(433.0623411 280.4066798 -544.7591523)
(-126.254732 1283.550272 1064.372409)
(319.0087969 98.29592133 -475.9080832)
(1016.639764 254.193727 -121.4780186)
(549.805491 -426.7306036 -150.4012372)
(546.1181173 262.6056548 -102.2396127)
(-532.0346291 -79.56330015 -86.55840476)
(-57.75938735 1072.603198 -231.4979467)
(725.5167792 -872.5745186 -300.3297982)
(455.2726672 638.2843248 205.8607294)
(-183.9745141 1265.897454 -30.07924535)
(555.9314508 697.0209437 547.272435)
(426.8388899 1383.172435 -1082.255025)
(-415.2722889 261.0915022 -83.14600236)
(-47.11539888 462.3910666 179.1230377)
(-625.546045 802.8456236 693.3904368)
(-85.92972636 105.5145396 -91.19803759)
(663.2208733 -177.6840248 1020.180244)
(773.59514 249.6696075 45.85679132)
(318.4853248 1092.068911 301.3873854)
(104.4886441 96.88715174 294.9590463)
(192.7018942 525.2563765 379.3173366)
(1140.765156 -444.4186437 -885.6223323)
(985.1772242 -426.8849841 -183.3433313)
(850.5035528 452.2974428 285.4936569)
(1220.195462 -95.45198379 -199.0942215)
(601.7041131 -33.86540594 642.131966)
(141.3029755 585.9390434 -222.7262735)
(28.63343181 631.2900799 -144.4606823)
(1255.659075 64.17673266 -437.2904519)
(728.6541406 567.5672312 890.3508468)
(790.7741997 440.8618231 222.2628128)
(365.849126 -286.9914798 286.5225635)
(1349.398537 337.0676133 -220.5621988)
(183.5131258 45.07704616 -234.6372528)
(1020.051506 -454.7203632 -59.5420451)
(713.8374302 485.2665345 344.0873039)
(-18.53427905 -265.1997508 -75.45606381)
(1157.4021 854.263241 308.8928747)
(-243.7856843 151.3034855 -443.4881842)
(867.6509258 -190.7486732 154.5454569)
(206.0061007 96.90780556 187.4879385)
(575.8378953 -718.4053878 -22.76612516)
(-178.8352242 128.8391597 60.88140138)
(-101.7666416 477.6226794 164.4320473)
(969.1293065 1016.323685 104.7572464)
(619.3592465 591.5744738 -9.1861555)
(285.1241342 745.6710828 -444.7379453)
(813.398371 1151.26053 73.54255273)
(796.5112789 591.7286924 871.8977823)
(528.8631638 393.625107 712.5821055)
(-25.65889958 589.7017098 -96.82537901)
(-139.9970661 444.1451079 -436.2163987)
(54.47208274 984.9483776 -223.2600421)
(505.1539309 153.8577011 644.3776889)
(570.2308363 198.2345546 549.2540805)
(935.8733558 965.429904 407.6723622)
(799.5299828 -191.0474832 296.7565976)
(299.7191141 -558.095658 174.5716996)
(1627.155623 -469.4641009 580.3532604)
(791.7033256 147.0411384 -1000.671549)
(1009.245237 211.3306377 -661.9166149)
(925.94054 159.5057752 -347.6600714)
(185.6723076 248.9250791 -456.6510474)
(1054.471992 390.7054616 -335.8944608)
(-104.0874427 -167.145938 715.7125568)
(-856.4299884 942.5474023 118.3977186)
(-503.3082419 793.8108647 185.0385852)
(1500.207771 -151.681042 -528.6634248)
(2142.943773 -180.0366731 316.0886664)
(1085.249541 529.1365869 513.2956972)
(-643.8971485 925.0066717 -142.5926267)
(81.60582993 542.0266668 549.9387922)
(1156.876454 197.3056079 661.8781744)
(242.5094465 290.6484878 -245.6577602)
(940.4420972 -100.2024726 -217.0529447)
(700.3033324 -210.0245223 818.8860044)
(1277.782818 366.2574058 875.0221351)
(416.1261663 -207.4925473 -677.8658578)
(193.0386975 313.7645095 400.1936702)
(910.7177332 489.6674172 147.3221467)
(1299.083491 483.2187385 57.78050606)
(1120.849136 353.4201478 451.5843785)
(943.0962589 862.6809401 198.3558747)
(468.5428812 117.3213983 856.0436573)
(719.0360539 446.4268616 -335.2099975)
(-14.50041377 -254.8683261 407.7605006)
(618.3530959 1028.542254 -351.4503081)
(-347.5239943 750.7152719 -261.9966104)
(254.3269334 40.66194406 -82.39275383)
(221.712302 1676.050403 66.04297264)
(1539.465589 125.2948119 -254.1996993)
(592.1975953 657.5416027 204.8116135)
(1594.198787 201.5825744 -769.4345784)
(-241.1255927 -154.4655201 199.3802202)
(703.9986777 -83.07051959 589.6599144)
(456.4296633 -342.9380712 -118.7735376)
(1029.451887 668.7842126 477.8839063)
(910.2389634 57.0715659 -19.16790962)
(142.0540997 713.3252702 170.7774743)
(246.2440117 245.8337396 -906.1645883)
(241.7178875 107.1576702 -65.7314284)
(256.1084897 712.8334353 -763.8699199)
(359.8521957 755.1641351 -80.97553559)
(-286.663191 -325.469368 -724.5003763)
(101.3306765 598.1665898 12.91575365)
(871.580059 4.80604845 352.3719604)
(934.1570619 312.5159728 1127.433429)
(139.058268 114.7286879 450.1018026)
(565.159611 123.3461414 -322.5303878)
(1.815898447 -350.2806289 55.87723295)
(1372.993226 519.6745634 368.9078846)
(1510.933571 424.2007809 59.59043229)
(1602.799873 147.0651111 -426.2255688)
(297.9976324 -265.2837414 -1110.525293)
(1499.935641 171.023786 337.5292459)
(257.9530184 -385.8622927 294.2358441)
(302.9592971 390.0419875 429.1310315)
(1076.189069 517.4524069 46.95940102)
(1315.555331 1169.837702 71.06053718)
(455.8111518 1451.243786 585.1364455)
(-220.6021183 1046.479505 -123.3276844)
(804.6350776 372.3632927 410.558867)
(1187.118408 606.9971353 435.4400208)
(-314.2022136 -112.5863269 649.9008155)
(303.9713911 361.196041 -384.5077747)
(-178.2855663 630.4780475 -156.6764147)
(1568.091627 397.9482549 -664.5099088)
(968.4879447 644.2431201 -251.6880275)
(-749.0882137 494.7950118 -581.1198286)
(849.8012131 -622.2499314 1224.152346)
(1697.759383 -240.185594 728.8739571)
(1082.759451 102.0353926 -3.698833795)
(388.3215584 -309.4213385 -1010.35778)
(732.4492679 -765.28249 71.37542355)
(-256.1797372 390.9675169 385.2051652)
(1599.129872 -7.949806155 -519.5867858)
(622.9264368 -72.16701867 -407.3055177)
(1072.48593 681.7296608 -639.9543314)
(1198.22477 955.2245397 -545.4499983)
(381.4038876 -323.1162533 -293.5790221)
(-438.9230357 581.0067249 -75.94939446)
(159.2028305 1027.218403 -129.4494516)
(666.8617465 694.9213522 -452.239684)
(643.6537013 46.95272305 411.6858365)
(558.9230447 584.6034177 -524.4576608)
(81.17981612 -69.9760524 139.3800136)
(-260.4550036 86.53249427 69.66983337)
(-501.8779326 -185.6925179 5.054073846)
(8.572207901 452.3063797 310.6925977)
(966.0333666 -248.5013804 482.9900377)
(28.53804066 217.3509691 739.2135028)
(-282.1192383 -109.6508011 -98.01533358)
(-521.742218 201.663774 545.3653767)
(-28.40068271 436.6572163 -240.5632237)
(-244.2753303 572.3550047 -490.1011238)
(303.8526279 386.0754542 134.6224131)
(-5.163663809 195.6759036 884.0785298)
(936.3604229 470.7875994 -445.2839891)
(398.4110769 -1056.111503 103.1984596)
(-132.0351438 980.1988478 623.1028249)