/*--------------------------------*- C++ -*----------------------------------*\
| =========                 |                                                 |
| \\      /  F ield         | OpenFOAM: The Open Source CFD Toolbox           |
|  \\    /   O peration     | Version:  2406                                  |
|   \\  /    A nd           | Website:  www.openfoam.com                      |
|    \\/     M anipulation  |                                                 |
\*---------------------------------------------------------------------------*/
FoamFile
{
    version     2.0;
    format      ascii;
    arch        "LSB;label=32;scalar=64";
    class       volScalarField;
    location    "0.004";
    object      dsmcRhoNMean;
}
// * * * * * * * * * * * * * * * * * * * * * * * * * * * * * * * * * * * * * //

dimensions      [0 -3 0 0 0 0 0];

internalField   nonuniform List<scalar> 
546
(
27.2335
27.3845
26.62
26.43
25.722
25.4895
25.685
25.603
25.9535
25.457
24.6845
24.4895
23.3445
23.943
23.7355
22.948
22.049
22.047
22.338
21.768
21.295
21.668
21.253
20.738
19.572
19.0745
18.2395
17.453
15.927
12.9365
24.352
24.147
23.9535
24.0235
23.429
23.391
23.048
23.1515
22.6495
22.6475
22.276
21.909
21.69
21.865
21.811
21.2625
20.71
20.6055
20.3075
19.871
19.3335
19.397
19.0925
18.2745
17.874
17.8225
16.7825
15.8095
14.384
11.827
22.9
23.2575
22.811
22.376
21.794
21.6235
21.6035
21.3895
21.5195
21.111
21.1605
20.85
20.7575
20.5565
20.1685
19.551
19.6125
19.118
19.1065
18.835
18.2525
18.3465
18.6055
17.486
16.861
16.5465
16.0575
15.359
13.56
12.0595
21.3545
21.6775
22.1685
21.716
21.502
21.1745
21.085
21.298
21.236
20.8975
20.6175
20.35
20.3215
20.2065
19.4625
18.9855
18.753
18.7575
18.6975
18.5205
17.9745
17.6
17.3855
17.1985
16.8515
16.1325
15.568
14.713
13.713
12.4925
19.9385
20.3105
20.8695
21.0185
21.239
21.1065
20.717
20.7685
20.9925
20.4275
20.1265
20.352
20.2385
20.0585
19.618
19.346
18.7845
18.844
18.3465
18.0855
17.8245
17.0485
16.8245
16.8125
16.23
15.929
15.8585
14.79
13.94
12.5765
18.525
19.026
19.6505
19.914
20.145
20.3945
20.424
20.3245
20.466
20.4405
20.2175
20.091
19.6875
19.665
19.525
19.385
18.6025
18.7655
18.4825
18.096
17.7205
17.0655
16.9875
17.022
16.738
15.9385
15.3305
14.9205
14.238
12.8595
16.8775
17.772
18.2795
18.835
19.086
19.947
19.9655
20.02
19.8355
20.2405
20.146
20.0295
20.04
19.9225
19.386
19.0145
18.824
18.4055
18.3485
18.0275
17.742
17.5425
17.0605
16.9235
16.8235
16.3035
15.56
15.162
14.318
13.358
15.3555
16.0425
16.8595
17.713
18.0905
18.4595
19.082
19.429
19.3965
19.389
19.65
19.699
19.391
19.3185
19.5045
19.4465
19.1405
18.7725
18.584
18.431
18.234
17.616
17.2785
16.9055
16.584
16.242
15.753
15.1625
14.5935
13.869
13.811
14.6475
15.3625
16
16.9635
17.5155
17.897
18.3695
18.686
18.7235
18.907
19.252
19.4055
19.554
19.4985
19.6695
19.3515
19.15
19.0265
18.6465
18.3495
17.883
17.319
16.9905
16.7185
16.466
16.012
15.38
14.683
13.9985
12.425
13.0795
13.748
14.4915
15.2005
15.814
16.662
17.1355
17.854
18.3475
18.5255
18.7285
18.9315
19.241
19.2325
19.188
19.132
18.903
18.643
18.5255
18.4765
18.204
17.86
17.094
16.9345
16.562
16.1385
15.7365
14.9355
14.2865
11.6885
12.216
12.752
13.212
13.8475
14.437
15.202
16.0555
16.662
17.48
17.8805
18.148
18.3925
18.5095
18.662
18.64
18.7005
18.8515
18.5615
18.443
18.336
18.143
17.8265
17.5875
16.848
16.446
16.3065
16.2055
15.7095
14.8485
10.9765
11.3215
11.778
12.2725
12.837
13.4055
14.127
14.7115
15.321
15.752
16.2775
16.8265
17.455
17.8205
18.021
18.4015
18.4245
18.5375
18.5865
18.514
18.229
18.323
17.902
17.666
17.4395
17.165
16.6715
16.035
15.7175
15.512
10.344
10.6155
11.0535
11.302
11.855
12.419
12.8785
13.3
13.8925
14.389
14.993
15.831
16.5395
16.998
17.323
17.5565
17.8565
18.0205
18.177
18.2285
18.14
18.361
18.0445
17.999
17.7925
17.3035
16.941
16.6005
16.305
15.706
9.866
10.103
10.344
10.778
11.115
11.4245
11.794
12.353
12.8335
13.564
14.267
14.695
15.2895
15.8495
16.32
16.746
17.1965
17.6755
17.665
17.8505
17.802
17.836
18.2805
18.1845
17.834
17.5585
17.485
17.0495
16.367
15.8835
9.781
9.8925
10.0695
10.11
10.342
10.7035
11.158
11.5635
11.992
12.412
12.856
13.235
13.997
14.876
15.5105
16.3105
16.598
16.864
17.271
17.551
17.82
17.98
18.059
17.9345
17.894
17.616
17.439
17.352
16.946
16.3275
9.389
9.307
9.4635
9.546
9.8505
10.1085
10.422
10.782
11.209
11.541
12.0795
12.742
13.079
13.6235
14.3415
14.845
15.47
15.96
16.3495
16.888
17.1975
17.319
17.421
17.7675
17.789
17.6025
17.496
17.341
17.085
9.343
9.391
9.404
9.6605
9.5685
9.696
9.9295
10.301
10.4885
10.918
11.2775
11.5785
11.886
12.448
12.9005
13.564
14.329
15.0685
15.6935
15.674
16.0545
16.79
16.9755
17.221
17.254
9.304
9.356
9.442
9.39
9.4915
9.589
9.5815
9.674
9.886
10.1075
10.2525
10.7115
11.2155
11.6735
12.1215
12.663
13.058
13.7425
14.2535
9.178
9.1495
9.177
9.1545
9.1675
9.1705
9.2405
9.3245
9.512
9.548
10.0175
10.154
10.326
10.79
9.1235
9.0785
8.992
9.0115
9.0825
9.0425
9.142
9.2305
8.9375
)
;

boundaryField
{
    flow
    {
        type            calculated;
        value           nonuniform List<scalar> 
15
(
12.9365
11.827
12.0595
12.4925
12.5765
12.8595
13.358
13.869
13.9985
14.2865
14.8485
15.512
15.706
15.8835
16.3275
)
;
    }
    obstacle
    {
        type            calculated;
        value           nonuniform List<scalar> 
30
(
27.2335
27.3845
26.62
26.43
25.722
25.4895
25.685
25.603
25.9535
25.457
24.6845
24.4895
23.3445
23.943
23.7355
22.948
22.049
22.047
22.338
21.768
21.295
21.668
21.253
20.738
19.572
19.0745
18.2395
17.453
15.927
12.9365
)
;
    }
    frontAndBack
    {
        type            empty;
    }
    procBoundary1to0
    {
        type            processor;
        value           nonuniform List<scalar> 
21
(
27.7795
24.5785
23.009
21.1645
19.5885
17.716
16.209
14.4065
13.076
11.835
11.3095
10.556
10.248
9.741
9.6275
9.4635
9.3305
9.2485
9.2275
9.151
9.008
)
;
    }
    procBoundary1to3
    {
        type            processor;
        value           nonuniform List<scalar> 
36
(
16.7535
17.328
17.576
17.2085
16.7535
17.0765
15.035
15.4725
15.9325
16.529
16.9585
17.328
17.2095
11.2985
11.84
12.2635
12.595
15.035
13.246
9.303
9.4815
9.5185
9.829
9.9765
11.2985
10.1995
8.9555
8.9145
8.827
8.897
8.9625
8.955
9.303
9.097
8.9555
9.0365
)
;
    }
}


// ************************************************************************* //
