/*--------------------------------*- C++ -*----------------------------------*\
| =========                 |                                                 |
| \\      /  F ield         | OpenFOAM: The Open Source CFD Toolbox           |
|  \\    /   O peration     | Version:  2406                                  |
|   \\  /    A nd           | Website:  www.openfoam.com                      |
|    \\/     M anipulation  |                                                 |
\*---------------------------------------------------------------------------*/
FoamFile
{
    version     2.0;
    format      ascii;
    arch        "LSB;label=32;scalar=64";
    class       volVectorField;
    location    "0.004";
    object      fD;
}
// * * * * * * * * * * * * * * * * * * * * * * * * * * * * * * * * * * * * * //

dimensions      [1 -1 -2 0 0 0 0];

internalField   uniform (0 0 0);

boundaryField
{
    flow
    {
        type            zeroGradient;
    }
    obstacle
    {
        type            calculated;
        value           nonuniform List<vector> 
30
(
(4.230867025 -5.233669565 -1.345074164)
(2.9077624 -3.770692139 0.06003106311)
(0.7443503809 -2.102502301 -0.3727835326)
(0 0 0)
(2.25871008 -5.12689775 2.838026191)
(-0.2020016833 -1.377401406 -2.133242246)
(3.607523016 -4.518401405 -1.186792876)
(1.490468528 -2.551102014 0.02366985578)
(1.6636523 -6.166078308 -1.748634089)
(1.340435747 -2.291950011 -2.310649967)
(0.2487220872 -4.14221021 0.06106219116)
(1.130575759 -1.169223375 -1.286282827)
(6.296258533 -5.799976871 2.290701664)
(1.66804021 -1.856423791 0.48131946)
(7.04972078 -7.654670951 1.292003833)
(0 0 0)
(5.459773798 -4.369123512 -1.52237864)
(1.729920867 -2.303378467 -0.1903697132)
(0 0 0)
(0 0 0)
(0 0 0)
(3.207106426 -2.431660332 1.201416784)
(-0.2952433547 -0.93565749 2.041642503)
(0 0 0)
(3.116089097 -4.436979949 -0.6187078187)
(1.65270924 -1.620978992 0.4190886893)
(0 0 0)
(0 0 0)
(0 0 0)
(0 0 0)
)
;
    }
    frontAndBack
    {
        type            empty;
    }
    procBoundary1to0
    {
        type            processor;
        value           uniform (0 0 0);
    }
    procBoundary1to3
    {
        type            processor;
        value           uniform (0 0 0);
    }
}


// ************************************************************************* //
