/*--------------------------------*- C++ -*----------------------------------*\
| =========                 |                                                 |
| \\      /  F ield         | OpenFOAM: The Open Source CFD Toolbox           |
|  \\    /   O peration     | Version:  2406                                  |
|   \\  /    A nd           | Website:  www.openfoam.com                      |
|    \\/     M anipulation  |                                                 |
\*---------------------------------------------------------------------------*/
FoamFile
{
    version     2.0;
    format      ascii;
    arch        "LSB;label=32;scalar=64";
    class       volVectorField;
    location    "0.004";
    object      fDMean;
}
// * * * * * * * * * * * * * * * * * * * * * * * * * * * * * * * * * * * * * //

dimensions      [1 -1 -2 0 0 0 0];

internalField   uniform (0 0 0);

boundaryField
{
    flow
    {
        type            calculated;
        value           uniform (0 0 0);
    }
    obstacle
    {
        type            calculated;
        value           nonuniform List<vector> 
30
(
(2.344927641 -2.682407612 -0.01524434597)
(2.456075085 -2.75466382 -0.002192100911)
(2.215394991 -2.699384428 -0.03448434695)
(2.230145763 -2.673318619 0.07492158995)
(2.048611149 -2.623290922 0.006263284605)
(2.089570596 -2.574701599 -0.005343577148)
(2.073225633 -2.642392646 0.01600805533)
(2.064306841 -2.720163904 -0.02090756023)
(1.982276611 -2.673662031 -0.02300694834)
(1.940624845 -2.62629451 0.03727697348)
(1.918003992 -2.561330259 -0.02565624273)
(1.935311295 -2.583808604 -0.07752574511)
(1.854212202 -2.502916131 -0.03369704264)
(1.76094625 -2.557413705 0.01307388749)
(1.889353821 -2.607398872 -0.0366085157)
(1.7615851 -2.501963029 -0.02781883846)
(1.747672483 -2.510901715 -0.03408421527)
(1.639202932 -2.369443545 -0.002232533013)
(1.648185514 -2.405102975 -0.001802059634)
(1.724732305 -2.42125214 -0.009480755016)
(1.661046741 -2.373788713 -0.01440091963)
(1.593812982 -2.391978977 0.008848833965)
(1.691334812 -2.384598824 -0.01544570854)
(1.633430517 -2.399032078 0.02532056378)
(1.604251528 -2.240061785 0.007311386759)
(1.560705888 -2.241331428 0.0205468999)
(1.564133258 -2.075146204 0.005768623365)
(1.575102309 -2.009248979 -0.007566334561)
(1.479006378 -1.835853488 -0.01999770808)
(1.563258633 -1.603160105 0.03380236551)
)
;
    }
    frontAndBack
    {
        type            empty;
    }
    procBoundary1to0
    {
        type            processor;
        value           uniform (0 0 0);
    }
    procBoundary1to3
    {
        type            processor;
        value           uniform (0 0 0);
    }
}


// ************************************************************************* //
