/*--------------------------------*- C++ -*----------------------------------*\
| =========                 |                                                 |
| \\      /  F ield         | OpenFOAM: The Open Source CFD Toolbox           |
|  \\    /   O peration     | Version:  2406                                  |
|   \\  /    A nd           | Website:  www.openfoam.com                      |
|    \\/     M anipulation  |                                                 |
\*---------------------------------------------------------------------------*/
FoamFile
{
    version     2.0;
    format      ascii;
    arch        "LSB;label=32;scalar=64";
    class       volScalarField;
    location    "0.004";
    object      iDofMean;
}
// * * * * * * * * * * * * * * * * * * * * * * * * * * * * * * * * * * * * * //

dimensions      [0 -3 0 0 0 0 0];

internalField   nonuniform List<scalar> 
546
(
6.109536732e+20
6.188773815e+20
6.060751793e+20
6.062591352e+20
5.944741102e+20
5.935828858e+20
6.027213971e+20
6.05439023e+20
6.185060126e+20
6.114345625e+20
5.975697589e+20
5.975756316e+20
5.742140666e+20
5.93706982e+20
5.933689578e+20
5.784064137e+20
5.603616833e+20
5.650023523e+20
5.772935544e+20
5.673532974e+20
5.59792179e+20
5.745319356e+20
5.684527212e+20
5.595680456e+20
5.328033239e+20
5.239199329e+20
5.055215876e+20
4.881434859e+20
4.49571001e+20
3.68557236e+20
5.463103846e+20
5.457113378e+20
5.453652069e+20
5.510581285e+20
5.414794311e+20
5.44714384e+20
5.408418439e+20
5.474679351e+20
5.397673506e+20
5.439550711e+20
5.392640706e+20
5.346080775e+20
5.335176635e+20
5.421794742e+20
5.452579608e+20
5.359232339e+20
5.263318273e+20
5.280607774e+20
5.248181953e+20
5.179105743e+20
5.082292605e+20
5.143158558e+20
5.106659572e+20
4.930960675e+20
4.865791239e+20
4.895312073e+20
4.65139727e+20
4.42176385e+20
4.060167814e+20
3.36947894e+20
5.137363584e+20
5.25609038e+20
5.193531523e+20
5.132672876e+20
5.036921222e+20
5.03553994e+20
5.069453647e+20
5.058015851e+20
5.128379659e+20
5.070509113e+20
5.122597125e+20
5.08767101e+20
5.105805855e+20
5.097330145e+20
5.041967443e+20
4.927847218e+20
4.984395444e+20
4.89940353e+20
4.937800742e+20
4.909086441e+20
4.79812479e+20
4.864616096e+20
4.976401973e+20
4.718201777e+20
4.590024957e+20
4.544832719e+20
4.450458013e+20
4.295763365e+20
3.827577556e+20
3.435717537e+20
4.790647626e+20
4.899017484e+20
5.047249291e+20
4.981280133e+20
4.969435626e+20
4.930979742e+20
4.947783009e+20
5.036378671e+20
5.06081788e+20
5.019229984e+20
4.991146065e+20
4.965664507e+20
4.99856118e+20
5.010541758e+20
4.865472958e+20
4.785312432e+20
4.76595884e+20
4.80701756e+20
4.832100557e+20
4.827116296e+20
4.725045565e+20
4.666679931e+20
4.650089297e+20
4.640626397e+20
4.587438797e+20
4.4311192e+20
4.314789376e+20
4.115083436e+20
3.870764828e+20
3.559078003e+20
4.472983573e+20
4.590081633e+20
4.75149735e+20
4.821285518e+20
4.90865237e+20
4.915144349e+20
4.861428532e+20
4.911166797e+20
5.00278863e+20
4.906343841e+20
4.872283317e+20
4.966152541e+20
4.978145339e+20
4.973842668e+20
4.904346744e+20
4.876176782e+20
4.773964374e+20
4.829185075e+20
4.741389648e+20
4.713739461e+20
4.685614316e+20
4.520448447e+20
4.500038963e+20
4.536473028e+20
4.418249521e+20
4.375223779e+20
4.395303637e+20
4.136619597e+20
3.934840057e+20
3.583009385e+20
4.155880372e+20
4.299790418e+20
4.473959549e+20
4.567932057e+20
4.655812518e+20
4.749338423e+20
4.792673473e+20
4.80617327e+20
4.877316761e+20
4.909466224e+20
4.894312865e+20
4.90246514e+20
4.842613643e+20
4.876267712e+20
4.881097466e+20
4.886006768e+20
4.727710197e+20
4.809067734e+20
4.776536896e+20
4.716476151e+20
4.658275331e+20
4.524956051e+20
4.543636502e+20
4.593001867e+20
4.556540964e+20
4.377833155e+20
4.248964467e+20
4.173119174e+20
4.018956423e+20
3.663635254e+20
3.786281829e+20
4.016392052e+20
4.161814888e+20
4.320427849e+20
4.411061685e+20
4.645127535e+20
4.685082365e+20
4.734167574e+20
4.727060325e+20
4.861429573e+20
4.877003939e+20
4.887458349e+20
4.929319495e+20
4.940119179e+20
4.846348552e+20
4.792621904e+20
4.784003051e+20
4.7168099e+20
4.741906535e+20
4.69862259e+20
4.663927173e+20
4.651433699e+20
4.563161753e+20
4.5664239e+20
4.579816488e+20
4.478087867e+20
4.312572135e+20
4.240664383e+20
4.041538038e+20
3.805656566e+20
3.444837839e+20
3.625532835e+20
3.838514084e+20
4.063060185e+20
4.180986661e+20
4.298728213e+20
4.477761222e+20
4.594412677e+20
4.622440859e+20
4.656913514e+20
4.756930768e+20
4.806812045e+20
4.769682348e+20
4.790347213e+20
4.875972642e+20
4.90150791e+20
4.864439558e+20
4.810861613e+20
4.802768091e+20
4.803789319e+20
4.793261571e+20
4.670922312e+20
4.621470044e+20
4.561566968e+20
4.514617963e+20
4.461195563e+20
4.366063472e+20
4.24080419e+20
4.119303312e+20
3.951238955e+20
3.098346223e+20
3.31026911e+20
3.497682169e+20
3.67012719e+20
3.920520012e+20
4.078895641e+20
4.19969042e+20
4.343870692e+20
4.453119368e+20
4.497071541e+20
4.577063099e+20
4.697738242e+20
4.773248979e+20
4.848743409e+20
4.874472681e+20
4.957715218e+20
4.918063902e+20
4.907604242e+20
4.917125886e+20
4.859956461e+20
4.823623667e+20
4.741718047e+20
4.632302594e+20
4.584502296e+20
4.551232539e+20
4.522721757e+20
4.437847366e+20
4.301636869e+20
4.144566453e+20
3.988133176e+20
2.787412337e+20
2.955908162e+20
3.130098259e+20
3.324103011e+20
3.513064191e+20
3.682661392e+20
3.909886667e+20
4.052064365e+20
4.254842831e+20
4.406762617e+20
4.484708466e+20
4.569997431e+20
4.656657264e+20
4.771129784e+20
4.80797474e+20
4.836352747e+20
4.862279375e+20
4.844305117e+20
4.818015814e+20
4.828419498e+20
4.857008784e+20
4.826831885e+20
4.777003541e+20
4.612429431e+20
4.610033681e+20
4.549090109e+20
4.472907762e+20
4.401346462e+20
4.21583956e+20
4.070183526e+20
2.622186648e+20
2.76076104e+20
2.903332326e+20
3.030607521e+20
3.200365539e+20
3.361994602e+20
3.567284688e+20
3.796674717e+20
3.970773575e+20
4.198403633e+20
4.328564896e+20
4.428347885e+20
4.5240773e+20
4.589742047e+20
4.665354234e+20
4.698228852e+20
4.752616244e+20
4.831107082e+20
4.796953309e+20
4.806916955e+20
4.820074855e+20
4.810657638e+20
4.768043316e+20
4.745589249e+20
4.586485977e+20
4.51722835e+20
4.519470277e+20
4.532521214e+20
4.434316371e+20
4.230295817e+20
2.462457274e+20
2.558608083e+20
2.681575319e+20
2.815102253e+20
2.966823788e+20
3.121785577e+20
3.315026324e+20
3.47885642e+20
3.651195624e+20
3.783366964e+20
3.940505924e+20
4.105884741e+20
4.29347665e+20
4.418892901e+20
4.505109205e+20
4.638114711e+20
4.68247263e+20
4.750637788e+20
4.8034142e+20
4.825422139e+20
4.791947196e+20
4.858384964e+20
4.788237174e+20
4.766770699e+20
4.747508523e+20
4.714716364e+20
4.620632798e+20
4.484834018e+20
4.436574489e+20
4.419325017e+20
2.320562828e+20
2.399055232e+20
2.516623584e+20
2.5924861e+20
2.739868817e+20
2.8920559e+20
3.022054729e+20
3.145076375e+20
3.310765328e+20
3.455997132e+20
3.629550263e+20
3.862969739e+20
4.068287395e+20
4.214940183e+20
4.330614658e+20
4.425131662e+20
4.538118908e+20
4.618145287e+20
4.697584802e+20
4.751010489e+20
4.768551407e+20
4.868460833e+20
4.826351646e+20
4.85662322e+20
4.843604686e+20
4.752758122e+20
4.695326728e+20
4.642998884e+20
4.602407956e+20
4.47459507e+20
2.213328776e+20
2.283232555e+20
2.355087018e+20
2.472289416e+20
2.568843686e+20
2.660463192e+20
2.767567103e+20
2.921137456e+20
3.05839171e+20
3.257845931e+20
3.453798013e+20
3.585771004e+20
3.760819863e+20
3.930150247e+20
4.079872495e+20
4.22084444e+20
4.370383995e+20
4.529731492e+20
4.565265749e+20
4.652489894e+20
4.679699599e+20
4.729255851e+20
4.889474425e+20
4.906676202e+20
4.85490212e+20
4.822799099e+20
4.846100457e+20
4.768579788e+20
4.619908679e+20
4.52516436e+20
2.194259975e+20
2.235660518e+20
2.292589801e+20
2.319061623e+20
2.390191777e+20
2.492561424e+20
2.61832406e+20
2.734442907e+20
2.857851201e+20
2.981154799e+20
3.112218938e+20
3.229512052e+20
3.442898463e+20
3.688754569e+20
3.87750385e+20
4.111076271e+20
4.218278926e+20
4.321766994e+20
4.46344214e+20
4.574429333e+20
4.684431387e+20
4.767437818e+20
4.830229952e+20
4.839219354e+20
4.871235802e+20
4.838592686e+20
4.83335125e+20
4.853186147e+20
4.783342896e+20
4.651658708e+20
2.106319063e+20
2.10334012e+20
2.154617749e+20
2.18968964e+20
2.276598716e+20
2.354001696e+20
2.445615125e+20
2.549640111e+20
2.671252031e+20
2.771955189e+20
2.924241473e+20
3.109213595e+20
3.21709428e+20
3.378176114e+20
3.585262952e+20
3.741695671e+20
3.931604743e+20
4.090097321e+20
4.225293652e+20
4.401627404e+20
4.520791777e+20
4.592172167e+20
4.659584473e+20
4.794158179e+20
4.84265189e+20
4.834884552e+20
4.84914919e+20
4.850109554e+20
4.822578345e+20
2.095999468e+20
2.122323758e+20
2.141071005e+20
2.215953987e+20
2.211424274e+20
2.257941364e+20
2.330045578e+20
2.435897086e+20
2.499547373e+20
2.622321008e+20
2.730090958e+20
2.825304518e+20
2.923647291e+20
3.086691105e+20
3.225024211e+20
3.418818435e+20
3.641626626e+20
3.861631046e+20
4.055759866e+20
4.085214789e+20
4.220325649e+20
4.451906541e+20
4.540426815e+20
4.64669755e+20
4.697010353e+20
2.087250261e+20
2.114413915e+20
2.149722685e+20
2.153905884e+20
2.193628416e+20
2.233023917e+20
2.248384314e+20
2.287629237e+20
2.355963724e+20
2.427652444e+20
2.481955851e+20
2.613745227e+20
2.758721705e+20
2.894640795e+20
3.030280321e+20
3.191720624e+20
3.318609846e+20
3.52181466e+20
3.683612531e+20
2.058983545e+20
2.067745844e+20
2.08938841e+20
2.099886215e+20
2.118747143e+20
2.135566344e+20
2.168365594e+20
2.204982288e+20
2.266834609e+20
2.293269902e+20
2.425066367e+20
2.47770798e+20
2.539927788e+20
2.6755621e+20
2.046757053e+20
2.051700148e+20
2.047268219e+20
2.067084453e+20
2.09910238e+20
2.105758553e+20
2.145251708e+20
2.182753946e+20
2.00503001e+20
)
;

boundaryField
{
    flow
    {
        type            calculated;
        value           nonuniform List<scalar> 
15
(
3.68557236e+20
3.36947894e+20
3.435717537e+20
3.559078003e+20
3.583009385e+20
3.663635254e+20
3.805656566e+20
3.951238955e+20
3.988133176e+20
4.070183526e+20
4.230295817e+20
4.419325017e+20
4.47459507e+20
4.52516436e+20
4.651658708e+20
)
;
    }
    obstacle
    {
        type            calculated;
        value           nonuniform List<scalar> 
30
(
264.4436098
270.8878685
270.7642974
274.5867631
262.0599777
262.0375275
269.5061811
252.2618072
276.9934972
259.2626476
258.1519939
266.1016779
249.4392874
267.512927
267.3065498
247.3200361
247.3419472
237.7867613
246.6340052
263.3711181
240.6529932
241.3702283
250.6969538
251.63692
234.1891994
221.2304301
220.4594203
223.5119566
189.727027
174.3551576
)
;
    }
    frontAndBack
    {
        type            empty;
    }
    procBoundary1to0
    {
        type            processor;
        value           nonuniform List<scalar> 
21
(
6.186679302e+20
5.473795325e+20
5.124257243e+20
4.713474832e+20
4.362489159e+20
3.945470962e+20
3.609852042e+20
3.208423311e+20
2.912112117e+20
2.635733168e+20
2.518700825e+20
2.350891377e+20
2.282297719e+20
2.169385434e+20
2.144108245e+20
2.107584355e+20
2.077964371e+20
2.059702425e+20
2.055025601e+20
2.037988527e+20
2.006141477e+20
)
;
    }
    procBoundary1to3
    {
        type            processor;
        value           nonuniform List<scalar> 
36
(
4.773024907e+20
4.759487629e+20
4.87132184e+20
4.813050589e+20
4.773024907e+20
4.820179053e+20
3.918668135e+20
4.067332471e+20
4.224538545e+20
4.421001766e+20
4.57586782e+20
4.759487629e+20
4.684896155e+20
2.824536727e+20
2.98428268e+20
3.11669259e+20
3.227742842e+20
3.918668135e+20
3.423238614e+20
2.217027162e+20
2.277297714e+20
2.304266937e+20
2.398403756e+20
2.453959885e+20
2.824536727e+20
2.529137687e+20
2.023902731e+20
2.029623296e+20
2.024763299e+20
2.056230524e+20
2.087128674e+20
2.101370509e+20
2.217027162e+20
2.151184946e+20
2.023902731e+20
2.027239558e+20
)
;
    }
}


// ************************************************************************* //
