/*--------------------------------*- C++ -*----------------------------------*\
| =========                 |                                                 |
| \\      /  F ield         | OpenFOAM: The Open Source CFD Toolbox           |
|  \\    /   O peration     | Version:  2406                                  |
|   \\  /    A nd           | Website:  www.openfoam.com                      |
|    \\/     M anipulation  |                                                 |
\*---------------------------------------------------------------------------*/
FoamFile
{
    version     2.0;
    format      ascii;
    arch        "LSB;label=32;scalar=64";
    class       volScalarField;
    location    "0.004";
    object      iDof;
}
// * * * * * * * * * * * * * * * * * * * * * * * * * * * * * * * * * * * * * //

dimensions      [0 -3 0 0 0 0 0];

internalField   nonuniform List<scalar> 
546
(
5.384136507e+20
5.649887541e+20
6.374945537e+20
6.652105532e+20
5.546761e+20
3.725975862e+20
6.570449336e+20
4.965910043e+20
6.196141688e+20
6.484948418e+20
4.357493837e+20
6.588350948e+20
5.165454561e+20
6.19917076e+20
7.249773451e+20
6.049221688e+20
6.60773902e+20
8.200696364e+20
4.651841695e+20
6.515909791e+20
6.046123559e+20
6.098502178e+20
4.546979843e+20
7.824994368e+20
5.172319208e+20
4.944066053e+20
5.820309405e+20
4.475044849e+20
1.693618388e+20
5.128149228e+20
5.384136511e+20
4.745905535e+20
6.374945537e+20
4.358276038e+20
6.702336208e+20
5.356090305e+20
5.631813716e+20
5.20238195e+20
5.719515404e+20
4.803665491e+20
6.536240755e+20
7.076376944e+20
7.133246769e+20
4.711369774e+20
6.499796882e+20
5.545119881e+20
4.828732361e+20
6.919337551e+20
4.910277341e+20
3.648909486e+20
4.468873938e+20
5.833349914e+20
4.546979847e+20
5.126720448e+20
3.538955248e+20
5.49340673e+20
5.265994228e+20
6.153186673e+20
4.234045969e+20
4.27345769e+20
4.935458465e+20
5.649887541e+20
6.147268911e+20
7.799020279e+20
6.008991088e+20
6.753331249e+20
6.805108236e+20
5.91179767e+20
5.004575982e+20
4.803665495e+20
4.599576824e+20
4.636246963e+20
5.165454557e+20
5.207303434e+20
6.499796887e+20
4.032814459e+20
8.895033296e+20
3.587804656e+20
3.876534746e+20
7.037182581e+20
2.628749371e+20
3.446979492e+20
5.081918652e+20
7.555166976e+20
5.172319208e+20
3.570714372e+20
4.711679042e+20
4.754735152e+20
4.5163157e+20
1.994280257e+20
5.159797486e+20
4.067919027e+20
5.464239032e+20
6.193339638e+20
5.315645958e+20
4.657469827e+20
5.631813716e+20
6.621213391e+20
6.434454829e+20
4.56348222e+20
4.357493837e+20
5.856311949e+20
6.149350663e+20
4.215436117e+20
4.749851571e+20
7.309476207e+20
4.574588552e+20
4.612891701e+20
3.101227794e+20
6.515909797e+20
7.360498251e+20
3.977284032e+20
5.081918648e+20
6.475857403e+20
4.083409901e+20
3.296044035e+20
3.880206274e+20
4.475044857e+20
4.516315704e+20
2.848971785e+20
4.262441401e+20
4.971901033e+20
5.008885776e+20
3.670127188e+20
3.928955708e+20
5.588963796e+20
2.815906858e+20
4.020022416e+20
4.766262837e+20
5.76439859e+20
5.3258258e+20
5.124272963e+20
5.903376641e+20
4.463402947e+20
6.249804699e+20
4.284865362e+20
5.591163791e+20
4.86916347e+20
5.944019944e+20
6.515909791e+20
3.417374182e+20
3.712131757e+20
3.477102233e+20
5.666375232e+20
4.355637236e+20
4.669395708e+20
3.880206256e+20
3.635973953e+20
4.516315704e+20
4.273457701e+20
4.486780429e+20
3.615928029e+20
5.464239036e+20
5.734573739e+20
4.391185795e+20
3.260228881e+20
3.519883573e+20
5.438853857e+20
3.098070844e+20
4.563482217e+20
4.357493833e+20
4.148220964e+20
3.197662342e+20
6.69510441e+20
6.499796882e+20
4.284865362e+20
6.099451403e+20
7.175609312e+20
4.393406046e+20
3.648909489e+20
3.417374188e+20
4.772740847e+20
6.954204507e+20
4.856893056e+20
6.805683122e+20
3.570714372e+20
5.820309436e+20
5.034425464e+20
3.104967035e+20
4.843252017e+20
4.262441401e+20
4.51991003e+20
4.781209149e+20
4.587658984e+20
4.16007075e+20
3.493102373e+20
3.989201383e+20
3.310606695e+20
3.098070844e+20
3.362565847e+20
5.083742813e+20
4.636246967e+20
5.411428587e+20
6.695104421e+20
7.249773445e+20
4.788967166e+20
5.082876169e+20
3.587804656e+20
5.168713012e+20
4.691455089e+20
5.520373726e+20
5.833349944e+20
5.349388064e+20
5.126720484e+20
5.444546602e+20
3.845384742e+20
4.434521475e+20
4.195354554e+20
6.209934127e+20
3.13386901e+20
2.916407275e+20
2.485950518e+20
3.415149397e+20
4.587658991e+20
3.466725625e+20
3.49310237e+20
3.989201383e+20
4.729438136e+20
4.051323414e+20
5.764398594e+20
6.052074768e+20
4.880259958e+20
6.395324689e+20
6.44713759e+20
5.499828149e+20
5.545119894e+20
5.845307585e+20
5.894250477e+20
5.168712969e+20
2.345727517e+20
3.417374159e+20
6.628806642e+20
5.616857419e+20
5.936202614e+20
5.172319181e+20
2.472033005e+20
5.265994158e+20
1.678141806e+20
3.387236766e+20
3.703663307e+20
2.916407277e+20
3.389932525e+20
4.325855897e+20
4.587658988e+20
4.853415878e+20
2.561608407e+20
5.162495907e+20
4.965910043e+20
5.004575978e+20
3.122382569e+20
4.115410836e+20
4.636246967e+20
5.657402618e+20
7.439004924e+20
1.999937505e+20
3.528712629e+20
8.386745666e+20
5.894250526e+20
5.68558429e+20
4.691455034e+20
4.731748876e+20
3.977284053e+20
5.349388064e+20
5.396547831e+20
6.805683133e+20
4.39472538e+20
4.98883666e+20
5.873496375e+20
4.516315688e+20
3.703663341e+20
3.589424338e+20
3.615928024e+20
3.187472769e+20
3.211361291e+20
5.315645958e+20
5.588963792e+20
3.754542472e+20
4.965910051e+20
5.481202258e+20
3.12238256e+20
7.262489756e+20
3.904207966e+20
5.657402587e+20
3.719502456e+20
5.749820305e+20
5.041018082e+20
5.082876202e+20
4.100348192e+20
6.977762537e+20
5.212727859e+20
4.205999001e+20
3.977284019e+20
5.616857467e+20
4.047410873e+20
5.444546554e+20
4.944066053e+20
7.760412513e+20
5.873496375e+20
3.387236766e+20
3.988560485e+20
2.916407275e+20
3.163937014e+20
2.732119504e+20
2.523212438e+20
4.391185792e+20
3.493102378e+20
6.101131554e+20
3.074134802e+20
4.527949702e+20
3.842932387e+20
3.873327834e+20
3.172168972e+20
5.657402632e+20
6.943071251e+20
4.999843783e+20
4.284865369e+20
5.337019926e+20
5.637978718e+20
6.202455589e+20
6.255273379e+20
6.308998501e+20
2.916674972e+20
4.814449258e+20
5.126720439e+20
4.900091856e+20
4.944066053e+20
5.820309436e+20
3.356283643e+20
6.49220386e+20
3.418766192e+20
2.243390219e+20
1.807964021e+20
2.049089647e+20
3.211361299e+20
1.848920332e+20
3.493102357e+20
3.754542449e+20
2.364719043e+20
5.004575948e+20
4.323298969e+20
4.115410887e+20
3.416181997e+20
5.657402632e+20
3.471535626e+20
4.999843743e+20
5.041018082e+20
5.082876202e+20
5.894250526e+20
5.168712991e+20
4.952091425e+20
4.205998965e+20
6.09850211e+20
3.744571581e+20
5.666375222e+20
4.355637281e+20
4.12005508e+20
5.543151844e+20
2.237522429e+20
5.080855149e+20
3.988560485e+20
2.243390205e+20
3.389932503e+20
1.821413007e+20
2.523212449e+20
3.004495539e+20
3.725975875e+20
3.050565786e+20
2.364719079e+20
2.621444564e+20
3.842932387e+20
2.662912886e+20
2.928155952e+20
4.42753246e+20
3.471535626e+20
5.249835931e+20
7.057425257e+20
3.558013313e+20
3.84407643e+20
6.719326888e+20
4.952091466e+20
3.154499277e+20
4.772740863e+20
3.744571645e+20
6.745684789e+20
4.900091856e+20
4.394725342e+20
5.265994205e+20
5.034425464e+20
3.387236766e+20
5.69794355e+20
1.121695102e+20
1.581968513e+20
1.138383129e+20
2.52321243e+20
2.311150415e+20
1.397240943e+20
2.111930128e+20
3.074134779e+20
3.336383991e+20
3.842932387e+20
3.389161854e+20
4.392233962e+20
4.919480511e+20
3.967469255e+20
3.249898433e+20
5.54511989e+20
4.828732353e+20
2.562717599e+20
5.42714864e+20
6.51590977e+20
5.783248577e+20
5.03789309e+20
7.48914329e+20
5.126720439e+20
7.077910459e+20
5.218736389e+20
6.651782154e+20
3.076593312e+20
5.92766434e+20
4.843252062e+20
2.467729243e+20
1.807964028e+20
1.593736392e+20
3.211361299e+20
3.235610605e+20
1.397240953e+20
2.346589049e+20
2.601190987e+20
3.574697133e+20
4.56348221e+20
3.147078889e+20
3.172168997e+20
3.689610412e+20
3.967469286e+20
2.749914081e+20
6.553323506e+20
5.845307585e+20
4.100348192e+20
4.910277382e+20
3.909545894e+20
3.680249126e+20
4.242436323e+20
4.546979854e+20
6.745684789e+20
3.811182588e+20
5.768077112e+20
5.820309436e+20
5.593806071e+20
3.66950653e+20
5.128149242e+20
2.467729225e+20
2.937941502e+20
2.73211951e+20
2.752595399e+20
3.235610581e+20
2.794481907e+20
1.877271253e+20
2.128247171e+20
3.098070872e+20
1.921466208e+20
4.115410823e+20
1.952103968e+20
1.967792204e+20
4.959336608e+19
3.49989062e+20
3.276661753e+20
5.845307633e+20
3.84407643e+20
4.651841692e+20
3.127636716e+20
3.943124096e+20
2.916674972e+20
3.477102242e+20
1.618964349e+20
5.716773832e+20
4.669395676e+20
3.325891077e+20
3.076593339e+20
5.64539461e+20
2.243390205e+20
2.033959516e+20
2.276766275e+20
1.605680649e+20
4.62230083e+19
1.630114433e+20
2.815906837e+20
2.364719043e+20
2.144818263e+20
2.161649484e+20
2.420829934e+20
3.172168997e+20
1.96779222e+20
3.967469286e+20
1.249960936e+20
3.528712629e+20
2.287294272e+20
3.84407643e+20
4.393406042e+20
6.77654616e+20
5.783248577e+20
3.181827188e+20
6.419265622e+20
4.85689309e+20
5.444546602e+20
1.794712177e+20
2.033959516e+20
3.415149363e+20
2.981978327e+20
2.311150415e+20
2.561608414e+20
1.642612346e+20
1.182359539e+20
3.574697133e+20
2.161649468e+20
1.694580927e+20
4.392233962e+20
3.443636385e+20
3.223568795e+20
3.999875027e+20
3.024610873e+20
3.049725697e+20
2.306445839e+20
3.101227794e+20
2.019051199e+20
1.355973011e+20
2.276766275e+20
3.211361299e+20
2.080035373e+20
2.095861414e+20
2.581247934e+20
2.128247155e+20
1.429878853e+20
2.161649468e+20
3.389161881e+20
4.392233962e+20
2.459740255e+20
1.983734643e+20
2.467729225e+20
2.033959502e+20
2.504442884e+20
9.175317996e+19
2.311150432e+20
1.630114445e+20
1.407953429e+20
1.891775263e+20
2.019051199e+20
)
;

boundaryField
{
    flow
    {
        type            zeroGradient;
    }
    obstacle
    {
        type            calculated;
        value           nonuniform List<scalar> 
30
(
166.2715437
242.8312026
167.6485302
1e-300
449.6832139
181.9379163
216.9634475
84.92031532
447.4135198
94.96102467
1229.631516
168.1116595
595.1877683
100.8697694
398.9722035
1e-300
214.5043194
91.59526777
1e-300
1e-300
1e-300
378.3654064
270.6577763
1e-300
196.7387703
117.3580918
1e-300
1e-300
1e-300
1e-300
)
;
    }
    frontAndBack
    {
        type            empty;
    }
    procBoundary1to0
    {
        type            processor;
        value           nonuniform List<scalar> 
21
(
7.794732648e+20
4.231426294e+20
3.563306353e+20
4.231426294e+20
3.563306356e+20
3.786013003e+20
1.55894653e+20
2.895186412e+20
3.340599706e+20
2.672479765e+20
2.227066471e+20
3.563306368e+20
2.004359824e+20
3.786012973e+20
1.336239882e+20
3.340599706e+20
3.117893059e+20
2.672479765e+20
2.449773135e+20
2.227066471e+20
1.781653177e+20
)
;
    }
    procBoundary1to3
    {
        type            processor;
        value           nonuniform List<scalar> 
36
(
6.552635142e+20
5.493406774e+20
5.265994252e+20
4.754735161e+20
6.552635142e+20
3.669506496e+20
4.430818643e+20
4.731748876e+20
5.303045403e+20
4.279510451e+20
5.396547831e+20
5.493406774e+20
3.811182555e+20
1.499953123e+20
3.276661727e+20
3.049725697e+20
2.56271762e+20
4.430818643e+20
2.584356495e+20
9.532525688e+19
4.323298936e+20
2.420829896e+20
3.41618197e+20
1.721818192e+20
1.499953123e+20
2.975601965e+20
2.485950538e+20
1.593736392e+20
2.064446549e+20
2.773380498e+20
1.862987938e+20
1.877271253e+20
9.532525688e+19
1.891775263e+20
2.485950538e+20
1.346034123e+20
)
;
    }
}


// ************************************************************************* //
