/*--------------------------------*- C++ -*----------------------------------*\
| =========                 |                                                 |
| \\      /  F ield         | OpenFOAM: The Open Source CFD Toolbox           |
|  \\    /   O peration     | Version:  2406                                  |
|   \\  /    A nd           | Website:  www.openfoam.com                      |
|    \\/     M anipulation  |                                                 |
\*---------------------------------------------------------------------------*/
FoamFile
{
    version     2.0;
    format      ascii;
    arch        "LSB;label=32;scalar=64";
    class       volScalarField;
    location    "0.004";
    object      internalEMean;
}
// * * * * * * * * * * * * * * * * * * * * * * * * * * * * * * * * * * * * * //

dimensions      [1 -1 -2 0 0 0 0];

internalField   nonuniform List<scalar> 
546
(
2.962116932
2.984943668
2.923000106
2.904981741
2.888123911
2.888742944
2.994778115
2.940265804
2.973293701
2.880727164
2.842115295
2.832566078
2.749507087
2.865763707
2.856632453
2.768276252
2.621216103
2.633410125
2.726497269
2.670531331
2.619705149
2.664458319
2.617347418
2.589278843
2.450108719
2.428505204
2.333592193
2.290712552
2.083811716
1.674808895
2.843250108
2.883166837
2.856900753
2.868981186
2.902560987
2.945447079
2.908872822
2.9080579
2.857403407
2.917547755
2.839038521
2.839048793
2.79718514
2.887560117
2.915856967
2.853100142
2.73040226
2.721643397
2.701597209
2.658675383
2.622443268
2.641050788
2.629351965
2.477786335
2.493287297
2.475626318
2.344130773
2.253066406
2.034008358
1.703442817
2.72368212
2.779674851
2.824580215
2.824659732
2.810313469
2.789461434
2.799675409
2.82981377
2.841345598
2.829183211
2.828737126
2.76743111
2.770479474
2.829575516
2.781195378
2.744855031
2.782915728
2.668870824
2.691154855
2.674349856
2.622761452
2.64987081
2.657593953
2.537717366
2.449414599
2.359455973
2.32753815
2.28037332
1.973159495
1.822006308
2.400559201
2.548554122
2.674269342
2.658991714
2.672436968
2.707492259
2.710264283
2.727769797
2.798412773
2.838686085
2.840589225
2.869073609
2.84115044
2.818270021
2.68523546
2.693186227
2.64896954
2.658476823
2.699464555
2.711495657
2.654678325
2.617131739
2.557369032
2.530270196
2.561265144
2.441831998
2.41446837
2.190560306
1.997626985
1.851568369
2.099821392
2.256624511
2.390340529
2.443832272
2.549561644
2.573454337
2.564656719
2.669710664
2.742352599
2.694336336
2.755613812
2.784502773
2.816499558
2.75388636
2.752556249
2.691678438
2.6761583
2.725148822
2.697171165
2.662499664
2.640217766
2.541022595
2.499627241
2.565092222
2.512332462
2.40285151
2.415464048
2.286725438
2.169358701
1.930107478
1.843045687
1.944587788
2.112332907
2.223656686
2.30277122
2.432485757
2.486562978
2.536407311
2.598454539
2.667897261
2.660969441
2.639249739
2.618613005
2.686652599
2.711713945
2.730012544
2.696670475
2.675939003
2.660671876
2.649226758
2.600953988
2.557988354
2.581733338
2.607159741
2.577266809
2.44984776
2.357381302
2.305540161
2.189807773
1.959581
1.55276339
1.700918777
1.851156821
1.98710517
2.105768225
2.261488509
2.315860124
2.362627158
2.396009429
2.483976296
2.548649206
2.646926691
2.661682114
2.697232055
2.658025467
2.654599953
2.673325925
2.641048397
2.623565761
2.582543918
2.620417437
2.598533826
2.569764685
2.562557505
2.585692548
2.521469852
2.382571674
2.366035344
2.255445325
2.087134126
1.289490193
1.432471893
1.561486945
1.706854934
1.812558169
1.952374505
2.10747922
2.191395422
2.232278793
2.289436953
2.373352288
2.436987613
2.45823518
2.542683102
2.62401771
2.621092307
2.665248191
2.678670486
2.666304714
2.6892437
2.667938989
2.535548344
2.511443092
2.510023645
2.523426696
2.480797407
2.400967897
2.351460915
2.279952907
2.168214341
1.065002209
1.202853179
1.310910215
1.446618412
1.604134792
1.708092672
1.796648872
1.944116703
2.053955894
2.104129545
2.172027057
2.286415446
2.358367022
2.461896218
2.542018426
2.599395902
2.641430215
2.642819262
2.644945175
2.680224335
2.675750515
2.619586229
2.536167972
2.472902629
2.443534582
2.496405862
2.464186451
2.391465364
2.283974061
2.16931088
0.8723295906
0.9771852497
1.097839159
1.204909441
1.338969186
1.461763427
1.608375431
1.714317073
1.874918902
1.962269794
2.044851488
2.130508419
2.187343136
2.289983597
2.365935493
2.451936782
2.505095395
2.527615444
2.557052521
2.584847381
2.579660377
2.631369545
2.595040678
2.528848341
2.492839268
2.43030703
2.410926137
2.400265771
2.263434841
2.178113319
0.7663314404
0.8488130235
0.9482398499
1.030080228
1.10936449
1.201314066
1.331389548
1.472437557
1.577783855
1.766769075
1.850596797
1.960772262
2.03878393
2.112615476
2.202523316
2.245017861
2.328201101
2.40765395
2.417134779
2.450305348
2.512221672
2.522923841
2.522593783
2.550193118
2.454233826
2.434818619
2.379518628
2.369446987
2.358595001
2.246029501
0.6668905846
0.7269876686
0.7976072213
0.8730521406
0.9449865341
1.03061193
1.144466834
1.258357984
1.342054897
1.450643288
1.580202963
1.703171883
1.837924972
1.927256811
2.01776458
2.12140557
2.160066889
2.297525711
2.358803311
2.40939488
2.420357208
2.480967581
2.457561376
2.444644028
2.477252706
2.458064457
2.432763897
2.365904868
2.35065186
2.326744264
0.5840972041
0.6281315127
0.6984753281
0.7488433365
0.8311766452
0.9095279774
0.96702226
1.066287808
1.179770938
1.26808324
1.362024196
1.525265814
1.673902617
1.766981469
1.85506364
1.936152356
2.029093491
2.10451799
2.19129559
2.264989589
2.30548984
2.400482666
2.415133403
2.464838561
2.42810074
2.400030295
2.409573519
2.384667208
2.377568105
2.310426036
0.5346591011
0.5643653953
0.6100793021
0.678538871
0.7326605481
0.7936578373
0.855733027
0.9286276858
0.9804254259
1.090930099
1.196532359
1.305449524
1.405286666
1.537193992
1.648580333
1.757696377
1.885738739
1.976189051
2.030063648
2.092695673
2.134929671
2.205904921
2.35305417
2.384384916
2.419904013
2.413606713
2.444077327
2.395762129
2.331662647
2.284799781
0.5072619967
0.5234434971
0.5553126642
0.5819515927
0.6266476968
0.6826538267
0.7376178759
0.7926549453
0.8740435523
0.9249851133
1.024231012
1.098900287
1.204084071
1.342063008
1.459015088
1.599528175
1.691765518
1.772611439
1.877581003
1.979115009
2.073305919
2.160578251
2.240136294
2.261528789
2.292516869
2.323200147
2.36208688
2.394009979
2.333228225
2.261646898
0.4844060276
0.4897731144
0.5063141271
0.536893258
0.572163328
0.6093439087
0.6580676956
0.7169940874
0.7627911441
0.824235624
0.8961199396
0.9817987106
1.063693557
1.142763748
1.273755616
1.367413332
1.512517048
1.612180635
1.707796497
1.818775777
1.927722798
2.002600927
2.043046333
2.16719791
2.244708571
2.26081626
2.263988798
2.317467688
2.310281465
0.4626197795
0.4696282051
0.4875163716
0.5119603187
0.5213134484
0.5482479005
0.5913001603
0.6214769363
0.6535263248
0.7091241325
0.7642650103
0.8188798565
0.9021399844
1.002322587
1.086252977
1.199302379
1.309942976
1.44481101
1.551793847
1.600544592
1.673126125
1.796720164
1.908804714
1.96628065
2.038746968
0.4596262919
0.4710894975
0.486801809
0.5008789378
0.5129002963
0.5240456205
0.5409834815
0.568209132
0.5935135446
0.6291985958
0.6733663426
0.7261160594
0.7824541345
0.8613763529
0.9363999634
1.014152032
1.097356501
1.211877574
1.31910769
0.4475450006
0.4514223177
0.4609100887
0.4693847998
0.4815233723
0.4916869063
0.4971137411
0.5183977773
0.5598338624
0.5844583384
0.6239778212
0.662119983
0.6960569722
0.7646855507
0.4377973728
0.4477300831
0.4491655274
0.455201417
0.4705669306
0.4761508851
0.4955989362
0.510152697
0.4260679372
)
;

boundaryField
{
    flow
    {
        type            calculated;
        value           nonuniform List<scalar> 
15
(
1.674808895
1.703442817
1.822006308
1.851568369
1.930107478
1.959581
2.087134126
2.168214341
2.16931088
2.178113319
2.246029501
2.326744264
2.310426036
2.284799781
2.261646898
)
;
    }
    obstacle
    {
        type            calculated;
        value           nonuniform List<scalar> 
30
(
1.155205429e-18
1.141265776e-18
1.150135225e-18
1.155268135e-18
1.134550211e-18
1.143162575e-18
1.140431975e-18
1.099572773e-18
1.223891057e-18
1.088182596e-18
1.130612631e-18
1.162490984e-18
1.054124925e-18
1.127168841e-18
1.180300305e-18
1.096173356e-18
1.026156911e-18
9.841194834e-19
1.054442412e-18
1.009110196e-18
1.066917907e-18
9.521206219e-19
1.078084565e-18
1.149830415e-18
1.002150685e-18
9.176792889e-19
9.419545398e-19
9.291219717e-19
8.201087967e-19
7.103836805e-19
)
;
    }
    frontAndBack
    {
        type            empty;
    }
    procBoundary1to0
    {
        type            processor;
        value           nonuniform List<scalar> 
21
(
2.999674117
2.841937999
2.636408551
2.308110542
1.986470948
1.705551268
1.405327936
1.131048359
0.955499149
0.7841569729
0.7044325333
0.6000533761
0.5544676962
0.5085585475
0.4901471732
0.4744926955
0.4519394278
0.4479498186
0.4396574397
0.4358835288
0.4258790776
)
;
    }
    procBoundary1to3
    {
        type            processor;
        value           nonuniform List<scalar> 
36
(
2.281355722
2.11160535
2.207495689
2.217523445
2.281355722
2.245454934
1.44050961
1.54585942
1.655535477
1.781993403
1.895053153
2.11160535
1.985197775
0.8319270732
0.9054736051
0.9906915141
1.039975112
1.44050961
1.163865128
0.5259151984
0.5445212935
0.5643873016
0.5970128799
0.6280059239
0.8319270732
0.6680991552
0.4277472901
0.4352052487
0.4342148604
0.4426875862
0.4542344869
0.462329303
0.5259151984
0.4828169561
0.4277472901
0.4231238574
)
;
    }
}


// ************************************************************************* //
