/*--------------------------------*- C++ -*----------------------------------*\
| =========                 |                                                 |
| \\      /  F ield         | OpenFOAM: The Open Source CFD Toolbox           |
|  \\    /   O peration     | Version:  2406                                  |
|   \\  /    A nd           | Website:  www.openfoam.com                      |
|    \\/     M anipulation  |                                                 |
\*---------------------------------------------------------------------------*/
FoamFile
{
    version     2.0;
    format      ascii;
    arch        "LSB;label=32;scalar=64";
    class       volScalarField;
    location    "0.004";
    object      internalT;
}
// * * * * * * * * * * * * * * * * * * * * * * * * * * * * * * * * * * * * * //

dimensions      [1 2 -2 0 0 0 0];

internalField   nonuniform List<scalar> 
546
(
702.32854
698.679382
698.6324132
694.1151279
703.7676098
704.9753394
719.7711573
703.497538
696.370369
682.4935351
688.9686792
686.6470667
693.6292751
699.2212532
697.3903632
693.302435
677.6115415
675.1723421
684.1553965
681.8525872
677.9099145
671.8017875
666.9809375
670.3047783
666.1389509
671.4605703
668.7005114
679.7817419
671.4390322
658.2740198
753.9143449
765.3378561
758.8468304
754.1829081
776.5077383
783.3011766
779.1137119
769.4683479
766.8516303
776.9647967
762.6340612
769.2787549
759.4843136
771.4972121
774.6590519
771.1890037
751.4730333
746.6098389
745.6896476
743.6300559
747.4683961
743.8634807
745.8615441
727.9117215
742.2757128
732.5733344
730.0368809
738.1163845
725.6966987
732.3373958
768.0022907
766.0860812
787.8391151
797.2030493
808.231932
802.4550507
800.0054113
810.4459717
802.5836172
808.2689641
799.9241112
787.9600461
786.0262289
804.127518
799.0571839
806.8793039
808.7866301
789.097635
789.4988951
789.1579567
791.8330992
789.0827094
773.6055411
779.1357649
773.0252032
752.0390178
757.59744
768.9746087
746.7660935
768.2079956
725.8796003
753.5833075
767.5325252
773.2544297
779.0167577
795.3905075
793.5008482
784.5773003
801.0091256
819.269282
824.4314565
836.9715868
823.3710953
814.7874171
799.47283
815.2719217
805.1431001
801.1310572
809.2599809
813.7060585
813.8648673
812.3888747
796.6700808
789.8355775
808.7804679
798.2680473
810.6032078
771.1217749
747.5909033
753.6134571
680.0352904
712.1726483
728.7451579
734.2685765
752.4014759
758.4493584
764.2082742
787.4553
794.0677132
795.5000767
819.2797438
812.2205958
819.5746445
802.0480178
813.0203821
799.6319377
812.0429942
817.4529643
824.0418325
818.2205553
816.2432627
814.2793184
804.6469573
819.088916
823.7079723
795.5602234
796.0825307
800.7829842
798.6393095
780.3329506
642.4206042
655.1287595
683.9379623
705.1710905
716.4760998
741.9311193
751.5675496
764.4797234
771.7569684
787.1929993
787.5797798
779.8523253
783.3176234
798.1240003
804.7718803
809.3884018
826.2727528
806.049502
806.9090394
813.6692218
808.8237841
818.8994811
823.1030317
822.2756275
819.3519661
810.6367518
803.6984556
800.3101093
789.2945321
774.8138743
594.071536
613.4707702
644.3277716
666.255021
691.5344746
705.2500755
716.0469398
722.9328571
734.249698
740.1672193
757.0130315
784.5222088
782.1960468
790.9103968
794.4944915
802.3656217
809.4813748
811.0999688
801.4664799
796.2025275
813.8888874
809.2597454
815.7815729
812.9124853
817.8529149
815.6569997
800.3058662
808.2276868
808.4106598
794.4510875
542.2451286
572.3486528
589.2798862
608.5408752
627.9998924
657.9146218
681.7870825
690.9349269
699.5575828
712.1589134
722.7394737
734.4167601
746.5869102
768.9031539
779.5642237
774.6383724
793.6906133
806.5714155
804.200914
810.9472513
806.2897947
786.3495632
787.2081794
797.0951306
809.6849864
805.538749
796.6044103
803.2226427
801.7676035
794.9051603
497.9284725
526.375561
542.9239535
570.9778639
592.7118111
606.6179179
619.715459
648.3236153
668.1487729
677.7805101
687.4240623
705.0383318
715.7209067
735.5072148
755.4356083
759.5165682
778.0210951
780.0893139
779.2050271
798.8866538
803.5605341
800.2825933
793.0991624
781.3780733
777.742555
799.5796306
804.3546977
805.3353225
798.2858997
787.9497837
453.3418213
478.8862467
508.0742038
525.0810341
552.1167155
574.9918665
595.8948882
612.8599106
638.3301585
645.0382381
660.5017213
675.3263528
680.4387554
695.2764822
712.8318902
734.4085051
746.3297579
755.8331045
768.8078793
775.4901917
769.3784942
789.7071486
786.9280123
794.2174935
783.3152419
773.8967131
780.8010005
789.9874173
777.73263
775.1984167
423.3498795
445.3788764
473.1162353
492.3656571
502.1356699
517.6139218
540.6469681
561.7976192
575.5973464
609.595845
619.3188112
641.4042331
652.8111797
666.773878
683.883756
692.2006957
709.6335513
721.9278583
729.9309428
738.4141103
755.0062963
759.7069314
766.3965257
778.4474896
775.1437792
780.8020906
762.6898609
757.2748774
770.5008055
769.1147086
392.3126215
411.5946065
430.8692255
449.2544686
461.4028427
478.2318474
500.106649
523.9792663
532.4533665
555.429016
580.9079036
600.8943542
620.1047696
631.7896568
648.8010883
662.565194
668.2490511
700.5753616
711.3577863
723.301006
731.6676282
739.7339715
743.4899753
742.9126722
755.8766974
755.2384542
762.6844714
764.1828761
767.5151099
762.6742923
364.6180757
379.277198
402.049204
418.428186
439.4504976
455.570693
463.532879
491.1222902
516.1972584
531.5214401
543.5986958
571.9665472
596.0256658
607.2772023
620.5198374
633.810939
647.6980433
660.1330087
675.7292748
690.6000719
700.3629158
714.2550049
724.8840798
735.1914812
726.1802095
731.5051861
743.3969275
744.0045625
748.3318896
747.9709459
349.9269826
358.0606757
375.2543464
397.5775203
413.153586
432.1379953
447.9056416
460.506784
464.3739574
485.0793428
501.8499802
527.3803348
541.2884894
566.5861099
585.3423172
603.2410812
625.0407382
631.9786808
644.1544176
651.5789364
660.8638496
675.6789328
697.1338083
703.9395481
722.0446587
724.9594785
730.581933
727.7815479
731.1032641
731.4088128
334.8811049
339.1644697
350.879197
363.5138568
379.7843795
396.7354955
408.0885738
419.9153126
443.0368587
449.4657609
476.7318621
492.9101664
506.6161087
527.035105
545.0720884
563.61528
580.9667452
594.1534148
609.3617243
626.7300348
641.1400457
656.4949071
671.8201632
676.9759036
681.7415841
695.5269463
707.9358544
714.5710306
706.5975143
704.3091923
333.1438333
337.3120328
340.4052195
355.1826844
364.0658395
374.9748163
389.7883535
407.364416
413.6539496
430.7364003
443.9144756
457.423316
478.9598824
490.0276278
514.6494308
529.3924545
557.2843235
570.9873107
585.4982748
598.5663289
617.6984017
631.7171237
635.1516415
654.8360989
671.4645856
677.3693757
676.3245095
692.1632508
693.9561048
319.7270845
320.5449468
329.8409198
334.6739896
341.4862761
351.7310561
367.6122532
369.5834189
378.7460502
391.7263713
405.5209158
419.8569268
446.9874733
470.3928863
487.9152571
508.1583385
521.0787628
541.9842468
554.2531764
567.5436661
574.2871722
584.6296022
608.9914809
612.9816844
628.7647833
318.9897571
322.7452152
328.0319476
336.862328
338.7008489
339.9555375
348.5458019
359.8064706
364.9290478
375.4461302
393.0101361
402.4289243
410.8633438
431.0668889
447.6359739
460.2826381
479.0026785
498.4695689
518.743549
314.8692377
316.2512626
319.5533917
323.8020974
329.2188097
333.5200702
332.1005989
340.5684587
357.7550128
369.1856282
372.7279178
387.1087375
396.9810874
414.0132562
309.851251
316.1176788
317.8176933
319.0008081
324.7387996
327.5536332
334.6559165
338.5648001
307.8253449
)
;

boundaryField
{
    flow
    {
        type            calculated;
        value           nonuniform List<scalar> 
15
(
658.2740198
732.3373958
768.2079956
753.6134571
780.3329506
774.8138743
794.4510875
794.9051603
787.9497837
775.1984167
769.1147086
762.6742923
747.9709459
731.4088128
704.3091923
)
;
    }
    obstacle
    {
        type            calculated;
        value           nonuniform List<scalar> 
30
(
632.808848
610.3003747
615.3240714
609.4661579
627.1471019
631.9619108
612.9810568
631.420784
640.0583772
608.0065001
634.4315144
632.8319227
612.1722286
610.3663745
639.6307252
642.0462872
600.9832907
599.5239769
619.3217161
555.0304948
642.223414
571.4189895
622.945668
661.9204974
619.8870507
600.8865252
618.9387606
602.1689644
626.1648249
590.2072982
)
;
    }
    frontAndBack
    {
        type            empty;
    }
    procBoundary1to0
    {
        type            processor;
        value           nonuniform List<scalar> 
21
(
702.3650132
752.0945523
745.2949634
709.3520212
659.620669
626.1989364
563.9423064
510.6647838
475.3008726
430.9709184
405.1438204
369.7461998
351.9251878
339.5866719
331.1510939
326.13016
315.0565646
315.0440509
309.9157077
309.8240465
307.5184282
)
;
    }
    procBoundary1to3
    {
        type            processor;
        value           nonuniform List<scalar> 
36
(
692.3818998
642.6861633
656.4466539
667.4122785
692.3818998
674.8194175
532.5054696
550.5626192
567.6826397
583.8910282
599.9213575
642.6861633
613.8329672
426.662457
439.5236362
460.4589014
466.7350521
532.5054696
492.5064041
343.630027
346.3709459
354.8059089
360.585122
370.7171518
426.662457
382.6615691
306.1568838
310.616902
310.6539076
311.8688079
315.2661026
318.7096299
343.630027
325.1255966
306.1568838
302.3492109
)
;
    }
}


// ************************************************************************* //
