/*--------------------------------*- C++ -*----------------------------------*\
| =========                 |                                                 |
| \\      /  F ield         | OpenFOAM: The Open Source CFD Toolbox           |
|  \\    /   O peration     | Version:  2406                                  |
|   \\  /    A nd           | Website:  www.openfoam.com                      |
|    \\/     M anipulation  |                                                 |
\*---------------------------------------------------------------------------*/
FoamFile
{
    version     2.0;
    format      ascii;
    arch        "LSB;label=32;scalar=64";
    class       volScalarField;
    location    "0.004";
    object      internalE;
}
// * * * * * * * * * * * * * * * * * * * * * * * * * * * * * * * * * * * * * //

dimensions      [1 -1 -2 0 0 0 0];

internalField   nonuniform List<scalar> 
546
(
1.521026996
2.15288795
3.277241817
4.277395271
3.044884855
1.658044018
3.02877356
1.940325328
2.538722398
3.760700206
1.605381869
2.538858226
2.490669028
4.72280891
3.82791393
3.035254155
2.887886176
4.067933469
1.647346248
4.154097198
2.448411478
3.305996604
3.0124841
3.762884337
2.603974758
2.981866104
3.475805256
2.590101533
0.5966941538
2.612083953
2.50575343
2.170697468
3.33677437
3.233813302
2.5115866
2.360729623
4.482286922
3.14050294
2.090197064
2.86422787
4.779307562
3.486056338
4.039892675
2.89653449
4.97827236
3.439806905
2.683121839
4.701457797
3.350664145
1.667387305
2.415882831
2.653089645
2.82668725
2.462613864
2.099925772
1.951090777
2.645621808
3.783989882
1.834893075
1.962138331
2.41969332
2.397652404
2.889838007
4.210757273
3.113097784
3.204288549
3.921146132
3.925112161
2.662046368
2.946614038
2.372195055
2.342445523
1.279587695
2.545132746
3.140727572
1.878544272
6.314703632
2.082894647
1.3239067
3.636784604
0.9977563716
1.324768759
2.802890766
3.691457514
1.887708701
1.931178902
2.017218229
1.817470792
1.299337921
0.7537615912
2.461892888
2.330456336
3.009444309
2.674528328
3.014526783
2.093567796
2.498628552
3.596002591
4.479035109
2.186402228
2.494675795
3.806474291
4.771817437
2.946498849
2.487570047
3.419124568
2.388237383
1.774510911
2.258550895
2.980660314
3.670200466
2.435898564
2.579303155
2.454894797
1.616817662
1.222187291
2.314270883
1.503268845
2.57844549
1.924697358
1.78332541
1.773461233
3.154605591
1.757924362
1.710784914
2.156392116
1.82121297
2.156782173
1.995689618
3.360378865
2.558025137
2.524397099
2.882857759
2.517963653
2.294371001
2.496656068
3.693026909
4.012376871
2.875237754
3.396650062
1.790832557
2.987946262
2.666356729
2.716319341
1.712338486
2.415058683
1.873543768
2.190419356
2.711756925
2.798070935
1.836766244
1.919573503
2.736565414
4.146785721
1.829078914
1.508670863
1.506510023
4.201532733
2.204526449
2.563228263
2.630496705
2.92089806
1.680700493
3.322077704
2.698929195
2.324629535
3.283666171
4.742113825
2.934935269
1.98336253
2.24249743
2.504039547
4.908196967
2.947354109
4.275190749
2.406213684
4.781888663
2.99622472
1.435103641
2.738417945
1.777706625
2.061371014
1.993970595
1.987400535
1.778710178
1.645135731
3.209158869
1.475474706
1.54167211
1.546696786
1.781642098
1.37790398
4.282117408
4.261406905
2.322985387
2.307409854
2.264152472
1.741132089
3.624096538
2.775775573
3.132295678
3.457499896
3.052650738
2.16720492
3.198177242
1.846854934
1.719002338
2.388644624
3.427276489
1.859762835
1.13909862
0.7939316395
0.7747211293
1.754740587
1.757633778
2.519359838
0.9878042336
2.292140282
1.217255437
2.342671752
2.263290766
2.421863807
2.750834905
3.555875526
2.327706345
3.816547556
2.872741011
3.643757502
3.392113406
1.357163074
2.338956053
3.860450653
3.531127245
3.550519104
3.311790142
0.9266324788
2.721297461
0.5644361698
1.561754443
2.056843404
0.9623214666
1.158546104
1.274483524
1.730657514
2.216066808
1.300705075
2.099685876
1.547453928
1.746755168
1.856104952
1.810152401
1.97447124
2.998735652
3.431609534
0.9025519898
2.192357674
5.365002892
2.91734065
2.49492168
3.363275386
2.761812065
2.196367855
3.385070779
2.846951606
3.462742926
2.376196284
2.820038815
3.805332591
2.43365794
2.333660187
1.030368652
1.215442893
0.3709106766
1.180604541
1.322898601
2.392554665
1.546463086
1.747140928
1.691098123
1.241268547
2.244371212
1.224999734
3.175209621
1.305867224
3.214500224
1.901633276
2.6458745
2.551142916
4.928103213
3.321886456
3.16940247
1.529952661
2.741385956
3.066415368
3.283690528
2.009925575
4.440011195
3.17778086
2.659693937
1.748291406
0.616917332
0.6544030691
0.6548692867
1.754241755
1.881479085
1.031955154
1.740146446
0.6417402644
1.858480491
1.556676563
2.421860534
1.386926129
1.834622245
3.307432837
2.200788155
1.372092827
3.809325549
2.598781722
4.041089216
3.127908552
3.717849693
1.317780213
1.518470506
3.481192669
1.803954957
2.894315075
5.08761164
1.60080884
2.86636923
2.249326913
0.3538943323
0.6401528344
0.6116845316
1.004311212
1.706359534
0.9051278741
1.960846563
0.5435869834
1.093608219
1.448920589
1.360481623
1.920676789
2.220405809
1.219797956
2.076001644
2.61740017
1.253560681
2.146169287
3.066556203
3.744747708
2.864909334
2.62045096
2.444929392
2.018170872
2.409188458
2.549876297
2.408687671
1.028559742
2.054317903
1.210637943
1.326428772
0.5466450171
0.6090247799
0.7914272122
0.6700083083
1.163968859
1.215491521
0.6094922493
1.430508497
2.044103562
1.531385527
1.320314892
2.865320299
1.093223183
1.73161358
3.794099491
0.9133166242
2.488585912
2.69501129
2.349547909
1.348584922
1.852656324
2.061742698
3.266418309
3.177062594
2.227107492
1.90124461
3.171399811
1.286980954
3.047614939
0.5426938622
0.5786172555
0.1871643958
0.6544555342
0.6635033302
0.2691903551
0.3324809485
1.013474557
0.7838877023
1.241895314
1.52285846
1.029808881
1.884608929
1.023386798
1.29514435
2.160771528
2.328433164
1.152341472
2.406901566
3.92844529
2.837223106
2.593554279
4.156691402
2.722969295
2.548205933
3.839559105
3.427501492
1.302148066
2.65849754
2.690441409
0.4441586412
0.3292448846
0.3768608299
0.9952073651
0.7459588852
0.6643958296
0.6020716216
0.4951711484
1.147135871
1.348539522
1.074246468
0.8836022005
0.8559617397
1.32845425
1.490023743
1.942755871
1.942923063
1.91585054
2.719489834
1.177634313
1.378514598
1.575351535
2.665723642
3.348494468
1.679284346
3.232937382
2.583131159
3.00586105
2.968802926
2.409470399
0.4808517901
0.5306124217
0.6243698088
0.5724056094
0.7952871177
0.6838266994
0.6863395989
0.6773558397
1.15337415
0.4817090773
1.155661001
0.3574165828
0.378928218
0.1637211498
1.336713718
1.377992839
2.165848491
1.056844869
1.627039014
0.996344222
1.79092574
0.9534061109
1.9489859
1.139405995
2.90178751
3.970701799
2.751600308
0.6608215957
2.273206674
0.5133965213
0.4419679825
0.87358858
0.4158372138
0.2037180696
0.2706801666
0.9104601514
1.038692046
0.8443322843
0.2498784831
1.13599874
1.205770096
0.4526984021
0.9205443654
0.2295798756
1.232137413
0.608650874
1.299161487
1.684943113
2.051201937
2.664320624
1.309958941
1.430561263
2.670783692
2.147372898
0.3279686941
0.5812279975
0.451851924
0.7536541469
0.9627298637
0.4947770283
0.5751108946
0.1586997456
0.7597263841
0.3933651223
1.010991631
0.9129582738
0.6138421836
0.6235963577
2.009327317
0.7342613293
0.8711747727
0.8069320273
0.696575014
1.274170897
0.2827944139
0.3114541272
0.6472470993
0.5481165105
0.2825509258
0.404437291
0.3337181101
0.2348282464
0.8000243766
0.6309207578
1.051170323
0.521930427
0.4617162972
0.7499848398
0.6141562307
0.632671709
0.1291748562
0.3547639936
0.3866796534
0.3253307763
0.4964794981
0.2822323581
)
;

boundaryField
{
    flow
    {
        type            zeroGradient;
    }
    obstacle
    {
        type            calculated;
        value           nonuniform List<scalar> 
30
(
1.312341552e-19
8.482585372e-19
4.054041336e-20
0
2.142465121e-18
1.344716621e-18
7.534222794e-19
1.200991274e-19
1.150622381e-18
8.371360617e-20
8.115528338e-18
1.229699371e-19
1.481408095e-18
5.731147015e-19
1.377197262e-18
0
4.439537164e-19
5.201915891e-19
0
0
0
3.237595083e-18
9.884509701e-19
0
5.218403366e-19
1.109268343e-18
0
0
0
0
)
;
    }
    frontAndBack
    {
        type            empty;
    }
    procBoundary1to0
    {
        type            processor;
        value           nonuniform List<scalar> 
21
(
4.008779982
3.073654332
1.754912681
2.395593269
1.484098545
1.051164406
0.8226460546
0.8391553157
1.283814579
1.462239398
0.4325503912
0.7838263078
0.3613290308
0.9120992045
0.2090848761
0.6216195238
0.5174983084
0.4966535053
0.4371814827
0.2404832038
0.3343123882
)
;
    }
    procBoundary1to3
    {
        type            processor;
        value           nonuniform List<scalar> 
36
(
2.183476194
2.75488616
2.434768015
1.9632852
2.183476194
2.909138858
2.091987033
2.296261515
3.243317289
1.743126672
2.593724266
2.75488616
1.763659163
0.7691784372
1.233527949
1.030250429
1.58061452
2.091987033
0.8506670565
0.09853344649
1.050394892
0.5183934113
1.206183531
0.3589767101
0.7691784372
0.4435066081
0.6281396849
0.4042099067
0.456761954
0.5131514843
0.2494112481
0.3212565728
0.09853344649
0.2861477517
0.6281396849
0.3968827121
)
;
    }
}


// ************************************************************************* //
