/*--------------------------------*- C++ -*----------------------------------*\
| =========                 |                                                 |
| \\      /  F ield         | OpenFOAM: The Open Source CFD Toolbox           |
|  \\    /   O peration     | Version:  2406                                  |
|   \\  /    A nd           | Website:  www.openfoam.com                      |
|    \\/     M anipulation  |                                                 |
\*---------------------------------------------------------------------------*/
FoamFile
{
    version     2.0;
    format      ascii;
    arch        "LSB;label=32;scalar=64";
    class       volScalarField;
    location    "0.004";
    object      linearKE;
}
// * * * * * * * * * * * * * * * * * * * * * * * * * * * * * * * * * * * * * //

dimensions      [1 -1 -2 0 0 0 0];

internalField   nonuniform List<scalar> 
546
(
6.939063503
9.011619931
8.819860529
7.846255447
5.024114291
3.224549088
6.927675725
6.322713518
5.619395575
5.567654176
3.471764621
5.51837099
4.80781354
5.787014335
6.392869026
4.686900484
5.92279636
6.756823756
3.395446008
4.947673285
4.671861652
4.250429807
1.915496246
5.525511458
4.606654415
2.82885326
4.918800367
5.657816302
1.012979931
5.136169648
8.387847262
7.419111841
7.837700803
7.069519428
6.403537761
4.001676869
5.869431904
6.359553631
5.104652857
5.631152775
6.5397607
11.54661976
9.016547183
5.001918398
8.397625074
4.806230859
5.306457485
6.877381748
5.932038723
2.135096233
3.709949296
5.749352264
4.933026091
6.005382497
3.025672583
5.144411888
4.327854534
5.458523909
4.718494409
5.335617295
11.81809266
10.10244533
15.08541472
13.15036011
9.281451099
14.22760277
9.600893057
8.784207213
7.751284703
6.472646317
6.475009628
6.887550241
5.326382496
7.215347943
8.163411084
5.630355409
10.67274146
3.691008863
5.831242956
10.25764027
3.49840187
3.544471434
4.91323307
11.58090764
6.861349096
4.911308081
5.505510431
6.480842796
6.239407503
4.492178406
9.164335927
8.56613027
9.160717281
11.67302428
11.82570984
10.58158083
8.532501758
15.81627445
11.92159011
12.4728091
8.603614402
11.05972291
10.59283325
7.929347867
6.388331492
13.10449792
6.77281129
7.329870999
4.260932651
10.38014898
8.350866376
5.700519924
5.984721526
10.55482627
7.234854294
4.27585891
5.169408883
7.546887418
7.91897174
3.923644779
11.36668636
12.04013005
13.91575491
10.97112068
8.922751439
16.42586751
7.741509054
7.683929548
10.76519779
12.89779321
11.26294912
10.84078659
10.88957631
8.244589526
10.93585868
7.093573422
10.64046553
7.344994505
11.94460667
10.36730024
5.47908196
7.958842402
5.128315228
8.760404538
5.514986331
8.052387964
7.417271031
4.219717748
5.056548003
6.011544115
10.57011796
6.575918602
12.67067141
14.50211726
10.32670945
6.728904145
9.731054473
12.4479006
7.680593962
10.12631224
11.58528192
9.457551431
8.121950796
11.93309577
18.17003306
9.436434374
11.76209228
10.34671714
7.101481998
6.190418243
8.714996594
9.526996063
9.545170373
7.887631097
10.262514
6.080396945
9.17434375
6.413928422
6.596932752
7.078372749
15.27640772
14.33179246
14.93985231
14.75149847
11.389963
9.676998169
9.839962746
7.799152795
8.073222672
6.008639714
12.58824853
12.0811842
15.13436088
19.00530502
21.40528596
11.95347939
11.40014307
7.793614776
11.21342621
10.1884586
11.45351451
11.21979975
8.534624905
9.002341373
11.03699689
10.74878483
9.68680966
7.69104943
11.44564335
3.80902063
9.289508706
8.931729795
9.982971283
13.2993457
7.521800867
9.640809265
12.69196201
13.83257225
11.85849512
17.47617129
15.16315015
11.00399764
11.88676014
14.9329719
10.34282854
12.88228127
13.61400268
17.34967784
11.59766889
6.470197307
8.308121963
13.80297674
11.673431
12.37152539
14.44570016
5.679746422
12.30293042
2.165936713
7.289769004
6.609278304
9.669800406
10.51777438
17.42030273
13.83800798
12.79583139
6.224955144
13.91202401
14.53684287
13.55784579
10.78990569
11.78581135
13.97822562
14.64369206
23.23426293
6.259918637
9.900250246
18.64675526
15.57013189
14.12204611
14.05995009
10.76992759
9.791926144
12.66869082
12.266516
14.77680065
10.45614896
11.94321093
10.70650459
10.28042517
9.837699922
13.32064369
11.84755229
11.51745195
11.57643149
15.63773001
16.56951489
13.1547359
13.9588479
15.14365563
8.091901515
19.78765747
11.13045174
18.85408129
12.47775809
16.97061894
14.89613017
12.20637211
10.01917433
21.87357186
13.88186229
11.3120585
9.771890221
12.19697138
11.09469374
9.975349947
10.48814356
24.00206816
18.9952959
8.246653204
7.316657193
8.578685417
11.54947084
10.83797222
7.331335791
16.19934243
11.27610981
23.32257663
10.38797479
14.86243988
12.67428553
10.4148663
12.61221531
17.341199
20.68047985
16.63551993
14.97981384
13.7225219
15.02029385
16.61082427
16.97024487
14.35034051
8.027086676
12.69839908
12.20319249
14.00465967
10.07771092
12.23924475
9.421942252
15.41876068
11.52469026
9.9957297
5.933305106
7.675782305
11.97275764
6.853548259
12.32943646
13.95779833
8.946001328
16.52492248
15.63855757
14.04987435
11.41269045
17.53487065
9.841995805
15.28055219
15.51480188
20.08508936
15.57286121
13.01740025
13.88114825
12.64074857
15.18890915
11.49398682
15.54657826
13.92386586
11.93873752
13.69435508
3.557991115
13.02947525
8.34238955
9.201589246
12.86062761
8.777444151
9.811441145
9.033200511
11.41703713
11.10537499
6.121534518
7.676093651
15.54002853
11.43540899
8.719599687
13.31165245
9.994045008
18.06929527
20.58146071
10.97437304
7.892867193
22.68364369
13.53077536
8.868099231
16.95730013
10.90605762
18.81442684
14.77214535
14.93593975
15.49917151
14.76703134
6.202231748
14.3121014
3.501781692
8.024230312
3.825986894
10.70820498
8.421643209
5.67191709
9.107061771
10.8416484
10.49865926
15.1782062
10.33960476
13.86505031
18.61131115
11.21470282
11.06643807
18.61364129
18.16163109
7.913101213
20.90892885
17.93705033
16.48925021
14.98856216
21.30434096
13.14604681
20.06093468
13.36386426
15.3281195
9.804453586
17.14925671
12.35541058
11.50479809
6.140711218
6.511655348
11.26555503
11.50975598
6.145699533
9.752300431
8.932070727
10.32125571
14.65387053
10.71932017
13.52653026
16.11114487
14.34196084
10.10592388
18.74506609
16.49314124
11.36704634
15.85486487
14.03345466
9.682745728
11.26723318
13.46303597
20.76732814
10.07322589
20.49492183
18.71810177
17.25365792
8.60613364
15.99092822
10.07313183
10.50485249
10.12759595
10.87975587
13.78035385
10.82395583
5.426849332
6.92690829
12.87185623
6.976128556
14.36938663
6.91295548
5.588016615
2.174151237
12.48019289
10.17302943
15.22645862
11.38958766
15.5522875
11.5581476
17.33242021
9.588281815
8.96387952
5.924664066
17.61936957
15.51917834
6.306780988
9.550781109
17.18016631
7.981095934
8.165548008
9.142409378
6.475534134
1.635247349
7.9958637
12.71790131
10.11099575
7.760802126
8.277641425
8.358525088
12.41879492
6.21379103
15.44915582
5.223766099
11.24086502
6.555971641
14.91360791
14.30440899
21.05136012
19.69473299
10.62574866
23.17817728
16.8010671
14.58546661
7.436292784
7.203775686
14.32280582
10.83511465
10.04186568
8.554076514
6.553447921
4.387160514
12.33570962
7.845084008
5.251668669
14.89065097
15.29512335
12.15623237
13.7726831
10.29735363
11.48670061
8.448969004
9.417952909
7.475294259
5.135524225
8.322587035
12.08175975
8.543716725
7.574197
12.77238136
8.078848631
4.83948166
7.775228394
12.05231195
16.29509033
9.452515217
10.22549307
8.489883377
7.302185398
8.447246672
4.220653214
8.300779211
7.140491239
5.378342466
7.569214308
7.006896321
)
;

boundaryField
{
    flow
    {
        type            zeroGradient;
    }
    obstacle
    {
        type            calculated;
        value           nonuniform List<scalar> 
30
(
2.202257359e-18
2.425825478e-18
5.089489541e-19
0
4.161376793e-18
1.93390728e-18
1.983600882e-18
9.977775698e-19
4.543704805e-18
1.082197794e-18
5.238522213e-18
6.981026836e-19
5.315332505e-18
1.053090907e-18
4.343169837e-18
0
2.681238227e-18
6.544779574e-19
0
0
0
2.262952571e-18
1.588284575e-18
0
2.517599227e-18
5.825899645e-19
0
0
0
0
)
;
    }
    frontAndBack
    {
        type            empty;
    }
    procBoundary1to0
    {
        type            processor;
        value           nonuniform List<scalar> 
21
(
14.18011856
4.041404313
9.052011759
7.172052952
10.31470314
11.22494369
3.6235787
8.50687334
12.80723331
9.483707546
7.271453372
13.4673892
8.153343449
15.51262649
5.74246378
12.02552766
11.99944203
9.867704171
8.279036789
9.412976184
6.297743989
)
;
    }
    procBoundary1to3
    {
        type            processor;
        value           nonuniform List<scalar> 
36
(
23.84329639
14.9967079
17.91215039
14.14819537
23.84329639
11.07157165
16.30065608
16.48818778
17.57528194
15.61707357
17.79529665
14.9967079
14.4196784
4.576078199
9.733129263
10.91158493
8.431093259
16.30065608
9.107990588
4.039576302
15.78709625
11.13482209
14.58402785
6.882185993
4.576078199
13.67400902
9.5941263
5.923711362
7.371566573
11.1496114
7.070662311
7.75028678
4.039576302
7.820060502
9.5941263
5.466665282
)
;
    }
}


// ************************************************************************* //
