/*--------------------------------*- C++ -*----------------------------------*\
| =========                 |                                                 |
| \\      /  F ield         | OpenFOAM: The Open Source CFD Toolbox           |
|  \\    /   O peration     | Version:  2406                                  |
|   \\  /    A nd           | Website:  www.openfoam.com                      |
|    \\/     M anipulation  |                                                 |
\*---------------------------------------------------------------------------*/
FoamFile
{
    version     2.0;
    format      ascii;
    arch        "LSB;label=32;scalar=64";
    class       volScalarField;
    location    "0.004";
    object      linearKEMean;
}
// * * * * * * * * * * * * * * * * * * * * * * * * * * * * * * * * * * * * * //

dimensions      [1 -1 -2 0 0 0 0];

internalField   nonuniform List<scalar> 
546
(
7.046609976
6.799139505
6.565512663
6.383079743
6.189170512
6.169683569
6.148440318
6.00311895
5.955803549
5.859533619
5.686927291
5.621317434
5.374725038
5.506060022
5.400887539
5.220014047
5.106851812
5.020094454
5.052874782
5.006338133
4.955939931
4.976625948
4.904908668
4.957223564
4.705288756
4.637356367
4.446319109
4.273253988
4.080031416
3.576934896
8.800765233
8.523143696
8.233793223
8.058297206
7.816953502
7.68282568
7.381910003
7.26122957
7.10332496
6.959541853
6.734112261
6.55998167
6.496717625
6.43123637
6.375963934
6.175854035
6.006737076
5.953945438
5.866597452
5.760912845
5.662085463
5.62494232
5.572439915
5.421219285
5.308078604
5.225942675
5.075189487
4.852700746
4.584639425
4.212044215
10.20692744
10.1412829
9.823361
9.489796773
9.083934112
8.747014798
8.617749671
8.364473217
8.204211021
8.025330105
7.950285778
7.74316691
7.562069403
7.306651963
7.164419876
7.029744026
6.922729761
6.742138044
6.686279587
6.578974297
6.401920657
6.424650393
6.381054934
6.122002181
5.94443114
5.803314697
5.67793774
5.552122869
5.200559744
4.942170306
11.35940525
11.3225182
11.19755729
10.84626109
10.64335516
10.31355134
10.10017694
9.96609775
9.568003425
9.334648555
9.108867002
8.816320373
8.6522575
8.500236183
8.22568379
7.965196972
7.854839229
7.685169462
7.613603005
7.492509747
7.299996641
7.085859328
6.973480966
6.872040921
6.751424966
6.555112969
6.269402212
6.158194474
5.911033649
5.686908833
11.89362289
11.87588522
12.04932195
11.95757313
11.75138793
11.53998852
11.20375361
10.98950397
10.88298404
10.51179588
10.27171497
10.17301008
10.03048117
9.809678051
9.424504137
9.145268578
8.842283163
8.770402787
8.547215125
8.305590093
8.119280804
7.792551514
7.693616851
7.650395764
7.493794472
7.297707204
7.275049762
6.924610113
6.676378102
6.263369527
11.81104658
12.02485583
12.25739642
12.27236247
12.20583366
12.14306908
12.12514854
11.89529945
11.80163757
11.70830902
11.45377327
11.25326162
10.92800086
10.73703275
10.51873968
10.3094858
9.953887555
9.892205563
9.61122907
9.291796259
8.998396551
8.706855288
8.59835245
8.535162135
8.409742764
8.130884628
7.837401255
7.661839071
7.495006041
7.124967623
11.58163426
11.99018833
12.26446525
12.43229609
12.48782142
12.93699462
12.85965095
12.76438868
12.64659099
12.59571303
12.34903287
12.10348359
12.00873976
11.84178875
11.42195365
11.15988595
10.89537155
10.55182086
10.4938903
10.17095044
9.978095653
9.847762176
9.569606354
9.463286257
9.442428682
9.120596146
8.826089048
8.648002493
8.242617227
7.919384293
10.99772689
11.37884437
11.96064326
12.5251675
12.65880637
12.71887961
13.03192083
13.14938567
13.05697224
12.99835778
12.97227297
12.84839444
12.60669273
12.38332489
12.35757005
12.21953812
11.94710184
11.60936811
11.47810728
11.40042173
11.18064573
10.87603065
10.61944809
10.2673389
9.976434107
9.68951857
9.387046722
9.262382937
9.000655441
8.651968041
10.49650791
10.97399865
11.39323255
11.75048815
12.35283385
12.65217712
12.83028736
13.06321112
13.23264413
13.24546847
13.31690154
13.37665336
13.40085727
13.39575661
13.3006343
13.16794854
12.87886859
12.68859669
12.46035709
12.13848395
11.83223894
11.57900658
11.20547017
11.07326697
10.83937745
10.68289538
10.32122752
10.04804871
9.715337003
9.445407257
9.756753984
10.15607277
10.63908267
11.10978798
11.5468534
11.97270223
12.46313647
12.8070166
13.20894904
13.49922349
13.61355027
13.68700905
13.66668726
13.74927015
13.69495962
13.63535945
13.61476896
13.33678079
13.0918558
12.94327232
12.72613061
12.45119771
12.33996365
11.88525584
11.71787517
11.44163198
11.16447177
10.92967786
10.45519598
10.15207995
9.367095388
9.670961097
10.04018102
10.4824337
10.90736676
11.33903183
11.8677402
12.42815699
12.84855518
13.30764063
13.58526865
13.79041043
14.00304425
14.04078087
14.03535467
13.98971006
13.97763087
13.98477854
13.67283065
13.61307785
13.40740669
13.20252158
12.97513484
12.71760098
12.27849041
12.05294549
11.84712161
11.7700858
11.56006409
10.98019409
8.973666512
9.254979223
9.596779151
9.95269899
10.39326744
10.7676653
11.28223327
11.70594964
12.26080475
12.56860301
13.0194988
13.29355518
13.66897404
13.99202974
14.10701949
14.33125707
14.36553861
14.338117
14.41343496
14.21614726
14.02656863
13.93029366
13.625522
13.39549819
13.27739667
13.11914399
12.76897698
12.29972443
12.0219217
11.94637724
8.684367638
8.916257174
9.248103342
9.401220007
9.84017084
10.27647432
10.59401972
10.93157324
11.42183291
11.82501913
12.28469988
12.89023618
13.34231154
13.64233477
13.92747704
14.1500741
14.26410092
14.38694482
14.47083294
14.55649674
14.52139601
14.64113191
14.3616991
14.2864613
14.06006138
13.71447574
13.39469821
13.07361861
12.99365262
12.61746052
8.366280808
8.554403386
8.780269938
9.124483828
9.400990046
9.676945248
9.928861422
10.31288801
10.68307143
11.23495474
11.78446668
12.19540918
12.63581475
13.02263061
13.31062132
13.7394884
14.12613013
14.49026069
14.58267769
14.78339119
14.7408258
14.64543606
14.95731265
14.79557275
14.58197405
14.38098209
14.40255862
14.04391779
13.53666393
13.21821753
8.418000604
8.517029747
8.674245394
8.725187677
8.918168178
9.2027397
9.555522492
9.927245784
10.20533006
10.55558156
10.90770453
11.21208597
11.82634327
12.48838357
13.09747682
13.62522049
13.96929826
14.2414405
14.52868954
14.70394334
14.9497832
15.20257635
15.21005344
15.11246808
15.01133642
14.85860567
14.68536324
14.59199352
14.40983607
13.92564739
8.062086488
8.038091032
8.249924181
8.271411412
8.595866895
8.757911271
9.028195237
9.355997477
9.711928908
10.01233125
10.48176716
11.04081019
11.35406392
11.86831776
12.38369205
12.75617883
13.2113493
13.63846635
13.97802462
14.43256846
14.79735665
14.90708324
14.99138527
15.19466517
15.35452449
15.29636119
15.14433883
15.0446616
14.75952116
8.130837933
8.22008264
8.238135065
8.472233372
8.450416079
8.586331335
8.817825535
9.157442081
9.361281784
9.712005467
10.00897411
10.25818045
10.54507911
11.02816945
11.36373778
11.9297443
12.57877858
13.15008219
13.78288117
13.89266095
14.18137959
14.73381051
14.91949241
15.1600114
15.25468886
8.104436056
8.140805243
8.241882035
8.235977189
8.391339659
8.531441489
8.588726586
8.681214244
8.863471243
9.11319193
9.245691484
9.643291378
10.0847119
10.51088615
10.90603537
11.36180539
11.8001557
12.34525832
12.81621254
7.953659724
7.981138286
8.122491204
8.133907916
8.144829353
8.145351476
8.265470987
8.36226036
8.588953322
8.645093113
9.126741301
9.23477537
9.410690748
9.825187476
7.992668829
8.014947199
7.969938736
8.004731305
8.143657142
8.158811637
8.270916007
8.373383042
7.820628859
)
;

boundaryField
{
    flow
    {
        type            calculated;
        value           nonuniform List<scalar> 
15
(
3.576934896
4.212044215
4.942170306
5.686908833
6.263369527
7.124967623
7.919384293
8.651968041
9.445407257
10.15207995
10.98019409
11.94637724
12.61746052
13.21821753
13.92564739
)
;
    }
    obstacle
    {
        type            calculated;
        value           nonuniform List<scalar> 
30
(
2.309078831e-18
2.411774179e-18
2.326437026e-18
2.336696772e-18
2.106617669e-18
2.139353652e-18
2.196422304e-18
2.093468512e-18
2.117817824e-18
2.019526163e-18
2.138320224e-18
2.071236035e-18
1.968687798e-18
2.04887648e-18
2.01283951e-18
1.895153955e-18
1.875241582e-18
1.826408921e-18
1.835771341e-18
2.001956274e-18
1.847959297e-18
1.796987686e-18
1.808512515e-18
1.960954742e-18
1.759311363e-18
1.76099873e-18
1.702958606e-18
1.721040001e-18
1.504599656e-18
1.410876035e-18
)
;
    }
    frontAndBack
    {
        type            empty;
    }
    procBoundary1to0
    {
        type            processor;
        value           nonuniform List<scalar> 
21
(
7.355685232
9.125600853
10.49069648
11.47364164
11.74138068
11.49578504
11.21199187
10.43982315
9.985107158
9.465583332
9.107846543
8.704408606
8.582918989
8.270959446
8.246676039
8.057917683
8.097850099
8.002594897
7.993992574
7.949251742
7.840492545
)
;
    }
    procBoundary1to3
    {
        type            processor;
        value           nonuniform List<scalar> 
36
(
14.59782566
15.40714434
15.60488566
15.31108176
14.59782566
15.28628213
13.4378643
13.93483895
14.32323292
14.87127553
15.19583352
15.40714434
15.36564355
10.32574326
10.82941379
11.20731769
11.52620793
13.4378643
12.06981487
8.477977356
8.679363515
8.766278272
9.064869325
9.28834114
10.32574326
9.49070322
7.908988514
7.900713528
7.895526346
8.009591668
8.126595297
8.176053056
8.477977356
8.331770316
7.908988514
7.923013584
)
;
    }
}


// ************************************************************************* //
