/*--------------------------------*- C++ -*----------------------------------*\
| =========                 |                                                 |
| \\      /  F ield         | OpenFOAM: The Open Source CFD Toolbox           |
|  \\    /   O peration     | Version:  2406                                  |
|   \\  /    A nd           | Website:  www.openfoam.com                      |
|    \\/     M anipulation  |                                                 |
\*---------------------------------------------------------------------------*/
FoamFile
{
    version     2.0;
    format      ascii;
    arch        "LSB;label=32;scalar=64";
    class       volVectorField;
    location    "0.004";
    object      momentum;
}
// * * * * * * * * * * * * * * * * * * * * * * * * * * * * * * * * * * * * * //

dimensions      [1 -2 -1 0 0 0 0];

internalField   nonuniform List<vector> 
546
(
(0.004667667467 0.001250752491 0.0006166131736)
(0.008005522102 0.0008016939931 -0.001301406988)
(0.005895967666 0.001683655738 -0.001333592728)
(0.006021092661 0.001684597873 0.003004272202)
(0.00288161217 0.002818146563 -0.0001512033177)
(0.003052652204 0.001153912535 0.0003909382712)
(0.003657626796 0.001196822042 -0.0008924116205)
(0.005419555181 -0.0002196162232 0.001340213472)
(0.00193061022 0.003321006472 0.001940303411)
(0.004401716705 0.00108901734 0.0004667461825)
(0.002887600098 0.0004221326967 -0.0004684899998)
(0.002452413637 -0.0005484423629 0.0009044541361)
(0.004219635971 0.001163192808 -0.000530331333)
(0.003534802378 -0.0003618832707 -2.783338659e-05)
(0.003583531027 -5.045597086e-05 0.0006884868284)
(0.003029629737 -0.000480834438 -0.002002509017)
(0.00356008377 0.002061380129 -0.001023488041)
(0.002895600115 0.0003575525184 -0.002477500772)
(0.002728281485 -0.0002852149453 0.0006664536422)
(0.005351341503 -0.001920859453 0.001066732603)
(0.003002105312 1.99308658e-05 -0.0006084218673)
(0.003674165069 0.000858145486 0.001444583938)
(0.001205658195 0.001250396309 0.0006522902001)
(0.003059400472 0.001000395909 -0.0004805595314)
(0.002450927856 0.0003995214661 0.0005958933188)
(0.001952088311 0.001912884627 6.096947002e-05)
(0.00588537398 0.000747249047 -0.0007745182925)
(0.00542721382 0.0003957014518 0.0006514756781)
(0.001105656931 -0.0003927314417 -1.555950119e-05)
(0.005253773626 -0.0004152419439 -0.002219498773)
(0.007729044056 0.002683618793 0.00178180903)
(0.006237282533 0.001189299145 0.0006846684923)
(0.00640497328 0.002153305417 -8.726888662e-05)
(0.007100397813 0.001525273418 -5.194013861e-05)
(0.005168006337 0.001596698322 -4.789517204e-05)
(0.003856362996 0.0009713478133 -0.0003427565284)
(0.006271229231 0.0002148675534 -0.0003157768926)
(0.005567362464 0.003973110956 0.001522905846)
(0.003379874766 0.001500313035 -0.0005946499124)
(0.005231768036 -0.0007307877489 -0.0009075060156)
(0.007193573817 0.00284394141 0.00113511115)
(0.01259450455 0.002019591785 0.002791052897)
(0.008432321903 -0.0004480682618 0.003321476352)
(0.004854589388 0.003406576958 0.00140937734)
(0.006211111859 0.001961551868 -0.002832234951)
(0.003841785876 0.002298358288 -0.0006160138082)
(0.006780489451 0.0007211249447 0.0001722331813)
(0.005122188567 0.003162885813 0.0005600287833)
(0.00429951394 0.002019189313 0.0005413101896)
(0.003112710138 0.00119175973 -0.001025823335)
(0.004685675765 -0.0004889183456 0.002031298586)
(0.00380446892 0.002455434704 -0.001482581207)
(0.0044571109 -0.001369196521 -0.001159729136)
(0.004826665118 0.001928225597 0.0007679823407)
(0.001408667332 0.002448027193 -2.637845071e-05)
(0.003479518266 0.001455988758 -0.0002954123578)
(0.004575983086 0.0009036592254 0.000619280517)
(0.003243460531 0.002580020193 -0.001655967904)
(0.005000679847 0.00153011614 0.001663679342)
(0.007140629693 0.000836496876 0.001957706751)
(0.01220891405 0.002995627805 -0.001045292266)
(0.008160459663 0.00300527559 -0.0002029765083)
(0.01528952854 0.005093675896 -0.001831580232)
(0.01441698442 0.003150743009 0.0004115348129)
(0.01096719097 0.002220924457 -0.0004165459838)
(0.01374045415 0.002509447516 -0.0001896400602)
(0.008732460092 0.002558151488 0.000774589635)
(0.007398869107 0.0001791844982 -0.0003888197482)
(0.007991685782 0.001600418829 -0.001055795688)
(0.007792110138 0.002707670299 -0.001324271621)
(0.006164197352 -0.0001961372862 -0.0001448125566)
(0.006339984922 0.002677916888 -0.0004395677931)
(0.004744998809 0.003256738966 -0.00112715731)
(0.008359060166 0.002273830036 0.002923907354)
(0.00950896256 0.001555415641 0.0001997345357)
(0.007088866368 0.001004545551 -0.000421477815)
(0.009857823219 0.005715737217 -0.0001140202905)
(0.00295081191 0.0005867577966 0.0009323953722)
(0.004962884429 0.001929788275 0.001316698324)
(0.009606473099 0.004059064606 -0.001269725591)
(0.003379649176 -0.0008401090317 -0.0001131574084)
(0.003452993563 6.044765511e-05 0.0006317707411)
(0.00502944547 0.002438514015 1.549759384e-05)
(0.01356711916 0.003268452498 0.0007891316387)
(0.006734940422 0.001526765783 0.0001580572441)
(0.003218549886 0.0025104824 -0.0003529390364)
(0.007007543261 0.00220220818 -0.0001950106327)
(0.007462731576 0.002834777646 -0.001316485723)
(0.006029825841 0.003047900596 -0.0008883095073)
(0.005072414411 -0.001864346181 -0.0002874163681)
(0.009845309992 0.004537024312 -0.002248493049)
(0.009687316704 0.003154881849 -0.0004021320549)
(0.009051508191 0.002843181407 -2.74274009e-06)
(0.01292749438 0.006058349543 0.0007225058847)
(0.01214245446 0.001411547073 0.0003651578241)
(0.01119906597 0.002449186063 -0.001164897085)
(0.009540418613 0.003740287024 -0.00276772727)
(0.0151123755 0.004351295324 -0.0008029525913)
(0.0137140224 0.004289451708 0.001441853984)
(0.0115939727 0.004299232344 -0.0005219750254)
(0.008126435525 0.001828186742 -0.001069572911)
(0.01313992907 0.002357946272 0.002813763183)
(0.01238444767 0.003833744861 -0.001153368768)
(0.008993076575 0.0004769094046 0.001258313406)
(0.007433135145 0.002551954 0.001094489224)
(0.01231269099 0.004082818038 -0.001145030804)
(0.00594418717 0.004036722016 0.0006292606272)
(0.007848240517 0.001625981161 -0.0006163098956)
(0.005361234076 0.0007252970231 0.000255131403)
(0.00946515561 0.002984606203 0.001048875537)
(0.007251199161 0.004303700985 -0.00280739165)
(0.006295078328 0.002302085704 0.001877133498)
(0.00681114377 0.002160169092 0.0001063212488)
(0.01159751264 0.00294866664 0.004626402621)
(0.006462609435 0.0008185146273 -0.0001345258292)
(0.005093998979 0.001700351807 0.0005766744395)
(0.006365683335 -0.0003389435934 -0.001405912659)
(0.008956931653 0.0005788607195 0.001226497286)
(0.008679857104 0.003900095922 -0.002130271936)
(0.004351419018 0.0003541820303 -0.0005028689218)
(0.01055842707 0.005004157325 0.001502443091)
(0.01141287222 0.00546346608 -0.001677640871)
(0.01455052111 0.00451390913 -0.001044403735)
(0.01005373018 0.003385149685 0.0006556146309)
(0.007981018529 0.003228789313 -0.0001944417162)
(0.01575495605 0.004640187921 -3.575986348e-05)
(0.008202821588 0.003541407805 0.0008652671144)
(0.008463965275 0.002376843477 -0.000258522316)
(0.01068955798 0.003379204167 0.0009118271156)
(0.0136693397 0.00408794494 -0.0005045169554)
(0.01203998812 0.003436161374 -0.0002375887556)
(0.01238381182 0.002958523445 0.001858340637)
(0.01018648002 0.003889734366 0.003056184739)
(0.008019612328 0.00313839033 -0.0006143208851)
(0.0113468858 0.004011098007 0.00219959274)
(0.008962882102 0.002288605707 -0.001783569001)
(0.01206255671 0.0007433018598 -0.0002710639704)
(0.006561570826 0.001667370769 -0.001233363523)
(0.0110001605 0.00305272707 -0.00130239747)
(0.01230018924 0.001058330618 -0.001631125287)
(0.005876981161 0.002879390273 -0.002394714014)
(0.009328402761 0.0005334181962 0.0009195563876)
(0.005184067944 0.001931108446 0.0004745371325)
(0.008799491405 0.005883187392 0.0005644569615)
(0.006676414311 0.0003863021076 -8.656861301e-05)
(0.009116625195 0.002348427624 -0.002429557695)
(0.006744393654 0.00152588316 0.003890839574)
(0.005457803107 0.001540531672 -0.000979850514)
(0.006379780376 0.003582699351 -0.0002219811061)
(0.00803415164 0.002020020066 -0.0008707258755)
(0.01123825937 0.003385773385 0.001525319672)
(0.00762441254 0.003416288991 0.0002614844139)
(0.012859688 0.005255194484 -0.001943097467)
(0.01398269153 0.00667309003 0.002070735449)
(0.009771981879 0.006083194724 0.001115238863)
(0.007829991362 0.003283525263 -0.0006900806974)
(0.00962144892 0.003335465718 -0.0005648431209)
(0.01468730173 0.003973450224 -0.0001672166685)
(0.007585702575 0.001327090889 0.001184127026)
(0.01199164622 0.002987115132 0.001114394907)
(0.01270985014 0.003421122059 0.0008626202742)
(0.008728979537 0.003188709171 0.002470922095)
(0.007514934443 0.0008106548112 -0.001444079542)
(0.01323329866 0.004917071583 -0.0004430953127)
(0.01712273502 0.005330104418 0.00191510094)
(0.00859222429 0.002745286169 -0.001467308924)
(0.01400481489 0.003536060582 0.0004304589416)
(0.01104156245 0.003842811772 -0.000672627576)
(0.007352091294 0.00213183547 0.0001713077917)
(0.006628367265 0.001958349212 -0.001052872756)
(0.0096505297 0.002374074456 0.0009309940144)
(0.01086457481 0.004050874626 0.0001241218714)
(0.01054585529 0.006930467804 -0.00310725962)
(0.009093075431 0.002827789434 -0.001338790972)
(0.009820624708 0.006149236368 -0.0009656942776)
(0.00684525026 0.001458022295 0.0003638256725)
(0.009970736903 0.00352993825 9.512555532e-05)
(0.008559564651 0.002860425229 -0.0001665726855)
(0.007798194339 0.000155563673 0.0003011757502)
(0.008597890827 0.003017108714 -0.0004360622575)
(0.01588071345 -0.0006822714564 -0.001451195998)
(0.01438036825 0.004401187125 9.921756936e-05)
(0.01472358629 0.003705309177 -0.0003603137165)
(0.01523333156 0.002537973322 -0.000534036463)
(0.01256343858 0.003150532957 0.001247347215)
(0.01005069156 0.00408479386 -0.0002574694019)
(0.009599343721 0.003824607889 -0.0008380331037)
(0.008246928764 0.001769104418 -0.0004097960004)
(0.006874282042 0.003891141534 -0.0004507623419)
(0.007223669479 0.003267088382 -0.0008547620418)
(0.01340244934 0.002528902723 0.0009061162203)
(0.0112868367 0.002938655523 -0.001243115626)
(0.01497065186 0.005574602637 0.0005404650326)
(0.01803644942 0.007808574955 -0.00103827373)
(0.02279752166 0.003245872835 -0.0005183123855)
(0.01213839721 0.003998210249 3.292735988e-05)
(0.0130966047 0.003240573467 -0.001153890953)
(0.007680352206 0.003432452501 0.00120405249)
(0.01126912973 0.001544860018 0.001423555089)
(0.0110701122 0.003817648106 -0.001235008727)
(0.0125017399 0.003243557498 -0.0004371830705)
(0.01351527194 0.004730009175 0.00130689759)
(0.01100870196 0.003128663307 -0.002014711213)
(0.01025486814 0.003614910051 0.001457673429)
(0.01183975288 0.006184838688 -0.002516435081)
(0.01116711932 0.002174160011 0.002711423472)
(0.01142359484 0.002186460365 0.0001007269774)
(0.009847234276 0.001293818069 -0.001168455931)
(0.01003057657 0.003745113819 -0.001827347338)
(0.004836178955 0.002642155591 0.001038539124)
(0.009766562037 0.001843276573 -0.0004476927553)
(0.008923130108 0.003371310772 -0.0006315869261)
(0.009589027595 0.004185682013 0.0008320364068)
(0.01148446327 0.005558459087 0.001127818437)
(0.00949656935 0.002084128311 0.0009018894843)
(0.01019680887 0.004304934079 0.001434887957)
(0.01212716471 0.003076780073 -0.0004698612091)
(0.01250822609 0.004356931963 -0.0001105712112)
(0.01113703013 0.004159648322 0.001605205089)
(0.01613458815 0.006874780694 0.002914640753)
(0.01538236865 0.006739827636 -6.395139348e-05)
(0.01275516902 0.002215811821 -0.001404523678)
(0.01421982278 0.005328279347 0.0008540808008)
(0.01567477262 0.005212578313 5.699046753e-05)
(0.01195691461 0.003648845926 0.0006050962609)
(0.01378576025 0.005768208987 0.001075354721)
(0.01408890781 0.006835552032 0.0004345265243)
(0.01648164825 0.005795449197 -0.001354526635)
(0.01209877386 0.004276090463 0.002070937758)
(0.006734452608 0.002047465438 0.001244074603)
(0.008912839958 0.002222500001 0.002135317144)
(0.01524862481 0.004156841871 -0.001299589353)
(0.01330022752 0.004862245072 0.0002101795389)
(0.01396668564 0.005027880358 0.0003480240962)
(0.0147325619 0.005565362238 0.0002777326351)
(0.005487526141 0.003008147314 -0.0009729712882)
(0.01205173556 0.005062048309 0.004078170149)
(0.002639961039 0.001125267611 0.0003145979617)
(0.007476679693 0.004204602864 0.002396315349)
(0.006386066561 0.001714610919 0.001686539941)
(0.0102349776 -0.0001766359964 -0.0003298076776)
(0.01100966193 0.002445836481 -0.0009426727883)
(0.01657952765 0.00207310839 0.0005797588103)
(0.01475901152 0.003616828296 -0.001277145572)
(0.0131705504 0.005619968946 0.0006249230649)
(0.006063568433 0.002572078963 -0.000303597729)
(0.01378260139 0.005406897831 -0.001129912604)
(0.01398751071 0.006605757183 -0.0005848419533)
(0.01566848757 0.003622633957 0.0004707634613)
(0.0101685148 0.003119546238 -0.0005802364134)
(0.01128682432 0.005093519247 -0.001130818653)
(0.01417824671 0.00345982775 -0.0004795891753)
(0.01640528554 0.006479291986 0.001236457751)
(0.02178673036 0.008429311477 0.001449638076)
(0.006232070146 0.001847041766 -0.0004679766779)
(0.01095682163 0.002649072965 0.0008389129743)
(0.02020596942 0.007720288636 -0.001452683522)
(0.01705330922 0.007229407581 -0.001186183955)
(0.01449594295 0.004623816403 -0.0004465218804)
(0.01298138638 0.005297631162 -0.001030988883)
(0.01133571748 0.004821852646 -0.002467704854)
(0.008040222597 0.003466706994 0.002413712704)
(0.01300784854 0.005754385974 -0.001002336722)
(0.01416600508 0.004195225386 0.001007405525)
(0.01687232443 0.004304193609 0.002952494456)
(0.01220968183 0.004168211853 0.0008480392612)
(0.01243626803 0.004498901385 -0.002932725797)
(0.01319920947 0.003713637557 0.00113704128)
(0.01153653166 0.002878978614 8.978038803e-05)
(0.01098939232 0.003737685632 0.001309214424)
(0.01318522342 0.002013013916 -0.0001219180115)
(0.01266106947 0.001245087602 0.001033951853)
(0.009952154705 0.003715923482 0.002243278485)
(0.01122428929 0.00305810043 -0.001355489477)
(0.01597719038 0.003690233541 0.000724406715)
(0.01746998356 0.004213684929 0.001358816496)
(0.0131462632 0.002221733603 -0.0008922536895)
(0.01478003863 0.003560199195 -0.001911318366)
(0.01660928872 0.00346082078 -0.001407045343)
(0.00824599958 0.004536388807 0.001015669601)
(0.01980380157 0.00649370507 0.001137897132)
(0.01188381686 0.002422191873 0.000297145438)
(0.01821592863 0.006325481526 0.0004528659187)
(0.01080396584 0.006373685289 0.001405227425)
(0.01712605863 0.007196677251 -0.001008388784)
(0.01476773093 0.00567011634 -0.0003829856825)
(0.01277879849 0.005109625466 -0.0006195242332)
(0.01122723758 0.00306770123 0.0001971064515)
(0.02181766864 0.006472549926 0.001491073688)
(0.01506781859 0.00472481632 0.001056829908)
(0.01065442947 0.005324499542 -0.0004853219789)
(0.01018019277 0.002717538422 -0.001001558108)
(0.01449794305 0.003107533175 -0.001532584247)
(0.01159904881 0.003332451769 -0.002842094207)
(0.01183218024 0.002009044674 -0.001099583755)
(0.0110159341 0.005182196693 0.0009434579963)
(0.02312507776 0.005820083742 -0.0003332205301)
(0.01724974681 0.003963808849 -0.001067513155)
(0.008440574439 0.003213335019 -0.000622486133)
(0.009737239041 0.002197441189 4.914444332e-05)
(0.009827352667 0.001844636834 -0.000493899137)
(0.01121183155 0.002169092615 -0.0005367059028)
(0.01119491214 0.001035830472 -0.0002263972293)
(0.007816123831 0.00134765936 -0.0007055666364)
(0.01567024997 0.003957704666 0.0007213832151)
(0.01127844468 0.003240953106 0.002007931478)
(0.02189374062 0.00542335297 -0.0007207500079)
(0.01029718837 0.003711107632 -0.0003107811722)
(0.01529064658 0.003365526669 0.001637338192)
(0.01158767839 0.005208617981 -0.002748541305)
(0.01094610537 0.002695547845 6.190716245e-05)
(0.0107804991 0.004696069384 0.0007122904048)
(0.01880848537 0.005381989039 0.0009003062197)
(0.01990944362 0.008794696841 0.00104963693)
(0.01742145747 0.004151665697 -4.193036279e-05)
(0.01523252945 0.001886977739 -0.002672970214)
(0.01558994374 0.004833829269 0.0005440760621)
(0.015699724 0.00572602163 -0.001034444469)
(0.01760777052 0.007480038347 -0.0005424558331)
(0.01910322376 0.003140038165 -0.0005725086242)
(0.01659915334 0.004436150912 0.0005067808709)
(0.008329623672 0.003949136861 0.0009767943662)
(0.01442550863 0.003161654112 -0.002109368084)
(0.01240900462 0.005234425741 0.000572401456)
(0.01563147845 0.001676521751 -0.0005681657152)
(0.01190668421 0.005244876412 -7.618206734e-05)
(0.01498893828 0.003928280371 -0.0005135140237)
(0.008603752341 0.004109411681 -0.0008268140446)
(0.01633340076 0.005711587308 -0.002865553107)
(0.01055380203 0.004463424339 -0.001788930242)
(0.009860230876 -1.571415086e-06 0.0002472371492)
(0.005699104138 0.001646172802 -0.001066198595)
(0.007635854443 0.001813209636 0.0001775213689)
(0.01179950073 0.001854894505 0.000348354446)
(0.006793771444 0.002120854351 9.905036637e-05)
(0.01268828208 0.001524383078 0.001660938599)
(0.01417489892 0.0009383062078 0.001547246046)
(0.009000885326 0.001477580833 -0.0002818860808)
(0.01721552052 0.004015982562 -0.001470179783)
(0.01525720479 0.002802895257 -0.0003345350405)
(0.01393937134 0.003774029961 0.0005521743559)
(0.01079610638 0.003463676895 -0.0004097061498)
(0.01726780832 0.004552432544 -0.001269990672)
(0.01012278525 0.002692891248 0.0008922988272)
(0.01599877552 0.004169699566 0.001255758979)
(0.01393534572 0.008448139982 0.001241334028)
(0.01877753645 0.004760705357 0.0006097686838)
(0.01654608489 0.005617013405 0.0005919848981)
(0.01507822637 0.005131419383 -0.0003913012575)
(0.014899031 0.004852304505 -5.591233434e-05)
(0.01279890418 0.00606456937 0.0003172578284)
(0.01456312435 0.004891759432 0.0004163476524)
(0.01141351 0.003975178705 0.001097331142)
(0.0159308635 0.007483738136 0.001564802365)
(0.01337019149 0.005074851185 0.001913729563)
(0.01332503275 0.00309742145 -0.0006778834236)
(0.01527980425 0.00472061005 -0.0002772090521)
(0.005380159242 0.001045815053 0.001622606588)
(0.01458325836 0.003522846852 0.000829346051)
(0.008693560941 0.005225238513 0.0003509412946)
(0.008381439547 0.001072477056 0.0005858017303)
(0.01344216826 0.001167864409 0.0005642526737)
(0.007409611191 0.001069889289 1.458474398e-05)
(0.009175248799 0.00178497344 0.0001272603542)
(0.009883198196 0.002334378695 -0.0004868158997)
(0.01263716062 0.001508684594 -0.0003475635353)
(0.01097945082 0.001741326929 0.000721893091)
(0.006889658874 0.001600376298 1.487296802e-05)
(0.007367608064 0.003644035009 -0.002058214842)
(0.01524171098 0.003457990019 -0.0007329937461)
(0.01058006591 0.002717870971 -0.002006320017)
(0.009968806101 0.001326288982 -0.0004217444804)
(0.01384514954 0.005293258265 -0.0003651057128)
(0.00989793713 0.003461307558 -0.001712583006)
(0.01752687044 0.006255449954 0.001335145232)
(0.022013856 0.005174238228 0.0006143262839)
(0.01131805492 0.003978262897 -0.0006772633853)
(0.008623756654 0.004321071815 -0.0006066251855)
(0.02191552265 0.009477269177 0.0001883792106)
(0.01340709696 0.007180743377 0.0008743763234)
(0.008828368699 0.003493843356 -0.001754956586)
(0.01713361107 0.004742537396 -0.0007828828289)
(0.01006679634 0.003455553863 -0.0006705201345)
(0.01949054709 0.006585424077 0.0006639939479)
(0.01461788381 0.006095870472 -0.000206443816)
(0.01526577974 0.004729205158 0.0003403214221)
(0.01495952004 0.007484998339 0.0008328971515)
(0.01531177 0.004209914347 0.002461488124)
(0.007683805173 0.002915415734 -0.0004509189157)
(0.01535434692 0.005477031404 0.0007992716103)
(0.003909023681 0.001020487715 1.886106467e-05)
(0.007468840136 0.0003064719172 -0.0004968852649)
(0.004243347564 0.0002961224169 8.677828346e-05)
(0.01026992244 0.001179124356 -0.0002699889562)
(0.009057486254 0.0001266471028 0.0003520816246)
(0.005593407138 0.00139591164 8.37417696e-05)
(0.008017733862 0.001670961173 0.0001451250865)
(0.01141723284 0.001578559709 0.0008487517096)
(0.0113345805 0.001277925168 0.001008920038)
(0.01538904417 0.00283513899 0.000467342421)
(0.01176781934 0.0006345292195 0.0005768807428)
(0.0140645564 0.004879465384 0.0006478352157)
(0.01758916891 0.006467601454 -0.001640666249)
(0.01256105511 0.002660150691 -0.001070600306)
(0.0107290889 0.00312971685 0.000759614542)
(0.01699782504 0.006395542164 0.001618040739)
(0.01789644399 0.004052064389 -0.001475751052)
(0.007858052319 0.002691092427 -0.001043221066)
(0.01945440882 0.006588518796 0.001246541657)
(0.01786116349 0.007575612008 -0.0003091886791)
(0.01697548909 0.00531447068 0.001109370253)
(0.01492297123 0.005441596564 0.0002588313721)
(0.02168312823 0.006441349987 -0.001028632857)
(0.01415975837 0.002647848833 -0.0008942931437)
(0.02181248295 0.007786730286 0.003105771479)
(0.01348140028 0.004910028777 0.0001448489118)
(0.01705428839 0.005143542252 -0.0004826507863)
(0.009267073248 0.003639131064 -0.0008371655348)
(0.01804883542 0.004866661481 -0.002316169204)
(0.01458150768 0.002107087368 0.001137459604)
(0.01114942241 -0.0001500315433 0.001046963663)
(0.006868936238 0.0001267915714 0.001083838496)
(0.00653508251 0.0001953226461 -7.646823022e-05)
(0.01156561249 0.0008265763526 -0.00071059261)
(0.01271887632 0.0002704091067 -8.97624972e-05)
(0.006142263098 0.0004823724387 -0.0001720353356)
(0.008543135231 0.002248254751 0.0006994366474)
(0.008393033893 0.002181149297 0.001297856006)
(0.01071840922 0.002029356339 -0.0003027241495)
(0.01471525297 0.004405230732 0.002658794051)
(0.01131530783 0.001416897129 -0.00140763159)
(0.01264756272 0.0003092000912 -0.0005276771673)
(0.0153071406 0.002383555253 -0.0002847327135)
(0.01527736529 0.001485571211 -0.0002635178963)
(0.009579503435 0.003898121206 -0.0002424771989)
(0.02008365724 0.005528220935 -0.0002149409161)
(0.01798278331 0.004751364222 -0.0001089334546)
(0.01216105278 0.00509302217 -0.001090865058)
(0.01567916133 0.004857673123 -0.002878333463)
(0.01331342839 0.004317916459 -0.0005141922526)
(0.01026014623 0.003746540815 -0.001191262409)
(0.01128129967 0.004921507832 -0.00104178852)
(0.01387361674 0.00465398916 -0.002649595417)
(0.02038618023 0.00753390201 0.0004728064972)
(0.011407389 0.002496941937 -0.0008732008283)
(0.02049091823 0.005741249104 -0.001229700371)
(0.01691065191 0.009375876562 -0.001315838034)
(0.01836231585 0.0048515299 0.0006177851525)
(0.009569490058 0.002385780253 0.0005107583966)
(0.0157447161 0.005187425249 0.000603077831)
(0.01044461745 0.0003060974676 0.0007155807666)
(0.01170423902 3.539496909e-05 0.0004425043261)
(0.01072933279 0.001047136991 -0.0003083445396)
(0.0105841556 0.001495161119 0.001130410033)
(0.01402616909 0.0002446485986 0.0002298305191)
(0.01090925393 0.001014269095 -0.0007380789522)
(0.006007319926 0.0007347796738 0.0003783186018)
(0.00740891011 0.0003502907976 0.0002407246047)
(0.01253075953 0.001095145824 -0.0008400966477)
(0.006525002972 0.001310814488 -0.00199946796)
(0.01574676329 0.0001954850447 -0.000933761314)
(0.007516529431 -0.0003902412033 0.0001554796858)
(0.006436957166 0.001201906926 0.0003330432266)
(0.00213266528 0.0004169669649 -0.0001111112395)
(0.01279617988 0.001549906845 -0.0007985946772)
(0.01114555328 0.002985783122 -0.002286671778)
(0.01757107524 0.005332763536 -0.0002487530077)
(0.01233278477 0.003703709059 -0.002235419819)
(0.01567138284 0.00463288773 -0.0004603741918)
(0.01119449202 0.004210484849 -0.000616635379)
(0.01462154813 0.004975592177 -0.0003209020356)
(0.009855588929 0.00156197846 -0.001167541563)
(0.01018662378 0.003912405911 0.0003555230121)
(0.005820500056 0.002402399481 -0.0003613601209)
(0.01852771208 0.006075120466 0.0006505832608)
(0.01523310076 0.004552599561 -0.00044734505)
(0.006970033886 0.002365613103 0.0005067022863)
(0.0097415251 0.003649918178 -0.0003733998004)
(0.01834846614 0.005968416318 0.001774673801)
(0.008876867158 0.0001543058268 2.290040044e-05)
(0.008695969957 -0.0001889191244 0.0005144790825)
(0.0096438165 -0.0001933135793 -0.000458103171)
(0.00646704819 0.0003310462976 0.001525913161)
(0.001810659398 -0.0001985835477 9.628430541e-05)
(0.007685794857 0.0003701242706 -6.228588639e-05)
(0.01210635636 0.002632396981 0.0003437015682)
(0.009124664836 0.001638871009 -0.0003273044945)
(0.008034039109 0.0008156674429 -0.0005679822899)
(0.008495646074 0.001390016747 -0.001241335194)
(0.009300007243 0.001412446451 -0.0003560882219)
(0.01299045629 0.0007344075413 0.0003625553474)
(0.006746115355 0.0006036072671 -0.0005392707466)
(0.01486700973 0.002596655966 -0.001031384999)
(0.005638824499 4.768307963e-05 0.000303662586)
(0.0121023507 0.003030502416 -0.0004259148285)
(0.007258893331 0.00206224861 -0.0001775749558)
(0.01313458127 0.005749070663 -1.619343729e-05)
(0.01493369636 0.00479344896 -0.001752774753)
(0.02171922438 0.005218447408 -0.0002251921284)
(0.02060816057 0.004142830852 0.0007647690317)
(0.01051637535 0.00288218697 -0.0007609735077)
(0.02284736603 0.003389325566 -0.001415419939)
(0.01576806834 0.006954488004 0.0006943593391)
(0.01728380883 0.003440641106 0.0006043770166)
(0.007760196365 0.0003051901074 0.0003142939076)
(0.008045267459 0.0007396858762 -0.0002119454152)
(0.01505845308 -0.0001532054544 -0.0001464548993)
(0.01198536903 0.0009987515105 -0.0005310983186)
(0.01017054057 0.0001463423175 0.0004668901702)
(0.009863505111 -0.0002992612596 -0.0007058475332)
(0.006854563925 0.0003877015712 -9.532183301e-05)
(0.004792200928 -0.0002719902999 0.0005446268153)
(0.01297975738 -3.062433986e-05 0.0008348212914)
(0.007996757059 0.0006742473579 0.0003815881142)
(0.005561942501 0.001994226091 0.0006847770046)
(0.01530175265 0.002707307439 -0.0002932979319)
(0.01462959669 0.000824171141 1.316197892e-05)
(0.01191025951 0.001839163854 0.0009351813467)
(0.0140692603 0.004069000622 -0.0003332162411)
(0.01099258465 0.0007629187071 0.001527613539)
(0.01083633451 0.00339480594 -0.0005557795818)
(0.008689347662 0.0002043662144 0.000108873733)
(0.01053977234 0.003406552008 -0.0006132762939)
(0.007840660411 0.001066779497 -0.0003535326861)
(0.005490654537 -1.885958644e-05 8.545825567e-05)
(0.008837656989 0.0007042418709 -0.001115615531)
(0.01291245096 -0.0001119265065 -0.0003026257032)
(0.008938749398 0.0002098145488 -0.0004812297033)
(0.008438180273 0.0002117983928 0.0004491326896)
(0.01186536468 0.001142588983 0.0002993108033)
(0.008891351275 -0.0001804594008 -0.0004272713201)
(0.005558115259 -0.0002311964129 -0.0003871933314)
(0.008381064124 0.0008476902156 0.0003109093291)
(0.01279256067 0.0005577994768 -0.0007182826494)
(0.01708198945 0.001667411967 0.001132119111)
(0.01001928278 -0.0004155446212 -9.187693295e-05)
(0.009695299558 -0.0001870681473 0.0009608236688)
(0.009613512743 0.0001602981544 0.0007854661002)
(0.008106187544 0.0003959300782 -0.0003661932724)
(0.009138567265 -0.000206600062 0.001152017586)
(0.003996123559 5.587699842e-05 -0.0004482084421)
(0.009219829205 0.0002358677019 0.0001397069822)
(0.006938752232 0.0002970623549 0.0007798865537)
(0.005674634746 -0.0005907240968 0.000477943012)
(0.008079964749 0.0001064291164 -0.000185732925)
(0.007924677227 0.0003048978818 -0.0004309130425)
)
;

boundaryField
{
    flow
    {
        type            zeroGradient;
    }
    obstacle
    {
        type            calculated;
        value           nonuniform List<vector> 
30
(
(1.53057598e-21 4.101165986e-22 1.069976064e-22)
(1.295141978e-21 3.470322476e-22 1.850537707e-21)
(4.053128429e-22 1.086032486e-22 4.537559861e-22)
(0 0 0)
(1.293458131e-21 3.465810605e-22 -6.315295097e-21)
(-1.906066053e-21 -5.107288606e-22 -1.969142156e-21)
(1.601270031e-21 4.290590124e-22 -8.00037024e-22)
(1.229292538e-21 3.293879419e-22 -3.429385039e-22)
(2.269076199e-21 6.079971361e-22 3.447025837e-21)
(6.74646128e-22 1.807708855e-22 -1.351300021e-22)
(5.208295982e-21 1.395558698e-21 -7.701433411e-21)
(-1.253703417e-22 -3.359288186e-23 -8.443116942e-22)
(1.063467072e-21 2.849551437e-22 -2.910230644e-21)
(1.933298834e-22 5.180258597e-23 -1.47495969e-21)
(6.212570105e-22 1.664653145e-22 -2.092318502e-21)
(0 0 0)
(2.015997235e-21 5.40184832e-22 -1.013857252e-21)
(2.969078414e-22 7.955621648e-23 1.91471104e-22)
(0 0 0)
(0 0 0)
(0 0 0)
(1.688773621e-21 4.525055266e-22 -2.495608177e-21)
(1.390189721e-21 3.725002139e-22 1.519230465e-21)
(0 0 0)
(-7.191046975e-24 -1.926835224e-24 -2.610554213e-21)
(3.223278935e-22 8.636749892e-23 1.942431483e-22)
(0 0 0)
(0 0 0)
(0 0 0)
(0 0 0)
)
;
    }
    frontAndBack
    {
        type            empty;
    }
    procBoundary1to0
    {
        type            processor;
        value           nonuniform List<vector> 
21
(
(0.01055824921 0.002003422607 -0.0007839061222)
(0.00319025346 0.001422887152 -0.0006387190552)
(0.008342629953 0.003171084449 -0.001617696471)
(0.00762283157 0.002285565042 0.001779142176)
(0.01028497026 0.003540610417 -0.0004644820225)
(0.01011274587 0.005259878733 -0.0005743782894)
(0.003432443864 0.002091394309 0.001283544397)
(0.009444355874 0.001896059327 -0.0008251664901)
(0.01327493827 0.001315527467 -0.0007678139524)
(0.009812285465 0.0002661338232 -0.0006636146346)
(0.008311541673 0.0004507444931 0.0001068095049)
(0.01371206819 0.001279541149 -0.001589856052)
(0.008503072825 -0.0001426945595 -0.0009281871879)
(0.01635487105 -0.0001359179572 -0.0004468995068)
(0.005590731706 2.847500596e-05 0.0001526363786)
(0.0133491424 -0.000348705284 -0.0003177163833)
(0.01272233916 -0.0003010541589 -0.0001873012121)
(0.01071095701 -0.0001375571275 0.0002659015218)
(0.009497179407 -0.0003898159111 0.0004839848818)
(0.00977647182 0.0008748591894 -0.0005819972627)
(0.006624016956 0.0004638189421 -0.0002309761412)
)
;
    }
    procBoundary1to3
    {
        type            processor;
        value           nonuniform List<vector> 
36
(
(0.0227680622 0.00606165377 -0.003281130321)
(0.01499131461 0.006820696222 4.981847699e-05)
(0.01633815664 0.006613447407 -0.002750468118)
(0.01432861699 0.003548582027 0.0005475343677)
(0.0227680622 0.00606165377 -0.003281130321)
(0.01232515073 0.00206226318 0.0007774345531)
(0.01620151485 0.002387582001 -0.0004457757374)
(0.01500549639 0.004625374394 -0.001906071614)
(0.01824329333 0.006210167049 -0.0005794593585)
(0.01564605504 0.003062489636 0.0007854245364)
(0.01792803669 0.003703108169 0.0003099495269)