/*--------------------------------*- C++ -*----------------------------------*\
| =========                 |                                                 |
| \\      /  F ield         | OpenFOAM: The Open Source CFD Toolbox           |
|  \\    /   O peration     | Version:  2406                                  |
|   \\  /    A nd           | Website:  www.openfoam.com                      |
|    \\/     M anipulation  |                                                 |
\*---------------------------------------------------------------------------*/
FoamFile
{
    version     2.0;
    format      ascii;
    arch        "LSB;label=32;scalar=64";
    class       volVectorField;
    location    "0.004";
    object      momentumMean;
}
// * * * * * * * * * * * * * * * * * * * * * * * * * * * * * * * * * * * * * //

dimensions      [1 -2 -1 0 0 0 0];

internalField   nonuniform List<vector> 
546
(
(0.005561137621 0.001553816331 3.523645253e-05)
(0.005208971752 0.001527116132 2.538895886e-05)
(0.005049213098 0.001410033007 5.089183978e-05)
(0.004807211425 0.00136426382 -4.073641689e-05)
(0.004688555474 0.001262365246 -4.493676847e-05)
(0.004640219134 0.001253192681 -0.0001551345149)
(0.004617602141 0.001220973022 -0.0001407603062)
(0.00445157974 0.001295385653 -1.599907063e-05)
(0.004308553391 0.001179179505 0.0001092109095)
(0.004128484331 0.001172220809 -2.70673673e-06)
(0.00394221685 0.001147788773 8.040787214e-05)
(0.003844027294 0.001002607734 2.371633494e-05)
(0.003695159963 0.001065845681 -0.000120952758)
(0.003688875572 0.0009613306466 0.00010574734)
(0.003597342015 0.000984780531 2.69644095e-06)
(0.003496218928 0.0009412873664 -0.0001042353032)
(0.003346503446 0.0009533488392 -1.809111402e-05)
(0.003364887726 0.0008777385106 5.3279207e-05)
(0.003229668131 0.0009169367305 5.558152874e-05)
(0.003165599996 0.0008137474252 -2.251412334e-05)
(0.003250499893 0.0008398122943 -7.250630227e-05)
(0.003281375011 0.0008814095323 -6.580441091e-05)
(0.003129431441 0.0008855074429 0.0001282670364)
(0.003224921783 0.0008023600118 0.0001994468669)
(0.003243991444 0.0008134941947 -1.552532943e-05)
(0.003222515788 0.0008856523236 -5.352165536e-05)
(0.003180115286 0.0008490901543 2.502018483e-05)
(0.003222197297 0.0008161718916 9.680460059e-05)
(0.003343440813 0.0008535126805 0.0001276278222)
(0.003612732146 0.0006875245819 -1.932740207e-05)
(0.008444034249 0.002632935494 -0.0001041878638)
(0.008234478037 0.002500868284 -8.771368811e-05)
(0.007908219587 0.002331252476 -3.850609403e-05)
(0.007692146421 0.00230237702 -2.593463438e-05)
(0.007522308562 0.002070222619 -2.495895452e-05)
(0.007375639989 0.002086501011 -0.0001334758524)
(0.006954316414 0.002012410237 -6.117983706e-05)
(0.006829869533 0.001971061886 -2.674820398e-05)
(0.006629264596 0.001957118922 -0.0001155174169)
(0.006445927437 0.001915105813 -6.378793701e-05)
(0.006240697183 0.001933522463 5.419234804e-05)
(0.00607842124 0.001712993154 -1.625202792e-07)
(0.005913893776 0.001730749173 -5.409083276e-05)
(0.005756561988 0.00156602137 0.0001252135265)
(0.005639019503 0.001560136225 8.007399033e-05)
(0.005474243262 0.001617818811 -8.899871015e-05)
(0.005349191113 0.001516580337 -9.029593566e-05)
(0.005224338297 0.001396126229 -3.75894047e-05)
(0.005149377678 0.001506440772 -1.438128995e-05)
(0.005039224616 0.001351097982 7.44988772e-06)
(0.004925787047 0.001258040332 -8.387301271e-05)
(0.004802905166 0.001336967049 0.0001170455876)
(0.004884905944 0.001327261387 -7.887026271e-05)
(0.004824872492 0.001157944755 2.341145391e-05)
(0.004747384913 0.00127067459 -1.511270946e-05)
(0.004692371662 0.001294258523 -7.856580279e-05)
(0.004732018246 0.001242920979 9.037470473e-05)
(0.004682411078 0.001143452428 3.598494856e-05)
(0.004754698434 0.001130004812 4.831723792e-06)
(0.005076027208 0.0007173033483 -5.897537266e-05)
(0.01032643499 0.003308844614 -0.000129519744)
(0.01021017944 0.003199962181 -0.0001529985001)
(0.009963489802 0.00316888365 -0.0001310273713)
(0.009608393875 0.002923212946 -0.0001244194867)
(0.009231214926 0.002732433898 -9.348182257e-06)
(0.008850963298 0.002731809593 -7.105113765e-05)
(0.008690773515 0.002663759898 -0.0001778081211)
(0.00834928731 0.002578118318 -0.0001908417089)
(0.008224446367 0.002474254886 -0.0001173753896)
(0.008039014101 0.002401889915 -7.20534804e-05)
(0.007989014418 0.002506160905 -4.376308081e-05)
(0.007779346996 0.002331480837 4.496165765e-05)
(0.007520116589 0.002207149138 5.174964536e-05)
(0.007261634516 0.002114594754 -1.5773191e-05)
(0.007055971092 0.002083090614 2.630481268e-05)
(0.007009307321 0.002050313434 2.361040631e-05)
(0.006931198471 0.001980166637 -6.521431118e-05)
(0.006717010325 0.001900956178 -2.859285257e-05)
(0.006606802422 0.001939987389 -3.885146549e-05)
(0.006485541277 0.00180369236 2.0128996e-05)
(0.006356808821 0.001709084859 -2.096498287e-05)
(0.006421100751 0.00168282545 -3.12718914e-05)
(0.006353849288 0.001760632601 -6.129037463e-05)
(0.006068265556 0.00164872971 -1.807685492e-05)
(0.005899857282 0.001609404949 -1.424402679e-05)
(0.005827024543 0.001543281181 4.542182594e-05)
(0.005815706124 0.001527698802 1.796072667e-05)
(0.005919354056 0.00148815402 3.713599889e-05)
(0.005884482726 0.001277792564 -5.850480809e-06)
(0.006047643577 0.0008374702316 -5.130159974e-05)
(0.01146048556 0.003617582864 -3.294254716e-07)
(0.01144408375 0.003663125791 -3.742697193e-05)
(0.01131375232 0.003710729571 -0.0001284828297)
(0.01104795563 0.003623332876 -0.0001312812711)
(0.01087320608 0.003482761759 -0.0001199764203)
(0.01059316841 0.003233292208 -6.787165222e-05)
(0.01038920551 0.00327171231 -6.155259251e-05)
(0.01027093216 0.003232310478 5.525847083e-05)
(0.009896189763 0.003119213819 -4.066122447e-05)
(0.009657548194 0.003001956714 -3.038914373e-05)
(0.009485181137 0.002913355874 -2.049163459e-05)
(0.009159830516 0.002828667228 -1.595913803e-05)
(0.008967390709 0.002774860745 -9.06331883e-05)
(0.008786167681 0.002712410251 -0.0001396119353)
(0.008566897697 0.002571057334 5.508535945e-05)
(0.008327509764 0.00242403345 -4.524759993e-05)
(0.00823032421 0.002417641397 9.939983082e-05)
(0.0080731444 0.002333014041 4.168478938e-06)
(0.007926053346 0.002361671295 -3.262294777e-05)
(0.007814866062 0.002259739302 3.137183236e-05)
(0.007660725864 0.00205483636 0.0001041724924)
(0.007410884869 0.001987756588 3.038689016e-05)
(0.007270523498 0.002113660699 -5.554457997e-05)
(0.007144531727 0.002086601574 1.002987663e-05)
(0.007090575812 0.00196671735 -1.345934832e-05)
(0.006998829923 0.001875819685 -7.319324328e-06)
(0.006829682559 0.001783112001 -3.778853808e-05)
(0.006875316937 0.001666435494 2.2150812e-05)
(0.006856320285 0.001439499995 2.253589109e-05)
(0.006918532321 0.001103355511 0.0001182186152)
(0.01191912604 0.003663764593 -1.840076357e-05)
(0.01193607304 0.003776513192 7.632349389e-05)
(0.01210921937 0.00397804653 4.273601064e-05)
(0.01213934618 0.003936943468 -2.729974454e-05)
(0.01204955148 0.003837172408 -1.505929189e-05)
(0.01182486189 0.003852935293 -5.294618787e-05)
(0.011603722 0.003699742658 1.995701457e-06)
(0.01141548463 0.003663194112 -6.297837488e-05)
(0.01130484801 0.003690652052 -0.0001945791501)
(0.01099007102 0.003480492333 -9.829293174e-05)
(0.01076632202 0.003409621668 -0.0001477352353)
(0.01067862611 0.003380546153 -2.450841075e-05)
(0.01056162 0.003241376315 -5.252230632e-05)
(0.01029096372 0.003312217115 3.596102119e-05)
(0.01000485844 0.003091064616 -5.617546728e-05)
(0.009731667646 0.00295496179 -6.292787443e-05)
(0.009428801566 0.00279436296 -4.107470749e-06)
(0.009296493455 0.002844761304 1.711594504e-05)
(0.009028642831 0.002670574859 -2.590815664e-05)
(0.008794565824 0.002601305168 -1.102289525e-05)
(0.00866987101 0.002536745328 -2.243835079e-05)
(0.008367947196 0.002356185023 -7.10174489e-05)
(0.008226513088 0.002369550628 -4.475009784e-05)
(0.008138227146 0.002362925885 5.21678885e-05)
(0.008043758292 0.00224215771 0.00010293315)
(0.007952850026 0.002185447064 5.162392271e-06)
(0.008087830253 0.002113857269 -8.694500895e-05)
(0.007853271284 0.001916250176 -6.873270622e-05)
(0.00777583281 0.001700312974 -8.292766599e-06)
(0.007554277583 0.001389940294 -3.614401352e-05)
(0.01183515913 0.003460049433 -8.994336461e-06)
(0.01204236332 0.003653060867 -1.905574088e-06)
(0.01231375398 0.003841754809 3.931201951e-05)
(0.01241167971 0.003988623469 2.79508794e-05)
(0.01244886412 0.003996108381 1.308522367e-05)
(0.01243315513 0.004142545845 3.554432736e-05)
(0.01245723477 0.003989295128 -4.021851893e-05)
(0.01228526757 0.003892378746 9.251000951e-06)
(0.01218908566 0.003967939764 -1.29030069e-05)
(0.01213675686 0.00396146576 -2.745319386e-05)
(0.01195871015 0.003840002409 -5.237688755e-05)
(0.01174314948 0.003755234206 -6.43942803e-06)
(0.01141856166 0.003687101608 -1.167087413e-05)
(0.01124540475 0.003611666501 9.544209745e-05)
(0.0111082473 0.003558361442 5.493241614e-05)
(0.01090205593 0.003409344181 1.766307232e-05)
(0.01061099212 0.00327058244 -6.571959322e-06)
(0.010506081 0.003243165689 1.938383919e-05)
(0.01023887413 0.003209503842 4.788051421e-05)
(0.00991908868 0.003010936771 -2.598700944e-06)
(0.009663565354 0.002932302552 -5.633216037e-05)
(0.009419844089 0.002749683462 5.644478939e-05)
(0.009348215736 0.002713969759 -9.456505671e-05)
(0.009293863618 0.002709241286 3.484699819e-05)
(0.009162379195 0.00261661984 6.334197441e-05)
(0.008948401172 0.002407517104 1.108388552e-05)
(0.008766711949 0.002340030198 -5.60867159e-05)
(0.00870089602 0.002171776635 -0.0001039186754)
(0.008651869777 0.002020957803 1.772718858e-05)
(0.008444411815 0.001671674129 -8.588927437e-05)
(0.01154345494 0.00306516207 -2.036697677e-05)
(0.0119726113 0.003377130642 1.676564972e-05)
(0.01224114112 0.0036338534 -8.166333991e-05)
(0.01249204767 0.00384050912 -4.137069659e-05)
(0.01265779938 0.003910407769 -3.211793723e-05)
(0.01306344103 0.004181567441 -5.55210036e-05)
(0.0130500165 0.004216567162 1.224524526e-05)
(0.01300802982 0.00422303575 -9.659353153e-06)
(0.01296850344 0.004138171552 5.567070097e-05)
(0.01298236495 0.004162373323 0.000102775328)
(0.01276493614 0.00420876835 4.782221932e-05)
(0.01256877306 0.004130444505 2.361431712e-06)
(0.01253538568 0.004047123508 2.956205329e-05)
(0.01237134966 0.004054494885 -2.456407007e-05)
(0.01194507541 0.003939644607 -5.668830473e-05)
(0.01171686248 0.003835584552 -1.169715498e-05)
(0.0114891915 0.003602389539 -7.103209454e-05)
(0.01114472237 0.003523503049 -8.636274149e-05)
(0.01109138768 0.003526350189 1.992483081e-06)
(0.01081516588 0.003440756355 -1.267614838e-05)
(0.01069869932 0.003259710949 6.849629311e-06)
(0.010614497 0.003199649952 -7.235883477e-05)
(0.01036389079 0.002958475413 -6.668301273e-05)
(0.01029537738 0.00292937074 -2.587379492e-05)
(0.01028417243 0.003025785942 6.23198623e-06)
(0.01008670977 0.002861604646 3.750280707e-05)
(0.009829452179 0.002648861915 7.800050221e-05)
(0.009658120412 0.002500049149 7.483883958e-05)
(0.009401394334 0.002296616789 -7.114084892e-06)
(0.009209422474 0.002006646748 1.108369419e-05)
(0.01103746527 0.002555797749 -2.335468898e-05)
(0.01141495929 0.002881853196 -3.988277152e-05)
(0.01198379533 0.003187266811 -2.867516664e-05)
(0.01248566625 0.003580040583 -7.256070573e-06)
(0.01272044822 0.003682611806 -5.10805804e-05)
(0.0127624149 0.003938510703 -8.609379336e-06)
(0.01312644826 0.004126131089 1.378009748e-05)
(0.01330775869 0.004236069591 5.006678572e-05)
(0.01325587521 0.004243536356 -1.405153167e-05)
(0.01324177254 0.004271699498 -6.106227999e-05)
(0.0132579439 0.004364211921 -4.963711356e-05)
(0.01323988261 0.004348168544 1.088369886e-05)
(0.01299673105 0.004302544098 2.875302996e-06)
(0.01279314548 0.004313370858 1.505961362e-05)
(0.01281951261 0.004277376634 4.271059829e-06)
(0.0127330829 0.004153439179 6.86742305e-05)
(0.01252584408 0.004050046169 4.758605994e-05)
(0.01225577291 0.003904308689 1.451205025e-05)
(0.01208742885 0.003912117815 6.891725252e-05)
(0.01205318621 0.003802078852 -4.21892954e-05)
(0.01188706943 0.003637655509 6.617342569e-06)
(0.0115954989 0.00349013488 2.41471745e-05)
(0.01139040893 0.003383789815 3.266528602e-06)
(0.01109157401 0.003172634212 3.782143751e-05)
(0.01078756456 0.003242607322 4.422236002e-06)
(0.01058396813 0.003118331209 9.684727625e-05)
(0.01040345319 0.002939513222 7.526157385e-05)
(0.01032522017 0.002770470576 8.909179209e-05)
(0.01016353825 0.002602262282 7.497339101e-05)
(0.00994778367 0.002301877187 3.157758297e-05)
(0.01054531863 0.002030092349 -1.579931796e-06)
(0.01096997913 0.002382980351 -7.562024155e-06)
(0.01140255098 0.002694377418 -1.090444725e-05)
(0.01175300023 0.003009752746 -2.170875474e-05)
(0.01237029648 0.003342016738 5.155026299e-05)
(0.01266542518 0.003635857904 1.430764832e-05)
(0.01287306409 0.003864848209 1.9020332e-06)
(0.01313480443 0.004054223894 1.758989258e-05)
(0.0132827909 0.004274240604 2.051382216e-05)
(0.01338271176 0.004275790977 -7.314318367e-06)
(0.01348652408 0.00436004172 -5.087582951e-05)
(0.0135974768 0.004480352619 6.789719284e-05)
(0.01371201184 0.004485480285 2.060195809e-05)
(0.01374485411 0.004511272263 -7.04364475e-07)
(0.01369327526 0.004455531196 -5.231384624e-06)
(0.01360798153 0.004496118522 -1.441901956e-05)
(0.01338660102 0.004394203565 -2.173977107e-05)
(0.01329285133 0.004239350907 -4.6042252e-05)
(0.01310380822 0.004187453467 -2.106393332e-05)
(0.0127837358 0.004114952026 -1.864951053e-06)
(0.01251107807 0.004034831721 -5.232048061e-05)
(0.01232344227 0.003867477372 -1.95897418e-05)
(0.01194318606 0.003676887884 -8.506845284e-05)
(0.01183714918 0.003589307572 5.843688738e-06)
(0.01161551758 0.003475965744 -8.544906951e-06)
(0.01148211758 0.003408743556 -9.610791365e-05)
(0.01122338956 0.003262117355 -2.952865883e-05)
(0.01099043719 0.003054227658 -3.340957495e-05)
(0.01072464668 0.002848217737 -5.865407894e-06)
(0.01057766398 0.002587126574 -3.762933674e-05)
(0.00988313741 0.001522599096 1.538186192e-05)
(0.01024044536 0.001821208493 4.103041153e-05)
(0.01067650353 0.002149224523 5.35134493e-05)
(0.01112941831 0.002449527368 4.055676856e-05)
(0.01153109428 0.002832861462 4.131948497e-06)
(0.01195150541 0.00319420183 -3.896496478e-05)
(0.01249474045 0.003463275226 -4.637284148e-05)
(0.01280640583 0.003732252472 -5.424567569e-05)
(0.01324596428 0.003951224885 -6.730650922e-05)
(0.01354908296 0.004177806021 -4.430561503e-05)
(0.01372253658 0.004264482039 -9.047208117e-06)
(0.01381913625 0.004358395579 -7.933607696e-05)
(0.01388828544 0.004425875462 3.847517039e-06)
(0.01398112659 0.004569276089 -1.394537167e-05)
(0.01401285535 0.004607336966 -6.551518708e-05)
(0.01397107981 0.004605016907 -6.874739259e-05)
(0.01396969529 0.004593136707 -4.374792339e-05)
(0.01374806293 0.004557993747 -9.070716541e-05)
(0.01358492596 0.004421284291 -7.44103385e-05)
(0.01348731436 0.004396830591 -4.060585789e-05)
(0.01332406521 0.004324318621 -9.28237013e-05)
(0.01312529995 0.004178790217 -4.94681722e-05)
(0.01299527596 0.004106621705 1.47609294e-05)
(0.01254580831 0.003860046093 -2.512923838e-05)
(0.01241004837 0.003803799947 5.080295447e-05)
(0.01219142209 0.003701292648 -4.406073142e-05)
(0.0119635013 0.003577716013 -3.300024064e-05)
(0.0117903266 0.003446860138 1.398465209e-06)
(0.01139973183 0.003150409803 9.227785614e-06)
(0.01118826308 0.002855842103 1.805526188e-05)
(0.009608840369 0.001168139205 -1.813297555e-05)
(0.009882629897 0.00142643146 -6.427434494e-06)
(0.01019215396 0.001721680894 -4.485486784e-05)
(0.01057604357 0.001996675519 -1.432960427e-05)
(0.01096375821 0.002295165344 1.332423389e-05)
(0.01137491932 0.00254980314 7.243985677e-05)
(0.01186053127 0.002966561066 2.17211176e-05)
(0.01243710487 0.003270774808 3.790951712e-05)
(0.01286837037 0.003565568446 2.66126061e-05)
(0.01335027879 0.003838787933 -4.157433998e-05)
(0.01367939993 0.004078233758 -2.597652321e-05)
(0.0138813139 0.004295184507 -5.006774611e-05)
(0.01404791184 0.004425743503 -3.939343732e-05)
(0.01413353989 0.004500761929 3.250981207e-05)
(0.01417281035 0.004608430037 2.968246828e-05)
(0.01418405702 0.004565879763 -8.464900112e-07)
(0.0142027274 0.004681548991 4.263657889e-05)
(0.01425735711 0.004722821611 1.203318784e-05)
(0.01402640832 0.004642543215 5.016060343e-06)
(0.01401028753 0.004555540956 1.641847428e-05)
(0.01384216056 0.00452736157 2.828039285e-05)
(0.013697509 0.004444837745 -5.721908266e-05)
(0.01346766945 0.004362648499 -3.279738331e-05)
(0.01329821396 0.004254493312 -2.040543761e-05)
(0.0128774693 0.004098328679 1.163288173e-05)
(0.01266562769 0.003910738159 7.628641468e-05)
(0.01255124778 0.003775265693 3.550117426e-05)
(0.01260407022 0.003691237169 4.655400156e-05)
(0.01246497608 0.003538395098 1.775923411e-05)
(0.01196509762 0.003252445332 1.661536356e-05)
(0.009251672023 0.0008784719411 3.59820944e-06)
(0.009485455397 0.001092775619 -8.793697509e-06)
(0.009799788145 0.001314825656 -7.147829566e-06)
(0.01014078478 0.001524816216 -2.206684962e-05)
(0.01052888221 0.001833089014 -1.135234821e-05)
(0.0108671232 0.002151858 -2.390070154e-05)
(0.01135703348 0.002438184404 3.926313005e-05)
(0.01178430361 0.00265389933 -1.951323675e-05)
(0.01226838285 0.003010777263 3.934914375e-05)
(0.01256261297 0.003358425358 8.486907695e-06)
(0.01299240095 0.003670527766 -6.495318415e-05)
(0.01331183033 0.003859440549 -6.111457743e-06)
(0.01368610751 0.004168736614 2.605939766e-05)
(0.014019994 0.00434427603 2.12894246e-05)
(0.01415741479 0.004436411734 7.893277096e-05)
(0.01443705365 0.00463974143 0.000104144916)
(0.01448050479 0.00472556019 8.544979784e-05)
(0.01453029125 0.004731874143 3.432623406e-05)
(0.01463389529 0.004795098815 9.187671755e-06)
(0.01450347076 0.004768989158 4.21313726e-06)
(0.01432502045 0.004694247929 3.113032151e-05)
(0.01430418237 0.004729619524 5.938027255e-05)
(0.01405433745 0.00462035142 -1.362904211e-05)
(0.01390319762 0.004507137896 -3.701343127e-05)
(0.01381081329 0.004371582004 -3.897350385e-06)
(0.01373544455 0.004221697813 -3.71708019e-05)
(0.01341040093 0.004077073327 -1.94929793e-05)
(0.01300374316 0.003868835681 -3.044025348e-06)
(0.01278432543 0.003813969983 1.57657333e-05)
(0.01282401935 0.003617864388 4.284430067e-05)
(0.009002472573 0.0006077240596 -3.212068255e-05)
(0.009191292987 0.0007976899905 -3.531284242e-05)
(0.009487655931 0.001024212937 -2.345132739e-05)
(0.009643353475 0.00117827118 -5.874013798e-06)
(0.01004161118 0.001433600385 -2.178602076e-05)
(0.01043144314 0.001691346798 -8.18713353e-06)
(0.01073681619 0.001953876819 -4.278139482e-06)
(0.01102691476 0.002231321199 -2.14520573e-05)
(0.01147554375 0.002601778148 -4.101987571e-05)
(0.01183008963 0.002851542866 -2.09982557e-05)
(0.01228096113 0.003103373995 1.687330449e-05)
(0.01288664157 0.003502041003 -6.463994877e-05)
(0.01337560017 0.003764663889 -7.99795516e-05)
(0.01368533017 0.004019075176 -2.171918025e-05)
(0.01395593433 0.004219104938 3.762336065e-05)
(0.01415112932 0.004409151967 4.74335844e-05)
(0.01434060455 0.004571411408 3.339478065e-05)
(0.01450728568 0.004657941039 7.794980121e-05)
(0.01461912089 0.004759070248 5.272494603e-05)
(0.01474414388 0.004790186362 5.548573743e-05)
(0.0147397088 0.004780101915 2.684157546e-05)
(0.01483297496 0.004926633681 2.715679512e-05)
(0.01464502854 0.004777418429 4.142109358e-05)
(0.01459180254 0.004725040505 4.645462845e-05)
(0.01448272402 0.004639794449 7.590614517e-06)
(0.01420239281 0.004496626142 -5.351535981e-05)
(0.01394613469 0.004420704158 2.134934558e-05)
(0.01372694494 0.004219514073 1.255498105e-05)
(0.01367330585 0.004029685854 1.372635156e-05)
(0.01336822526 0.00382931868 6.343343689e-05)
(0.008726530126 0.0004868545841 1.209958549e-06)
(0.008899329716 0.0005796810763 -1.267214063e-05)
(0.00908564671 0.0007126898217 2.021909641e-05)
(0.009427992101 0.0008714458261 -3.969188924e-07)
(0.009641425066 0.001104191812 -2.407308022e-05)
(0.009875385031 0.001314743948 -8.275569969e-06)
(0.01012058258 0.001528857687 -1.878978252e-05)
(0.01049645286 0.001844631214 -1.822943074e-05)
(0.01085843179 0.002042608778 -1.845341314e-05)
(0.01137323351 0.00238209584 -1.483095367e-05)
(0.0119223054 0.002642376117 -4.161062791e-06)
(0.0122981377 0.002902617481 1.639500794e-05)
(0.01268269125 0.003296642299 -1.136424352e-05)
(0.01304059366 0.003663365411 -6.579330863e-05)
(0.01336469678 0.00391967347 -8.391325686e-05)
(0.01374843774 0.004109441162 -2.874899385e-05)
(0.01414341428 0.004266820338 -5.45620429e-05)
(0.01453478188 0.004525934088 -4.803253974e-05)
(0.01463575178 0.004631478026 2.478734757e-05)
(0.01486215751 0.004754944043 4.966723662e-05)
(0.01487152759 0.004758999664 3.089742746e-05)
(0.01483623499 0.00476150678 4.828015461e-05)
(0.01516669645 0.004943950995 5.904676913e-05)
(0.01511293251 0.004879728952 3.317343529e-05)
(0.01491464198 0.004820505251 6.247994298e-05)
(0.01478473946 0.004761336751 5.124261524e-05)
(0.01481346884 0.004693574933 -4.319715219e-05)
(0.01450102507 0.004495168976 3.017422328e-05)
(0.01409960886 0.004232159642 -4.777535755e-06)
(0.013882845 0.004028579891 -2.513302049e-05)
(0.008800681068 0.0003430499876 3.321831548e-06)
(0.008893846587 0.0004172418364 -4.082551876e-06)
(0.009034086324 0.0005137040831 -3.30657882e-05)
(0.009059930718 0.0006703597567 -2.501164801e-05)
(0.009214843876 0.0008402201706 -1.757935822e-05)
(0.009470212027 0.001039448883 -1.008612653e-05)
(0.009825542527 0.001205822016 -9.746874682e-06)
(0.01013696052 0.001446884028 -4.876414194e-05)
(0.01041558485 0.001636751346 -3.612987937e-05)
(0.01074246527 0.00186862846 -3.907990069e-05)
(0.0110496608 0.002207384292 -1.480040141e-05)
(0.01134419742 0.002439117183 7.158424092e-06)
(0.01192028898 0.002770706942 -1.839190979e-05)
(0.01258363301 0.003113831818 -2.358841229e-05)
(0.0131756967 0.003415058896 -1.9891909e-05)
(0.01371302642 0.003776434614 -7.67083997e-05)
(0.01402659874 0.003994463492 -7.520138284e-05)
(0.0142815097 0.004233602907 -2.492011516e-05)
(0.01461301493 0.004417392775 -2.873199239e-05)
(0.014844493 0.004565015655 1.764431893e-05)
(0.01510370073 0.00470983115 -8.768653209e-06)
(0.01534537377 0.004801285845 -7.306935823e-06)
(0.015374837 0.004910062044 -1.794419823e-05)
(0.01528911577 0.004965458148 4.058410225e-05)
(0.01524991622 0.004919561009 -1.393639609e-05)
(0.01517650914 0.004852534304 -3.845361863e-07)
(0.01507267722 0.004794107163 -3.466169449e-05)
(0.01500515953 0.004792484265 4.007178636e-05)
(0.01485886828 0.00459901974 4.774892629e-05)
(0.01450537578 0.004353389609 -1.812334353e-05)
(0.008481044546 0.0002622421752 4.460468472e-07)
(0.008439413867 0.0003181894914 6.448643731e-06)
(0.008612819493 0.0004164112953 1.445467098e-05)
(0.008633800905 0.0004965812463 1.933695253e-06)
(0.008944017058 0.000566999043 -1.587443618e-05)
(0.009116239542 0.0007229599121 -6.063699216e-06)
(0.009345615373 0.0009076163371 9.115881872e-06)
(0.00962991847 0.001092777568 7.022363267e-06)
(0.009969727105 0.001295737347 -3.690644757e-05)
(0.01027334745 0.0014973793 1.283252045e-06)
(0.01070357651 0.001767466792 3.268842374e-05)
(0.0112282384 0.002054189216 -3.978283271e-05)
(0.01153779772 0.002260526518 -4.807406415e-05)
(0.01199981528 0.002568663964 2.499967937e-05)
(0.01247343716 0.002932573728 -1.356367936e-05)
(0.01283854656 0.003238443605 -6.275964316e-06)
(0.01329330057 0.003573592472 1.632910206e-05)
(0.01372448735 0.00383759248 5.381084237e-06)
(0.01405804362 0.004017325576 -4.599648582e-05)
(0.0145542724 0.004286304192 -6.235203866e-05)
(0.01491232572 0.004532419972 -2.28172583e-05)
(0.01502767832 0.004694254377 2.074187175e-05)
(0.01513195496 0.004771246631 1.050100289e-05)
(0.01535914347 0.004972170876 4.825803305e-06)
(0.01554468982 0.004972369895 6.108995194e-05)
(0.01552587728 0.004955498312 0.0001082520584)
(0.01546415168 0.004904304605 4.1863182e-05)
(0.01538813557 0.004863415409 -4.634177289e-05)
(0.01519057192 0.004771320383 -2.974609745e-06)
(0.008540665674 0.0002379360921 1.370385587e-05)
(0.008633378094 0.0002693162352 2.200209352e-06)
(0.008650025732 0.0002990024638 6.458747725e-07)
(0.008872075622 0.0003705235087 1.796545319e-05)
(0.008825242556 0.0004405302256 3.044908361e-05)
(0.008939379348 0.0005220335477 -1.594854377e-05)
(0.009155062437 0.0006482139358 -5.722302802e-06)
(0.009458282543 0.0007879282777 -9.78037523e-06)
(0.009609887938 0.001002530235 5.756303389e-06)
(0.009966547774 0.001177997538 1.058220129e-06)
(0.01023932904 0.001392018063 -1.87347926e-05)
(0.0104564471 0.001603039284 -1.521623624e-05)
(0.01072496691 0.001870660044 -1.512863713e-05)
(0.01119090046 0.002092195058 -1.055380667e-05)
(0.01149517212 0.002393260154 -7.225217514e-06)
(0.01204130172 0.00272602458 -5.226180812e-05)
(0.01266783048 0.003011001418 -8.166488808e-05)
(0.01322590782 0.003392688469 -8.946832819e-07)
(0.01381281952 0.003729537971 1.802041153e-06)
(0.01390209657 0.003919158933 -4.378484162e-05)
(0.01424600372 0.004141192537 -5.872017087e-05)
(0.01479093627 0.004423975681 1.209118118e-05)
(0.0150180669 0.004589334417 2.156093168e-05)
(0.01522364683 0.00475319327 6.38427972e-06)
(0.01538222794 0.004805124415 -2.092259419e-05)
(0.008543556608 0.0001611781611 -8.570228355e-06)
(0.008601172339 0.0001795949961 -6.4483781e-06)
(0.008689668955 0.0002415043597 -5.538422689e-06)
(0.008657951525 0.0003086726833 -1.105751099e-05)
(0.008805474581 0.000359997453 -1.253519317e-05)
(0.008927498576 0.0004119384028 -3.82688035e-06)
(0.008963549861 0.0004662414336 7.434937719e-06)
(0.009025822108 0.000617303869 -6.875817385e-06)
(0.009207244018 0.000719994649 1.508395443e-05)
(0.009391926653 0.0009334696529 -2.201562172e-06)
(0.009508007953 0.001077572891 9.190383403e-06)
(0.009914626463 0.0012253163 9.370751817e-06)
(0.01033616921 0.001457193776 -1.365366669e-05)
(0.01072663158 0.001705515187 -1.595074781e-05)
(0.01108173478 0.001971746186 -1.494409116e-05)
(0.01150653972 0.002220602868 6.81911433e-06)
(0.01189439268 0.002474229908 -5.321514436e-05)
(0.01243231141 0.002851632005 -8.921638146e-05)
(0.01288542349 0.003212907441 2.304514941e-05)
(0.008419900009 0.000126591735 6.402352975e-06)
(0.008432145225 0.0001302174927 9.095233659e-06)
(0.008555605822 0.0001535195826 1.233844844e-05)
(0.008555698111 0.000209384418 1.378506752e-06)
(0.008564929816 0.0002685316909 2.012699411e-05)
(0.008566578584 0.0003127653032 1.267886937e-05)
(0.008674169498 0.0003828725782 2.085321088e-05)
(0.008763645512 0.0004535891621 -3.435951807e-06)
(0.008961634341 0.0005619904685 -6.142890891e-08)
(0.009011100433 0.0006382506 -1.086807988e-05)
(0.009425034491 0.000846616578 3.484476699e-06)
(0.009530644322 0.0009776527832 -8.058774331e-06)
(0.009709621572 0.001087515721 2.705194104e-05)
(0.01011959445 0.001278137746 2.729531347e-05)
(0.008440003142 8.803708946e-05 -6.561338171e-06)
(0.008458039533 0.0001161190938 -1.116174486e-06)
(0.008422922658 0.0001494156627 1.016499538e-05)
(0.008469801811 0.0001599961137 2.659744761e-06)
(0.008573459783 0.000233490814 8.192909249e-06)
(0.008567935794 0.0002774693072 1.758229762e-05)
(0.008696345345 0.0003052578707 5.884008802e-06)
(0.008792416191 0.000368549884 8.371067754e-06)
(0.00826899339 8.090492292e-05 3.598244068e-05)
)
;

boundaryField
{
    flow
    {
        type            calculated;
        value           nonuniform List<vector> 
15
(
(0.003612732146 0.0006875245819 -1.932740207e-05)
(0.005076027208 0.0007173033483 -5.897537266e-05)
(0.006047643577 0.0008374702316 -5.130159974e-05)
(0.006918532321 0.001103355511 0.0001182186152)
(0.007554277583 0.001389940294 -3.614401352e-05)
(0.008444411815 0.001671674129 -8.588927437e-05)
(0.009209422474 0.002006646748 1.108369419e-05)
(0.00994778367 0.002301877187 3.157758297e-05)
(0.01057766398 0.002587126574 -3.762933674e-05)
(0.01118826308 0.002855842103 1.805526188e-05)
(0.01196509762 0.003252445332 1.661536356e-05)
(0.01282401935 0.003617864388 4.284430067e-05)
(0.01336822526 0.00382931868 6.343343689e-05)
(0.013882845 0.004028579891 -2.513302049e-05)
(0.01450537578 0.004353389609 -1.812334353e-05)
)
;
    }
    obstacle
    {
        type            calculated;
        value           nonuniform List<vector> 
30
(
(1.24013641e-21 3.322935501e-22 2.123760759e-23)
(1.24008716e-21 3.322803538e-22 -1.332948729e-23)
(1.269347211e-21 3.401205591e-22 1.088848165e-22)
(1.225393642e-21 3.283432373e-22 -2.196817352e-23)
(9.600658957e-22 2.572488806e-22 -4.148989691e-24)
(1.098267808e-21 2.942799726e-22 2.616150377e-23)
(1.130911487e-21 3.030268201e-22 3.049604663e-23)
(9.409707572e-22 2.521323537e-22 -3.028651595e-24)
(9.994795173e-22 2.6780973e-22 5.349447446e-23)
(9.375279154e-22 2.512098483e-22 -1.141212911e-22)
(1.090608913e-21 2.922277765e-22 -6.097342653e-23)
(7.766633549e-22 2.081063191e-22 1.358205631e-22)
(9.262850301e-22 2.481973262e-22 5.75533732e-25)
(9.30579324e-22 2.493479776e-22 -2.48675204e-23)
(7.31436345e-22 1.959877783e-22 2.110467573e-22)
(8.797635885e-22 2.357319423e-22 -3.66378129e-23)
(8.284393419e-22 2.21979653e-22 1.742736528e-23)
(8.955108525e-22 2.399514102e-22 3.764187314e-23)
(8.305462741e-22 2.225442027e-22 -7.829685351e-23)
(1.083099341e-21 2.902155943e-22 2.263656706e-22)
(8.227774402e-22 2.20462551e-22 -5.484519449e-23)
(7.570326864e-22 2.028462963e-22 -3.035721913e-23)
(8.14404718e-22 2.182190869e-22 2.840080289e-23)
(9.830904372e-22 2.634182892e-22 -4.738857902e-23)
(8.225447464e-22 2.204001999e-22 9.332700628e-23)
(7.828934667e-22 2.097756725e-22 2.166490725e-23)
(8.049706267e-22 2.156912287e-22 7.934832336e-23)
(9.780876447e-22 2.62077795e-22 -9.657528014e-23)
(9.381662118e-22 2.513808793e-22 2.109886519e-23)
(9.40782891e-22 2.520820151e-22 6.173871045e-23)
)
;
    }
    frontAndBack
    {
        type            empty;
    }
    procBoundary1to0
    {
        type            processor;
        value           nonuniform List<vector> 
21
(
(0.005852773761 0.001731401026 1.533501562e-05)
(0.008707240261 0.0026644465 -1.758598752e-05)
(0.01049459383 0.003397927699 4.289606555e-06)
(0.01146835409 0.003645908077 -4.411509601e-05)
(0.01174750671 0.003562635028 4.465634211e-05)
(0.01146628566 0.003146844468 6.281456053e-06)
(0.01120510435 0.002730262512 6.282852881e-06)
(0.01051942452 0.002180836514 3.764334865e-05)