/*--------------------------------*- C++ -*----------------------------------*\
| =========                 |                                                 |
| \\      /  F ield         | OpenFOAM: The Open Source CFD Toolbox           |
|  \\    /   O peration     | Version:  2406                                  |
|   \\  /    A nd           | Website:  www.openfoam.com                      |
|    \\/     M anipulation  |                                                 |
\*---------------------------------------------------------------------------*/
FoamFile
{
    version     2.0;
    format      ascii;
    arch        "LSB;label=32;scalar=64";
    class       volScalarField;
    location    "0.004";
    object      overallT;
}
// * * * * * * * * * * * * * * * * * * * * * * * * * * * * * * * * * * * * * //

dimensions      [1 2 -2 0 0 0 0];

internalField   nonuniform List<scalar> 
546
(
841.3813833
823.0869844
816.7991094
805.6524715
804.2483565
805.027779
803.1309418
785.111802
773.4713394
768.8467698
769.9760394
766.3241476
765.5454015
767.2831711
758.6601379
752.8931865
752.4858766
739.1255741
740.0118911
743.9855881
740.7313315
728.3300222
727.1922986
738.8175949
730.6626995
732.3636496
725.9616161
723.1125172
723.2650435
705.6597281
918.4099216
910.8763418
902.6026735
892.5883007
896.528967
891.4984947
886.0164146
872.5947524
871.1708519
867.4508875
851.4982883
850.360093
848.4442126
849.6438451
848.321485
839.0422173
826.8909893
825.1907434
819.6099993
819.4397228
823.558561
817.9198999
812.0724216
805.9405001
805.8935691
792.2116297
790.565131
787.7317676
769.6004082
737.7585855
920.1155551
924.2065441
921.7037048
927.4550067
926.9102501
918.8532335
916.6778676
921.98051
909.4456153
910.2262241
896.9769617
889.591629
888.0550537
886.430934
885.8535063
884.2993686
875.6095116
867.7528538
865.8105706
865.257615
862.3521666
856.1809839
840.6663738
849.0914714
845.4543269
828.491488
821.6808803
812.5350932
786.8691167
759.4085509
904.366606
914.915822
920.7324804
913.4242273
915.7761472
921.2760209
914.9314131
908.8926356
908.408466
915.4180754
910.1059177
913.3184963
906.176025
902.2673139
891.7243848
894.2450449
885.9640188
877.6167683
882.747516
882.3806279
880.5288888
878.3538485
867.7523603
863.2334548
865.7925084
853.8052471
843.1548549
819.1160271
788.4341905
759.2483682
874.730586
886.366648
892.5232744
884.8595724
887.1953863
890.8419592
883.6971538
892.4073082
895.8116503
893.4201549
901.1805871
898.1215628
901.183194
893.5572611
888.7004219
881.1516316
885.8028813
889.8204381
898.5829916
891.3796871
881.9032375
877.9249223
875.0155719
883.2926858
880.8717208
855.7508342
841.347937
829.4832413
809.0463258
770.5126133
840.5751938
847.6284531
857.6214602
855.8446355
853.4671044
858.791826
867.5360615
872.0565564
876.191233
880.2648878
875.9125745
878.8817939
880.4110978
887.328294
881.7760254
887.5238002
884.7717551
882.8738514
878.9519835
883.797328
875.0899253
874.8918948
871.898773
869.7540826
869.0872305
859.6730034
840.5744547
827.0899434
806.3094591
770.5293039
808.5412241
816.5489856
828.9077061
829.2722763
827.7755855
843.477865
842.7463937
844.0807689
842.6357383
847.2702199
852.8238783
863.7410389
861.9574347
866.7859753
870.4178873
871.837063
878.8627387
879.3986041
875.8477074
868.5781026
871.0829839
864.3226589
867.3880739
862.3508917
860.6539784
844.9291901
833.0093851
836.7108474
813.1607682
783.5298008
760.391495
773.2445553
780.4767688
796.058997
793.8346381
811.9508685
818.669116
818.1162635
821.0675648
823.8384066
829.1210508
827.7946334
835.0861422
847.090255
852.3727683
852.1622797
856.5426674
858.5762949
861.774584
864.1048836
862.5202745
852.7652123
848.4067338
850.9050571
852.984287
842.7461863
824.4636161
820.0721028
804.7242922
781.5840006
709.6028938
741.268305
747.9635045
762.6973867
772.7068358
779.4713483
781.4741119
791.869951
802.0890036
798.4406426
801.9337656
810.1429525
810.3858631
820.4557044
830.2913954
834.2253952
838.2738504
834.3820453
835.2133904
844.7843819
845.7662734
839.1881412
841.0275903
833.7250202
834.3016932
840.7279409
831.9856871
826.9781423
811.8679668
787.4750432
655.8034787
685.9179925
709.8728838
725.8672534
744.3358962
749.9828601
756.5353129
768.5088679
779.340808
782.6985888
783.5232912
790.4736159
789.247219
800.5928329
799.3145348
810.8226369
816.1227417
817.6657426
819.9962967
821.7818037
822.1900328
828.1672599
828.9600281
832.9751257
828.8602242
819.9823347
817.2577314
814.1207949
798.5267185
784.2513518
592.3779103
627.1894339
659.8767061
675.8115745
694.8886269
708.7171029
724.0511001
735.3018633
739.1786834
758.1764437
752.9896472
760.5028569
774.5447693
777.64122
784.0371847
786.8345153
791.7279343
799.0166659
798.2090047
801.3419848
811.2307193
812.1956202
818.5190396
819.5523539
812.994814
818.2192763
808.0746574
794.0075533
787.9505293
775.370651
545.5076455
576.7231726
602.9173961
623.5595509
646.1313435
667.4027369
687.8605159
702.290243
712.6310777
719.945105
728.5338987
739.6122488
749.9242392
754.1143168
763.3054975
763.7984685
766.4850483
779.5995018
782.2714425
787.5143722
793.4686358
796.1924197
793.6856948
790.4533436
799.540705
793.7040496
795.5100568
789.2491675
785.3094112
773.7996863
486.7687389
518.7487404
552.938419
573.2072288
602.02094
629.0672995
642.1868055
664.2689249
679.1950368
697.3374083
707.2775447
718.5571943
729.6180446
735.1588253
742.5733488
750.4528229
751.4077962
754.8168071
761.8781109
766.5336848
769.9807019
783.6964521
784.3097802
794.0210514
782.3941595
778.5265712
777.9074265
773.2635956
775.6575914
765.9587292
447.9865548
471.8454985
501.4191914
525.3192584
560.8648523
586.6289194
606.8034636
622.5463803
634.2520894
656.5909221
668.733283
681.3937009
695.9554876
711.0030825
716.5947799
731.0191484
742.3482538
742.7973256
743.1162655
743.9119543
745.8996016
753.8996425
765.1413511
764.1743679
770.4186784
765.6178221
772.9273445
774.1329428
765.5375556
753.759442
410.4782262
426.2579403
450.7240291
472.4900604
504.2715251
533.430179
550.7593393
577.9169076
602.37624
614.9244723
637.1166617
649.7234724
666.2726059
680.0174405
686.2505496
699.9006942
707.0503745
711.6978693
716.7742144
720.6570262
728.1405044
736.6998666
744.594714
748.0636301
751.5525613
748.8748413
750.937167
756.5345221
751.6516921
736.7522284
393.4518772
403.5570579
422.2095465
447.231317
461.5723627
483.1939102
515.3577304
544.8679601
561.1816021
571.5652864
592.5823677
612.381382
622.6817157
637.1940138
663.6776696
673.4878246
687.8717342
692.8492031
703.3288315
704.0698407
707.5856461
713.6806419
718.1384867
728.5823164
734.1564747
731.7144574
728.8268178
737.2226542
734.903117
369.6881371
372.9645264
388.9629736
410.5506671
422.9207157
444.908069
464.9730484
491.0110602
515.4592188
532.4738681
556.5980949
578.356784
593.7637087
615.1898878
636.3585085
650.5754646
665.0872999
679.5125095
688.1395182
687.2040518
684.0124649
698.8473157
702.4832137
712.901846
711.3950758
354.1868632
360.5079502
377.8203239
394.7943587
401.6324723
413.0068009
426.6383202
453.0291729
469.6738395
499.6077603
520.7434677
535.5967226
554.8314229
576.5725665
597.9077013
617.6316681
633.3645187
645.7637915
652.706576
341.8244953
351.7461398
352.354861
366.1909858
381.9887487
396.6480754
404.7520269
421.0969888
444.0827761
457.9110224
489.7498855
507.7196029
517.4066357
536.8225897
331.937455
336.446105
337.3293822
343.3577212
362.8535541
374.9769342
379.613428
394.6667825
327.5327122
)
;

boundaryField
{
    flow
    {
        type            calculated;
        value           nonuniform List<scalar> 
15
(
705.6597281
737.7585855
759.4085509
759.2483682
770.5126133
770.5293039
783.5298008
781.5840006
787.4750432
784.2513518
775.370651
773.7996863
765.9587292
753.759442
736.7522284
)
;
    }
    obstacle
    {
        type            calculated;
        value           nonuniform List<scalar> 
30
(
730.5157536
732.8490736
715.3567193
711.0987272
699.240667
703.0873825
694.6648072
715.4256128
682.1466323
677.4408638
710.5033267
692.7916021
684.3040591
672.3083797
681.7406443
684.3889143
665.1676299
666.4650153
664.290494
639.6059105
686.6772326
647.2155392
653.4854845
696.5287231
667.1477371
685.3901744
677.7560841
661.9501851
678.3494911
667.2252415
)
;
    }
    frontAndBack
    {
        type            empty;
    }
    procBoundary1to0
    {
        type            processor;
        value           nonuniform List<scalar> 
21
(
852.3643855
932.7262191
924.7735478
907.3692046
867.9807378
841.9802078
792.537779
735.2176907
684.8856493
626.9669832
561.7836692
508.9970626
466.2128249
427.0626561
398.1480926
380.1070639
360.1188424
341.5605362
334.2486109
324.3699534
322.017672
)
;
    }
    procBoundary1to3
    {
        type            processor;
        value           nonuniform List<scalar> 
36
(
728.2725489
716.255386
725.087839
722.1731805
728.2725489
718.2725615
667.3694698
677.954416
683.2933436
683.9236801
696.1144281
716.255386
703.8103789
562.6649499
585.3452843
598.8846488
611.8073027
667.3694698
630.4189822
413.5998786
422.3911642
437.3589355
469.5656666
482.8967347
562.6649499
499.8190438
324.3344216
329.0794543
332.3161305
346.2167246
357.7933004
359.4399294
413.5998786
376.1547229
324.3344216
318.2427901
)
;
    }
}


// ************************************************************************* //
