/*--------------------------------*- C++ -*----------------------------------*\
| =========                 |                                                 |
| \\      /  F ield         | OpenFOAM: The Open Source CFD Toolbox           |
|  \\    /   O peration     | Version:  2406                                  |
|   \\  /    A nd           | Website:  www.openfoam.com                      |
|    \\/     M anipulation  |                                                 |
\*---------------------------------------------------------------------------*/
FoamFile
{
    version     2.0;
    format      ascii;
    arch        "LSB;label=32;scalar=64";
    class       volScalarField;
    location    "0.004";
    object      p;
}
// * * * * * * * * * * * * * * * * * * * * * * * * * * * * * * * * * * * * * //

dimensions      [1 -1 -2 0 0 0 0];

internalField   nonuniform List<scalar> 
546
(
3.939557826
3.870780803
3.746993905
3.682984154
3.575379294
3.572042919
3.572841609
3.508776748
3.521957266
3.488205712
3.399064313
3.380374425
3.22462616
3.3306842
3.274918576
3.16484119
3.103945516
3.049143704
3.097496268
3.076112949
3.024315423
3.038122912
3.011146904
3.030368708
2.845647315
2.795623918
2.66663632
2.534070934
2.351881847
1.875743469
3.877191761
3.79695006
3.75891892
3.746492603
3.650286817
3.623537627
3.574086731
3.557635313
3.505251673
3.483848596
3.390392871
3.337771078
3.343251515
3.375038873
3.37797235
3.271484421
3.187108285
3.199066339
3.147946921
3.110408279
3.067372092
3.079273592
3.018368985
2.92046511
2.84943886
2.811524733
2.668055352
2.505480875
2.239099806
1.724459283
3.622785729
3.735884788
3.624471259
3.59384365
3.498076602
3.463825773
3.480181236
3.47888433
3.471875679
3.423984738
3.400743473
3.362339455
3.369841926
3.312259596
3.284700291
3.183803073
3.166128558
3.112247768
3.124692586
3.104168983
3.012057909
3.025416062
3.041554628
2.917471061
2.831913885
2.759227424
2.655673394
2.495669044
2.149764686
1.787222665
3.384350966
3.45790867
3.563912299
3.462328702
3.454364623
3.421678246
3.401523621
3.448122903
3.423764962
3.393929333
3.332576661
3.305259072
3.317365972
3.322577373
3.201653148
3.127988658
3.092145731
3.081494356
3.108020934
3.092900373
3.017088064
2.971311516
2.937667863
2.92215864
2.862176944
2.724971043
2.576065975
2.41779269
2.179521593
1.874642583
3.1017923
3.176556989
3.285682029
3.279174061
3.310824956
3.322144871
3.232991011
3.262742199
3.327982233
3.247090578
3.21473069
3.275320748
3.283917718
3.277558367
3.179592625
3.149023858
3.08129517
3.127235435
3.103805587
3.059267509
2.994190329
2.872041108
2.8639595
2.900197457
2.802917528
2.705843657
2.644370301
2.423320099
2.216473319
1.889624104
2.790524537
2.896900718
3.006364697
3.015535991
3.036591796
3.071049089
3.126033128
3.131275204
3.18449328
3.193618054
3.158381202
3.197824507
3.159581801
3.187119835
3.144161987
3.169254935
3.014871561
3.101010648
3.05659142
3.02977709
2.956110013
2.849493286
2.836820059
2.85805679
2.838003446
2.696837448
2.537653705
2.43411945
2.268484401
1.941520828
2.487052332
2.639348573
2.73498857
2.797436601
2.797206886
3.000234873
2.99881864
3.022502516
2.985486403
3.083033076
3.086262669
3.092391955
3.11403985
3.128494651
3.081368699
3.037673205
3.055214471
3.011697326
3.029371965
2.97380346
2.927323392
2.893212274
2.840704374
2.822300018
2.811222894
2.672286813
2.544839796
2.505006424
2.277533129
2.039314547
2.15409793
2.270474313
2.405883197
2.583449655
2.610289523
2.714217129
2.812675042
2.863684008
2.878506644
2.887812667
2.955583665
2.953408109
2.943894033
2.973610846
3.03247435
3.058279783
3.017014821
2.966522525
2.984444425
2.983043795
2.97804149
2.892472069
2.836847669
2.792432822
2.748334351
2.67177542
2.540914102
2.433673171
2.293965927
2.107655483
1.819574196
2.02129423
2.136036337
2.256179836
2.416042243
2.519283344
2.57825355
2.661533186
2.740198583
2.728433298
2.775046813
2.854499992
2.878250097
2.93579677
2.961830933
3.025539379
2.982366662
2.949377912
2.961804549
2.936865264
2.909983083
2.831837165
2.79161006
2.749015023
2.739699873
2.71052438
2.605268302
2.498580277
2.348740099
2.167132527
1.521631017
1.681278583
1.824578454
1.972820155
2.11590503
2.203209957
2.331014378
2.439963235
2.565218764
2.660230349
2.679623591
2.735949557
2.77030387
2.868105446
2.844338048
2.877137514
2.895535145
2.872244283
2.840806706
2.842011072
2.874781341
2.844956665
2.826054589
2.734527043
2.734411486
2.671515381
2.598542199
2.522475566
2.364296547
2.220507452
1.276278022
1.426310735
1.572095425
1.669726832
1.819110542
1.940523123
2.0841369
2.230344427
2.325111809
2.484478492
2.516303528
2.567579602
2.672424238
2.698071481
2.740115317
2.756561735
2.777100002
2.836143607
2.793967865
2.798331623
2.824025283
2.813441493
2.808529163
2.774625602
2.653971588
2.62928544
2.615512257
2.561002548
2.447621149
2.276477996
1.100916552
1.213090699
1.328421272
1.437607553
1.575548845
1.71006541
1.860574335
1.972060018
2.098954921
2.166768881
2.249497336
2.358474035
2.479210275
2.54917011
2.611277099
2.66162117
2.689301522
2.729456387
2.75070963
2.765897808
2.761086861
2.796557565
2.734092926
2.705374579
2.715754526
2.666720218
2.607272278
2.495246641
2.441482227
2.383312638
0.9102277758
1.013102678
1.135372076
1.210512582
1.343652854
1.486825932
1.588201942
1.692826076
1.800657749
1.927412084
2.04553869
2.176789065
2.299213028
2.387138834
2.463201682
2.530010987
2.570592694
2.607607909
2.656909981
2.680060601
2.687442051
2.789449699
2.745119484
2.793563338
2.741368098
2.657154807
2.596005069
2.5409679
2.522264859
2.403030886
0.7843704472
0.8632729121
0.951938814
1.041896666
1.169230309
1.266550501
1.361695673
1.473225003
1.578193802
1.733804805
1.859682968
1.940843824
2.074527666
2.190218892
2.264687702
2.378219561
2.475597162
2.553736467
2.549863571
2.586943559
2.592778264
2.631519908
2.735633598
2.724430678
2.690110024
2.639213004
2.680180118
2.650066727
2.514694592
2.401165876
0.6981135461
0.7474671142
0.8186753839
0.8727193954
0.9689892431
1.074666262
1.167412263
1.289742262
1.397963689
1.492499031
1.598526889
1.681569634
1.83651509
1.991330111
2.088844637
2.244153352
2.30368791
2.35708631
2.429184544
2.473459485
2.542206506
2.60051335
2.644572186
2.657325594
2.683776662
2.620188011
2.601215975
2.628325424
2.581180978
2.435279665
0.6305570142
0.6500847801
0.7091052127
0.7687940629
0.8275642783
0.9024420171
1.011392561
1.120356221
1.216200679
1.273374141
1.396307362
1.536127069
1.595665696
1.714760105
1.888496268
1.987740554
2.103225945
2.185641666
2.280615185
2.35307254
2.395258653
2.43565398
2.487942635
2.573973104
2.594007263
2.563123609
2.556906957
2.568910565
2.537479129
0.5831025926
0.5976274833
0.6331571305
0.7054115044
0.7285100062
0.7903083271
0.8523063941
0.9617901767
1.046690621
1.133771939
1.23881103
1.334104337
1.39586266
1.516549841
1.637055332
1.759499156
1.913316162
2.0558446
2.176550458
2.162973513
2.205914895
2.381755168
2.397200874
2.50047573
2.485289837
0.5441510299
0.5629557079
0.6099456666
0.6444436902
0.6717309596
0.7117279811
0.7429978804
0.8135724733
0.8774383836
0.9759963431
1.03812083
1.126581297
1.239412311
1.345969167
1.460316897
1.591970331
1.68674071
1.808712955
1.886863053
0.51140056
0.5358656155
0.5397624732
0.5717966333
0.6101610151
0.6467960803
0.678364158
0.7226925377
0.7849842371
0.8185605194
0.9504854823
1.005946133
1.047975679
1.142735132
0.4898077169
0.4957166852
0.4951246742
0.5131286545
0.5626180553
0.5910463019
0.6065631325
0.6510443747
0.4715302829
)
;

boundaryField
{
    flow
    {
        type            calculated;
        value           nonuniform List<scalar> 
15
(
1.875743469
1.724459283
1.787222665
1.874642583
1.889624104
1.941520828
2.039314547
2.107655483
2.167132527
2.220507452
2.276477996
2.383312638
2.403030886
2.401165876
2.435279665
)
;
    }
    obstacle
    {
        type            calculated;
        value           nonuniform List<scalar> 
30
(
3.197918723
3.296479935
3.180791549
3.159431694
3.064124031
3.027791436
3.088945579
3.161758491
3.095610147
3.039076364
2.970471007
2.996662882
2.897536764
2.926038373
3.007554663
2.872642479
2.877675737
2.712963652
2.749732878
2.785143543
2.722814356
2.722983423
2.741095251
2.740049969
2.578944378
2.56890032
2.409264787
2.348451956
2.156093316
1.953134855
)
;
    }
    frontAndBack
    {
        type            empty;
    }
    procBoundary1to0
    {
        type            processor;
        value           nonuniform List<scalar> 
21
(
4.067374496
3.979525455
3.69455532
3.381967468
3.032277129
2.685074972
2.354750126
1.959968507
1.65771427
1.378519122
1.15835449
0.9766988984
0.8545731593
0.726895834
0.6554211229
0.6053793258
0.5596736271
0.5107878817
0.4971899755
0.4699906363
0.4593454978
)
;
    }
    procBoundary1to3
    {
        type            processor;
        value           nonuniform List<scalar> 
36
(
2.47845152
2.514469592
2.592206108
2.520768251
2.47845152
2.486438112
2.048556223
2.142006592
2.217462184
2.290814163
2.401483369
2.514469592
2.470191161
1.273900793
1.406158295
1.487070282
1.578723057
2.048556223
1.707044665
0.7043930454
0.7437038369
0.7832481809
0.89774071
0.9447318618
1.273900793
1.009013147
0.4700752215
0.4783183762
0.4846786233
0.5239471624
0.5563562592
0.5608035318
0.7043930454
0.6091154681
0.4700752215
0.4601944163
)
;
    }
}


// ************************************************************************* //
