/*--------------------------------*- C++ -*----------------------------------*\
| =========                 |                                                 |
| \\      /  F ield         | OpenFOAM: The Open Source CFD Toolbox           |
|  \\    /   O peration     | Version:  2406                                  |
|   \\  /    A nd           | Website:  www.openfoam.com                      |
|    \\/     M anipulation  |                                                 |
\*---------------------------------------------------------------------------*/
FoamFile
{
    version     2.0;
    format      ascii;
    arch        "LSB;label=32;scalar=64";
    class       volScalarField;
    location    "0.004";
    object      rhoM;
}
// * * * * * * * * * * * * * * * * * * * * * * * * * * * * * * * * * * * * * //

dimensions      [1 -3 0 0 0 0 0];

internalField   nonuniform List<scalar> 
546
(
1.311216711e-05
1.365962011e-05
1.512319223e-05
1.576984839e-05
1.320221564e-05
8.817056129e-06
1.574232729e-05
1.209364626e-05
1.487931932e-05
1.547500839e-05
1.061194999e-05
1.572175747e-05
1.241676887e-05
1.506968818e-05
1.735220776e-05
1.439815582e-05
1.586772283e-05
1.999970453e-05
1.098661634e-05
1.558084349e-05
1.440528369e-05
1.470560997e-05
1.083732525e-05
1.872898911e-05
1.256628563e-05
1.18586171e-05
1.426613267e-05
1.040447927e-05
4.124525313e-06
1.239445179e-05
1.296365468e-05
1.148305743e-05
1.527391415e-05
1.074039784e-05
1.5888928e-05
1.276123446e-05
1.348232738e-05
1.233035464e-05
1.361339991e-05
1.172502691e-05
1.583779551e-05
1.685641791e-05
1.707330315e-05
1.136431983e-05
1.552576482e-05
1.314269027e-05
1.147916754e-05
1.668124148e-05
1.141639482e-05
8.483714555e-06
1.056415512e-05
1.426466176e-05
1.101439001e-05
1.236618938e-05
8.858821667e-06
1.295400241e-05
1.242691491e-05
1.495420145e-05
9.937588159e-06
1.040729396e-05
1.192047823e-05
1.351001109e-05
1.459384407e-05
1.843642517e-05
1.488889322e-05
1.624106303e-05
1.652092552e-05
1.437110719e-05
1.210892906e-05
1.148652493e-05
1.093440453e-05
1.10215791e-05
1.249818626e-05
1.251736559e-05
1.577400708e-05
9.543151315e-06
2.135392522e-05
8.511297731e-06
9.355112085e-06
1.696534402e-05
6.3728771e-06
8.453054323e-06
1.225812273e-05
1.810164042e-05
1.256628563e-05
8.574658558e-06
1.104639294e-05
1.13324917e-05
1.078072785e-05
4.636701598e-06
1.229355402e-05
9.757129781e-06
1.293043864e-05
1.48550692e-05
1.28943704e-05
1.09827796e-05
1.332698318e-05
1.586395434e-05
1.527563408e-05
1.084859815e-05
1.045169105e-05
1.42620717e-05
1.511141432e-05
9.965043013e-06
1.145714197e-05
1.757853412e-05
1.097240479e-05
1.080979916e-05
7.381439022e-06
1.57533848e-05
1.763522806e-05
9.422716177e-06
1.234665509e-05
1.550293279e-05
9.584035266e-06
7.936050026e-06
9.480175399e-06
1.095994424e-05
1.115445298e-05
7.001063265e-06
1.020720112e-05
1.200849697e-05
1.187174232e-05
8.836748736e-06
9.364319258e-06
1.361098983e-05
6.70232764e-06
9.659640921e-06
1.155485099e-05
1.38792307e-05
1.286332181e-05
1.239854445e-05
1.421385511e-05
1.070571994e-05
1.511002783e-05
1.021259852e-05
1.358830702e-05
1.174493483e-05
1.424755737e-05
1.575338478e-05
8.293441391e-06
8.718471736e-06
8.172795063e-06
1.379951248e-05
1.039717831e-05
1.131092443e-05
9.388436195e-06
8.916526894e-06
1.059386529e-05
1.012439109e-05
1.080304558e-05
8.407032668e-06
1.308116058e-05
1.401621575e-05
1.051550329e-05
7.888356652e-06
8.572089794e-06
1.319324062e-05
7.518541311e-06
1.100759947e-05
1.053182051e-05
1.020999186e-05
7.678817153e-06
1.597650286e-05
1.560851224e-05
1.021259852e-05
1.426534611e-05
1.719224737e-05
1.064238006e-05
8.656255854e-06
8.2064298e-06
1.144768407e-05
1.678825209e-05
1.182815356e-05
1.636385672e-05
8.483742676e-06
1.399091525e-05
1.235308164e-05
7.59277348e-06
1.173206577e-05
1.035571355e-05
1.073320435e-05
1.171919898e-05
1.097001016e-05
1.005465989e-05
8.275625268e-06
9.352565312e-06
7.853704969e-06
7.439659662e-06
8.135968249e-06
1.214021992e-05
1.09408108e-05
1.307007588e-05
1.60585799e-05
1.718671292e-05
1.146806406e-05
1.190180869e-05
8.850601543e-06
1.253051096e-05
1.151152761e-05
1.326992694e-05
1.408913103e-05
1.305705386e-05
1.200893799e-05
1.328932157e-05
9.395098935e-06
1.067721908e-05
1.01245093e-05
1.462495941e-05
7.56914835e-06
7.151927993e-06
6.004248488e-06
8.317027166e-06
1.089408442e-05
8.366133393e-06
8.275625262e-06
9.507909507e-06
1.130903247e-05
9.577090238e-06
1.387923071e-05
1.447172119e-05
1.158890931e-05
1.560188653e-05
1.572828809e-05
1.320083752e-05
1.322611915e-05
1.401094814e-05
1.421308808e-05
1.227388425e-05
5.626357768e-06
8.293441335e-06
1.602633324e-05
1.36789201e-05
1.415892254e-05
1.229596383e-05
6.202056138e-06
1.270213223e-05
3.994257189e-06
8.249050604e-06
8.799619121e-06
7.003415566e-06
8.031202142e-06
1.020833689e-05
1.07422329e-05
1.151368915e-05
6.109901797e-06
1.231349137e-05
1.185882965e-05
1.210892905e-05
7.418540802e-06
9.728589133e-06
1.118311571e-05
1.364196551e-05
1.787022559e-05
4.815349529e-06
8.537972256e-06
2.008803488e-05
1.429791415e-05
1.373223667e-05
1.108017425e-05
1.126235095e-05
9.686012429e-06
1.287998911e-05
1.308285091e-05
1.627374951e-05
1.067231592e-05
1.214948021e-05
1.411876652e-05
1.096759038e-05
8.893920168e-06
8.493924017e-06
8.556641677e-06
7.561596114e-06
7.770118028e-06
1.266487317e-05
1.345682757e-05
8.729311247e-06
1.193710187e-05
1.29804402e-05
7.498041442e-06
1.728593603e-05
9.319588428e-06
1.364196543e-05
8.976151294e-06
1.394756411e-05
1.180379589e-05
1.207005197e-05
9.702961453e-06
1.69931777e-05
1.237840421e-05
9.952970885e-06
9.598246946e-06
1.350185547e-05
9.767481747e-06
1.310910697e-05
1.194953298e-05
1.868513323e-05
1.421134401e-05
8.062188042e-06
9.367704093e-06
7.151927993e-06
7.430958068e-06
6.804343625e-06
6.094246186e-06
1.066850144e-05
8.27562528e-06
1.441814716e-05
7.460452222e-06
1.100077296e-05
9.014318464e-06
9.406134561e-06
7.536829465e-06
1.347913073e-05
1.647094874e-05
1.203837387e-05
1.012916968e-05
1.266093613e-05
1.361725623e-05
1.467733584e-05
1.497486383e-05
1.484244472e-05
6.869034711e-06
1.154772401e-05
1.209825075e-05
1.175314254e-05
1.167678534e-05
1.380743693e-05
8.081091941e-06
1.537466782e-05
8.042932365e-06
5.364394692e-06
4.353125372e-06
5.065577285e-06
7.694192288e-06
4.37523885e-06
8.583949732e-06
9.35068797e-06
5.732788376e-06
1.218781062e-05
1.052867409e-05
9.888848196e-06
8.104159749e-06
1.347913073e-05
8.317551392e-06
1.179013153e-05
1.180379589e-05
1.249065998e-05
1.412826224e-05
1.25305109e-05
1.203123644e-05
1.012699401e-05
1.435454821e-05
8.794661296e-06
1.379951246e-05
1.039717842e-05
9.851875708e-06
1.307130636e-05
5.479972118e-06
1.209328206e-05
9.839208922e-06
5.587163305e-06
8.03120209e-06
4.23478524e-06
6.018320456e-06
7.291448444e-06
8.894137288e-06
7.170237551e-06
5.497971858e-06
6.410385212e-06
9.093819128e-06
6.431660868e-06
7.211804096e-06
1.070109998e-05
8.481705434e-06
1.245411078e-05
1.682565797e-05
8.692988954e-06
9.022303653e-06
1.613568821e-05
1.203123654e-05
7.421222424e-06
1.162321492e-05
8.883193819e-06
1.613028147e-05
1.202346428e-05
1.049048406e-05
1.27938715e-05
1.198277168e-05
7.968756762e-06
1.334201972e-05
2.83070976e-06
3.752881303e-06
2.722101738e-06
5.942394656e-06
5.755920108e-06
3.402747443e-06
4.910237547e-06
7.382179964e-06
7.993737728e-06
9.57082311e-06
8.12018972e-06
1.029271226e-05
1.160062699e-05
9.388520058e-06
7.804256099e-06
1.297583259e-05
1.147916752e-05
6.04314437e-06
1.278920499e-05
1.558084344e-05
1.379409936e-05
1.197639764e-05
1.82090495e-05
1.227687649e-05
1.68165708e-05
1.240630975e-05
1.592408932e-05
7.245656939e-06
1.406211343e-05
1.154346394e-05
5.73747049e-06
4.353125388e-06
3.780798076e-06
7.694192288e-06
7.675792815e-06
3.479828594e-06
5.533491635e-06
6.126041246e-06
8.468934134e-06
1.100759946e-05
7.637476298e-06
7.536829524e-06
8.822596417e-06
9.634751195e-06
6.724539897e-06
1.573705025e-05
1.417919134e-05
9.787787406e-06
1.167302151e-05
9.348506143e-06
8.991637239e-06
1.012696065e-05
1.11029224e-05
1.60409686e-05
9.041214008e-06
1.377444281e-05
1.399091525e-05
1.374621904e-05
8.531602681e-06
1.239445182e-05
5.88598288e-06
7.055127525e-06
6.653621713e-06
6.703487328e-06
7.599293679e-06
6.651332685e-06
4.519999859e-06
5.104719076e-06
7.360778079e-06
4.546909599e-06
9.888848042e-06
4.619410027e-06
4.73795168e-06
1.153045761e-06
8.30274052e-06
7.951953973e-06
1.409506985e-05
9.446433419e-06
1.167095393e-05
7.530567302e-06
9.428798339e-06
7.132330915e-06
8.349859829e-06
3.942717845e-06
1.374203538e-05
1.103817671e-05
7.824435916e-06
7.153079514e-06
1.377956143e-05
5.438650873e-06
4.878564898e-06
5.670286408e-06
3.809133266e-06
1.074684943e-06
4.021259434e-06
7.013015978e-06
5.732788376e-06
5.065584112e-06
5.264337044e-06
5.868818008e-06
7.779134433e-06
4.900786523e-06
9.470597153e-06
3.154401418e-06
8.537972256e-06
5.486202384e-06
9.191955559e-06
1.072792225e-05
1.592801111e-05
1.396812256e-05
7.485513612e-06
1.536745443e-05
1.16495279e-05
1.319921433e-05
4.246962027e-06
4.878564898e-06
8.392388044e-06
7.160876877e-06
5.602921951e-06
6.186982941e-06
3.819073705e-06
2.748985929e-06
8.468934134e-06
5.18483634e-06
4.100159595e-06
1.029271226e-05
8.250706803e-06
7.658951491e-06
9.71344651e-06
7.032220281e-06
7.174733845e-06
5.447312528e-06
7.552523422e-06
4.917062686e-06
3.15263725e-06
5.444203517e-06
7.542340775e-06
4.989080401e-06
5.027040039e-06
6.234417737e-06
5.261263439e-06
3.403349984e-06
5.105335676e-06
7.959930843e-06
1.053501717e-05
5.800313496e-06
4.940491129e-06
5.811726664e-06
4.878564862e-06
6.048912595e-06
2.133261434e-06
5.526422913e-06
3.944178338e-06
3.35116382e-06
4.633194091e-06
4.768550253e-06
)
;

boundaryField
{
    flow
    {
        type            zeroGradient;
    }
    obstacle
    {
        type            calculated;
        value           nonuniform List<scalar> 
30
(
3.865813391e-24
5.939463965e-24
3.897828327e-24
1e-300
1.045513472e-23
4.230056555e-24
5.306600036e-24
2.255483575e-24
1.101967759e-23
2.207843824e-24
2.858893274e-23
3.908596083e-24
1.383811561e-23
2.345222138e-24
9.630018546e-24
1e-300
5.399216808e-24
2.129589976e-24
1e-300
1e-300
1e-300
8.796995698e-24
6.2927933e-24
1e-300
4.574176409e-24
2.728575635e-24
1e-300
1e-300
1e-300
1e-300
)
;
    }
    frontAndBack
    {
        type            empty;
    }
    procBoundary1to0
    {
        type            processor;
        value           nonuniform List<scalar> 
21
(
1.849133291e-05
1.020664564e-05
8.579550872e-06
9.985497935e-06
8.505834978e-06
9.171059733e-06
3.771982481e-06
6.878740208e-06
7.914326117e-06
6.287231354e-06
5.472793145e-06
8.579550909e-06
4.955000191e-06
9.244775561e-06
3.106757727e-06
7.988042017e-06
7.322817262e-06
6.287231354e-06
5.843154341e-06
5.546509045e-06
4.363491336e-06
)
;
    }
    procBoundary1to3
    {
        type            processor;
        value           nonuniform List<scalar> 
36
(
1.580068251e-05
1.30449184e-05
1.288561078e-05
1.123991423e-05
1.580068251e-05
8.811896446e-06
1.073300657e-05
1.108832774e-05
1.268064217e-05
1.030399129e-05
1.290422517e-05
1.30449184e-05
9.311535663e-06
3.570138425e-06
7.701667363e-06
7.342977046e-06
6.127970373e-06
1.073300657e-05
6.350797652e-06
2.295193872e-06
1.036967268e-05
5.868817917e-06
8.184927988e-06
4.0846447e-06
3.570138425e-06
7.246582652e-06
6.004248536e-06
3.705437112e-06
5.027615496e-06
6.601107815e-06
4.331446955e-06
4.442327761e-06
2.295193872e-06
4.55492189e-06
6.004248536e-06
3.278041767e-06
)
;
    }
}


// ************************************************************************* //
