/*--------------------------------*- C++ -*----------------------------------*\
| =========                 |                                                 |
| \\      /  F ield         | OpenFOAM: The Open Source CFD Toolbox           |
|  \\    /   O peration     | Version:  2406                                  |
|   \\  /    A nd           | Website:  www.openfoam.com                      |
|    \\/     M anipulation  |                                                 |
\*---------------------------------------------------------------------------*/
FoamFile
{
    version     2.0;
    format      ascii;
    arch        "LSB;label=32;scalar=64";
    class       volScalarField;
    location    "0.004";
    object      rhoMMean;
}
// * * * * * * * * * * * * * * * * * * * * * * * * * * * * * * * * * * * * * //

dimensions      [1 -3 0 0 0 0 0];

internalField   nonuniform List<scalar> 
546
(
1.465867541e-05
1.483738957e-05
1.454217024e-05
1.454231001e-05
1.427072565e-05
1.424694765e-05
1.446621732e-05
1.452444823e-05
1.483651626e-05
1.468252248e-05
1.433288684e-05
1.432788421e-05
1.376464738e-05
1.425703976e-05
1.423786495e-05
1.387664826e-05
1.342579958e-05
1.354872847e-05
1.386347289e-05
1.362132528e-05
1.344122048e-05
1.376667874e-05
1.364533231e-05
1.346183551e-05
1.280338706e-05
1.258316847e-05
1.213661726e-05
1.171038826e-05
1.079607259e-05
8.859261262e-06
1.310644995e-05
1.309689448e-05
1.309543213e-05
1.321902558e-05
1.299828435e-05
1.307471956e-05
1.296926363e-05
1.312695672e-05
1.29482982e-05
1.30414377e-05
1.29472711e-05
1.283747734e-05
1.281263466e-05
1.300748083e-05
1.307824156e-05
1.284561476e-05
1.26101681e-05
1.265607613e-05
1.25737039e-05
1.242549777e-05
1.218304071e-05
1.235998472e-05
1.226456219e-05
1.183097892e-05
1.168006155e-05
1.174812794e-05
1.115686921e-05
1.061406507e-05
9.740738893e-06
8.085633513e-06
1.23199954e-05
1.261840753e-05
1.246167557e-05
1.230557657e-05
1.207792267e-05
1.208120404e-05
1.216443216e-05
1.214083766e-05
1.231098881e-05
1.218266073e-05
1.230307337e-05
1.22156345e-05
1.224946741e-05
1.223196581e-05
1.209605476e-05
1.18309226e-05
1.195443806e-05
1.174979975e-05
1.185822662e-05
1.178433094e-05
1.150059764e-05
1.167845216e-05
1.195206324e-05
1.132506106e-05
1.102191972e-05
1.091576214e-05
1.066927347e-05
1.029921937e-05
9.175487547e-06
8.242467281e-06
1.149390588e-05
1.176622052e-05
1.211505066e-05
1.195901713e-05
1.193475024e-05
1.183875677e-05
1.18693534e-05
1.209272284e-05
1.21454279e-05
1.20507564e-05
1.197769774e-05
1.190951579e-05
1.198546841e-05
1.202566858e-05
1.168570508e-05
1.149106119e-05
1.143950675e-05
1.152796181e-05
1.158719597e-05
1.15975894e-05
1.133952012e-05
1.119736241e-05
1.116704789e-05
1.112951511e-05
1.101320369e-05
1.063810449e-05
1.035742172e-05
9.884924627e-06
9.289632354e-06
8.538851911e-06
1.073681003e-05
1.102071583e-05
1.140741906e-05
1.156899729e-05
1.178424928e-05
1.179507926e-05
1.167203565e-05
1.179056885e-05
1.200628972e-05
1.177994854e-05
1.17036656e-05
1.192595606e-05
1.195558774e-05
1.194235408e-05
1.177790708e-05
1.169689793e-05
1.145769901e-05
1.158433637e-05
1.13900654e-05
1.13153538e-05
1.124618925e-05
1.084508706e-05
1.078564521e-05
1.088101732e-05
1.060064578e-05
1.050096528e-05
1.056204781e-05
9.93282063e-06
9.451220484e-06
8.603309518e-06
9.969694087e-06
1.031078024e-05
1.07377644e-05
1.096647367e-05
1.117138143e-05
1.139424133e-05
1.150460711e-05
1.153581388e-05
1.169543883e-05
1.178068903e-05
1.174466779e-05
1.177130024e-05
1.163249764e-05
1.17112243e-05
1.172410075e-05
1.174298758e-05
1.134935889e-05
1.153438258e-05
1.145343395e-05
1.131779129e-05
1.117231523e-05
1.086236906e-05
1.090962952e-05
1.103053272e-05
1.093253571e-05
1.050880494e-05
1.021281881e-05
1.002740278e-05
9.644922407e-06
8.796045514e-06
9.084573439e-06
9.634262581e-06
9.98881689e-06
1.036908384e-05
1.058321097e-05
1.115029378e-05
1.12470401e-05
1.136260849e-05
1.134313455e-05
1.165938423e-05
1.170129949e-05
1.172384998e-05
1.182362661e-05
1.185401564e-05
1.163317296e-05
1.150901515e-05
1.148377288e-05
1.132094344e-05
1.138301234e-05
1.127856793e-05
1.119433095e-05
1.115757054e-05
1.094152454e-05
1.09541363e-05
1.099584225e-05
1.075198881e-05
1.034579902e-05
1.017639115e-05
9.703123973e-06
9.139164302e-06
8.263501259e-06
8.692189492e-06
9.205830042e-06
9.75195036e-06
1.002897053e-05
1.031454539e-05
1.074156147e-05
1.101458806e-05
1.108372356e-05
1.116901777e-05
1.140790639e-05
1.153448965e-05
1.144123464e-05
1.150271794e-05
1.16941466e-05
1.175212193e-05
1.167554063e-05
1.155428856e-05
1.152729558e-05
1.153192331e-05
1.15091293e-05
1.121538813e-05
1.109267301e-05
1.094726491e-05
1.083767785e-05
1.071425977e-05
1.048108334e-05
1.018319662e-05
9.899344394e-06
9.494428922e-06
7.423898905e-06
7.933655591e-06
8.381668874e-06
8.796811794e-06
9.405446533e-06
9.784048755e-06
1.007780365e-05
1.041571905e-05
1.067171111e-05
1.078243906e-05
1.097288687e-05
1.126837397e-05
1.145701746e-05
1.163651924e-05
1.170468487e-05
1.190040741e-05
1.180862939e-05
1.177768831e-05
1.180177445e-05
1.166121786e-05
1.157115053e-05
1.137766244e-05
1.112604793e-05
1.100768993e-05
1.092172545e-05
1.084067057e-05
1.065022851e-05
1.032662302e-05
9.942338026e-06
9.571202246e-06
6.689245139e-06
7.085604528e-06
7.504842478e-06
7.966680635e-06
8.419403215e-06
8.828156161e-06
9.374494524e-06
9.726428643e-06
1.020563029e-05
1.057084105e-05
1.076148772e-05
1.095526331e-05
1.116957682e-05
1.145060944e-05
1.153911313e-05
1.160998021e-05
1.166219017e-05
1.161847255e-05
1.155654473e-05
1.159190601e-05
1.166151813e-05
1.159235918e-05
1.146429255e-05
1.106819953e-05
1.106060068e-05
1.091770543e-05
1.072890001e-05
1.055789236e-05
1.012332401e-05
9.773285425e-06
6.285974436e-06
6.61894629e-06
6.954287466e-06
7.260083303e-06
7.670653112e-06
8.061909592e-06
8.549594609e-06
9.104234902e-06
9.524147312e-06
1.007042678e-05
1.03843912e-05
1.062184932e-05
1.085269816e-05
1.100770708e-05
1.118906778e-05
1.126523179e-05
1.139607727e-05
1.159118016e-05
1.151108163e-05
1.152565058e-05
1.15633346e-05
1.154382726e-05
1.143597904e-05
1.13926667e-05
1.100481603e-05
1.083471709e-05
1.083991003e-05
1.087773235e-05
1.064165348e-05
1.016077611e-05
5.897413328e-06
6.130725767e-06
6.428377973e-06
6.744303959e-06
7.111986228e-06
7.480915918e-06
7.945035148e-06
8.339947165e-06
8.756201972e-06
9.073308507e-06
9.449180815e-06
9.845388201e-06
1.028569445e-05
1.05934108e-05
1.080069333e-05
1.112150354e-05
1.122882935e-05
1.1398024e-05
1.152597489e-05
1.157678457e-05
1.149441382e-05
1.165751402e-05
1.149010088e-05
1.143860899e-05
1.140018845e-05
1.132169698e-05
1.108942421e-05
1.075542629e-05
1.064545541e-05
1.060432394e-05
5.561865267e-06
5.753818428e-06
6.034766819e-06
6.221292712e-06
6.574677037e-06
6.939625876e-06
7.251642837e-06
7.540935672e-06
7.938394506e-06
8.287687441e-06
8.704774266e-06
9.264053315e-06
9.7582214e-06
1.010978187e-05
1.038684289e-05
1.060821389e-05
1.088332266e-05
1.108124186e-05
1.127132455e-05
1.140515782e-05
1.144441271e-05
1.168072101e-05
1.158247966e-05
1.165046343e-05
1.162428782e-05
1.140591647e-05
1.126432607e-05
1.113311169e-05
1.103106494e-05
1.072778171e-05
5.312397584e-06
5.477947908e-06
5.648342324e-06
5.92771323e-06
6.157651091e-06
6.381016115e-06
6.642133358e-06
7.00838031e-06
7.340148565e-06
7.819155083e-06
8.289299214e-06
8.599051109e-06
9.015026133e-06
9.421585815e-06
9.783842483e-06
1.012114892e-05
1.047971129e-05
1.087025092e-05
1.095273335e-05
1.116647825e-05
1.123382971e-05
1.134719581e-05
1.172277726e-05
1.177585721e-05
1.164749071e-05
1.157444399e-05
1.162895695e-05
1.14455932e-05
1.109670027e-05
1.086487561e-05
5.261936485e-06
5.359413645e-06
5.498062472e-06
5.564397519e-06
5.734979741e-06
5.978696931e-06
6.278210768e-06
6.55940463e-06
6.854920844e-06
7.147784467e-06
7.459991095e-06
7.747083936e-06
8.254934605e-06
8.843145729e-06
9.296372167e-06
9.860348193e-06
1.011563593e-05
1.036285496e-05
1.070538623e-05
1.096980382e-05
1.123804422e-05
1.143768031e-05
1.158454693e-05
1.161258951e-05
1.168623244e-05
1.161539167e-05
1.159963613e-05
1.164957032e-05
1.14793009e-05
1.116345427e-05
5.058624835e-06
5.049225364e-06
5.17335868e-06
5.253357679e-06
5.4603955e-06
5.647334369e-06
5.86893412e-06
6.118819157e-06
6.407234046e-06
6.651457791e-06
7.016052352e-06
7.456809371e-06
7.713412146e-06
8.099792873e-06
8.595315002e-06
8.967958187e-06
9.420895654e-06
9.801574442e-06
1.01244458e-05
1.055691042e-05
1.084035383e-05
1.101281013e-05
1.117907575e-05
1.149781924e-05
1.161797269e-05
1.159749683e-05
1.163650395e-05
1.163626084e-05
1.157271896e-05
5.030176404e-06
5.093624138e-06
5.139149507e-06
5.317649133e-06
5.306034457e-06
5.417288037e-06
5.586370452e-06
5.838164277e-06
5.991021717e-06
6.286068174e-06
6.550429426e-06
6.776488311e-06
7.012218351e-06
7.403663935e-06
7.738231538e-06
8.203377708e-06
8.731596703e-06
9.260338475e-06
9.73104963e-06
9.796491412e-06
1.012193143e-05
1.067734553e-05
1.088888713e-05
1.114671184e-05
1.126520929e-05
5.009351834e-06
5.071867551e-06
5.156890792e-06
5.162491944e-06
5.259265902e-06
5.350452104e-06
5.389362182e-06
5.485066404e-06
5.650484794e-06
5.822810673e-06
5.95456468e-06
6.274113078e-06
6.623229982e-06
6.945984489e-06
7.26819916e-06
7.651764936e-06
7.96119266e-06
8.445750677e-06
8.830307062e-06
4.93357e-06
4.954350342e-06
5.006402194e-06
5.033099927e-06
5.078473272e-06
5.120741462e-06
5.200677805e-06
5.290250993e-06
5.439315518e-06
5.501188936e-06
5.814043297e-06
5.940380527e-06
6.089009766e-06
6.413480805e-06
4.90781663e-06
4.920111084e-06
4.909753885e-06
4.959417307e-06
5.038460131e-06
5.052556025e-06
5.143248597e-06
5.234852168e-06
4.806754291e-06
)
;

boundaryField
{
    flow
    {
        type            calculated;
        value           nonuniform List<scalar> 
15
(
8.859261262e-06
8.085633513e-06
8.242467281e-06
8.538851911e-06
8.603309518e-06
8.796045514e-06
9.139164302e-06
9.494428922e-06
9.571202246e-06
9.773285425e-06
1.016077611e-05
1.060432394e-05
1.072778171e-05
1.086487561e-05
1.116345427e-05
)
;
    }
    obstacle
    {
        type            calculated;
        value           nonuniform List<scalar> 
30
(
6.324260333e-24
6.491911315e-24
6.498013333e-24
6.588543023e-24
6.273517061e-24
6.28140985e-24
6.479575549e-24
6.053197754e-24
6.644607007e-24
6.236210494e-24
6.17744975e-24
6.376720379e-24
5.972757882e-24
6.436286295e-24
6.419982749e-24
5.92112101e-24
5.93218842e-24
5.700022433e-24
5.944609003e-24
6.299015594e-24
5.786380644e-24
5.795932156e-24
6.00541044e-24
6.041575501e-24
5.638755544e-24
5.315053482e-24
5.289544003e-24
5.346722502e-24
4.556460619e-24
4.193869463e-24
)
;
    }
    frontAndBack
    {
        type            empty;
    }
    procBoundary1to0
    {
        type            processor;
        value           nonuniform List<scalar> 
21
(
1.484626493e-05
1.31348865e-05
1.229397727e-05
1.131266531e-05
1.047539344e-05
9.465392958e-06
8.659573268e-06
7.694516772e-06
6.975885738e-06
6.322579018e-06
6.036362226e-06
5.634889868e-06
5.472313546e-06
5.204042641e-06
5.142435116e-06
5.058696526e-06
4.989314051e-06
4.94180549e-06
4.922749408e-06
4.887008297e-06
4.808319803e-06
)
;
    }
    procBoundary1to3
    {
        type            processor;
        value           nonuniform List<scalar> 
36
(
1.145025143e-05
1.141910785e-05
1.169002776e-05
1.154880266e-05
1.145025143e-05
1.157134501e-05
9.392835884e-06
9.750473195e-06
1.013265387e-05
1.060648742e-05
1.097832623e-05
1.141910785e-05
1.124871266e-05
6.771682244e-06
7.153870519e-06
7.468601601e-06
7.740191019e-06
9.392835884e-06
8.213859991e-06
5.313613558e-06
5.457057541e-06
5.528136462e-06
5.749213668e-06
5.883760846e-06
6.771682244e-06
6.064384918e-06
4.851891475e-06
4.868201912e-06
4.855098414e-06
4.929947422e-06
5.006081229e-06
5.040719941e-06
5.313613558e-06
5.161141154e-06
4.851891475e-06
4.859950872e-06
)
;
    }
}


// ************************************************************************* //
