/*--------------------------------*- C++ -*----------------------------------*\
| =========                 |                                                 |
| \\      /  F ield         | OpenFOAM: The Open Source CFD Toolbox           |
|  \\    /   O peration     | Version:  2406                                  |
|   \\  /    A nd           | Website:  www.openfoam.com                      |
|    \\/     M anipulation  |                                                 |
\*---------------------------------------------------------------------------*/
FoamFile
{
    version     2.0;
    format      ascii;
    arch        "LSB;label=32;scalar=64";
    class       volScalarField;
    location    "0.004";
    object      rhoN;
}
// * * * * * * * * * * * * * * * * * * * * * * * * * * * * * * * * * * * * * //

dimensions      [0 -3 0 0 0 0 0];

internalField   nonuniform List<scalar> 
546
(
2.692068253e+20
2.824943771e+20
3.187472769e+20
3.326052766e+20
2.7733805e+20
1.862987931e+20
3.285224668e+20
2.482955022e+20
3.098070844e+20
3.242474209e+20
2.178746918e+20
3.294175474e+20
2.58272728e+20
3.09958538e+20
3.624886726e+20
3.024610844e+20
3.30386951e+20
4.100348182e+20
2.325920848e+20
3.257954896e+20
3.023061779e+20
3.049251089e+20
2.273489921e+20
3.912497184e+20
2.586159604e+20
2.472033026e+20
2.910154703e+20
2.237522425e+20
8.468091938e+19
2.564074614e+20
2.692068255e+20
2.372952767e+20
3.187472769e+20
2.179138019e+20
3.351168104e+20
2.678045152e+20
2.815906858e+20
2.601190975e+20
2.859757702e+20
2.401832746e+20
3.268120377e+20
3.538188472e+20
3.566623384e+20
2.355684887e+20
3.249898441e+20
2.77255994e+20
2.41436618e+20
3.459668776e+20
2.455138671e+20
1.824454743e+20
2.234436969e+20
2.916674957e+20
2.273489923e+20
2.563360224e+20
1.769477624e+20
2.746703365e+20
2.632997114e+20
3.076593336e+20
2.117022984e+20
2.136728845e+20
2.467729232e+20
2.824943771e+20
3.073634455e+20
3.89951014e+20
3.004495544e+20
3.376665624e+20
3.402554118e+20
2.955898835e+20
2.502287991e+20
2.401832748e+20
2.299788412e+20
2.318123482e+20
2.582727278e+20
2.603651717e+20
3.249898444e+20
2.016407229e+20
4.447516648e+20
1.793902328e+20
1.938267373e+20
3.51859129e+20
1.314374686e+20
1.723489746e+20
2.540959326e+20
3.777583488e+20
2.586159604e+20
1.785357186e+20
2.355839521e+20
2.377367576e+20
2.25815785e+20
9.971401285e+19
2.579898743e+20
2.033959513e+20
2.732119516e+20
3.096669819e+20
2.657822979e+20
2.328734913e+20
2.815906858e+20
3.310606695e+20
3.217227415e+20
2.28174111e+20
2.178746918e+20
2.928155975e+20
3.074675331e+20
2.107718058e+20
2.374925786e+20
3.654738103e+20
2.287294276e+20
2.30644585e+20
1.550613897e+20
3.257954898e+20
3.680249126e+20
1.988642016e+20
2.540959324e+20
3.237928701e+20
2.041704951e+20
1.648022018e+20
1.940103137e+20
2.237522429e+20
2.258157852e+20
1.424485893e+20
2.131220701e+20
2.485950516e+20
2.504442888e+20
1.835063594e+20
1.964477854e+20
2.794481898e+20
1.407953429e+20
2.010011208e+20
2.383131418e+20
2.882199295e+20
2.6629129e+20
2.562136482e+20
2.95168832e+20
2.231701474e+20
3.12490235e+20
2.142432681e+20
2.795581895e+20
2.434581735e+20
2.972009972e+20
3.257954896e+20
1.708687091e+20
1.856065879e+20
1.738551116e+20
2.833187616e+20
2.177818618e+20
2.334697854e+20
1.940103128e+20
1.817986976e+20
2.258157852e+20
2.136728851e+20
2.243390214e+20
1.807964015e+20
2.732119518e+20
2.867286869e+20
2.195592897e+20
1.630114441e+20
1.759941786e+20
2.719426928e+20
1.549035422e+20
2.281741108e+20
2.178746917e+20
2.074110482e+20
1.598831171e+20
3.347552205e+20
3.249898441e+20
2.142432681e+20
3.049725702e+20
3.587804656e+20
2.196703023e+20
1.824454745e+20
1.708687094e+20
2.386370423e+20
3.477102254e+20
2.428446528e+20
3.402841561e+20
1.785357186e+20
2.910154718e+20
2.517212732e+20
1.552483518e+20
2.421626009e+20
2.131220701e+20
2.259955015e+20
2.390604575e+20
2.293829492e+20
2.080035375e+20
1.746551186e+20
1.994600691e+20
1.655303348e+20
1.549035422e+20
1.681282923e+20
2.541871407e+20
2.318123483e+20
2.705714294e+20
3.34755221e+20
3.624886723e+20
2.394483583e+20
2.541438085e+20
1.793902328e+20
2.584356506e+20
2.345727544e+20
2.760186863e+20
2.916674972e+20
2.674694032e+20
2.563360242e+20
2.722273301e+20
1.922692371e+20
2.217260738e+20
2.097677277e+20
3.104967063e+20
1.566934505e+20
1.458203637e+20
1.242975259e+20
1.707574699e+20
2.293829496e+20
1.733362812e+20
1.746551185e+20
1.994600691e+20
2.364719068e+20
2.025661707e+20
2.882199297e+20
3.026037384e+20
2.440129979e+20
3.197662345e+20
3.223568795e+20
2.749914074e+20
2.772559947e+20
2.922653793e+20
2.947125239e+20
2.584356485e+20
1.172863759e+20
1.70868708e+20
3.314403321e+20
2.80842871e+20
2.968101307e+20
2.586159591e+20
1.236016502e+20
2.632997079e+20
8.390709032e+19
1.693618383e+20
1.851831654e+20
1.458203638e+20
1.694966262e+20
2.162927949e+20
2.293829494e+20
2.426707939e+20
1.280804203e+20
2.581247953e+20
2.482955022e+20
2.502287989e+20
1.561191285e+20
2.057705418e+20
2.318123483e+20
2.828701309e+20
3.719502462e+20
9.999687527e+19
1.764356314e+20
4.193372833e+20
2.947125263e+20
2.842792145e+20
2.345727517e+20
2.365874438e+20
1.988642026e+20
2.674694032e+20
2.698273915e+20
3.402841567e+20
2.19736269e+20
2.49441833e+20
2.936748187e+20
2.258157844e+20
1.851831671e+20
1.794712169e+20
1.807964012e+20
1.593736384e+20
1.605680646e+20
2.657822979e+20
2.794481896e+20
1.877271236e+20
2.482955025e+20
2.740601129e+20
1.56119128e+20
3.631244878e+20
1.952103983e+20
2.828701294e+20
1.859751228e+20
2.874910152e+20
2.520509041e+20
2.541438101e+20
2.050174096e+20
3.488881269e+20
2.60636393e+20
2.1029995e+20
1.988642009e+20
2.808428734e+20
2.023705437e+20
2.722273277e+20
2.472033026e+20
3.880206256e+20
2.936748187e+20
1.693618383e+20
1.994280242e+20
1.458203637e+20
1.581968507e+20
1.366059752e+20
1.261606219e+20
2.195592896e+20
1.746551189e+20
3.050565777e+20
1.537067401e+20
2.263974851e+20
1.921466194e+20
1.936663917e+20
1.586084486e+20
2.828701316e+20
3.471535626e+20
2.499921892e+20
2.142432685e+20
2.668509963e+20
2.818989359e+20
3.101227794e+20
3.127636689e+20
3.154499251e+20
1.458337486e+20
2.407224629e+20
2.56336022e+20
2.450045928e+20
2.472033026e+20
2.910154718e+20
1.678141821e+20
3.24610193e+20
1.709383096e+20
1.12169511e+20
9.039820105e+19
1.024544824e+20
1.605680649e+20
9.24460166e+19
1.746551179e+20
1.877271225e+20
1.182359522e+20
2.502287974e+20
2.161649484e+20
2.057705444e+20
1.708090998e+20
2.828701316e+20
1.735767813e+20
2.499921872e+20
2.520509041e+20
2.541438101e+20
2.947125263e+20
2.584356495e+20
2.476045712e+20
2.102999483e+20
3.049251055e+20
1.87228579e+20
2.833187611e+20
2.177818641e+20
2.06002754e+20
2.771575922e+20
1.118761214e+20
2.540427574e+20
1.994280242e+20
1.121695102e+20
1.694966251e+20
9.107065033e+19
1.261606224e+20
1.50224777e+20
1.862987938e+20
1.525282893e+20
1.182359539e+20
1.310722282e+20
1.921466194e+20
1.331456443e+20
1.464077976e+20
2.21376623e+20
1.735767813e+20
2.624917965e+20
3.528712629e+20
1.779006656e+20
1.922038215e+20
3.359663444e+20
2.476045733e+20
1.577249639e+20
2.386370432e+20
1.872285822e+20
3.372842394e+20
2.450045928e+20
2.197362671e+20
2.632997103e+20
2.517212732e+20
1.693618383e+20
2.848971775e+20
5.608475512e+19
7.909842564e+19
5.691915646e+19
1.261606215e+20
1.155575207e+20
6.986204714e+19
1.055965064e+20
1.53706739e+20
1.668191995e+20
1.921466194e+20
1.694580927e+20
2.196116981e+20
2.459740255e+20
1.983734627e+20
1.624949217e+20
2.772559945e+20
2.414366177e+20
1.281358799e+20
2.71357432e+20
3.257954885e+20
2.891624289e+20
2.518946545e+20
3.744571645e+20
2.56336022e+20
3.538955229e+20
2.609368195e+20
3.325891077e+20
1.538296656e+20
2.96383217e+20
2.421626031e+20
1.233864621e+20
9.039820138e+19
7.968681962e+19
1.605680649e+20
1.617805302e+20
6.986204766e+19
1.173294524e+20
1.300595493e+20
1.787348566e+20
2.281741105e+20
1.573539445e+20
1.586084499e+20
1.844805206e+20
1.983734643e+20
1.37495704e+20
3.276661753e+20
2.922653793e+20
2.050174096e+20
2.455138691e+20
1.954772947e+20
1.840124563e+20
2.121218161e+20
2.273489927e+20
3.372842394e+20
1.905591294e+20
2.884038556e+20
2.910154718e+20
2.796903036e+20
1.834753265e+20
2.564074621e+20
1.233864613e+20
1.468970751e+20
1.366059755e+20
1.376297699e+20
1.61780529e+20
1.397240953e+20
9.386356265e+19
1.064123585e+20
1.549035436e+20
9.607331042e+19
2.057705412e+20
9.760519839e+19
9.838961021e+19
2.479668304e+19
1.74994531e+20
1.638330877e+20
2.922653816e+20
1.922038215e+20
2.325920846e+20
1.563818358e+20
1.971562048e+20
1.458337486e+20
1.738551121e+20
8.094821746e+19
2.858386916e+20
2.334697838e+20
1.662945538e+20
1.53829667e+20
2.822697305e+20
1.121695102e+20
1.016979758e+20
1.138383137e+20
8.028403246e+19
2.311150415e+19
8.150572167e+19
1.407953419e+20
1.182359522e+20
1.072409132e+20
1.080824742e+20
1.210414967e+20
1.586084499e+20
9.838961099e+19
1.983734643e+20
6.249804679e+19
1.764356314e+20
1.143647136e+20
1.922038215e+20
2.196703021e+20
3.38827308e+20
2.891624289e+20
1.590913594e+20
3.209632811e+20
2.428446545e+20
2.722273301e+20
8.973560883e+19
1.016979758e+20
1.707574681e+20
1.490989163e+20
1.155575207e+20
1.280804207e+20
8.213061732e+19
5.911797697e+19
1.787348566e+20
1.080824734e+20
8.472904636e+19
2.196116981e+20
1.721818192e+20
1.611784398e+20
1.999937513e+20
1.512305437e+20
1.524862848e+20
1.15322292e+20
1.550613897e+20
1.009525599e+20
6.779865055e+19
1.138383137e+20
1.605680649e+20
1.040017687e+20
1.047930707e+20
1.290623967e+20
1.064123577e+20
7.149394266e+19
1.080824734e+20
1.69458094e+20
2.196116981e+20
1.229870128e+20
9.918673216e+19
1.233864613e+20
1.016979751e+20
1.252221442e+20
4.587658998e+19
1.155575216e+20
8.150572227e+19
7.039767146e+19
9.458876315e+19
1.009525599e+20
)
;

boundaryField
{
    flow
    {
        type            zeroGradient;
    }
    obstacle
    {
        type            calculated;
        value           nonuniform List<scalar> 
30
(
83.13577186
121.4156013
83.8242651
1e-300
224.841607
90.96895816
108.4817238
42.46015766
223.7067599
47.48051233
614.8157578
84.05582974
297.5938842
50.4348847
199.4861017
1e-300
107.2521597
45.79763389
1e-300
1e-300
1e-300
189.1827032
135.3288882
1e-300
98.36938514
58.67904592
1e-300
1e-300
1e-300
1e-300
)
;
    }
    frontAndBack
    {
        type            empty;
    }
    procBoundary1to0
    {
        type            processor;
        value           nonuniform List<scalar> 
21
(
3.897366324e+20
2.115713147e+20
1.781653177e+20
2.115713147e+20
1.781653178e+20
1.893006501e+20
7.794732648e+19
1.447593206e+20
1.670299853e+20
1.336239882e+20
1.113533235e+20
1.781653184e+20
1.002179912e+20
1.893006487e+20
6.681199412e+19
1.670299853e+20
1.55894653e+20
1.336239882e+20
1.224886568e+20
1.113533235e+20
8.908265883e+19
)
;
    }
    procBoundary1to3
    {
        type            processor;
        value           nonuniform List<scalar> 
36
(
3.276317571e+20
2.746703387e+20
2.632997126e+20
2.37736758e+20
3.276317571e+20
1.834753248e+20
2.215409322e+20
2.365874438e+20
2.651522702e+20
2.139755226e+20
2.698273915e+20
2.746703387e+20
1.905591277e+20
7.499765615e+19
1.638330863e+20
1.524862848e+20
1.28135881e+20
2.215409322e+20
1.292178248e+20
4.766262844e+19
2.161649468e+20
1.210414948e+20
1.708090985e+20
8.609090961e+19
7.499765615e+19
1.487800982e+20
1.242975269e+20
7.968681962e+19
1.032223275e+20
1.386690249e+20
9.314939689e+19
9.386356265e+19
4.766262844e+19
9.458876315e+19
1.242975269e+20
6.730170614e+19
)
;
    }
}


// ************************************************************************* //
