/*--------------------------------*- C++ -*----------------------------------*\
| =========                 |                                                 |
| \\      /  F ield         | OpenFOAM: The Open Source CFD Toolbox           |
|  \\    /   O peration     | Version:  2406                                  |
|   \\  /    A nd           | Website:  www.openfoam.com                      |
|    \\/     M anipulation  |                                                 |
\*---------------------------------------------------------------------------*/
FoamFile
{
    version     2.0;
    format      ascii;
    arch        "LSB;label=32;scalar=64";
    class       volScalarField;
    location    "0.004";
    object      rhoNMean;
}
// * * * * * * * * * * * * * * * * * * * * * * * * * * * * * * * * * * * * * //

dimensions      [0 -3 0 0 0 0 0];

internalField   nonuniform List<scalar> 
546
(
3.054768366e+20
3.094386908e+20
3.030375896e+20
3.031295676e+20
2.972370551e+20
2.967914429e+20
3.013606986e+20
3.027195115e+20
3.092530063e+20
3.057172813e+20
2.987848795e+20
2.987878158e+20
2.871070333e+20
2.96853491e+20
2.966844789e+20
2.892032069e+20
2.801808416e+20
2.825011761e+20
2.886467772e+20
2.836766487e+20
2.798960895e+20
2.872659678e+20
2.842263606e+20
2.797840228e+20
2.66401662e+20
2.619599665e+20
2.527607938e+20
2.44071743e+20
2.247855005e+20
1.84278618e+20
2.731551923e+20
2.728556689e+20
2.726826034e+20
2.755290642e+20
2.707397156e+20
2.72357192e+20
2.70420922e+20
2.737339675e+20
2.698836753e+20
2.719775355e+20
2.696320353e+20
2.673040387e+20
2.667588317e+20
2.710897371e+20
2.726289804e+20
2.67961617e+20
2.631659137e+20
2.640303887e+20
2.624090976e+20
2.589552871e+20
2.541146303e+20
2.571579279e+20
2.553329786e+20
2.465480338e+20
2.432895619e+20
2.447656036e+20
2.325698635e+20
2.210881925e+20
2.030083907e+20
1.68473947e+20
2.568681792e+20
2.62804519e+20
2.596765762e+20
2.566336438e+20
2.518460611e+20
2.51776997e+20
2.534726824e+20
2.529007925e+20
2.56418983e+20
2.535254557e+20
2.561298563e+20
2.543835505e+20
2.552902928e+20
2.548665073e+20
2.520983722e+20
2.463923609e+20
2.492197722e+20
2.449701765e+20
2.468900371e+20
2.45454322e+20
2.399062395e+20
2.432308048e+20
2.488200986e+20
2.359100888e+20
2.295012478e+20
2.27241636e+20
2.225229007e+20
2.147881682e+20
1.913788778e+20
1.717858769e+20
2.395323813e+20
2.449508742e+20
2.523624645e+20
2.490640066e+20
2.484717813e+20
2.465489871e+20
2.473891504e+20
2.518189336e+20
2.53040894e+20
2.509614992e+20
2.495573033e+20
2.482832253e+20
2.49928059e+20
2.505270879e+20
2.432736479e+20
2.392656216e+20
2.38297942e+20
2.40350878e+20
2.416050279e+20
2.413558148e+20
2.362522782e+20
2.333339966e+20
2.325044649e+20
2.320313199e+20
2.293719398e+20
2.2155596e+20
2.157394688e+20
2.057541718e+20
1.935382414e+20
1.779539001e+20
2.236491786e+20
2.295040817e+20
2.375748675e+20
2.410642759e+20
2.454326185e+20
2.457572174e+20
2.430714266e+20
2.455583398e+20
2.501394315e+20
2.453171921e+20
2.436141658e+20
2.48307627e+20
2.48907267e+20
2.486921334e+20
2.452173372e+20
2.438088391e+20
2.386982187e+20
2.414592538e+20
2.370694824e+20
2.356869731e+20
2.342807158e+20
2.260224224e+20
2.250019481e+20
2.268236514e+20
2.209124761e+20
2.187611889e+20
2.197651818e+20
2.068309799e+20
1.967420029e+20
1.791504693e+20
2.077940186e+20
2.149895209e+20
2.236979774e+20
2.283966029e+20
2.327906259e+20
2.374669211e+20
2.396336736e+20
2.403086635e+20
2.43865838e+20
2.454733112e+20
2.447156433e+20
2.45123257e+20
2.421306821e+20
2.438133856e+20
2.440548733e+20
2.443003384e+20
2.363855098e+20
2.404533867e+20
2.388268448e+20
2.358238076e+20
2.329137665e+20
2.262478026e+20
2.271818251e+20
2.296500933e+20
2.278270482e+20
2.188916577e+20
2.124482234e+20
2.086559587e+20
2.009478211e+20
1.831817627e+20
1.893140914e+20
2.008196026e+20
2.080907444e+20
2.160213924e+20
2.205530843e+20
2.322563768e+20
2.342541182e+20
2.367083787e+20
2.363530162e+20
2.430714786e+20
2.438501969e+20
2.443729174e+20
2.464659747e+20
2.470059589e+20
2.423174276e+20
2.396310952e+20
2.392001525e+20
2.35840495e+20
2.370953268e+20
2.349311295e+20
2.331963587e+20
2.32571685e+20
2.281580877e+20
2.28321195e+20
2.289908244e+20
2.239043933e+20
2.156286067e+20
2.120332191e+20
2.020769019e+20
1.902828283e+20
1.722418919e+20
1.812766418e+20
1.919257042e+20
2.031530093e+20
2.090493331e+20
2.149364107e+20
2.238880611e+20
2.297206339e+20
2.311220429e+20
2.328456757e+20
2.378465384e+20
2.403406023e+20
2.384841174e+20
2.395173607e+20
2.437986321e+20
2.450753955e+20
2.432219779e+20
2.405430806e+20
2.401384046e+20
2.401894659e+20
2.396630785e+20
2.335461156e+20
2.310735022e+20
2.280783484e+20
2.257308982e+20
2.230597781e+20
2.183031736e+20
2.120402095e+20
2.059651656e+20
1.975619477e+20
1.549173111e+20
1.655134555e+20
1.748841085e+20
1.835063595e+20
1.960260006e+20
2.03944782e+20
2.09984521e+20
2.171935346e+20
2.226559684e+20
2.248535771e+20
2.288531549e+20
2.348869121e+20
2.386624489e+20
2.424371705e+20
2.437236341e+20
2.478857609e+20
2.459031951e+20
2.453802121e+20
2.458562943e+20
2.42997823e+20
2.411811833e+20
2.370859024e+20
2.316151297e+20
2.292251148e+20
2.275616269e+20
2.261360879e+20
2.218923683e+20
2.150818434e+20
2.072283226e+20
1.994066588e+20
1.393706169e+20
1.477954081e+20
1.565049129e+20
1.662051506e+20
1.756532095e+20
1.841330696e+20
1.954943333e+20
2.026032183e+20
2.127421415e+20
2.203381308e+20
2.242354233e+20
2.284998715e+20
2.328328632e+20
2.385564892e+20
2.40398737e+20
2.418176374e+20
2.431139688e+20
2.422152558e+20
2.409007907e+20
2.414209749e+20
2.428504392e+20
2.413415943e+20
2.388501771e+20
2.306214716e+20
2.305016841e+20
2.274545055e+20
2.236453881e+20
2.200673231e+20
2.10791978e+20
2.035091763e+20
1.311093324e+20
1.38038052e+20
1.451666163e+20
1.51530376e+20
1.60018277e+20
1.680997301e+20
1.783642344e+20
1.898337359e+20
1.985386788e+20
2.099201817e+20
2.164282448e+20
2.214173943e+20
2.26203865e+20
2.294871024e+20
2.332677117e+20
2.349114426e+20
2.376308122e+20
2.415553541e+20
2.398476654e+20
2.403458478e+20
2.410037427e+20
2.405328819e+20
2.384021658e+20
2.372794624e+20
2.293242989e+20
2.258614175e+20
2.259735139e+20
2.266260607e+20
2.217158186e+20
2.115147909e+20
1.231228637e+20
1.279304042e+20
1.340787659e+20
1.407551126e+20
1.483411894e+20
1.560892788e+20
1.657513162e+20
1.73942821e+20
1.825597812e+20
1.891683482e+20
1.970252962e+20
2.05294237e+20
2.146738325e+20
2.209446451e+20
2.252554603e+20
2.319057356e+20
2.341236315e+20
2.375318894e+20
2.4017071e+20
2.41271107e+20
2.395973598e+20
2.429192482e+20
2.394118587e+20
2.38338535e+20
2.373754261e+20
2.357358182e+20
2.310316399e+20
2.242417009e+20
2.218287244e+20
2.209662509e+20
1.160281414e+20
1.199527616e+20
1.258311792e+20
1.29624305e+20
1.369934408e+20
1.44602795e+20
1.511027364e+20
1.572538187e+20
1.655382664e+20
1.727998566e+20
1.814775132e+20
1.93148487e+20
2.034143698e+20
2.107470092e+20
2.165307329e+20
2.212565831e+20
2.269059454e+20
2.309072643e+20
2.348792401e+20
2.375505245e+20
2.384275704e+20
2.434230416e+20
2.413175823e+20
2.42831161e+20
2.421802343e+20
2.376379061e+20
2.347663364e+20
2.321499442e+20
2.301203978e+20
2.237297535e+20
1.106664388e+20
1.141616277e+20
1.177543509e+20
1.236144708e+20
1.284421843e+20
1.330231596e+20
1.383783552e+20
1.460568728e+20
1.529195855e+20
1.628922966e+20
1.726899006e+20
1.792885502e+20
1.880409932e+20
1.965075124e+20
2.039936247e+20
2.11042222e+20
2.185191998e+20
2.264865746e+20
2.282632875e+20
2.326244947e+20
2.339849799e+20
2.364627925e+20
2.444737213e+20
2.453338101e+20
2.42745106e+20
2.41139955e+20
2.423050228e+20
2.384289894e+20
2.309954339e+20
2.26258218e+20
1.097129987e+20
1.117830259e+20
1.1462949e+20
1.159530812e+20
1.195095888e+20
1.246280712e+20
1.30916203e+20
1.367221453e+20
1.428925601e+20
1.4905774e+20
1.556109469e+20
1.614756026e+20
1.721449231e+20
1.844377285e+20
1.938751925e+20
2.055538135e+20
2.109139463e+20
2.160883497e+20
2.23172107e+20
2.287214666e+20
2.342215694e+20
2.383718909e+20
2.415114976e+20
2.419609677e+20
2.435617901e+20
2.419296343e+20
2.416675625e+20
2.426593074e+20
2.391671448e+20
2.325829354e+20
1.053159532e+20
1.05167006e+20
1.077308874e+20
1.09484482e+20
1.138299358e+20
1.177000848e+20
1.222807562e+20
1.274820055e+20
1.335626016e+20
1.385977594e+20
1.462120736e+20
1.554606797e+20
1.60854714e+20
1.689088057e+20
1.792631476e+20
1.870847836e+20
1.965802371e+20
2.045048661e+20
2.112646826e+20
2.200813702e+20
2.260395888e+20
2.296086084e+20
2.329792237e+20
2.39707909e+20
2.421325945e+20
2.417442276e+20
2.424574595e+20
2.425054777e+20
2.411289173e+20
1.047999734e+20
1.061161879e+20
1.070535502e+20
1.107976994e+20
1.105712137e+20
1.128970682e+20
1.165022789e+20
1.217948543e+20
1.249773686e+20
1.311160504e+20
1.365045479e+20
1.412652259e+20
1.461823645e+20
1.543345552e+20
1.612512105e+20
1.709409218e+20
1.820813313e+20
1.930815523e+20
2.027879933e+20
2.042607395e+20
2.110162825e+20
2.22595327e+20
2.270213408e+20
2.323348775e+20
2.348505177e+20
1.043625131e+20
1.057206958e+20
1.074861343e+20
1.076952942e+20
1.096814208e+20
1.116511958e+20
1.124192157e+20
1.143814618e+20
1.177981862e+20
1.213826222e+20
1.240977925e+20
1.306872613e+20
1.379360853e+20
1.447320397e+20
1.515140161e+20
1.595860312e+20
1.659304923e+20
1.76090733e+20
1.841806265e+20
1.029491772e+20
1.033872922e+20
1.044694205e+20
1.049943107e+20
1.059373571e+20
1.067783172e+20
1.084182797e+20
1.102491144e+20
1.133417304e+20
1.146634951e+20
1.212533184e+20
1.23885399e+20
1.269963894e+20
1.33778105e+20
1.023378527e+20
1.025850074e+20
1.02363411e+20
1.033542226e+20
1.04955119e+20
1.052879277e+20
1.072625854e+20
1.091376973e+20
1.002515005e+20
)
;

boundaryField
{
    flow
    {
        type            calculated;
        value           nonuniform List<scalar> 
15
(
1.84278618e+20
1.68473947e+20
1.717858769e+20
1.779539001e+20
1.791504693e+20
1.831817627e+20
1.902828283e+20
1.975619477e+20
1.994066588e+20
2.035091763e+20
2.115147909e+20
2.209662509e+20
2.237297535e+20
2.26258218e+20
2.325829354e+20
)
;
    }
    obstacle
    {
        type            calculated;
        value           nonuniform List<scalar> 
30
(
132.2218049
135.4439342
135.3821487
137.2933815
131.0299889
131.0187637
134.7530905
126.1309036
138.4967486
129.6313238
129.075997
133.050839
124.7196437
133.7564635
133.6532749
123.6600181
123.6709736
118.8933807
123.3170026
131.6855591
120.3264966
120.6851141
125.3484769
125.81846
117.0945997
110.615215
110.2297101
111.7559783
94.8635135
87.17757882
)
;
    }
    frontAndBack
    {
        type            empty;
    }
    procBoundary1to0
    {
        type            processor;
        value           nonuniform List<scalar> 
21
(
3.093339651e+20
2.736897663e+20
2.562128621e+20
2.356737416e+20
2.18124458e+20
1.972735481e+20
1.804926021e+20
1.604211656e+20
1.456056059e+20
1.317866584e+20
1.259350413e+20
1.175445688e+20
1.14114886e+20
1.084692717e+20
1.072054122e+20
1.053792177e+20
1.038982185e+20
1.029851213e+20
1.0275128e+20
1.018994264e+20
1.003070738e+20
)
;
    }
    procBoundary1to3
    {
        type            processor;
        value           nonuniform List<scalar> 
36
(
2.386512453e+20
2.379743814e+20
2.43566092e+20
2.406525294e+20
2.386512453e+20
2.410089526e+20
1.959334068e+20
2.033666236e+20
2.112269272e+20
2.210500883e+20
2.28793391e+20
2.379743814e+20
2.342448078e+20
1.412268363e+20
1.49214134e+20
1.558346295e+20
1.613871421e+20
1.959334068e+20
1.711619307e+20
1.108513581e+20
1.138648857e+20
1.152133468e+20
1.199201878e+20
1.226979943e+20
1.412268363e+20
1.264568843e+20
1.011951366e+20
1.014811648e+20
1.012381649e+20
1.028115262e+20
1.043564337e+20
1.050685254e+20
1.108513581e+20
1.075592473e+20
1.011951366e+20
1.013619779e+20
)
;
    }
}


// ************************************************************************* //
