/*--------------------------------*- C++ -*----------------------------------*\
| =========                 |                                                 |
| \\      /  F ield         | OpenFOAM: The Open Source CFD Toolbox           |
|  \\    /   O peration     | Version:  2406                                  |
|   \\  /    A nd           | Website:  www.openfoam.com                      |
|    \\/     M anipulation  |                                                 |
\*---------------------------------------------------------------------------*/
FoamFile
{
    version     2.0;
    format      ascii;
    arch        "LSB;label=32;scalar=64";
    class       volScalarField;
    location    "0.004";
    object      translationalT;
}
// * * * * * * * * * * * * * * * * * * * * * * * * * * * * * * * * * * * * * //

dimensions      [1 2 -2 0 0 0 0];

internalField   nonuniform List<scalar> 
546
(
934.0832789
906.025386
895.5769069
880.0107005
871.2355209
871.7294055
858.7041315
839.5213112
824.8719863
826.4155929
823.9809462
819.4422016
813.4894857
812.657783
799.5066543
792.6203542
802.4021
781.7610621
777.2495543
785.4075886
782.6122762
766.015512
767.333206
784.492806
773.6785319
772.9657024
764.1356858
751.9997007
757.8157178
737.2502003
1028.073639
1007.901999
998.4399022
984.8585624
976.5431194
963.6300401
957.2848831
941.3456887
940.7169996
927.774948
910.7411064
904.4143184
907.750812
901.7416004
897.4297737
884.277693
877.1696266
877.5780131
868.8902338
869.9795007
874.2853376
867.290846
856.2130066
857.9596859
848.3054734
831.9704932
830.9172976
820.8086897
798.8695479
741.372712
1021.524398
1029.620186
1010.946765
1014.289645
1006.029129
996.4520221
994.4595052
996.3368689
980.6869473
978.1977308
961.6788619
957.3460176
956.0742702
941.2998779
943.7177213
935.912745
920.1580993
920.1896664
916.685021
915.9907206
909.3648782
900.913167
885.3735956
895.728609
893.7404093
879.4598014
864.4031738
841.5754162
813.6044655
753.5422544
1023.357943
1022.470832
1022.865784
1006.870759
1006.949074
1005.199697
995.885123
991.7695257
980.0080263
979.5172711
967.2222252
964.216436
961.3793114
960.5872451
953.2254214
946.8937938
939.8446312
928.6072423
931.739206
928.1636742
924.9715698
922.3304976
915.1405466
912.165373
903.8005353
890.830047
864.8559529
851.1121953
815.6630486
763.0049756
1004.52745
1002.495981
1001.708685
985.2535696
977.0579933
979.1036931
963.3564068
962.3753136
963.6409417
958.7002071
955.7811492
955.3888742
955.5888936
954.5634234
939.1537817
935.4980942
934.9761394
938.0654207
948.2770976
940.1524416
925.676554
920.3553249
921.9279817
926.0951991
918.9808865
895.8779081
871.5248746
848.6167461
815.9843366
763.9657218
972.6782535
975.9615821
973.4104588
956.2936654
944.7944407
936.6989638
944.8484027
943.774445
945.8140761
942.3128134
934.8011043
944.9014397
945.1400808
946.7978231
933.1121222
939.6140658
923.77109
934.0900844
926.9806129
930.5493988
919.2673527
912.2201707
904.4292673
901.406386
902.2440734
892.3638378
865.1584541
844.9431662
817.6527438
767.6729235
951.5210161
951.9344625
951.9609958
937.9504465
918.6029927
935.6297247
927.2126964
924.8460434
914.8930984
918.6722203
916.6977761
916.5535923
915.1316934
917.3696943
921.0334845
918.1513571
925.1169813
924.9310276
925.4351924
916.828486
909.2123816
901.0312679
901.7924078
895.3098292
889.1880207
864.4439838
854.8117311
855.6996211
816.3275071
776.2489431
905.8224059
907.1751569
907.9413573
921.0710782
904.3911352
914.6416996
909.9238051
902.9038212
902.0742195
898.2914021
900.0421022
890.046549
894.0856302
899.2149891
900.911798
903.8448846
898.4440367
893.2462145
900.1570307
899.5433051
900.007261
897.0423117
889.20577
886.7783414
881.8504874
867.5511444
843.03642
831.3050763
806.6954181
772.7032274
850.7191747
884.5301344
884.6565385
890.5104019
892.703519
894.7069685
889.3132138
887.5675082
891.3824907
878.8807309
878.2735678
880.2126997
873.495834
877.0880307
880.1952534
884.0312798
878.442354
870.5771995
872.5522992
875.3828673
873.9034329
865.1251732
872.9798756
868.6229848
872.0077854
868.1601478
850.4063467
841.4066889
820.9226783
787.1585496
790.7779169
823.9391563
844.4053371
859.7247329
872.4820167
866.6435224
863.6289294
872.2748395
873.3479077
874.4721559
865.5376712
867.2384579
861.7861947
870.8037333
856.9696313
861.7653914
862.6513976
858.8875014
854.1219083
852.6428783
857.3977251
853.8073341
856.9813719
858.8135472
859.2235457
850.7060824
841.5622186
830.2097133
812.3894441
790.286642
705.0632642
748.3964723
784.3836865
798.1088527
823.3905983
836.1192237
846.3205214
850.9713594
848.232908
857.2301762
842.1035379
839.9019394
855.7004957
851.5527813
850.8061372
849.9237284
846.4575229
850.4092044
843.7277126
843.2939011
848.7136679
847.1880794
853.2673821
846.9555968
838.2288372
843.1640667
838.3311883
818.4960039
799.5836786
779.5412793
647.6376615
686.8088833
717.6161765
739.7629391
769.2836774
793.5166633
813.0297604
821.1642274
832.7495518
829.6224977
826.9512288
832.0908453
836.4705522
835.6640901
839.6417703
831.2873182
831.9757131
832.2822619
829.5472133
830.323283
834.6693076
833.8313852
827.1495078
822.1471245
828.6500433
819.3477799
817.3937805
805.9600285
797.1722788
781.2166157
568.2025144
611.7297687
653.531229
676.3932574
710.401235
744.7317039
761.2894231
779.7000147
787.8602224
807.8813872
816.3967774
816.2842924
818.6796305
820.4132406
823.9423565
828.2140788
820.5476314
817.9393393
819.3106683
817.1560934
816.3925593
829.9907503
823.9269138
833.2407649
819.8701262
809.8741612
800.9144259
792.7696177
793.874726
777.9505846
513.3596029
547.702047
585.5290881
610.4804171
659.3390298
689.6228689
712.7353449
730.5727778
747.5041773
770.931975
779.9888183
784.0692783
799.0668197
807.2810642
804.0964217
816.2045265
820.5532643
816.676422
809.0908308
805.4672995
802.590103
806.0467822
810.4797129
804.3309144
802.6680248
792.7233845
801.1576188
805.0338727
788.4937499
768.6598615
460.876307
484.3202539
517.2872506
545.1408628
587.2629555
624.559968
645.873183
683.2513043
708.6024943
725.2302799
744.0398614
754.2656763
772.7102706
782.0056642
780.3695237
790.7576371
791.1061273
790.0608389
788.3825412
783.2750205
786.1408101
790.1698396
793.1110812
795.4554478
798.0932128
784.4401047
779.6047087
784.510183
781.6878107
758.3809192
433.6572397
447.7204081
476.7457645
508.5970721
526.5767115
555.3399727
599.0706482
636.5369895
659.5333704
665.4512105
691.6942958
715.6867594
718.4962712
735.3049379
763.0298287
769.5514047
774.930008
774.0904647
781.8825359
774.4055152
767.5104757
768.3229873
773.4630503
777.7464614
775.9510675
767.9445118
763.8283567
767.2622565
762.2011251
402.9955055
407.9109128
428.3776761
461.1351189
477.2103422
507.0260776
529.8802452
571.9628211
606.6013313
626.3055326
657.3162142
684.0233555
691.6145322
711.7212221
735.3206761
745.5202153
761.0929913
771.1980179
777.3970794
766.9776423
757.1626601
774.992458
764.8110356
779.5152871
766.4819374
377.6516007
385.6831069
411.0125747
433.4157125
443.5868878
461.7076432
478.699999
515.177641
539.5037007
582.3821803
605.8990221
624.3752547
650.8101423
673.5763515
698.0888529
722.5310215
736.2724121
743.9599399
742.0152608
359.7946671
375.4093913
374.2225072
394.4502447
417.168708
438.7334122
453.1863123
474.7826755
501.6346182
517.0612851
567.7645306
588.1268465
597.6903345
618.6954787
346.661591
349.9983891
350.3371747
359.5956632
388.2633905
406.5924681
409.5851024
432.0681041
340.6709571
)
;

boundaryField
{
    flow
    {
        type            calculated;
        value           nonuniform List<scalar> 
15
(
737.2502003
741.372712
753.5422544
763.0049756
763.9657218
767.6729235
776.2489431
772.7032274
787.1585496
790.286642
779.5412793
781.2166157
777.9505846
768.6598615
758.3809192
)
;
    }
    obstacle
    {
        type            calculated;
        value           nonuniform List<scalar> 
30
(
795.6536908
814.5482061
782.0451512
778.8537734
747.3030438
750.5043636
749.1206408
771.428832
710.205469
723.7304396
761.2178683
732.7647217
732.3919461
713.6030498
709.8139238
712.6173324
707.9571894
711.0923742
694.2696793
695.989521
716.3131117
697.7465723
673.8453622
719.6008736
698.6548613
741.7259405
716.9676331
701.8043322
713.1392686
718.570537
)
;
    }
    frontAndBack
    {
        type            empty;
    }
    procBoundary1to0
    {
        type            processor;
        value           nonuniform List<scalar> 
21
(
952.363967
1053.14733
1044.425937
1039.38066
1006.88745
985.8343886
944.9347607
884.9196287
824.6088339
757.6310264
666.210235
601.8309711
542.404583
485.379979
442.8127584
416.0916665
390.1603609
359.2381931
350.4705464
334.0672246
331.6838345
)
;
    }
    procBoundary1to3
    {
        type            processor;
        value           nonuniform List<scalar> 
36
(
752.1996484
765.3015346
770.8486292
758.6804485
752.1996484
747.2413242
757.2788032
762.8822805
760.3671462
750.6121147
760.2431419
765.3015346
763.7953201
653.3332785
682.5597163
691.1684804
708.5221363
757.2788032
722.360701
460.2464464
473.0713097
492.3942866
542.219363
557.6831232
653.3332785
577.924027
336.4527802
341.3878224
346.7576124
369.1153357
386.1447656
386.5934625
460.2464464
410.1741404
336.4527802
328.8385096
)
;
    }
}


// ************************************************************************* //
