/*--------------------------------*- C++ -*----------------------------------*\
| =========                 |                                                 |
| \\      /  F ield         | OpenFOAM: The Open Source CFD Toolbox           |
|  \\    /   O peration     | Version:  2406                                  |
|   \\  /    A nd           | Website:  www.openfoam.com                      |
|    \\/     M anipulation  |                                                 |
\*---------------------------------------------------------------------------*/
FoamFile
{
    version     2.0;
    format      ascii;
    arch        "LSB;label=32;scalar=64";
    class       volVectorField;
    location    "0.004";
    object      UMean;
}
// * * * * * * * * * * * * * * * * * * * * * * * * * * * * * * * * * * * * * //

dimensions      [0 1 -1 0 0 0 0];

internalField   nonuniform List<vector> 
546
(
(379.3751801 105.9997775 2.403795129)
(351.0706333 102.9235045 1.711147284)
(347.2117994 96.96166278 3.499604181)
(330.5672499 93.81341886 -2.801234251)
(328.5435926 88.45837813 -3.148877609)
(325.6991777 87.96218753 -10.88896504)
(319.1990027 84.4016784 -9.730277316)
(306.4887333 89.18656546 -1.101526914)
(290.4019594 79.47819315 7.360953718)
(281.1835866 79.83783516 -0.1843509338)
(275.0469527 80.08078103 5.610026299)
(268.2899468 69.97597963 1.6552573)
(268.4529332 77.43356236 -8.787203527)
(258.7406387 67.42848887 7.417201734)
(252.6602146 69.16630648 0.1893852034)
(251.9498125 67.83247285 -7.51156196)
(249.2591541 71.00871972 -1.347488759)
(248.354503 64.78382915 3.932413813)
(232.9624154 66.14047848 4.009206724)
(232.4002937 59.74069399 -1.652858505)
(241.83071 62.48035998 -5.3943243)
(238.3563293 64.02484934 -4.77997723)
(229.3408009 64.89453116 9.400066882)
(239.5603319 59.60257138 14.81572604)
(253.3697864 63.53742108 -1.212595492)
(256.0973253 70.38388828 -4.253432313)
(262.0264953 69.96102258 2.061545181)
(275.1571703 69.69639891 8.26655773)
(309.6904716 79.05770113 11.82168989)
(407.7915798 77.60518192 -2.181604255)
(644.2655549 200.8885323 -7.949358084)
(628.7351595 190.9512433 -6.697289061)
(603.8914567 178.0202786 -2.940421792)
(581.8996549 174.1714627 -1.961917255)
(578.715495 159.268913 -1.92017299)
(564.1145844 159.5828501 -10.20869716)
(536.2152093 155.1676559 -4.717294581)
(520.2934448 150.1537583 -2.037654618)
(511.9796048 151.1487372 -8.921436249)
(494.2650946 146.8477523 -4.891173695)
(482.0086899 149.3382233 4.185619318)
(473.4903188 133.4368979 -0.01265982987)
(461.5673461 135.0814426 -4.221679162)
(442.5577914 120.3939018 9.62627031)
(431.1756653 119.2925072 6.122687823)
(426.1565807 125.9432765 -6.928334052)
(424.1966538 120.2664647 -7.160565579)
(412.7928944 110.3127237 -2.97006784)
(409.5354654 119.8088315 -1.143759235)
(405.5551505 108.7359241 0.5995645293)
(404.3150773 103.2616045 -6.884407159)
(388.5850409 108.1689889 9.469719447)
(398.2943598 108.2192227 -6.430744245)
(407.8168447 97.8739598 1.978826441)
(406.452046 108.7900594 -1.29388954)
(399.414416 110.1672138 -6.687516783)
(424.1349574 111.4041005 8.100364272)
(441.151533 107.7299244 3.39030789)
(488.1250269 116.0081206 0.4960325746)
(627.7834878 88.71331444 -7.293846866)
(838.1849713 268.5751501 -10.51297016)
(809.1496025 253.594772 -12.12502447)
(799.530508 254.2903344 -10.51442645)
(780.8162277 237.551888 -10.11082138)
(764.3048543 226.2337632 -0.7739892457)
(732.6226154 226.1206403 -5.881130509)
(714.4413651 218.9793871 -14.61705066)
(687.702739 212.3509424 -15.71899026)
(668.0573341 200.9793789 -9.534196757)
(659.8734284 197.1564315 -5.914428877)
(649.3511158 203.7020206 -3.557085251)
(636.8352784 190.860396 3.680664943)
(613.9137595 180.1832736 4.22464452)
(593.6604654 172.8744821 -1.289505812)
(583.3283027 172.2123994 2.174660515)
(592.4565277 173.3012296 1.995652166)
(579.8012783 165.6428037 -5.455238534)
(571.670196 161.7862618 -2.433475735)
(557.1492798 163.598441 -3.276330157)
(550.3529483 153.0585291 1.708115302)
(552.7372594 148.6083517 -1.822947252)
(549.8246396 144.0966172 -2.677742818)
(531.6110834 147.3078384 -5.128016259)
(535.8262993 145.5824125 -1.596181674)
(535.2840004 146.0185693 -1.292336285)
(533.8174713 141.3809829 4.161122728)
(545.0892359 143.1867696 1.683406721)
(574.7381277 144.4919238 3.605710061)
(641.3264359 139.2615442 -0.6376207018)
(733.7176322 101.6043137 -6.224058646)
(997.0923444 314.7392107 -0.02866088127)
(972.6218987 311.3256107 -3.180883092)
(933.8592665 306.2908835 -10.60522431)
(923.8180285 302.9791526 -10.97759704)
(911.0543459 291.816895 -10.05269636)
(894.7872329 273.1107896 -5.733005041)
(875.2966699 275.6436849 -5.185842095)
(849.3481824 267.2938529 4.569563992)
(814.807831 256.8220605 -3.347862654)
(801.4059763 249.1094015 -2.521762347)
(791.9035315 243.2317076 -1.710815805)
(769.118634 237.5132019 -1.340032484)
(748.1885901 231.5187568 -7.561922924)
(730.6178136 225.5517216 -11.60949468)
(733.1091822 220.0173045 4.713909778)
(724.6945801 210.9494859 -3.937634582)
(719.4649552 211.3414022 8.689171047)
(700.3097798 202.37871 0.3615972195)
(684.0354962 203.8173256 -2.815430743)
(673.8353804 194.8456032 2.705030441)
(675.5776066 181.2101692 9.18667556)
(661.842012 177.5200725 2.713754279)
(651.0694294 189.2765859 -4.973971682)
(641.9445639 187.4836012 0.9011961908)
(643.8249954 178.5781327 -1.222110178)
(657.9019721 176.3302558 -0.6880289938)
(659.3998724 172.1579028 -3.648450272)
(695.5355955 168.5835307 2.240868073)
(738.0615319 154.9576926 2.425918511)
(810.2415164 129.2159089 13.84479042)
(1110.117996 341.2339963 -1.713801727)
(1083.057873 342.6740378 6.925457028)
(1061.521393 348.7245019 3.746334768)
(1049.299769 340.3011835 -2.359732989)
(1022.513288 325.6187404 -1.277916949)
(1002.525005 326.6561597 -4.488836973)
(994.1472377 316.9749278 0.1709814395)
(968.1877762 310.6884969 -5.341419545)
(941.5771459 307.3932195 -16.20643467)
(932.9472859 295.4590438 -8.344088379)
(919.910256 291.3293821 -12.62298842)
(895.4104857 283.4612282 -2.055047882)
(883.4044995 271.118107 -4.393117886)
(861.7198634 277.3504364 3.011217132)
(849.4597871 262.4460013 -4.769562785)
(831.9870536 252.627817 -5.379877195)
(822.9227842 243.8851779 -0.3584900203)
(802.5054833 245.5696393 1.477507602)
(792.6769963 234.4652787 -2.274627557)
(777.2241136 229.8916335 -0.9741538309)
(770.9163361 225.56488 -1.99519591)
(771.5887527 217.2582857 -6.548352127)
(762.7279522 219.6948427 -4.149042264)
(747.9288847 217.1603827 4.7943944)
(758.798894 211.5114265 9.710082966)
(757.3446644 208.118683 0.4916112123)
(765.7445219 200.1370668 -8.231832546)
(790.6385886 192.921049 -6.919757115)
(822.7331933 179.9040639 -0.8774281177)
(878.0664659 161.5587922 -4.201175542)
(1187.113569 347.0567304 -0.9021677478)
(1167.939093 354.2952892 -0.1848137622)
(1146.770735 357.7797635 3.661099092)
(1131.784025 363.7106685 2.548757262)
(1114.353153 357.7094208 1.171316525)
(1091.178847 363.5648679 3.119499256)
(1082.804015 346.7563116 -3.495862009)
(1064.967561 337.4169164 0.8019374315)
(1042.208491 339.272414 -1.103251198)
(1030.224703 336.2677472 -2.330355533)
(1018.224641 326.9570904 -4.459631253)
(997.6085261 319.0160925 -0.5470447529)
(981.6087666 316.9656013 -1.003299076)
(960.2245214 308.3935897 8.14962595)
(947.4711568 303.5082621 4.685426824)
(928.3886114 290.3302211 1.504137869)
(934.9419839 288.1733208 -0.5790599616)
(910.8490143 281.1737575 1.680526813)
(893.9567094 280.2219714 4.180450545)
(876.4155858 266.0357215 -0.2296120222)
(864.9563813 262.4614944 -5.042120564)
(867.199783 253.138468 5.196360858)
(856.8774696 248.7682789 -8.668035569)
(842.5580025 245.6129141 3.159140095)
(838.0836282 239.3424461 5.793895953)
(851.5146321 229.0952319 1.054723689)
(858.4027694 229.1267711 -5.491795844)
(867.7118301 216.5841627 -10.36346875)
(897.038816 209.5359317 1.837981461)
(960.0236609 190.0483719 -9.764532737)
(1270.665598 337.4029712 -2.241929894)
(1242.711749 350.5333817 1.740211)
(1225.484584 363.7921728 -8.175476717)
(1204.739769 370.3807569 -3.989812141)
(1196.026368 369.4916201 -3.03480081)
(1171.578193 375.0185892 -4.979331013)
(1160.306746 374.9046082 1.088752698)
(1144.810176 371.6607637 -0.8500999713)
(1143.290982 364.8172851 4.907876277)
(1113.469175 356.9976972 8.814816113)
(1090.899019 359.6838414 4.086915249)
(1072.068739 352.3112725 0.2014211813)
(1060.198033 342.2912142 2.50025261)
(1043.64209 342.0355605 -2.072215088)
(1026.811468 338.6560673 -4.872987353)
(1018.059524 333.2678342 -1.01634717)
(1000.47185 313.6939033 -6.18543185)
(984.4340652 311.237581 -7.628581662)
(974.3807125 309.7905969 0.1750400527)
(958.9130413 305.0703225 -1.123914708)
(955.7247648 291.1930122 0.6118837598)
(951.3269006 286.7694128 -6.485178338)
(947.2071968 270.3896886 -6.094490078)
(939.8620848 267.4214251 -2.36201141)
(935.2782807 275.1754593 0.5667584245)
(938.1250253 266.1465424 3.487987919)
(950.0911586 256.0326089 7.539340562)
(949.0712639 245.6714872 7.35416303)
(968.9038665 236.6883898 -0.733174688)
(1007.687593 219.5656716 1.212768895)
(1335.688702 309.2875125 -2.826246193)
(1313.243263 331.5451417 -4.588345844)
(1301.761523 346.2226433 -3.114892031)
(1280.325042 367.1102139 -0.7440635263)
(1268.370287 367.1973904 -5.093302474)
(1237.322094 381.8404548 -0.8346833535)
(1222.024219 384.1276802 1.282876565)
(1208.193954 384.587201 4.545497794)
(1195.976708 382.8619809 -1.267762733)
(1185.580756 382.4597278 -5.467112795)
(1162.17152 382.5602852 -4.351115084)
(1147.851618 376.9710386 0.9435787091)
(1135.955293 376.055927 0.2513105523)
(1112.184577 374.9871014 1.309222195)
(1096.233274 365.7707383 0.3652305702)
(1083.470965 353.4203612 5.843560072)
(1072.827759 346.8829665 4.075705052)
(1060.712033 337.9099172 1.255988215)
(1048.591907 339.3786329 5.978614154)
(1045.201731 329.7003239 -3.658478665)
(1032.83829 316.0669599 0.574964656)
(1033.891896 311.1916271 2.153039576)
(1026.840773 305.0472878 0.2944762367)
(1013.182205 289.810673 3.454875515)
(995.3760123 299.1976111 0.408042762)
(987.8394176 291.044951 9.039101007)
(992.593309 280.4589113 7.180705604)
(1013.946853 272.062956 8.748902273)
(1026.688015 262.8721841 7.573571342)
(1047.749554 242.4450386 3.325906511)
(1420.455581 273.4536629 -0.2128169868)
(1382.714312 300.3634736 -0.9531576041)
(1360.415349 321.4607328 -1.300987597)
(1336.052255 342.141314 -2.467798021)
(1315.22692 355.3278121 5.480894799)
(1294.49735 371.6107713 1.46234434)
(1277.36802 383.5010429 0.1887348937)
(1261.055945 389.2409034 1.688783318)
(1244.673021 400.5206439 1.922261758)
(1241.158116 396.5513695 -0.678354714)
(1229.07711 397.3468215 -4.636503604)
(1206.693781 397.6041822 6.025464987)
(1196.822113 391.505058 1.798195575)
(1181.182604 387.6822758 -0.06053051263)
(1169.896961 380.6622087 -0.4469479256)
(1143.488711 377.8121511 -1.211640834)
(1133.628686 372.1180012 -1.841007144)
(1128.646894 359.9476227 -3.909277509)
(1110.325255 354.8155818 -1.784810701)
(1096.260782 352.8749807 -0.1599276402)
(1081.230258 348.6975396 -4.521631662)
(1083.126024 339.9184493 -1.721772105)
(1073.4437 330.4756465 -7.645882288)
(1075.352708 326.0727361 0.5308733056)
(1063.524041 318.2615934 -0.7823770147)
(1059.170418 314.4402863 -8.865495272)
(1053.816785 306.2955272 -2.772584533)
(1064.281825 295.7624822 -3.235285619)
(1078.684576 286.4736373 -0.5899425144)
(1105.155205 270.3031978 -3.931516206)
(1477.46677 227.6189711 2.299491438)
(1445.24653 257.0293736 5.790671969)
(1422.615273 286.3783656 7.130522654)
(1396.995665 307.4715154 5.090798842)
(1369.585704 336.468202 0.4907650093)
(1353.794064 361.8198152 -4.413714945)
(1332.844178 369.4359432 -4.946703138)
(1316.660647 383.722804 -5.577142206)
(1297.907518 387.1612798 -6.595036984)
(1281.741244 395.2198318 -4.19130463)
(1275.15237 396.2725368 -0.8407023593)
(1261.415254 397.8357668 -7.241822923)
(1243.40301 396.2437908 0.3444639936)
(1220.994102 399.0421743 -1.217871568)
(1214.378886 399.2799893 -5.677662258)
(1203.368098 396.6429591 -5.921404803)
(1197.862072 393.8485516 -3.751261363)
(1183.293489 392.3057636 -7.807150638)
(1175.517967 382.5783912 -6.438805044)
(1163.511363 379.3017808 -3.502949201)
(1142.566951 370.8195256 -7.959829952)
(1132.23717 360.4779797 -4.267308442)
(1133.543644 358.2097794 1.287556937)
(1133.500374 348.7510397 -2.270399835)
(1122.004919 343.905368 4.593146063)
(1116.665234 339.0174493 -4.035713519)
(1115.072495 333.4653142 -3.075827029)
(1116.731086 326.4723697 0.1324568542)
(1126.085841 311.2030988 0.9115371198)
(1144.780142 292.2090145 1.847409658)
(1528.615884 185.832637 -2.884672175)
(1493.08205 215.5073326 -0.9710661204)
(1465.592847 247.5711427 -6.449958829)
(1456.738597 275.0210206 -1.973752046)
(1429.312218 299.2138102 1.73704034)
(1410.946028 316.2778137 8.98544643)
(1387.262416 346.9826584 2.540602052)
(1366.079083 359.2586135 4.163943212)
(1351.130967 374.3714087 2.794224535)
(1325.691461 381.1941656 -4.128359293)
(1317.303987 392.7272847 -2.501496979)
(1306.864133 404.3725701 -4.713656221)
(1294.416525 407.8012156 -3.629828889)
(1283.967658 408.8737005 2.953368201)
(1266.665876 411.8689892 2.652809766)
(1259.100326 405.3072185 -0.07514181927)
(1246.282125 410.8035493 3.74133817)
(1230.01773 407.4495907 1.038133104)
(1218.513496 403.3107715 0.4357592538)
(1215.574552 395.2523917 1.424516054)
(1197.073425 391.5273341 2.445695279)
(1186.565658 385.0402161 -4.95668216)
(1177.657759 381.4844783 -2.867912156)
(1167.260863 373.4413922 -1.791102834)
(1170.166704 372.4122844 1.057071894)
(1168.985548 360.9451108 7.040923549)
(1157.873796 348.2746333 3.275043256)
(1158.703838 339.3388485 4.27975244)
(1171.33828 332.5042585 1.668841609)
(1177.577135 320.09812 1.635245514)
(1568.767782 148.9588557 0.6101335009)
(1547.199428 178.2457185 -1.434364844)
(1524.457365 204.5345905 -1.11191806)
(1503.607317 226.0894861 -3.271923945)
(1480.441872 257.7464234 -1.59622753)
(1452.646083 287.6463289 -3.194889744)
(1429.450376 306.8815126 4.941844727)
(1412.994996 318.2153649 -2.339731459)
(1401.107796 343.8451137 4.493859767)
(1384.56804 370.1434108 0.9353707844)
(1374.976435 388.4493098 -6.873948696)
(1352.087907 392.0049134 -0.6207431966)
(1330.596351 405.2946189 2.533557435)
(1323.463639 410.092284 2.00968555)
(1310.787591 410.7524951 7.308120743)
(1298.120672 417.1865262 9.364283845)
(1289.582763 420.8417495 7.609858084)
(1274.807919 415.1486384 3.011595174)
(1269.644905 416.0254434 0.7971275176)
(1252.806483 411.9441914 0.3639298317)
(1246.259328 408.3938512 2.708300048)
(1227.035399 405.7142471 5.093733745)
(1223.169196 402.1158273 -1.18615513)
(1215.462268 394.0284959 -3.235833246)
(1211.454824 383.4657668 -0.3418671896)
(1213.196624 372.8856037 -3.283147568)
(1209.296414 367.6541948 -1.757799047)
(1209.040238 359.7101198 -0.2830222871)
(1200.918602 358.2721298 1.480982512)
(1209.319842 341.168792 4.040267056)
(1618.606734 109.2662318 -5.775163729)
(1597.424928 138.636629 -6.137288283)
(1572.166119 169.7187262 -3.886037041)
(1550.056222 189.3933038 -0.9441789784)
(1527.316266 218.0487919 -3.313625999)
(1503.170824 243.723052 -1.179765837)
(1480.604661 269.4391965 -0.5899545217)
(1462.274078 295.8944747 -2.84474742)
(1445.574888 327.7461388 -5.167276038)
(1427.429511 344.0697887 -2.533668873)
(1410.830512 356.5140118 1.93839656)
(1391.037069 378.024703 -6.97750181)
(1370.700624 385.7940637 -8.196119797)
(1353.67215 397.5432138 -2.148333221)
(1343.616582 406.1970498 3.622213319)
(1333.978507 415.6356586 4.471401585)
(1317.667866 420.0382135 3.068436146)
(1309.175078 420.3446779 7.034392192)
(1297.018893 422.2281265 4.677795036)
(1292.761058 420.0017606 4.864968843)
(1287.939292 417.6799664 2.345386884)
(1269.868097 421.7747926 2.324924558)
(1264.412196 412.4693995 3.576185308)
(1252.465417 405.5667428 3.987363141)
(1245.902049 399.1465558 0.6529960916)
(1245.177697 394.2362854 -4.691894766)
(1238.079811 392.4517216 1.895306071)
(1232.983673 379.0058153 1.12771536)
(1239.527274 365.3034296 1.244336031)
(1246.131365 356.9534489 5.913005933)
(1642.672633 91.64498259 0.2277612943)
(1624.57363 105.820845 -2.313300682)
(1608.551003 126.176811 3.579651382)
(1590.493962 147.0121432 -0.06695986748)
(1565.763458 179.3202954 -3.909458308)
(1547.61951 206.039904 -1.296904728)
(1523.694577 230.1756987 -2.828877637)
(1497.700239 263.2036408 -2.6010904)
(1479.320438 278.2789422 -2.514038099)
(1454.534842 304.6487523 -1.896746326)
(1438.276638 318.7695424 -0.5019800449)
(1430.173812 337.5509046 1.90660664)
(1406.8391 365.6830552 -1.260589082)
(1384.118758 388.8268369 -6.983252068)
(1365.996724 400.6272052 -8.576717891)
(1358.387061 406.0251652 -2.84048719)
(1349.599611 407.1505617 -5.206445234)
(1337.115581 416.3596701 -4.418714902)
(1336.264776 422.8604748 2.263119787)
(1330.961936 425.8230694 4.447887284)
(1323.816363 423.6311023 2.750391296)
(1307.4803 419.6196892 4.254809329)
(1293.780144 421.7388838 5.036926647)
(1283.382793 414.3841816 2.817071802)
(1280.502586 413.8664173 5.364240636)
(1277.360664 411.3663476 4.427220458)
(1273.843295 403.6109992 -3.714619668)
(1266.952688 392.7423329 2.636317991)
(1270.612751 381.38902 -0.4305366135)
(1277.773027 370.7893247 -2.313235916)
(1672.517541 65.19462722 0.6312944973)
(1659.481275 77.8521428 -0.7617534579)
(1643.139992 93.43365699 -6.014080118)
(1628.196168 120.473017 -4.4949427)
(1606.778802 146.5079579 -3.06528689)
(1583.992655 173.8587681 -1.68701084)
(1565.022726 192.0645963 -1.552492429)
(1545.408629 220.5816091 -7.434232936)
(1519.43182 238.7702766 -5.270648661)
(1502.908393 261.427645 -5.467414536)
(1481.189543 295.8963709 -1.983970386)
(1464.318382 314.8432628 0.9240153006)
(1444.019796 335.6425065 -2.227989763)
(1422.981526 352.1181165 -2.667423224)
(1417.294452 367.353935 -2.13974964)
(1390.724359 382.9920141 -7.77948184)
(1386.625502 394.8801164 -7.434172542)
(1378.14432 408.5363467 -2.40475383)
(1365.0152 412.6327327 -2.683881905)
(1353.214082 416.1437826 1.608444346)
(1343.979471 419.0970474 -0.7802650567)
(1341.650873 419.7779369 -0.6388477053)
(1327.185007 423.8458418 -1.548977128)
(1316.598314 427.5926694 3.494836548)
(1304.947193 420.9706623 -1.192548254)
(1306.586086 417.7676001 -0.03310574426)
(1299.409486 413.2980645 -2.988170843)
(1288.044032 411.3872128 3.439765179)
(1294.40533 400.635873 4.159567441)
(1299.362674 389.9679709 -1.623453019)
(1676.551399 51.84060564 0.08817551445)
(1671.427448 63.01748653 1.277155062)
(1664.840972 80.49147973 2.794059309)
(1643.482403 94.52644891 0.368087492)
(1637.979714 103.8384569 -2.907195308)
(1614.255319 128.0179045 -1.073727678)
(1592.387166 154.6475593 1.553243176)
(1573.819755 178.5928854 1.147666418)
(1556.01107 202.2303755 -5.760121654)
(1544.525693 225.1204693 0.1929279393)
(1525.5839 251.9175604 4.659090625)
(1505.769807 275.4783063 -5.335101212)
(1495.809832 293.064402 -6.232528904)
(1481.49656 317.1271172 3.086459094)
(1451.190231 341.1828103 -1.578031678)
(1431.601965 361.1127012 -0.6998208718)
(1411.044243 379.3261918 1.733285524)
(1400.232935 391.5281675 0.5490020271)
(1388.524754 396.7946152 -4.543111467)
(1378.648849 406.0188087 -5.906277138)
(1375.630902 418.1062762 -2.104844423)
(1364.563462 426.2540008 1.883431341)
(1353.596245 426.8015297 0.9393444618)
(1335.831009 432.4446899 0.419714661)
(1337.986431 427.9894631 5.258228225)
(1338.72658 427.2903354 9.3340882)
(1328.934511 421.458595 3.597573823)
(1322.429582 417.9534539 -3.982531289)
(1312.619098 412.290353 -0.2570363763)
(1697.885916 47.30173914 2.724329084)
(1694.938193 52.87320538 0.4319536134)
(1683.162889 58.18131257 0.1256773658)
(1668.42065 69.67806627 3.378457799)
(1663.246371 83.02438086 5.738576304)
(1650.15766 96.36436979 -2.944008822)
(1638.821219 116.0348998 -1.024332856)
(1620.078178 134.961649 -1.675248377)
(1604.048256 167.338775 0.960821653)
(1585.497882 187.3981486 0.1683437245)
(1563.153859 212.5079094 -2.860086169)
(1543.048054 236.5589979 -2.245445656)
(1529.468476 266.7715052 -2.157468061)
(1511.535445 282.5891446 -1.425484295)
(1485.50377 309.277403 -0.9337039709)
(1467.8468 332.3051402 -6.370767016)
(1450.803434 344.8397264 -9.352801195)
(1428.231577 366.3676526 -0.09661453351)
(1419.458336 383.2616329 0.1851846637)
(1419.089344 400.0574051 -4.469441128)
(1407.439263 409.1306649 -5.801281234)
(1385.263429 414.3329136 1.132414526)
(1379.210447 421.4695551 1.980085882)
(1365.752255 426.4211131 0.5727500461)
(1365.46313 426.5455076 -1.857275231)
(1705.521371 32.17545233 -1.710845762)
(1695.859021 35.41003275 -1.271401123)
(1685.05972 46.8313892 -1.073984871)
(1677.087658 59.7914121 -2.141894092)
(1674.278263 68.45013348 -2.383449212)
(1668.550321 76.99132611 -0.7152442963)
(1663.193075 86.51143083 1.379558001)
(1645.526497 112.5426428 -1.25355226)
(1629.460897 127.4217479 2.669497394)
(1612.954152 160.3125544 -0.3780926936)
(1596.759539 180.9658554 1.543418184)
(1580.243508 195.2971336 1.493558006)
(1560.593433 220.0125588 -2.061481593)
(1544.292475 245.5397344 -2.296398421)
(1524.687827 271.2840062 -2.05609269)
(1503.775902 290.2079306 0.891181889)
(1494.046581 310.7863373 -6.68431812)
(1472.019703 337.6410356 -10.56346379)
(1459.227114 363.8500245 2.609778941)
(1706.654615 25.65925588 1.297711997)
(1701.967895 26.28346477 1.835807529)
(1708.93298 30.66465231 2.464534002)
(1699.886399 41.60148239 0.2738882145)
(1686.516667 52.87646041 3.963197802)
(1672.917613 61.07812815 2.475983109)
(1667.892114 73.61974584 4.009710208)
(1656.565166 85.74057501 -0.649487484)
(1647.566557 103.3200716 -0.01129349983)
(1638.027804 116.0204835 -1.975587461)
(1621.080892 145.6158021 0.5993207344)
(1604.382796 164.5774675 -1.356609109)
(1594.614222 178.6030509 4.442748834)
(1577.863061 199.2892448 4.255928146)
(1719.706293 17.93813748 -1.336915917)
(1719.074913 23.60090896 -0.2268596109)
(1715.548855 30.43241397 2.070367603)
(1707.821965 32.26107097 0.536301867)
(1701.60318 46.34170121 1.626074046)
(1695.76265 54.91662158 3.479881773)
(1690.82734 59.35117951 1.144025744)
(1679.592071 70.4031121 1.59910299)
(1720.286266 16.83150792 7.485808197)
)
;

boundaryField
{
    flow
    {
        type            calculated;
        value           nonuniform List<vector> 
15
(
(407.7915798 77.60518192 -2.181604255)
(627.7834878 88.71331444 -7.293846866)
(733.7176322 101.6043137 -6.224058646)
(810.2415164 129.2159089 13.84479042)
(878.0664659 161.5587922 -4.201175542)
(960.0236609 190.0483719 -9.764532737)
(1007.687593 219.5656716 1.212768895)
(1047.749554 242.4450386 3.325906511)
(1105.155205 270.3031978 -3.931516206)
(1144.780142 292.2090145 1.847409658)
(1177.577135 320.09812 1.635245514)
(1209.319842 341.168792 4.040267056)
(1246.131365 356.9534489 5.913005933)
(1277.773027 370.7893247 -2.313235916)
(1299.362674 389.9679709 -1.623453019)
)
;
    }
    obstacle
    {
        type            calculated;
        value           nonuniform List<vector> 
30
(
(196.0919293 52.54267418 3.35811723)
(191.0203483 51.18374815 -2.053245437)
(195.3438915 52.34223781 16.75663175)
(185.9885619 49.83548504 -3.334299168)
(153.034715 41.00552818 -0.6613498698)
(174.8441566 46.84935065 4.164909534)
(174.5348099 46.76646145 4.706488319)
(155.4501927 41.65275346 -0.500339113)
(150.4196586 40.30482611 8.050810891)
(150.3361563 40.28245174 -18.29978177)
(176.5467882 47.30556918 -9.870323353)
(121.7966774 32.63532141 21.29943843)
(155.0849789 41.55489493 0.09635979616)
(144.5832708 38.74097052 -3.86364423)
(113.931201 30.52777335 32.87341501)
(148.5805791 39.81204605 -6.187648056)
(139.6515558 37.41952165 2.937763274)
(157.1065488 42.09657295 6.603811403)
(139.7141971 37.43630618 -13.17106869)
(171.9473979 46.0731665 35.93667411)
(142.1920698 38.10025033 -9.478324685)
(130.6144837 34.99804533 -5.237676755)
(135.6118331 36.33708122 4.729202638)
(162.7208726 43.60092647 -7.84374523)
(145.8734538 39.08667403 16.55099349)
(147.2973827 39.46821481 4.076140969)
(152.1814785 40.77690413 15.00097614)
(182.9321878 49.01653207 -18.06251963)
(205.8980183 55.17020782 4.630538252)
(224.3233604 60.10726307 14.72118076)
)
;
    }
    frontAndBack
    {
        type            empty;
    }
    procBoundary1to0
    {
        type            processor;
        value           nonuniform List<vector> 
21
(
(394.2253347 116.6219944 1.032920785)
(662.9094404 202.8526474 -1.338876245)
(853.6369962 276.3896194 0.3489193497)
(1013.762343 322.2855074 -3.899620012)
(1121.438233 340.095582 4.262975169)
(1211.390347 332.4578791 0.6636233784)
(1293.955719 315.2883436 0.725538394)
(1367.132573 283.4273521 4.892230372)
(1447.08855 236.0853366 -6.57396832)
(1516.747218 198.9836956 -2.4176312)
(1554.276318 161.7406171 6.119242943)
(1598.178263 123.6933926 -1.81412514)
(1630.593204 97.49465113 -4.848422326)
(1659.733119 70.08851214 -1.849407742)
(1679.685966 59.91318883 2.996239664)
(1680.854309 38.43227463 -2.662025553)
(1705.272794 39.82583586 3.568555453)
(1711.151712 24.38290667 -4.099853035)
(1715.921864 19.80882979 0.1148155733)
(1721.750246 16.72056413 0.4596081234)
(1724.635612 13.11736722 9.219681404)
)
;
    }
    procBoundary1to3
    {
        type            processor;
        value           nonuniform List<vector> 
36
(
(1315.84821 411.0428749 -2.848095014)
(1361.263602 429.9405813 1.412193209)
(1348.403992 431.6515136 5.075741)
(1347.468647 425.4757182 5.497169353)
(1315.84821 411.0428749 -2.848095014)
(1347.889548 424.963553 7.451269999)
(1437.712451 374.1473555 2.058605503)
(1433.399859 380.24473 -4.648217274)
(1418.66159 397.4097681 -8.869361797)
(1411.141349 406.0464383 -6.64341562)
(1392.457497 416.1156403 -0.4973154148)
(1361.263602 429.9405813 1.412193209)
(1376.204943 423.3338495 -6.161296397)
(1559.430367 231.2898028 0.1009445562)
(1540.838543 252.395481 -1.888390282)
(1525.006687 279.655545 0.9689388586)
(1508.781428 299.9113233 -3.679592922)
(1437.712451 374.1473555 2.058605503)
(1487.912609 318.5847439 -5.913087686)
(1669.162871 85.10721828 -0.8841196749)
(1662.373458 92.90656619 1.528950815)
(1653.863301 105.8173849 0.09778856738)
(1633.381467 130.4688988 4.647545053)
(1629.233654 145.5070483 2.784299197)
(1559.430367 231.2898028 0.1009445562)
(1613.932768 161.2999351 -5.79266433)
(1723.150457 14.93124466 6.469247636)
(1717.760718 19.22472431 3.514605218)
(1718.262461 23.4068813 2.818694377)
(1711.653407 27.62905936 2.410013399)
(1706.422416 37.46079382 0.5683947378)
(1705.443966 41.19421982 -1.440443323)
(1669.162871 85.10721828 -0.8841196749)
(1694.696123 50.90341834 3.099025178)
(1723.150457 14.93124466 6.469247636)
(1725.171454 13.55940365 -7.646950825)
)
;
    }
}


// ************************************************************************* //
