/*--------------------------------*- C++ -*----------------------------------*\
| =========                 |                                                 |
| \\      /  F ield         | OpenFOAM: The Open Source CFD Toolbox           |
|  \\    /   O peration     | Version:  2406                                  |
|   \\  /    A nd           | Website:  www.openfoam.com                      |
|    \\/     M anipulation  |                                                 |
\*---------------------------------------------------------------------------*/
FoamFile
{
    version     2.0;
    format      ascii;
    arch        "LSB;label=32;scalar=64";
    class       Cloud<dsmcParcel>;
    location    "0.005/lagrangian/dsmc";
    object      coordinates;
}
// * * * * * * * * * * * * * * * * * * * * * * * * * * * * * * * * * * * * * //

9404
(
(0.8120390331 0.06413966698 0.09398048343 0.02984081646) 201 397 2
(0.0721310274 0.4639344863 0.2575125106 0.2064219757) 148 290 2
(0.04577266282 0.4643359249 0.01277774366 0.4771136686) 88 174 1
(0.004635338581 0.2918281162 0.2058542145 0.4976823307) 109 215 1
(0.3464888034 0.3048423016 0.02191329665 0.3267555983) 89 1043 1
(0.283970638 0.358014681 0.01575281893 0.3422618621) 82 104 1
(0.4766533422 0.2616733289 0.2024076499 0.05926567904) 178 293 1
(0.2971638981 0.2761913852 0.351418051 0.07522666573) 119 233 1
(0.01576671054 0.234187731 0.4921166447 0.2579289138) 81 158 1
(0.4685949572 0.2657025214 0.1243953252 0.1413071962) 109 215 2
(0.4022156669 0.2988921665 0.2207743001 0.07811786647) 87 173 1
(0.440185864 0.279907068 0.2550744509 0.02483261711) 478 936 2
(0.1804477882 0.1522131381 0.4097761059 0.2575629678) 88 175 2
(0.3107829121 0.3226915029 0.02191704108 0.3446085439) 25 50 1
(0.174307472 0.07892281263 0.3339234514 0.412846264) 175 345 1
(0.09217336099 0.09251697186 0.4539133195 0.3613963476) 52 104 2
(0.2755267439 0.3622366281 0.1935102469 0.1687263811) 119 233 2
(0.4439913157 0.2780043421 0.1872557448 0.09074859739) 83 164 2
(0.6820594887 0.1521938642 0.006776391391 0.1589702556) 57 55 2
(0.4428250908 0.1830982063 0.2785874546 0.09548924836) 266 525 2
(0.4836958677 0.2581520662 0.03578194541 0.2223701207) 86 171 1
(0.2025504329 0.1956034386 0.203121345 0.3987247836) 149 235 2
(0.007046188173 0.4741484661 0.4964769059 0.0223284398) 76 151 2
(0.2680567909 0.07240757 0.3659716046 0.2935640346) 177 347 1
(0.363093526 0.1703068769 0.1481463601 0.318453237) 177 291 2
(0.2087110405 0.1908570254 0.3956444797 0.2047874543) 19 39 2
(0.05379157807 0.4478601899 0.02524402104 0.473104211) 28 56 1
(0.2040935166 0.04399403276 0.3539592089 0.3979532417) 84 108 2
(0.6909639934 0.01836897292 0.1361490304 0.1545180033) 11 22 1
(0.9762238691 0.001823697179 0.01006436825 0.01188806543) 111 219 1
(0.7219219677 0.131169416 0.1390390162 0.007869600216) 29 58 2
(0.3631130293 0.04937747666 0.3184434853 0.2690660087) 206 407 2
(0.296494779 0.3517526105 0.3432421905 0.008510419999) 236 466 1
(0.5859009361 0.01044573963 0.2070495319 0.1966037923) 51 102 2
(0.8502798824 0.04377331572 0.07486005879 0.03108674307) 27 52 1
(0.4216054135 0.2891972933 0.1648511026 0.1243461907) 179 294 1
(0.05945138148 0.4702743093 0.4701536512 0.0001206580715) 359 1052 2
(0.5655337496 0.08464394005 0.1325891851 0.2172331252) 177 349 1
(0.3072322961 0.3070062978 0.03937755414 0.346383852) 104 147 2
(0.8012235486 0.00399012206 0.09938822571 0.09539810365) 164 324 2
(0.3777674148 0.3111162926 0.1267938034 0.1843224892) 144 284 2
(0.3535811461 0.3232094269 0.09937342372 0.2238360032) 239 1048 2
(0.0412186758 0.4793906621 0.368016756 0.1113739061) 89 117 1
(0.846464198 0.07676790099 0.05302082134 0.02374707965) 117 173 1
(0.9309959232 0.0345020384 0.01422586801 0.02027617038) 55 51 1
(0.1239677632 0.4380161184 0.2885643512 0.1494517672) 324 580 1
(0.583188648 0.01594212468 0.1924635513 0.208405676) 110 159 2
(0.6825476239 0.158726188 0.1074715735 0.05125461451) 52 45 1
(0.2765162008 0.1209002929 0.2408416066 0.3617418996) 118 175 2
(0.2198493422 0.3900753289 0.01452053158 0.3755547973) 205 402 2
(0.02273081469 0.3298728911 0.1587617016 0.4886345927) 28 1084 1
(0.01878866295 0.03146857072 0.4906056685 0.4591370978) 204 400 1
(0.7368221944 0.1315889028 0.122475691 0.009113211819) 59 115 2
(0.04359588088 0.4782020596 0.215805799 0.2623962606) 25 50 2
(0.1788994646 0.4105502677 0.2983651136 0.1121851541) 208 411 1
(0.1582036146 0.2998361665 0.1210620262 0.4208981927) 22 44 1
(0.8076469681 0.0003952896591 0.09617651593 0.09578122627) 139 275 2
(0.4897597695 0.188592034 0.2551201152 0.06652808124) 413 811 1
(0.3358611606 0.3320694197 0.02349862043 0.3085707993) 87 114 1
(0.02378030532 0.4881098473 0.08226818279 0.4058416646) 29 58 1
(0.2052696743 0.3973651629 0.06682585327 0.3305393096) 81 160 2
(0.09883508082 0.4505824596 0.2642186953 0.1863637643) 89 174 2
(0.189663733 0.4051681335 0.1722237203 0.2329444132) 77 152 2
(0.03491893368 0.4825405332 0.3535058732 0.12903466) 138 214 1
(0.04767297485 0.05629981229 0.4198637003 0.4761635126) 78 96 2
(0.1001126292 0.0968544184 0.353089267 0.4499436854) 57 55 2
(0.4504777471 0.2747611265 0.1588149309 0.1159461956) 205 346 1
(0.5349663417 0.06133391748 0.2325168292 0.1711829117) 21 40 1
(0.4124671127 0.2937664436 0.1343302194 0.1594362243) 87 170 2
(0.009916332781 0.4950418336 0.01657297215 0.4784688615) 55 109 2
(0.06299212753 0.4685039362 0.3590828453 0.1094210909) 116 171 1
(0.1550645738 0.1454386975 0.2770290156 0.4224677131) 48 37 2
(0.01838040364 0.4908097982 0.1223320725 0.3684777257) 266 524 2
(0.2373416388 0.184598221 0.3813291806 0.1967309596) 88 175 2
(0.04455286218 0.3077373691 0.1699861998 0.4777235689) 147 290 1
(0.25996917 0.3253213288 0.370015415 0.0446940862) 27 55 2
(0.6467031382 0.1766484309 0.1318866574 0.0447617735) 148 234 1
(0.4116763286 0.2941618357 0.197431416 0.09673041975) 388 706 1
(0.2326573325 0.2490375248 0.1346338089 0.3836713338) 144 226 2
(0.3102976751 0.3448511625 0.1183345791 0.2265165834) 148 234 1
(0.1724207945 0.1931110317 0.4137896027 0.220678571) 232 458 2
(0.3538944531 0.1105662675 0.3230527735 0.212486506) 87 173 2
(0.2269879784 0.2505015067 0.1360045041 0.3865060108) 25 1081 1
(0.1536616407 0.2070386879 0.2161304917 0.4231691796) 25 1081 1
(0.2614297356 0.05959990098 0.3096852312 0.3692851322) 28 56 1
(0.340121062 0.1716397255 0.329939469 0.1582997435) 83 162 1
(0.7263867984 0.03622112616 0.1368066008 0.1005854746) 177 347 1
(0.5903918683 0.02973706974 0.2048040659 0.1750669961) 111 217 1
(0.4062079088 0.2968960456 0.02184495892 0.2750510867) 179 294 1
(0.08206960161 0.4589651992 0.4398903231 0.01907487608) 75 146 2
(0.2743328438 0.3628335781 0.2839709319 0.07886264614) 117 232 1
(0.1386180893 0.3718398532 0.4306909554 0.05885110214) 52 101 1
(0.2984208701 0.3406787755 0.01011078941 0.3507895649) 25 50 1
(0.2530306884 0.1124737713 0.2610108845 0.3734846558) 206 406 1
(0.1055537787 0.2341263885 0.4472231107 0.2130967222) 51 99 1
(0.6573076823 0.1713461588 0.007253123965 0.1640930349) 269 1049 2
(0.2622593855 0.3688703072 0.1901397231 0.1787305841) 148 293 1
(0.5396993108 0.2301503446 0.06916512362 0.160985221) 85 110 1
(0.1008970796 0.4495514602 0.3476378804 0.1019135797) 101 141 1
(0.01437274229 0.178218731 0.3145948979 0.4928136289) 108 155 2
(0.5966200394 0.2016899803 0.07212449592 0.1295654844) 87 173 1
(0.4370592258 0.1266510653 0.2814703871 0.1548193218) 17 35 2
(0.6912167872 0.1239073046 0.03048430183 0.1543916064) 77 94 2
(0.6394123221 0.1802938389 0.1653250111 0.01496882785) 87 173 1
(0.2485581002 0.05379834998 0.3219225999 0.3757209499) 263 518 1
(0.4288803954 0.2061912622 0.2855598023 0.0793685401) 114 223 1
(0.951715476 0.02414226198 0.01446570562 0.009676556359) 118 234 1
(0.1562538286 0.4218730857 0.1070670393 0.3148060464) 291 573 2
(0.2604643578 0.3697678211 0.1642625759 0.2055052452) 174 343 2
(0.3085266084 0.2993562325 0.04638046328 0.3457366958) 58 57 2
(0.220790539 0.3896047305 0.1409150026 0.2486897279) 25 48 2
(0.5308537598 0.2345731201 0.1734973049 0.06107581523) 174 341 2
(0.008759337178 0.4956203314 0.2030854712 0.2925348602) 114 223 2
(0.3080879747 0.02118535077 0.3247706619 0.3459560126) 83 106 2
(0.209502573 0.1934500442 0.3952487135 0.2017986693) 174 344 2
(0.3243018287 0.3378490856 0.1024747827 0.2353743029) 266 525 1
(0.4520290584 0.2739854708 0.152568887 0.1214165838) 29 1041 2
(0.7928893166 0.1035553417 0.0379337941 0.06562154762) 114 167 1
(0.02986979072 0.4850651046 0.0621764193 0.4228886853) 46 91 2
(0.7004968238 0.1497515881 0.1436898441 0.006061744003) 25 50 2
(0.2535937815 0.3732031093 0.1081006523 0.265102457) 42 83 2
(0.1776165031 0.2336304352 0.4111917485 0.1775613132) 178 352 2
(0.06075075953 0.4696246202 0.1272173359 0.3424072843) 84 166 2
(0.3192689237 0.2252125808 0.1151529573 0.3403655381) 19 38 1
(0.174984635 0.4125076825 0.1023359093 0.3101717732) 54 108 1
(0.6880163222 0.1559918389 0.07338654614 0.08260529278) 178 352 1
(0.01134462473 0.4943276876 0.3186605103 0.1756671774) 21 1077 2
(0.6884251597 0.1098409324 0.04594648772 0.1557874201) 267 468 2
(0.7141315075 0.1429342462 0.05651171165 0.08642253459) 177 291 1
(0.4310142005 0.2844928998 0.008737496844 0.2757554029) 88 175 1
(0.01483395359 0.4925830232 0.4589799686 0.03360305458) 176 348 1
(0.7666044975 0.1166977512 0.05310141193 0.06359633932) 59 58 1
(0.593293014 0.203353493 0.08747290391 0.1158805891) 84 166 2
(0.2776039551 0.3611980225 0.3162249659 0.04497305651) 78 155 1
(0.4724490953 0.2637754523 0.228007935 0.03576751736) 77 94 1
(0.06823176321 0.448793912 0.01709020635 0.4658841184) 25 1081 1
(0.1810108346 0.2617962664 0.4094945827 0.1476983163) 59 115 1
(0.8334469206 0.08327653968 0.05383245228 0.0294440874) 108 155 1
(0.412917429 0.009432255021 0.2935412855 0.2841090305) 111 217 1
(0.1354446952 0.4322776524 0.1974325536 0.2348450987) 112 222 1
(0.4041354069 0.2979322965 0.1644134087 0.1335188878) 54 108 1
(0.4756431041 0.1005941439 0.1615843041 0.2621784479) 109 215 1
(0.05099786753 0.4745010662 0.2388846323 0.235616434) 200 395 1
(0.6438018149 0.1143597644 0.1780990926 0.06373932821) 207 406 1
(0.1197707199 0.44011464 0.3804916221 0.05962301796) 21 43 1
(0.1137403489 0.4431298255 0.154890436 0.2882393895) 268 529 1
(0.1553995562 0.02961109497 0.4223002219 0.3926891269) 171 338 2
(0.205241385 0.3973793075 0.3896023177 0.007776989734) 167 329 2
(0.3027742006 0.01995395946 0.3486128997 0.3286589402) 26 53 2
(0.06142288317 0.4692885584 0.4437673577 0.02552120075) 449 825 1
(0.6506853697 0.1385178811 0.03613943405 0.1746573151) 19 1075 1
(0.1606974899 0.4196512551 0.2751836741 0.1444675809) 229 451 2
(0.1888798841 0.01361824809 0.405560058 0.3919418099) 326 643 2
(0.3323369767 0.3338315117 0.2609872383 0.07284427339) 56 109 2
(0.1636525647 0.3612840998 0.05688961785 0.4181737177) 104 205 1
(0.05602485968 0.4719875702 0.4680683204 0.003919249773) 136 268 2
(0.6811249728 0.1594375136 0.04177529959 0.117662214) 27 1083 2
(0.6405584038 0.1786802231 0.001040575003 0.1797207981) 113 223 1
(0.07899385207 0.460503074 0.238048785 0.222454289) 118 175 1
(0.4858222797 0.2570888601 0.1519632841 0.1051255761) 89 1043 2
(0.7661659795 0.1169170103 0.07378445671 0.04313255355) 311 610 2
(0.09373484431 0.4531325778 0.4235131844 0.02961939347) 173 341 2
(0.6125388944 0.1533446482 0.1937305528 0.04038590464) 18 37 2
(0.5483472162 0.2258263919 0.06666407687 0.159162315) 50 99 2
(0.2960687164 0.1981364996 0.3519656418 0.1538291421) 209 412 2
(0.03301905092 0.1083927979 0.4834904745 0.3750976766) 54 108 2
(0.166509199 0.1145185449 0.3022268556 0.4167454005) 140 276 1
(0.05490796601 0.3660988645 0.472546017 0.1064471525) 209 412 2
(0.6388804053 0.1805597973 0.1264437393 0.05411605801) 133 204 1
(0.1231240165 0.4384379917 0.2371777263 0.2012602655) 382 750 2
(0.476113101 0.2619434495 0.2128900826 0.04905336688) 169 334 1
(0.2466565507 0.3766717246 0.06659543792 0.3100762867) 18 37 1
(0.03012618692 0.4849369065 0.1023824907 0.3825544158) 350 687 2
(0.5922641658 0.2038679171 0.1248855831 0.07898233398) 86 168 2
(0.1535152553 0.3359302214 0.4232423723 0.08731215093) 207 409 2
(0.0009534309329 0.4995232845 0.3349917108 0.1645315737) 412 811 2
(0.7071433717 0.1191539274 0.02727438678 0.1464283142) 59 1042 1
(0.08121137972 0.03261839218 0.426775918 0.4593943101) 346 623 2
(0.07104888109 0.1455271918 0.3189483676 0.4644755595) 133 262 1
(0.01034708005 0.1013296 0.39349686 0.49482646) 114 225 1
(0.08773257393 0.456133713 0.1964562034 0.2596775096) 79 154 2
(0.2169289296 0.21551817 0.1760173652 0.3915355352) 28 56 1
(0.09486724361 0.2956567087 0.4525663782 0.1569096695) 238 470 2
(0.8627841618 0.0686079191 0.03048904334 0.03811887576) 139 272 2
(0.02876100647 0.07634693547 0.4856194968 0.4092725613) 29 58 2
(0.1089035028 0.4455482486 0.2440878954 0.2014603532) 84 166 2
(0.4029507967 0.2985246016 0.0910063335 0.2075182681) 299 1050 2
(0.2473728475 0.3763135763 0.1286894246 0.2476241517) 224 439 2
(0.0367207312 0.4816396344 0.1793128355 0.3023267989) 54 105 2
(0.01895368989 0.4905231551 0.1854913377 0.3050318174) 267 526 2
(0.03516219177 0.4824189041 0.4125828695 0.06983603466) 239 412 1
(0.2426434321 0.009298449108 0.3786782839 0.3693798348) 79 157 2
(0.05180056356 0.4740997182 0.3391619884 0.1349377299) 388 706 1
(0.2868255313 0.3565872344 0.3166324562 0.03995477813) 48 93 2
(0.05208845263 0.4739557737 0.1841160971 0.2898396766) 53 47 1
(0.5117861723 0.2441069139 0.1672465394 0.07686037442) 206 406 2
(0.8803963198 0.05980184009 0.04089010785 0.01891173224) 57 55 1
(0.3590421274 0.3204789363 0.1062436759 0.2142352604) 59 58 1
(0.3664180804 0.02141492347 0.2953760363 0.3167909598) 143 224 2
(0.5145085354 0.1558998694 0.2427457323 0.08684586291) 117 229 1
(0.3210125131 0.2716603555 0.06783338797 0.3394937435) 22 44 1
(0.1761929378 0.02417607502 0.3877274561 0.4119035311) 55 51 2
(0.1620371268 0.4189814366 0.2431300843 0.1758513523) 55 109 2
(0.01275721038 0.2105362499 0.4936213948 0.2830851449) 119 235 2
(0.06924091245 0.4653795438 0.003985989425 0.4613935543) 140 218 1
(0.5033169081 0.03022207396 0.218119472 0.248341546) 28 1084 1
(0.1224292455 0.4387853772 0.2727921632 0.165993214) 53 106 1
(0.4260780386 0.02097599741 0.2869609807 0.2659849833) 238 467 1
(0.03420843833 0.3252443366 0.1576514443 0.4828957808) 23 1079 1
(0.5497170038 0.2251414981 0.01176362984 0.2133778683) 89 117 1
(0.3125396285 0.3437301858 0.05072083796 0.2930093478) 142 281 1
(0.3488782768 0.3255608616 0.252633388 0.07292747358) 80 100 1
(0.8049641334 0.03988516696 0.09751793332 0.05763276636) 84 164 1
(0.1051905569 0.401432067 0.04597265453 0.4474047215) 116 171 2
(0.4226553022 0.2886723489 0.06259709674 0.2260752521) 446 879 1
(0.1336630386 0.07669197913 0.3564765016 0.4331684807) 146 230 2
(0.3817831357 0.3091084322 0.1242417096 0.1848667225) 143 224 1
(0.7404711864 0.1297644068 0.05631765157 0.07344675521) 79 156 2
(0.7536265229 0.09675792741 0.1231867385 0.02642881112) 296 584 2
(0.4854426842 0.2572786579 0.09464203505 0.1626366228) 269 1049 2
(0.6232881407 0.1339537775 0.1883559297 0.05440215213) 170 336 2
(0.5361655913 0.2319172044 0.1441879813 0.08772922307) 353 637 1
(0.5201881556 0.2399059222 0.07387140805 0.1660345142) 18 36 2
(0.8127873754 0.02145554609 0.09360631231 0.07215076623) 145 284 1
(0.09355759805 0.453221201 0.2904553514 0.1627658495) 105 207 2
(0.04612116783 0.4769394161 0.3144528724 0.1624865437) 149 1045 2
(0.9372499768 0.0009310259751 0.03137501159 0.03044398561) 263 516 1
(0.3270323018 0.003769265598 0.3364838491 0.3327145835) 85 169 2
(0.1142650868 0.4428674566 0.3233388378 0.1195286188) 168 332 1
(0.6093352067 0.1953323966 0.03532293927 0.1600094574) 142 280 2
(0.06100480879 0.07901265243 0.3904849432 0.4694975956) 73 86 2
(0.7022805108 0.1488597446 0.1262757355 0.02258400909) 21 40 2
(0.7300110678 0.1349944661 0.116245712 0.0187487541) 21 42 2
(0.00324294298 0.2525101849 0.4983785285 0.2458683436) 116 230 2
(0.3032639068 0.3483680466 0.2156531962 0.1327148504) 137 270 2
(0.3544376011 0.1276920599 0.1950891396 0.3227811995) 318 568 2
(0.380494856 0.309752572 0.07450072342 0.2352518486) 14 26 2
(0.6070860799 0.19645696 0.0876960468 0.1087609132) 173 339 2
(0.6188590855 0.04987702733 0.1905704572 0.1406934299) 386 761 2
(0.008630952541 0.1100944968 0.4956845237 0.3855900269) 144 282 1
(0.2647514296 0.3300257194 0.3676242852 0.03759856577) 82 160 1
(0.4478257646 0.03453937703 0.2415477407 0.2760871177) 49 97 1
(0.4995265541 0.06146920203 0.1887675209 0.250236723) 262 516 1
(0.2270228308 0.3238600702 0.06262851437 0.3864885846) 57 113 1
(0.0758850874 0.0843811384 0.3776763179 0.4620574563) 109 215 1
(0.1319698661 0.3525854063 0.434015067 0.0814296607) 202 396 1
(0.7039639638 0.1480180181 0.03806804214 0.1099499759) 135 266 2
(0.3438929652 0.3280535174 0.3184656948 0.00958782262) 382 694 1
(0.2077730967 0.2415155756 0.3961134517 0.154597876) 358 703 1
(0.3580330755 0.1974736076 0.3209834623 0.1235098547) 77 153 2
(0.7619481258 0.1190259371 0.07941665162 0.03960928546) 106 210 1
(0.4060035233 0.2969982384 0.07691942211 0.2200788163) 13 26 2
(0.1394907573 0.4302546213 0.2153716715 0.2148829498) 119 1044 2
(0.07759912527 0.4612004374 0.3653735134 0.09582692393) 21 1077 2
(0.6244223728 0.06282209265 0.1877888136 0.1249667209) 353 696 2
(0.04583502987 0.07793279642 0.3991496886 0.4770824851) 25 50 1
(0.5767406901 0.1505383409 0.211629655 0.0610913141) 209 410 1
(0.536633498 0.08444175548 0.1472414955 0.231683251) 56 111 1
(0.07570927528 0.4621453624 0.2089673338 0.2531780286) 138 214 1
(0.3551309123 0.3224345438 0.09803388302 0.2244006608) 21 40 2
(0.2789010719 0.3605494641 0.3106529244 0.04989653969) 200 395 1
(0.07736387891 0.4613180605 0.3421313225 0.119186738) 381 748 2
(0.7439781571 0.01754694233 0.1280109214 0.1104639791) 89 176 2
(0.3222669602 0.3388665199 0.07957803284 0.2592884871) 17 1073 2
(0.1200287026 0.02482471497 0.4399856487 0.4151609337) 110 215 1
(0.06574429302 0.2033770719 0.2637507816 0.4671278535) 230 453 1
(0.7471582826 0.01573088801 0.1264208587 0.1106899707) 145 284 1
(0.2521581225 0.3739209388 0.2712989718 0.102621967) 22 1078 2
(0.3256274408 0.2286841513 0.1085021283 0.3371862796) 81 102 2
(0.4009381164 0.2995309418 0.1573577289 0.1421732129) 207 408 2
(0.6472918617 0.137867791 0.1763540692 0.03848627817) 52 101 1
(0.2085823028 0.3957088486 0.06817754374 0.3275313049) 52 104 1
(0.9226436127 0.02977407511 0.008904118546 0.03867819365) 237 409 2
(0.457504451 0.2712477745 0.1069813331 0.1642664414) 58 116 1
(0.7221977205 5.176259076e-05 0.1388493772 0.1389011398) 295 523 2
(0.03625945503 0.4818702725 0.01919922063 0.4626710519) 50 99 2
(0.2288095838 0.2716830248 0.1139121833 0.3855952081) 58 57 2
(0.1584020451 0.2680030705 0.152795907 0.4207989774) 16 1072 1
(0.661317832 0.169341084 0.1486938426 0.02064724144) 57 55 1
(0.1459921987 0.4270039007 0.4076821208 0.01932177991) 194 324 1
(0.1371014427 0.3328630765 0.4314492787 0.09858620213) 50 100 2
(0.08409082096 0.4579545895 0.0884038743 0.3695507152) 22 42 2
(0.1591130869 0.121807462 0.2986359945 0.4204434565) 100 197 1
(0.2338669262 0.3830665369 0.2140908954 0.1689756415) 138 273 1
(0.2101089241 0.06688392105 0.3949455379 0.3280616169) 118 234 2
(0.201366347 0.3993168265 0.2716961122 0.1276207143) 84 167 1
(0.6294400446 0.1852799777 0.09411002575 0.09116995197) 22 1078 2
(0.6465681992 0.007727596386 0.168988304 0.1767159004) 175 287 2
(0.1913457434 0.2327556493 0.171571479 0.4043271283) 419 1054 1
(0.1694221268 0.4152889366 0.1275572809 0.2877316557) 52 104 1
(0.699927146 0.150036427 0.1148200812 0.03521634577) 26 50 2
(0.1894069471 0.4052965265 0.05607210184 0.3492244246) 204 402 2
(0.6041646359 0.1979176821 0.04596046518 0.1519572169) 262 514 2
(0.1381813897 0.4309093051 0.2115878176 0.2193214875) 111 161 1
(0.5689397416 0.2155301292 0.07739760447 0.1381325248) 171 335 2
(0.04969005387 0.2084327239 0.2667222492 0.4751549731) 56 53 2
(0.8853690473 0.0223717421 0.05731547636 0.03494373426) 84 167 2
(0.07169892741 0.4641505363 0.3865427789 0.0776077574) 206 406 2
(0.1214939576 0.4076472941 0.4392530212 0.03160572713) 269 530 2
(0.4183433403 0.2908283299 0.07507320054 0.2157551293) 144 284 2
(0.6102005162 0.1948997419 0.05964674783 0.1352529941) 108 155 1
(0.2607032984 0.3696483508 0.06062670871 0.3090216421) 175 343 2
(0.1874477316 0.02914156504 0.4062761342 0.3771345692) 176 345 1
(0.7483767044 0.008096180897 0.1258116478 0.1177154669) 54 108 2
(0.8643671991 0.01807445237 0.06781640043 0.04974194806) 118 234 2
(0.4879220712 0.1396130047 0.2560389644 0.1164259597) 229 449 1
(0.7657402283 0.1171298859 0.0861882179 0.03094166797) 476 879 1
(0.1190514363 0.4404742819 0.373999675 0.06647460684) 14 28 2
(0.1555525307 0.4222237347 0.2704143037 0.151809431) 81 160 2
(0.6047876995 0.1976061502 0.1901272856 0.007478864642) 13 26 2
(0.007005837406 0.3390832157 0.1574138656 0.4964970813) 201 396 1
(0.3941214575 0.150647285 0.1522919863 0.3029392713) 52 45 2
(0.1145286872 0.4085962003 0.4427356564 0.03413945616) 259 511 2
(0.7636982947 0.0007702972798 0.1181508526 0.1173805554) 206 407 2
(0.6768026399 0.1513407023 0.16159868 0.01025797776) 148 293 2
(0.1375779966 0.4312110017 0.3185927607 0.112618241) 118 234 1
(0.7146552411 0.06933470795 0.1426723795 0.0733376715) 114 226 2
(0.2003594585 0.3998202708 0.3649281548 0.03489211599) 236 463 2
(0.0861072252 0.4569463874 0.2244261789 0.2325202085) 57 113 2
(0.001021235108 0.4994893824 0.1102804978 0.3892088846) 134 265 1
(0.09531104594 0.3155209322 0.1368235448 0.452344477) 24 1080 1
(0.4987301043 0.08819416856 0.1624407793 0.2506349478) 476 879 2
(0.4158492775 0.2920753612 0.06441452635 0.2276608349) 228 391 1
(0.7436954648 0.1111259071 0.1281522676 0.01702636057) 53 106 2
(0.1492018213 0.2457609646 0.4253990894 0.1796381248) 179 353 2
(0.9060912378 0.04271172657 0.04695438111 0.004242654534) 252 497 2
(0.1712251021 0.414387449 0.247443081 0.1669443679) 51 43 1
(0.6254626296 0.03514382663 0.1872686852 0.1521248586) 28 57 2
(0.2779660859 0.361016957 0.2705635594 0.0904533976) 58 57 1
(0.2733570142 0.2376236186 0.1256978743 0.3633214929) 113 223 1
(0.2779150033 0.3577625147 0.3610424983 0.00327998363) 229 449 1
(0.01948090746 0.4902595463 0.3323925191 0.1578670271) 110 217 2
(0.00717887844 0.4054478661 0.09096269473 0.4964105608) 356 643 2
(0.4540491778 0.2729754111 0.2193278789 0.05364753224) 82 160 2
(0.00475055599 0.497624722 0.3006260215 0.1969987005) 168 331 2
(0.2283723638 0.1363190954 0.2494947227 0.3858138181) 86 170 1
(0.78026179 0.109869105 0.06710387037 0.04276523463) 47 93 2
(0.08997457648 0.1879667181 0.4550127118 0.2670459937) 106 207 1
(0.3049925506 0.01865201201 0.3288517127 0.3475037247) 78 96 2
(0.5237774578 0.03000585758 0.2381112711 0.2081054135) 139 272 1
(0.0100264725 0.1716109861 0.4949867638 0.3233757776) 168 329 1
(0.3503323941 0.04112796306 0.2837058399 0.3248338029) 239 412 2
(0.2739906086 0.3630046957 0.2709339065 0.09207078919) 111 220 1
(0.4705202517 0.2647398741 0.09627577033 0.1684641038) 54 49 1
(0.4134934324 0.2932532838 0.1123467961 0.1809064877) 80 100 1
(0.4454894761 0.1213721072 0.2772552619 0.1558831548) 443 870 1
(0.4834184784 0.18231726 0.07597350082 0.2582907608) 58 57 2
(0.1935839499 0.403208025 0.3023919999 0.1008160251) 172 337 2
(0.07107303239 0.04844067938 0.4160228044 0.4644634838) 87 114 2
(0.4947386892 0.2526306554 0.06096902208 0.1916616333) 117 173 1
(0.1893525681 0.4053237159 0.003986571875 0.4013371441) 384 698 1
(0.6712689301 0.164365535 0.155116716 0.00924881897) 359 648 1
(0.03122017716 0.1247493562 0.4843899114 0.3596405552) 20 38 1
(0.8454584634 0.04654876508 0.03072200323 0.07727076831) 27 54 1
(0.1433617349 0.02014096133 0.4081781712 0.4283191326) 73 86 2
(0.01015604492 0.4949219775 0.3825381422 0.1123838353) 145 284 2
(0.294461454 0.3191786209 0.352769273 0.03359065208) 20 41 2
(0.3540004725 0.2967933753 0.3229997637 0.02620638845) 140 274 1
(0.03716285817 0.4398815649 0.04153700605 0.4814185709) 54 107 1
(0.2617960876 0.3691019562 0.08598393121 0.283118025) 116 229 2
(0.2609068514 0.3695465743 0.302603163 0.06694341128) 87 114 1
(0.6856148531 0.03114643828 0.1571925735 0.1260461352) 329 648 2
(0.7852794204 0.1073602898 0.09894477173 0.00841551807) 176 289 1
(0.1205759196 0.4397120402 0.2077893634 0.2319226768) 259 508 2
(0.1278351855 0.4360824072 0.3369993313 0.09908307589) 89 176 1
(0.09240436045 0.1760737076 0.2777241122 0.4537978198) 26 52 1
(0.06276098934 0.4686195053 0.0336710052 0.4349485001) 169 334 1
(0.3013067405 0.2284559562 0.1208906735 0.3493466297) 149 235 2
(0.5608208125 0.1073779501 0.2195895937 0.1122116436) 55 110 2
(0.08778524222 0.4561073789 0.09561617221 0.3604912067) 319 570 1
(0.468296585 0.2387322558 0.2658517075 0.02711945168) 81 161 2
(0.4133097152 0.2933451424 0.07031289188 0.2230322505) 19 1075 2
(0.6554162902 0.1722918549 0.03884956808 0.1334422868) 166 328 1
(0.6420906241 0.07917419876 0.09978048916 0.1789546879) 143 224 2
(0.2390617885 0.09199147444 0.2884776313 0.3804691058) 21 42 1
(0.168464174 0.415767913 0.3783959895 0.03737192352) 80 158 2
(0.2670366697 0.1620593264 0.2044223387 0.3664816652) 27 1083 1
(0.3547555714 0.3226222143 0.1016656707 0.2209565436) 73 142 2
(0.4911077978 0.06894872441 0.1854973767 0.2544461011) 134 206 2
(0.1713106389 0.4143446806 0.3044846589 0.1098600216) 54 107 2
(0.03645638831 0.01083835889 0.470933447 0.4817718058) 11 1067 1
(0.01000311288 0.2646057368 0.2303927068 0.4949984436) 297 585 1
(0.3046685105 0.1969944124 0.3476657448 0.1506713323) 418 821 1
(0.00725709786 0.2082375613 0.2881338898 0.4963714511) 227 447 1
(0.08296449915 0.1376527158 0.4585177504 0.3208650346) 168 329 1
(0.4698403204 0.2650798398 0.07847818084 0.186601659) 114 225 2
(0.1257462179 0.007804765555 0.4293221255 0.437126891) 472 871 2
(0.2553585816 0.3723207092 0.01567066839 0.3566500408) 297 583 2
(0.5197886268 0.2401056866 0.04109736105 0.1990083255) 231 397 1
(0.03191519564 0.4840424022 0.06365033536 0.4203920668) 75 146 2
(0.3160752182 0.3419623909 0.3403522465 0.001610144429) 109 157 1
(0.1815917827 0.01019069708 0.3990134116 0.4092041087) 22 1078 1
(0.5777569476 0.2111215262 0.1305946718 0.08052685441) 115 227 2
(0.07902313826 0.4604884309 0.1602861458 0.300202285) 26 50 2
(0.09811461213 0.4509426939 0.4344228072 0.0165198867) 147 288 2
(0.01035746564 0.474379623 0.4948212672 0.02044164419) 49 98 2
(0.5973454133 0.2013272933 0.06773691128 0.1335903821) 45 31 1
(0.1985985148 0.05064828094 0.4007007426 0.3500524617) 235 461 1
(0.00115299102 0.4994235045 0.3725262605 0.126897244) 416 817 2
(0.6898357835 0.1550821082 0.02903455553 0.1260475527) 51 43 1
(0.7300788288 0.1236004987 0.1349605856 0.01136008686) 444 872 1
(0.7545149479 0.1227425261 0.01123417631 0.1115083497) 88 116 1
(0.3532173862 0.3233913069 0.2699380462 0.05345326068) 82 162 2
(0.2379387599 0.2134905112 0.38103062 0.1675401088) 21 43 2
(0.1567899612 0.1488534249 0.4216050194 0.2727515945) 56 112 2
(0.06047519602 0.08555466021 0.3842077418 0.469762402) 84 166 1
(0.4489956409 0.2627547763 0.2755021796 0.01274740326) 77 153 2
(0.07639396044 0.4618030198 0.3923008641 0.06950215572) 50 41 1
(0.1189003127 0.2789530068 0.4405498436 0.1615968368) 16 30 1
(0.8730654016 0.06346729922 0.04167883833 0.02178846089) 56 53 1
(0.1990896158 0.3894384453 0.4004551921 0.01101674684) 209 410 1
(0.04265158675 0.4786742066 0.07304059621 0.4056336104) 142 281 1
(0.2752425215 0.09747750044 0.3623787392 0.2649012388) 19 39 2
(0.6370562598 0.04282652384 0.1386453463 0.1814718701) 78 96 2
(0.4024655354 0.2987672323 0.02195431222 0.2768129201) 23 47 1
(0.2061422725 0.3969288637 0.3744855602 0.02244330355) 24 49 1
(0.2573285621 0.371335719 0.02368723391 0.3476484851) 47 93 2
(0.4202945699 0.1679194984 0.1219332167 0.2898527151) 25 1081 1
(0.407139075 0.2862347069 0.01019575556 0.2964304625) 20 1076 1
(0.165447416 0.05912290473 0.417276292 0.3581533873) 179 353 2
(0.3224363541 0.338781823 0.1734913199 0.165290503) 82 104 1
(0.01650289687 0.3580879634 0.1336605882 0.4917485516) 140 218 2
(0.15192423 0.424037885 0.006024616017 0.418013269) 290 569 2
(0.4395915852 0.2802042074 0.03354460332 0.2466596041) 234 462 1
(0.3017353787 0.3491323106 0.08704087776 0.2620914329) 297 583 2
(0.1992631542 0.381883245 0.4003684229 0.01848517792) 52 104 2
(0.626025618 0.186987191 0.1805114864 0.006475704593) 208 352 1
(0.626989635 0.1494227723 0.1865051825 0.03708241021) 142 281 2
(0.5434406525 0.01241687026 0.2158628035 0.2282796737) 53 47 2
(0.02905746511 0.2526394758 0.4854712674 0.2328317917) 21 43 2
(0.4013267432 0.1289462062 0.1703904222 0.2993366284) 29 1041 1
(0.2119958235 0.3940020883 0.3877914593 0.006210628954) 144 226 1
(0.04154001984 0.04694110909 0.4792299901 0.432288881) 419 825 2
(0.3939126338 0.3030436831 0.1537384106 0.1493052726) 114 223 2
(0.2901085745 0.3077198719 0.04722584089 0.3549457128) 44 87 1
(0.004362927762 0.4978185361 0.1557926513 0.3420258848) 110 159 1
(0.07986663132 0.4600666843 0.02612020909 0.4339464753) 111 220 1
(0.05236062661 0.3646154915 0.1092041951 0.4738196867) 140 218 2
(0.09703174355 0.3049500982 0.14653403 0.4514841282) 81 160 1
(0.06194614553 0.355405425 0.4690269272 0.1136215022) 7 12 1
(0.1096407522 0.4451796239 0.06012469449 0.3850549294) 54 49 1
(0.7410536191 0.05742700272 0.1294731904 0.07204618772) 293 575 1
(0.4130546658 0.01000748294 0.2934726671 0.2834651842) 196 384 1
(0.02809771203 0.485951144 0.1996799919 0.2862711521) 146 288 2
(0.3634737712 0.2074874867 0.3182631144 0.1107756277) 140 277 2
(0.3814188253 0.3092905873 0.05739510398 0.2518954834) 24 48 2
(0.5540297616 0.2229851192 0.07026167412 0.1527234451) 258 508 2
(0.2136153061 0.216484857 0.1767074899 0.3931923469) 143 282 1
(0.5461509607 0.0759039132 0.1510206065 0.2269245197) 237 409 2
(0.1614929189 0.277228337 0.4192535406 0.1420252035) 173 339 1
(0.3185546343 0.1965234583 0.3407226828 0.1441992246) 22 45 2
(0.3390297706 0.1946961081 0.1357890065 0.3304851147) 145 228 2
(0.2974612068 0.3512693966 0.2136089356 0.137660461) 198 390 2
(0.1004748548 0.4497625726 0.2128388337 0.2369237389) 119 235 1