/*--------------------------------*- C++ -*----------------------------------*\
| =========                 |                                                 |
| \\      /  F ield         | OpenFOAM: The Open Source CFD Toolbox           |
|  \\    /   O peration     | Version:  2406                                  |
|   \\  /    A nd           | Website:  www.openfoam.com                      |
|    \\/     M anipulation  |                                                 |
\*---------------------------------------------------------------------------*/
FoamFile
{
    version     2.0;
    format      ascii;
    arch        "LSB;label=32;scalar=64";
    class       scalarField;
    location    "0.005/lagrangian/dsmc";
    object      Ei;
}
// * * * * * * * * * * * * * * * * * * * * * * * * * * * * * * * * * * * * * //


9404
(
7.902602373e-21
2.372799724e-21
8.468316043e-21
1.837590542e-20
2.271563619e-20
2.09431634e-20
2.800271631e-21
9.041000536e-22
1.137915621e-20
4.049107863e-21
1.678759173e-21
1.197024204e-20
5.929797596e-21
1.380071155e-20
8.005056304e-22
2.643317149e-20
8.432096999e-23
2.482300793e-20
8.468824914e-22
4.629077376e-22
4.578909807e-22
1.510559107e-20
4.781752433e-21
1.480183024e-20
4.32066889e-22
1.319450709e-20
5.345147615e-21
4.353226807e-21
8.812243745e-23
5.727340691e-21
7.611849728e-21
1.443062376e-21
2.952970054e-20
1.625154654e-20
2.278105744e-21
3.242230639e-21
5.826365042e-20
6.997454593e-21
3.254963302e-20
1.651647502e-20
3.134850389e-20
4.316205949e-20
7.314550746e-21
2.318678931e-21
6.119992555e-21
9.160001757e-21
6.4760719e-21
1.880721032e-20
1.150764719e-20
2.270245118e-20
9.059934046e-21
6.415136876e-21
3.93855631e-21
3.038925645e-20
3.559585631e-21
7.70596468e-21
1.743657349e-20
9.425322982e-21
1.030027597e-20
4.111754346e-21
2.347305707e-21
4.869243452e-21
1.450909454e-20
8.686022011e-22
2.100230033e-20
2.823219976e-21
4.936327068e-21
1.736404834e-22
7.992073051e-21
7.085567869e-21
1.84590082e-21
1.088413482e-20
4.630186363e-21
1.072194282e-20
1.821901182e-20
7.133502989e-21
9.92128895e-22
1.407564144e-20
3.735757515e-21
8.520314641e-21
1.712836427e-20
3.491909907e-20
1.805940465e-20
1.369724932e-21
2.734797087e-21
3.949008838e-21
1.420503684e-20
1.440243326e-21
3.06252926e-21
3.485991853e-20
3.257028008e-20
1.813237751e-22
7.118060494e-21
9.114878602e-21
1.076936786e-20
3.207706574e-21
1.091919981e-20
2.394087925e-21
1.137249131e-21
2.572098571e-21
1.069379573e-20
1.241999223e-21
8.032206485e-21
3.908000672e-21
1.296670653e-20
1.738719737e-21
1.42806462e-20
5.538643022e-21
7.207126702e-22
8.905901046e-21
5.381690418e-21
8.038429123e-21
6.467803697e-21
2.629987685e-21
6.226129255e-21
1.469694715e-20
2.130096667e-21
8.119635017e-21
1.556317467e-20
9.325610602e-21
1.412741409e-20
7.048083287e-21
9.479292387e-21
2.762071486e-21
2.35634341e-21
8.323524049e-21
4.454157987e-21
1.350621705e-20
2.464633451e-20
2.512006665e-20
1.0459397e-20
1.153861152e-21
1.437203978e-22
2.269004154e-20
5.434989398e-22
1.20570837e-20
1.188412421e-20
5.8654301e-21
3.710712524e-21
2.692840181e-20
1.549992667e-20
3.949170883e-21
3.43555107e-21
1.622413938e-20
1.740104458e-20
2.9199867e-21
1.515940834e-20
7.726041333e-21
1.221243542e-20
4.373733024e-21
1.362927746e-20
1.270519638e-20
1.155005969e-20
1.187189054e-22
2.998008806e-21
1.457807127e-20
1.959037254e-21
7.488349589e-21
3.833180067e-21
6.536712914e-21
1.681261279e-20
8.148902223e-21
3.921709614e-21
1.845504692e-20
2.109464221e-20
1.265666617e-20
2.200265474e-21
1.053128073e-20
1.344995652e-20
1.577216265e-21
1.337973432e-20
3.260180396e-21
5.064112971e-22
7.001161114e-21
1.154806104e-20
1.97211746e-20
2.054004346e-21
2.483427259e-21
1.13776697e-21
4.730054731e-21
3.556202458e-20
2.690048598e-21
1.439563265e-20
7.251739328e-22
9.431285672e-22
5.110743146e-21
3.96808782e-20
5.287483434e-20
1.44244913e-20
3.117198023e-21
2.093448033e-21
2.051386968e-21
1.851436332e-20
2.41075012e-21
6.84447632e-21
1.333768808e-22
1.246592569e-22
1.294231625e-20
1.800151613e-20
1.904822941e-20
6.573357863e-23
7.777046461e-22
2.008146934e-21
1.019296663e-20
3.30839564e-22
4.00419071e-22
1.916726446e-20
1.050113057e-20
2.304832292e-20
6.814596781e-22
3.997369212e-20
8.440613834e-21
1.779041225e-22
2.845416327e-21
2.397166888e-20
1.582890411e-21
2.359784449e-20
3.179115308e-21
4.476842103e-21
2.637540414e-20
1.06167048e-20
8.767734498e-21
2.648773814e-20
1.472102463e-21
1.813953521e-20
4.617824158e-21
4.381371014e-21
1.458137193e-20
1.331320455e-20
8.717406647e-21
1.26086422e-22
5.769538692e-21
1.066632e-20
7.176563599e-21
1.644893497e-20
6.254326884e-21
8.025282192e-21
1.11804875e-21
2.400871397e-21
3.644147812e-21
1.617791321e-20
3.500311038e-22
1.52789358e-20
8.152314891e-22
3.173648006e-22
3.781079714e-21
1.925348079e-20
1.322114762e-20
1.029661266e-20
5.086823545e-20
2.810485494e-21
1.429585332e-20
2.675435717e-21
1.446951485e-20
1.168257415e-21
2.099860801e-21
1.16499657e-20
1.875571835e-20
1.128687144e-20
6.670405035e-22
9.531968373e-22
2.540088226e-21
1.054580942e-20
4.031495122e-21
1.340117476e-20
1.795551999e-21
1.994973834e-20
3.26603585e-21
2.643006785e-20
4.10204475e-20
2.922040386e-21
8.10246805e-21
1.864265512e-21
2.656890787e-22
4.824983846e-21
2.816694524e-21
9.387375976e-21
1.902518741e-20
1.109701328e-21
1.615058797e-21
1.701963642e-20
1.319494035e-20
4.444020858e-20
3.552665344e-20
1.383639703e-20
1.628944535e-20
3.009790451e-21
1.872109594e-20
3.541294988e-21
2.638664603e-22
3.215196787e-21
1.537086136e-21
2.437524924e-21
1.8213082e-21
1.172705393e-20
2.659108715e-21
1.997179635e-20
7.048056823e-21
5.470602198e-21
2.087284374e-21
5.394349156e-23
5.945800952e-21
2.463899616e-21
5.56345721e-21
1.517285256e-20
1.796088326e-20
2.015156668e-21
6.290700453e-21
1.431426219e-21
2.032317044e-21
9.19562005e-21
2.050158617e-20
1.245553301e-20
1.198060786e-20
5.283960365e-21
3.872131819e-21
8.923988653e-21
5.189006448e-21
1.552005261e-20
2.723609577e-20
6.189487562e-21
7.162351163e-21
1.759237944e-21
3.936842253e-21
2.669595641e-20
3.591482471e-20
1.355492635e-21
1.043609551e-20
5.557082138e-22
5.391857753e-20
1.96772794e-20
1.2227816e-21
2.003192968e-20
4.65516102e-21
4.599523029e-22
1.309046699e-21
9.115206174e-21
4.892476165e-20
1.966395331e-21
8.117438867e-21
1.22517523e-20
8.217492421e-22
1.136518549e-21
8.870381465e-21
1.069907344e-20
9.363084361e-21
1.20139805e-21
4.690311666e-20
1.182375451e-20
1.083861759e-20
1.649876776e-20
1.888235405e-21
9.282785107e-21
1.399937314e-21
1.013396508e-20
6.783545374e-21
2.298958767e-20
5.884865458e-21
2.189428065e-21
4.688844506e-22
2.999116319e-21
1.964257128e-21
1.72924181e-20
3.291181793e-20
3.201736217e-21
5.46399336e-21
7.120777399e-21
1.813322226e-20
1.941944275e-20
2.685835413e-20
3.098837339e-20
1.033726192e-20
5.579357461e-21
1.35590388e-21
1.701717681e-21
5.959499839e-21
2.055379953e-20
7.823139842e-22
3.351639703e-20
9.401422038e-21
1.061862413e-20
3.685719189e-21
4.689230581e-21
1.221391182e-21
1.955832264e-21
5.597767021e-22
9.028893261e-22
3.23739523e-21
5.295232313e-21
4.16414103e-20
2.125630364e-20
4.186044839e-21
3.588793195e-21
1.213895326e-20
5.393819629e-22
4.180918495e-21
2.018012376e-20
5.863208719e-21
2.814389216e-21
5.503806648e-21
7.72270791e-21
1.772004682e-20
5.937726728e-22
1.880328038e-20
2.188047133e-20
3.287189337e-21
5.973119231e-21
2.362602739e-21
8.670149898e-21
1.326595551e-20
3.514986195e-21
3.065936657e-21
7.054058302e-21
1.878704677e-21
1.309298607e-20
3.47858956e-22
9.060029083e-22
4.612660018e-21
1.672216566e-20
8.68070719e-20
2.654006211e-20
2.920727165e-21
1.996700813e-20
7.000637502e-21
9.843690263e-22
6.285744855e-21
6.225269663e-21
4.538110401e-21
5.764799371e-21
2.115937716e-21
2.311766677e-22
3.464986773e-20
4.196816613e-20
8.492342797e-21
3.517736417e-21
8.03066161e-22
8.436670966e-21
4.089749603e-21
2.280124548e-20
4.509703938e-21
3.248283097e-21
8.235905774e-21
2.64180596e-20
3.269102793e-21
8.816155187e-21
5.261737543e-21
8.422810186e-21
4.591390099e-20
2.972713205e-21
1.690346972e-21
2.861935174e-20
1.065290751e-20
3.865351654e-21
1.992478024e-21
1.286462292e-20
4.355838141e-21
5.123494711e-21
2.34210729e-21
1.172264377e-20
2.149337241e-21
4.83415704e-20
1.731254931e-21
1.182105375e-20
9.964601089e-21
6.133630594e-21
1.404465377e-20
1.726591842e-21
5.911308678e-21
4.535860563e-21
8.924168009e-21
6.440047171e-22
4.998121622e-21
3.32321874e-21
2.108600538e-20
3.450856997e-20
7.376725069e-22
2.554224951e-21
3.737953706e-22
8.976843631e-21
1.410712389e-20
7.336969375e-21
5.037629307e-21
1.815863396e-20
7.67415947e-21
2.335184655e-20
7.481949349e-21
5.052248836e-21
3.639288368e-22
4.655110906e-21
2.271862273e-22
1.305366272e-21
4.380493114e-20
3.468584452e-20
1.882097979e-21
5.545460237e-21
2.025708711e-21
2.967004651e-20
3.036133895e-20
1.260624602e-20
3.100640309e-20
2.196167628e-21
3.200423096e-20
4.514727344e-21
3.617671575e-21
5.673999581e-21
6.626242541e-21
4.221072382e-20
1.051486631e-20
6.882598342e-21
4.289437145e-22
5.399663514e-21
7.916629947e-21
1.933384668e-20
2.921664321e-21
1.241100165e-20
9.226428843e-22
6.485384079e-20
1.334573663e-20
1.331354329e-20
1.540795497e-20
5.67546282e-22
5.747862615e-22
7.785203309e-22
1.156863056e-21
1.878840478e-21
6.025024728e-21
8.919193028e-21
8.255266633e-21
2.544428437e-20
8.492562895e-21
3.709878322e-20
1.154495334e-20
2.107311146e-23
8.632805271e-21
1.360262224e-20
1.832492711e-20
7.927843463e-21
1.522333352e-20
3.332782271e-21
6.717451463e-20
2.801889236e-21
2.832478386e-20
4.510314595e-21
1.262000493e-21
1.413569604e-20
1.921324668e-20
6.460453307e-21
1.041390715e-21
1.955530516e-22
6.753439393e-22
1.708836812e-20
7.988139687e-21
3.291357674e-21
3.341239781e-21
1.553135334e-20
7.790608965e-22
8.274483405e-21
5.709831247e-21
3.999842685e-22
5.863283994e-21
1.986549634e-21
6.635488607e-21
8.688974239e-22
4.548057753e-21
1.00233528e-20
8.883713348e-21
2.330180387e-22
2.713158827e-21
1.182255313e-20
6.847334551e-21
1.349809385e-20
6.521141588e-21
1.254382131e-20
1.894114774e-20
1.046840367e-20
4.213314933e-22
1.844585429e-20
3.90390955e-21
1.076455652e-20
2.061997916e-20
2.013802613e-20
3.677423086e-21
1.232720669e-21
1.749670016e-21
5.316490134e-21
5.936265872e-21
1.690515299e-20
2.563635024e-20
5.333594321e-21
1.141731141e-20
2.801072423e-20
9.632515588e-21
1.079445399e-20
6.385860023e-22
5.000620205e-21
7.259388914e-22
2.082107985e-20
1.427825006e-21
6.797702015e-21
2.436575754e-21
1.356980306e-20
6.852717473e-21
4.18889842e-21
4.1781766e-21
3.042112364e-21
2.585206351e-21
1.74522205e-20
3.145325108e-20
2.740654673e-22
4.872069793e-21
2.454976991e-21
1.13626065e-20
1.292446301e-21
8.261372105e-22
1.000617774e-20
6.348376142e-21
4.847346106e-20
1.761169224e-21
1.65288044e-20
3.781778982e-21
7.705687732e-21
4.025451625e-21
9.766872419e-21
2.367979236e-20
2.514772244e-22
2.047909814e-20
2.298546066e-20
1.590556515e-20
1.590898004e-20
3.047484001e-21
7.436902507e-21
1.200101569e-21
3.759344732e-21
1.242865854e-20
1.732693215e-20
5.003371433e-21
9.449561363e-21
5.419114127e-21
8.310939074e-21
2.659831809e-23
1.074617432e-20
8.049384638e-21
6.145200462e-22
4.244073891e-21
5.681926067e-23
5.453288265e-21
2.525853226e-21
7.225250143e-21
1.663086046e-22
1.367302082e-21
1.362641484e-21
1.303325898e-20
1.695438513e-21
2.091748378e-20
9.918061343e-22
1.693374744e-20
6.305151407e-21
8.85870981e-21
3.21306402e-20
2.019649048e-21
6.819631381e-21
7.537965411e-21
1.411757523e-20
4.873701186e-21
1.670784178e-20
7.930300354e-21
1.802364613e-20
8.600033236e-21
1.360269903e-20
2.856468275e-20
6.162791943e-21
2.01892811e-21
4.823695115e-20
1.984555225e-21
1.39012874e-20
1.672634253e-20
3.621106961e-21
1.698256887e-20
2.911372469e-20
1.981467721e-22
1.195806422e-20
3.900213102e-20
1.855981374e-20
1.062697975e-20
1.459725542e-20
1.04578008e-20
9.676769655e-21
1.643192259e-20
1.496958086e-20
8.572115256e-21
3.288407482e-21
1.199136364e-21
1.773839455e-20
6.154443127e-22
2.371386859e-20
6.622266701e-21
3.089851217e-20
8.562548947e-21
4.794397104e-21
7.337281955e-21
1.079393174e-21
1.54765149e-20
4.352922103e-21
2.66927919e-20
2.597197094e-20
1.234301352e-20
9.76580188e-21
2.057748492e-20
9.13500633e-21
2.513820266e-22
1.217442459e-21
2.60309972e-20
3.27873109e-21
8.930535932e-22
9.754730594e-22
2.756997372e-21
7.576366134e-21
1.065625191e-20
4.035021646e-21
1.171862994e-20
8.176253897e-21
1.828547332e-20
2.251991834e-20
1.096072786e-20
2.071880136e-20
3.69998673e-21
2.631366996e-20
1.231587106e-20
1.853566734e-23
9.860427121e-21
3.827674555e-20
6.024988847e-21
4.298803118e-21
2.851056747e-21
1.076536063e-20
3.746304335e-21
8.81433877e-21
1.404305553e-20
4.704476933e-21
7.745917939e-21
2.3171503e-21
1.847262489e-21
5.233359622e-21
7.730249705e-21
1.674132965e-20
3.604625154e-21
1.093735669e-20
3.748430396e-20
1.97110523e-20
1.120713636e-20
2.207999539e-21
2.543988659e-20
9.598844083e-23
9.369633825e-21
1.537894489e-20
1.664134939e-20
6.052348085e-21
7.12624672e-21
2.139176236e-21
1.698914417e-20
3.179708266e-20
2.518197209e-20
9.189014536e-21
2.635504665e-20
3.811158417e-21
5.189369011e-21
1.200211993e-20
3.104201161e-21
3.472416647e-20
1.36824022e-20
3.442421416e-21
1.74730906e-21
3.346438574e-22
5.112318767e-20
1.013353124e-20
1.920255618e-20
1.08925659e-20
5.584901932e-21
2.700426391e-20
1.786913449e-21
2.377246575e-21
1.026600586e-21
2.452799387e-20
2.038003801e-20
3.610038208e-22
3.539229836e-21
4.433763911e-21
1.46053713e-21
3.539556792e-21
1.385206928e-20
7.437292093e-21
1.49223016e-21
9.225578125e-21
1.194491065e-20
3.409995012e-22
1.444252509e-20
1.270306017e-20
1.779788775e-20
3.771941589e-21
1.817323346e-21
5.024410942e-21
1.11869803e-20
1.701613538e-20
7.228416831e-21
8.191735045e-21
1.529969671e-21
1.643342681e-20
9.841405748e-22
1.878371772e-20
2.201111249e-20
4.100074173e-22
1.834767204e-20
6.489476587e-21
1.937281936e-20
1.444226384e-20
1.616803254e-21
2.176685421e-20
4.995447399e-20
8.288497019e-21
1.083620962e-20
3.59893054e-21
1.582075377e-20
1.113685688e-20
1.265840011e-21
8.717976925e-22
9.867746073e-21
5.990838744e-22
1.557338573e-20
2.083279525e-20
5.022279019e-21
6.030319325e-21
1.950749518e-21
3.571779149e-21
2.013283506e-20
4.46188421e-22
3.7231013e-21
1.443210981e-20
3.099128781e-20
6.160270412e-21
1.463264803e-20
5.673828611e-21
1.565496138e-20
9.606416797e-21
9.055418231e-21
1.343745833e-20
5.161537765e-22
4.519218185e-22
4.399454224e-21
3.064479552e-21
1.27844984e-20
6.186221122e-20
8.942868168e-21
1.000163286e-20
2.836725204e-20
2.312581746e-20
1.479052629e-21
1.927846602e-21
2.756717571e-21
1.715183804e-22
5.242566557e-21
4.360216958e-21
2.119760523e-21
1.87384687e-20
2.597603267e-20
2.082528957e-20
1.49985676e-21
1.152783596e-20
2.180889598e-20
4.558424818e-22
1.198046639e-21
1.878326253e-20
5.218537442e-21
1.32606306e-20
1.359412618e-20
2.04542838e-20
5.540829353e-21
5.617930196e-21
3.568144878e-21
1.75068595e-21
1.023711945e-20
1.722545554e-20
8.413415042e-21
2.512329755e-20
8.678490678e-21
2.562429234e-21
1.488231738e-21
5.286331557e-21
1.085448153e-21
4.692415722e-21
1.590208102e-21
4.383891686e-21
7.569417995e-21
4.564144104e-21
5.732401115e-21
5.602361321e-21
5.631801828e-20
6.348836367e-21
8.393803585e-21
5.367185437e-23
1.446711201e-20
5.566836994e-23
4.220451567e-21
1.587428275e-20
4.680113942e-21
1.774148736e-22
6.142988939e-20
5.124332888e-20
3.073739541e-21
1.193446564e-21
3.942471086e-21
6.469187674e-21
6.950072979e-21
7.687117188e-21
1.190888336e-20
4.029341443e-21
8.350553173e-21
1.188681178e-20
1.587440067e-20
1.524934027e-20
4.219742396e-21
7.968054122e-23
2.901001318e-21
1.486157826e-20
8.764876387e-21
7.422533171e-21
7.655750711e-21
9.951275138e-21
1.494179363e-20
1.958362613e-20
1.648457835e-21
1.28786849e-20
5.696831012e-22
1.362750262e-20
3.575032911e-22
1.554197348e-21
9.146671382e-21
2.126855559e-20
1.111158655e-21
5.717309963e-21
3.209534071e-21
8.627324109e-21
1.364971885e-20
2.466693753e-20
7.582928624e-21
3.391341951e-22
3.002438578e-22
4.470989849e-21
5.358775019e-21
3.444307136e-21
5.503257072e-21
1.275625585e-21
1.698200571e-20
6.457897282e-21
1.712421924e-22
1.884565695e-20
8.340828453e-21
2.978231261e-21
1.907278768e-20
5.845588757e-21
9.358191838e-21
7.907094329e-21
1.431622505e-20
3.604470734e-21
3.159926933e-22
2.305600119e-21
6.284069887e-21
1.394092171e-20
5.477762083e-21
1.114944987e-20
5.031385333e-21
3.650522604e-21
5.566334542e-21
2.295630816e-20
9.281183554e-24
1.560595327e-20
4.689576622e-20
3.228614941e-20
9.241421302e-21
3.118233726e-20
5.571801745e-21
1.744676758e-20
1.502219206e-22
1.539698371e-22
5.084624107e-21
5.125419144e-21
1.237393601e-20
1.533833663e-20
2.524768002e-20
4.180723981e-21
2.31399249e-20
1.82968108e-20
2.049783361e-21
3.268384819e-21
3.220173967e-21
1.369659281e-20
6.103921053e-21
8.025684829e-21
8.910805694e-21
4.838105736e-21
1.027259383e-20
8.265301693e-21
9.284925171e-22
5.057100194e-21
2.720985802e-22
7.126534574e-21
7.268243977e-21
1.112584324e-20
2.658577296e-20
1.499318952e-20
1.647578346e-21
1.418059738e-20
3.207232887e-21
3.587378495e-21
1.632191256e-21
1.748215504e-20
2.944602558e-22
8.620978195e-21
7.450244605e-21
2.812058115e-20
1.249936953e-20
7.417002657e-21
1.771836697e-21
7.758153234e-21
3.785980524e-20
1.962465768e-20
6.030774417e-21
7.235206131e-21
1.204124855e-20
1.770529846e-20
5.33986609e-21
3.602173651e-21
1.968041053e-21
8.703400331e-22
3.14075796e-21
4.886334169e-21
8.486717431e-21
1.967600056e-20
6.24283171e-21
2.334395438e-22
5.219432341e-21
1.898892073e-20
2.840774207e-20
1.835115105e-20
2.481564491e-20
2.830627171e-20
1.30372182e-21
9.162350626e-21
9.124071691e-22
2.074326768e-20
4.879740438e-21
1.687968262e-20
1.504280169e-20
2.779599847e-20
9.448576454e-21
9.271679373e-21
7.626240453e-23
8.549255836e-21
1.710336385e-21
1.616087888e-20
5.570345086e-21
3.273021908e-21
6.569223199e-22
3.134483278e-22
4.057612758e-21
3.071043893e-21
8.027994864e-21
2.935358223e-21
5.615155142e-21
2.010247906e-21
1.421955936e-20
1.344015265e-20
4.153345532e-21
3.789462839e-21
3.093143683e-21
3.503020798e-20
3.278444863e-20
1.252299064e-20
2.008539319e-21
4.815889467e-21
1.713540276e-20
5.267791193e-21
7.551620596e-21
2.090433905e-21
8.937983291e-21
1.13400555e-20
3.127507462e-21
7.681383329e-21
2.608589435e-21
1.453433096e-20
1.883529406e-21
1.039821314e-20
2.859592963e-21
4.296398191e-21
1.360409918e-20
6.870385632e-21
3.179350881e-21
7.136640933e-21
1.500621495e-20
3.273066036e-21
4.706883265e-21
5.858973195e-21
2.318241019e-21
1.477468846e-20
1.702641528e-20
4.488462238e-23
8.28317877e-21
3.564334481e-21
5.802095414e-22
5.683295994e-21
1.399945385e-21
7.499100372e-21
1.723190319e-20
9.468680347e-21
1.130276111e-20
6.821500998e-22
1.223706518e-20
1.436319254e-20
1.494173153e-20
7.113334392e-20
1.183386176e-20
1.083803122e-20
1.678869189e-20
7.167498118e-22
6.027594662e-22
2.007134681e-20
9.710503822e-21
3.596893016e-20
1.939182332e-22
1.828492569e-21
6.838192395e-22
2.136366149e-22
1.412611469e-20
3.917149046e-21
3.807529506e-21
4.081875128e-21
1.006183127e-20
1.763961928e-21
1.817162957e-20
4.975096207e-21
2.767170924e-21
1.910400546e-20
3.324472625e-21
1.433076532e-20
1.445235888e-20
2.308715765e-20
3.975783362e-21
6.251099711e-21
9.02711632e-21
1.110636919e-21
2.119646356e-20
6.704940417e-21
2.204158041e-21
1.325231393e-20
3.714157821e-22
1.062523254e-20
3.121198397e-20
2.456335439e-20
1.718994853e-21
1.301611802e-20
2.830504089e-21
1.139834647e-20
1.906747265e-20
7.277745368e-21
5.030173193e-20
1.401284979e-21
3.36148444e-21
3.157949123e-21
7.298006725e-21
4.248092957e-21
7.803206742e-22
2.749196447e-21
1.555650733e-21
1.791954015e-20
5.277454378e-22
4.42866359e-21
8.766111663e-21
8.673238723e-21
2.304278956e-20
3.171379412e-20
2.798091197e-21
2.166277834e-21
5.636114779e-22
3.06394104e-21
1.595182695e-20
1.963233444e-20
8.027275883e-21
2.14404622e-20
1.621554493e-20
1.611983189e-21
2.511649239e-21
1.126782149e-20
2.588997721e-20
1.947018704e-20
1.785509838e-21
1.853785909e-20
1.074280636e-20
4.331497631e-21
1.317997317e-20
4.610329517e-21
2.295356567e-21
1.76429484e-20
3.91195604e-21
7.850271777e-22
3.726897512e-21
9.131955862e-21
1.660442256e-21
1.624013425e-21
3.002301781e-20
2.22556196e-21
2.040026045e-20
4.308262021e-20
2.130591847e-21
1.101510597e-20
5.985069301e-20
1.048442613e-20
1.6248602e-21
1.309900963e-20
1.305198929e-21
3.428929756e-22
3.779961426e-21
1.396324106e-21
5.448987344e-21
3.357240198e-21
2.459204964e-20
2.882597351e-20
1.569158227e-21
1.617230176e-21
1.691544261e-21
2.76302077e-21
6.7628392e-21
5.044691481e-21
1.845745245e-20
1.269747459e-21
1.757205842e-21
1.66860931e-20
1.971326686e-20
1.80052085e-20
1.680626721e-20
1.761886814e-21
1.063209132e-20
6.097812776e-21
1.115025929e-19
2.605588742e-22
2.118938479e-20
5.933001377e-22
9.932471181e-21
3.941626746e-21
2.548282212e-21
1.23273217e-20
1.559335607e-21
3.792140541e-21
2.021677207e-20
9.93937845e-21
1.306772254e-20
5.094048282e-21
1.253380407e-20
3.652578068e-21
3.90706443e-21
1.892240768e-20
2.648074523e-20
1.082522726e-20
4.833024845e-22
8.855098325e-21
1.838728222e-21
1.369488681e-20
1.015887674e-21
1.937887099e-21
1.192151082e-21
1.988622637e-20
9.330863117e-22
2.493064091e-20
1.690379632e-20
2.681912096e-20
2.915106651e-21
5.892821889e-21
7.271665199e-22
1.740323408e-20
2.095129275e-20
7.760660679e-21
4.622430571e-21
5.167877425e-21
6.028361817e-21
1.296500593e-20
1.2412359e-20
3.711919498e-21
2.932486742e-20
5.519615664e-21
7.803446194e-21
9.162308677e-21
1.945054091e-20
5.250868978e-21
1.598427945e-20
5.765783805e-22
4.992498405e-21
2.811766917e-21
4.507640882e-21
6.724300088e-21
1.051382727e-20
3.224151817e-20
1.261067929e-20
2.086849923e-20
1.283376381e-20
1.93210252e-21
4.082441049e-20
5.38721263e-21
5.008372092e-21
5.545144478e-21
6.805399491e-21
4.039542914e-22
7.321233686e-22
1.877502584e-20
1.092208955e-20
5.776255397e-21
1.029519004e-21
1.154860296e-20
6.003220603e-21
1.442686782e-20
7.7293383e-21
4.895437784e-21
4.263802585e-21
8.418673277e-21
7.893886963e-21
7.945747048e-22
4.400697316e-21
3.599804607e-20
1.482354621e-20
3.452981778e-20
1.461324785e-20
2.474212471e-20
1.036688185e-20
7.809159527e-21
4.82797719e-22
1.901438073e-20
2.639604301e-20
4.450388742e-21
9.104252668e-21
7.318741752e-21
2.283019615e-20
2.313216275e-21
2.502593685e-21
8.18953231e-22
3.248037327e-20
4.475480521e-20
3.66576135e-20
8.966415873e-21
5.798027228e-20
5.564274266e-21
2.154278986e-20
5.898816456e-21
5.930901145e-21
2.940473295e-21
5.959784446e-21
2.206724454e-20
8.057134539e-21
7.866083921e-21
1.077996706e-20
8.342932968e-21
1.514308036e-20
1.263310527e-20
1.157261796e-20
5.816704598e-21
1.224656805e-21
2.178239083e-21
6.115977367e-21
1.248271012e-20
5.857614228e-21
3.489126591e-20
6.566312847e-21
1.451682247e-21
5.754620928e-20
3.488683013e-20
9.794260085e-21
1.528302329e-20
8.036885233e-21
1.574066795e-20
1.660348309e-20
6.567123507e-22
1.85159764e-20
1.770769431e-20
7.91648427e-21
2.035615379e-21
2.371668121e-21
7.354908364e-21
1.808294555e-20
1.449031083e-20
4.028501805e-20
8.387883377e-22
7.442207708e-21
9.985489705e-21
3.111192259e-22
9.530538158e-21
1.156416116e-20
1.376420367e-21
4.057613731e-22
1.390647321e-20
1.499608253e-21
4.790926797e-20
1.077632585e-21
1.039620661e-21
6.75842531e-21
6.250038115e-21
2.415370937e-20
4.318669025e-21
6.254671758e-21
2.670948546e-20
4.794778441e-21
8.152233063e-20
5.066507146e-22
2.198177991e-20
1.176615706e-20
9.262740329e-21
3.655063863e-21
7.916729077e-21
4.332316334e-20
4.787289767e-20
1.375811056e-20
6.133983926e-21
2.881924849e-21
9.417680426e-21
1.114919579e-20
4.030007053e-20
6.523442874e-21
6.370871415e-21
5.55758446e-21
4.528841002e-20
9.785313777e-22
1.983036562e-20
3.589678806e-20
1.516048433e-21
7.355905476e-21
3.438652523e-21
1.004134701e-20
1.409713323e-21
2.531412106e-20
1.86680851e-20
3.915583871e-21
1.563184187e-20
9.221543861e-21
2.070146644e-20
1.076881571e-20
1.370090045e-21
5.745402395e-21
8.538334175e-20
3.249900037e-21
1.494902325e-20
2.146961341e-20
1.735588753e-20
7.931328162e-21
1.919609255e-20
7.902314411e-21
2.090182813e-21
2.088455571e-20
1.6208477e-20
3.379954418e-20
1.208449284e-20
3.550076025e-22
6.175620188e-21
8.367132131e-21
8.920134478e-20
7.527702568e-21
3.871093585e-21
2.291100289e-20
6.867721058e-22
3.097485252e-20
1.130430148e-21
1.495659346e-20
1.29385692e-20
1.823519065e-20
4.067886198e-21
4.557671888e-21
1.786663209e-20
1.164939762e-21
5.506529004e-21
1.128025926e-20
2.918624446e-20
4.364483177e-21
2.18022862e-20
1.375247607e-20
3.219064373e-21
4.590885912e-21
4.443886088e-22
5.323658213e-21
2.351657433e-21
1.278119934e-20
6.641308103e-22
3.136181461e-21
2.23512347e-20
4.079254557e-21
3.965384268e-21
3.026229896e-21
2.094149928e-20
3.359178971e-20
1.811039767e-20
8.726285057e-23
4.035030902e-22
7.457639801e-21
9.947876714e-22
4.025450606e-20
2.254734404e-20
1.789621496e-21
5.19613695e-21
3.873266259e-22
2.826250472e-21
6.622089824e-23
4.35708369e-21
1.768643021e-20
1.387422334e-21
1.404640626e-20
4.167055318e-21
1.811761524e-20
1.799205569e-21
2.688909323e-20
5.536928786e-21
9.757120133e-22
2.714676589e-21
8.769168941e-21
1.163399019e-21
4.682084446e-21
5.074002223e-21
6.632360425e-21
7.450020161e-21
8.885693825e-22
3.684813574e-22
7.248660412e-21
9.278382129e-21
2.233374438e-20
4.384741671e-21
1.827460807e-20
3.847688375e-21
1.460799156e-20
3.653978204e-20
9.22831359e-22
1.169835567e-21
1.0070454e-20
2.33658405e-20
1.349135104e-20
1.647236314e-22
4.783138042e-21
1.089720006e-20
1.386498173e-20
2.057005843e-20
2.672174199e-22
4.418841439e-21
7.722262441e-21
7.566082818e-21
2.087968952e-22
6.710374667e-21
1.109713465e-20
1.070857403e-21
2.626184549e-21
7.455253394e-21
5.82021844e-21
6.084516776e-21
1.055220889e-20
2.260533525e-21
5.77836551e-21
6.834508138e-21
4.124900605e-20
9.871575404e-22
9.446414166e-21
5.037507882e-20
1.228071816e-20
2.489509043e-20
5.450131647e-22
2.480362834e-21
8.450971467e-21
1.365644442e-20
1.215348317e-20
2.833444772e-21
2.356763598e-20
6.795120847e-22
2.095989587e-21
7.834891463e-22
5.796994634e-21
2.990447278e-22
2.329216872e-21
6.237538921e-21
1.567047185e-20
9.538339515e-21
1.869088491e-22
2.418708203e-22
3.291582568e-21
5.067857032e-21
2.958613626e-20
2.408248012e-20
8.696022085e-22
3.846688321e-21
8.443188172e-21
2.58116817e-20
6.28730935e-21
4.84044414e-22
1.081282531e-20
2.204513079e-20
1.523623745e-20
4.682740396e-22
2.219705421e-20
2.581557647e-20
7.221515911e-21
1.103601634e-20
2.363491177e-20
1.264499789e-21
4.245458702e-22
6.101788682e-21
2.922218438e-20
8.535443903e-21
2.171666579e-23
3.833462551e-21
9.537237747e-21
1.887668635e-20
1.045939019e-20
5.874650089e-21
1.884685013e-21
4.438374306e-21
8.386816874e-21
8.895601564e-21
1.662484103e-20
1.424734418e-20
7.618239418e-20
3.08158344e-21
6.542393389e-22
1.043431228e-20
2.938582219e-21
4.647636371e-21
1.375875404e-20
6.613198845e-21
1.029455614e-21
7.713721284e-21
1.269344257e-20
1.267444306e-21
9.760421147e-21
2.068290524e-20
1.067307169e-20
5.799056854e-20
9.470528052e-21
5.897124443e-22
2.57416539e-21
1.292087407e-21
1.313041077e-20
2.341994479e-20
4.263559093e-20
1.628309333e-20
1.930526901e-20
1.306940104e-20
3.57511237e-20
1.25628451e-20
4.510304656e-21
3.123124859e-21
7.104850316e-21
1.270731938e-20
1.187643759e-21
5.598824223e-22
2.026681624e-20
6.167539076e-22
1.809768814e-20
6.640954087e-22
7.077459609e-21
4.821748891e-21
7.536568689e-22
3.329551982e-21
1.006634393e-20
2.122793336e-21
7.169687423e-21
1.117555626e-20
3.471726038e-22
8.448884951e-21
8.023397077e-21
1.299464057e-20
7.417879408e-21
7.874170737e-21
8.211228816e-22
1.275617483e-20
7.313941341e-21
5.278502089e-21
2.166957938e-20
1.213236661e-20
8.754558316e-21
1.208463491e-20
5.002014324e-21
1.088018436e-20
1.351462848e-20
1.653953084e-20
6.397413537e-21
9.216101571e-21
6.004808489e-21
1.497544605e-20
2.056065845e-20
2.028964027e-21
1.983964237e-20
5.611530918e-21
2.393305723e-20
1.098340009e-20
1.223760167e-20
4.185944217e-20
2.353695095e-21
4.205097489e-20
5.635153795e-21
3.232415048e-20
8.240988803e-21
2.176983675e-21
2.589607127e-20
5.373755373e-21
2.001914955e-20
1.646045046e-20
4.858800184e-21
4.104007241e-21
1.174744344e-20
1.592822617e-20
1.126523426e-20
1.100041942e-21
5.390883669e-21
1.212255129e-21
1.748438531e-20
2.597818556e-20
5.087987651e-20
5.853798643e-21
9.789366006e-21
6.067717838e-21
3.278456515e-21
2.733838382e-22
1.431343291e-20
1.097202639e-20
4.350920454e-20
2.663091899e-20
7.818174055e-22
5.718339996e-21
3.396206313e-21
4.224645712e-21
3.505503627e-20
8.564296496e-21
5.556094993e-21
6.333927677e-22
1.127915753e-20
8.219474446e-21
4.112143177e-21
9.1983084e-22
1.460362209e-20
8.872167412e-21
5.096179573e-21
3.397518047e-21
7.526996314e-23
2.148336074e-20
1.316075932e-20
6.190917574e-22
1.140554072e-21
3.064754868e-20
4.071066694e-21
3.293239397e-20
5.167578966e-21
2.281727081e-20
1.768653182e-20
6.779837959e-21
1.277546881e-20
8.9814691e-22
7.571932075e-21
1.698151418e-21
1.878997284e-20
1.22328052e-20
1.176478589e-20
1.780336266e-20
8.896217759e-21
2.986903059e-21
2.919604963e-21
4.759775443e-21
1.736997962e-20
4.857703651e-21
7.46401125e-22
7.020464937e-22
1.725335503e-20
2.613269465e-21
9.8635563e-22
1.461196788e-21
2.529695212e-20
3.472381139e-20
1.119002305e-20
1.681087254e-20
3.517099677e-22
3.851596122e-21
9.130358313e-21
8.614937263e-21
8.350980826e-21
1.700010376e-20
3.966371278e-20
9.038931872e-21
1.126301538e-22
5.433772006e-22
1.846833606e-20
5.054137116e-21
3.097578293e-21
8.854969943e-21
4.136109615e-21
3.772096192e-20
1.461037769e-21
4.20282931e-21
1.369115867e-20
5.980989038e-21
1.043398655e-20
1.350491609e-20
3.819460401e-20
5.379694788e-22
8.523172601e-22
1.389412963e-21
2.537346906e-21
5.699018539e-21
4.665841284e-22
1.27084755e-20
4.183723627e-21
8.436719106e-21
9.264318482e-21
1.103139089e-21
4.416730158e-22
2.441680956e-22
2.392552084e-20
2.68037e-21
3.456491101e-20
4.185277484e-21
2.10576308e-20
2.010519001e-20
1.653197688e-20
6.475806661e-21
1.366687616e-22
5.060962486e-21
6.545536098e-21
7.116724682e-21
2.248896176e-20
2.525196763e-21
3.57544131e-22
6.393243085e-22
2.327914748e-21
1.120861553e-20
1.061336648e-21
1.832225652e-21
1.769952314e-20
6.358656822e-21