/*--------------------------------*- C++ -*----------------------------------*\
| =========                 |                                                 |
| \\      /  F ield         | OpenFOAM: The Open Source CFD Toolbox           |
|  \\    /   O peration     | Version:  2406                                  |
|   \\  /    A nd           | Website:  www.openfoam.com                      |
|    \\/     M anipulation  |                                                 |
\*---------------------------------------------------------------------------*/
FoamFile
{
    version     2.0;
    format      ascii;
    arch        "LSB;label=32;scalar=64";
    class       labelField;
    location    "0.005/lagrangian/dsmc";
    object      origId;
}
// * * * * * * * * * * * * * * * * * * * * * * * * * * * * * * * * * * * * * //


9404
(
210285
216639
215543
217151
220326
220818
221140
215596
220841
219006
222395
220627
221896
222398
218168
215634
223563
225147
213869
224907
224961
224205
225532
226159
224529
225847
226646
222562
225214
225234
216839
226771
227707
219715
226740
228095
222882
225750
227988
222066
228004
224089
226754
228720
228800
225929
225841
228525
222242
227505
228307
227575
230121
222180
228228
229019
226871
226341
225122
227291
229626
224412
228218
229443
229832
227176
227264
228706
229545
229622
229013
227989
228590
228822
229639
230034
227194
229348
230167
227792
229355
230241
230312
229506
223513
226638
230128
230644
231761
229318
226453
230979
228393
227878
229833
229939
230332
231382
227769
227984
228409
228912
228385
228596
229926
231686
231963
229722
230136
230244
222975
229850
233802
231172
231280
232209
234721
231063
231373
226865
227482
230014
230146
231243
224614
228600
232423
233900
231381
231753
230553
230743
231346
232808
231962
233005
233483
231365
231653
233410
233703
225751
230970
231339
231772
232385
232688
235643
232531
232609
227281
228785
228814
231886
233335
233422
228299
230335
232843
227469
233803
234353
234253
235136
232617
233624
233625
221156
229515
230255
232879
232900
233678
233733
231073
231867
232311
233099
233411
234426
234439
229618
232992
233407
233849
234308
227785
230020
231265
232805
233081
235134
235241
231149
232586
233103
233939
231067
232510
234759
234824
234962
230685
234323
233521
233850
227796
233832
229647
232796
233311
233488
233857
234620
225011
233737
235472
231247
233811
234349
234646
235061
235647
200230
230848
233107
233730
225139
232683
234220
234320
235158
231179
232591
233212
235339
235466
235672
235792
235964
234827
233597
233718
234560
235457
232764
233106
233606
233721
234742
234753
235757
231546
234211
234232
234551
235508
235674
236485
230351
234007
234429
234857
234858
230127
234326
235306
235786
236184
236666
237480
233092
234861
236453
238192
228308
232583
234955
234980
235449
235473
236160
232088
232175
234559
234718
235470
235741
227791
235301
232082
235263
235570
235698
235878
236893
236981
238306
232996
234770
235072
235073
235782
235967
236093
236178
237581
228283
228684
232592
233198
233397
235610
236391
231270
233808
233821
234959
235660
235759
236707
234122
235064
235501
235764
236348
237119
238095
233412
234022
234618
234985
235068
235789
236177
237108
234332
235235
230021
231458
231763
232976
233398
234110
234610
236781
237378
237600
238819
230466
235769
236587
237636
231997
233838
233914
234528
235488
235960
236449
236484
237015
237029
237120
237491
238307
231471
231367
232810
233331
234325
235543
236467
236693
237206
237517
237683
237703
233420
231244
231894
234526
236388
236682
237294
238711
234951
235451
235778
235851
235969
236897
236987
237021
238443
233605
235770
235995
236812
237033
232675
234928
235196
236785
236887
237112
237884
238110
238534
224730
234536
234630
236152
236323
236807
237127
237288
237419
238124
238226
235153
235952
236380
236677
236802
237024
237308
237991
238305
238818
239514
230657
227787
236086
236686
236922
236989
237126
237730
238007
238224
238551
233328
235145
237312
237500
240752
236241
235084
236151
236361
237631
237825
238241
238552
238559
239074
239833
235774
237507
238440
234452
237116
237420
238509
238752
238771
238946
224613
233084
236662
236881
237214
237503
238043
238115
238141
238342
238445
235649
236556
237310
237397
237511
237948
238205
238349
238966
231781
232615
232785
235464
236789
239018
239217
239375
235841
235870
236153
236266
236883
237179
237398
237450
237490
237585
237692
238108
238168
238726
238861
239643
232286
233609
235167
236162
236999
237111
237200
237377
237605
238215
238435
238533
238842
238952
239051
239658
239885
231649
232694
235257
235752
236910
237103
237414
237835
238015
239065
239557
239741
239767
230234
236672
237390
237499
237696
237938
238011
238103
238229
238651
238839
239353
240286
231362
234213
235240
235391
235550
237192
237302
237421
237743
238144
238762
238775
238949
239226
239663
239865
240093
232182
236566
236571
236626
236877
236970
237285
237594
237821
238328
238424
238647
238731
238947
239331
239363
239961
229306
235290
236475
236574
236582
238017
239250
239540
239541
233389
235685
236359
237534
237940
238358
238426
238484
238558
238751
239136
241573
235359
236983
237280
238313
238425
238725
238824
239064
239329
240091
240267
232597
231673
233729
234751
236257
237912
238317
238538
239075
239683
239939
240650
229603
234169
237094
237639
238829
238930
239447
239880
240256
240345
240546
240571
236362
234614
236891
237412
238111
238345
238624
238672
239145
239770
239988
240003
235882
236690
237118
237917
238520
238522
239431
237682
238097
238099
238214
238739
238945
239134
239627
239633
240303
240449
240866
241059
236164
237664
237815
238431
238623
239224
239727
239749
239778
240818
235376
236071
237297
237785
237798
238022
238068
238201
238213
238356
238512
239025
239330
239519
239530
239735
239861
240113
240176
240194
240679
240883
240973
241061
241264
231242
233728
235454
235655
237204
238335
238830
238837
239396
239433
239858
239985
239992
240583
240749
241310
234619
235775
235383
237634
237678
238516
239244
239452
239481
239542
240258
240269
240305
240460
240469
240485
240914
241202
236455
235853
237604
238094
238316
239864
240167
240360
240538
240678
240786
241833
243514
237694
238221
238531
239245
239267
239574
240019
240180
240668
240762
241005
243009
236156
239241
239520
239544
240887
241011
242899
240451
235364
237198
225666
239730
239762
240388
240442
240468
240496
240957
240971
240995
241644
237519
237783
238018
238104
238130
238190
238218
238301
238438
238546
238737
238953
239837
240280
240324
240504
240580
240899
240907
241105
241106
241111
241803
236538
237513
238330
238371
240074
240271
240276
240369
240592
240625
240714
241081
241159
241182
241408
241502
235845
236450
238866
239352
239445
239731
239743
239845
240081
240705
241318
241370
241395
242022
237314
235755
236559
237478
239211
239549
239738
240362
240548
240662
240958
241060
241259
241422
241695
242222
242591
242900
235441
236969
237784
238427
239030
239112
239354
239764
239983
240066
240175
240359
240372
240871
240910
240968
241121
241308
241543
241918
242743
238331
239157
239531
239842
239849
240177
240263
240588
241094
241203
241292
241578
233399
236703
237996
239135
239848
239971
240149
240169
240454
240459
240565
240772
240895
241208
241505
241908
242111
242189
235340
239253
239874
239955
240795
240890
241036
241058
241067
241235
241332
241522
241606
241613
242097
242140
242223
243618
237614
239624
236256
238020
238506
238820
239222
239747
239851
240086
240492
240591
240663
240685
240773
240856
240886
241433
241501
241701
241881
241907
242130
237301
238633
238928
239140
239442
239628
240363
240380
240672
241066
241068
241112
241367
241621
242136
242362
242536
238747
238924
235250
237687
240151
240681
240763
240864
241172
241402
241755
241831
241985
242033
242137
242188
242237
242240
230746
237802
238720
239142
239361
239619
239746
240062
240259
240268
240493
240494
240648
240774
240803
240988
241369
241796
241994
242245
242380
242628
238416
238613
239525
239568
240474
241082
241173
241384
241687
241807
242225
242248
242390
242517
242738
243106
234312
237932
238934
238936
240349
240892
241324
241418
241677
241890
242108
242115
242211
242320
242486
243959
235361
238212
238528
238713
239315
239341
240352
240374
240479
241009
241608
241783
241797
241936
242238
242330
242436
242604
242718
243051
228086
238216
239578
240457
240993
241077
241293
241574
241822
242094
242332
242386
242417
242829
244324
206961
237790
239879
240475
240576
241920
242112
242205
242338
242598
242768
243063
243162
243355
243513
236872
239225
241277
241511
242214
242529
242921
243001
243087
243266
243628
243744
243748
237916
240057
240695
241366
241693
241705
242021
242184
242314
242430
242763
242808
242911
242923
242999
243522
243533
244431
236555
236773
237394
238209
239334
240653
240875
240955
240990
241281
241313
241321
241406
241591
241726
242025
242090
242640
242833
243135
243776
239036
239148
239239
239439
240680
240780
241073
241090
241525
241599
241612
241801
241911
242183
242326
242438
242647
242720
242807
242928
243166
243308
243368
245254
242925
238109
239471
239751
239850
240498
241274
241302
242119
242213
242349
242737
242957
243151
243462
244428
244433
237899
239662
240148
241283
241944
242053
242216
242370
242409
242415
242623
242795
243160
243752
235554
239953
238913
240384
240760
241065
241168
241286
241506
241516
241809
241818
242823
242950
243328
243334
243787
243813
244454
244541
233826
242286
235038
235945
238746
238922
240356
241022
241785
241792
241902
241932
242453
242601
242642
242716
242735
242931
243140
243248
243332
243354
243377
243424
244678
246381
234842
233404
241165
241571
241781
242018
242104
242105
242122
242414
242506
242902
242932
243049
243064
243066
243131
243142
243429
243760
243981
244074
244746
234138
236786
236886
239349
240471
241178
241262
241935
242149
242619
242635
242818
242942
243136
243175
243247
243430
243438
243525
243653
243685
243917
243936
243951
243984
244129
244345
240156
240470
240473
241091
241269
241391
241476
241910
242427
242533
242614
242633
242830
243219
243661
246383
241299
231667
238409
238822
239536
239724
241101
241185
242303
242398
242416
242609
242690
242726
243038
243112
243122
243150
243177
243243
243262
243433
243547
243559
243725
243965
244672
244765
246683
235565
235638
236565
238523
239346
239765
240465
241314
241905
242019
242092
242419
242599
242626
242734
242739
242946
243079
243134
243232
243236
243337
243535
243656
243743
243868
244042
244192
244373
244374
244716
246070
239314
240050
240983
241085
241174
241267
241382
241598
241691
241938
242212
242908
243133
243223
244178
244347
244390
244425
244555
244603
244666
245188
239243
239257
240581
241499
241683
241904
242133
242909
243044
243210
243225
243229
243242
243346
243635
243644
243645
243883
243933
243955
244259
244334
244362
244510
244781
244889
245050
236678
238721
238826
241581
242493
242597
242728
242762
242832
243047
243233
243244
243450
243540
243640
243836
243845
243853
243921
243942
244156
244465
244569
244573
245008
245076
246481
235768
241470
242229
242542
242733
243120
243218
243274
243324
243372
243468
243649
243676
243679
244163
244168
244175
244253
244264
244274
244352
244498
245177
246278
236243
242003
239340
240970
241100
241389
241993
242215
242488
242809
243239
243256
243312
243837
243943
244055
244158
244318
244446
244449
244546
244580
244674
244692
244693
244780
244987
245609
237800
237596
241586
241804
241808
242704
243114
243751
243759
243841
243849
243856
243964
243977
244194
244280
244559
244590
244644
244689
244795
245264
239141
239863
239974
240879
241492
241917
242686
242717
242814
242897
243004
243146
243147
243330
243335
243412
243470
243517
243555
243557
243783
243786
243939
244157
244180
244358
244485
244699
244772
244775
245016
245113
244038
239054
239437
238935
239831
240776
241079
241197
241735
243145
243209
243211
243240
243252
243315
243341
243431
243742
243857
243866
244057
244132
244145
244255
244268
244367
244503
244561
244768
244804
244868
245281
245623
245840
245900
245962
246993
235586
244159
238915
240564
240768
240865
241891
242315
242592
243654
243665
243839
243938
243950
244045
244058
244261
244273
244360
244456
244576
244647
245150
245155
245199
245306
245568
245731
245963
245965
236358
237385
239338
240365
241088
241171
241806
241986
242498
242505
242800
242929
243224
243862
243940
244130
244142
244155
244220
244330
244355
244368
244656
244874
244981
245071
245086
245317
245487
245606
245888
247912
242714
241184
242405
242811
243342
243360
243652
243728
243758
243822
243976
244201
244317
244488
244686
244691
244732
244743
244767
245056
245154
245189
245286
245584
245789
246126
246480
247007
237690
242201
242297
242496
242606
242699
242844
242960
243221
243521
243552
243620
243885
244134
244184
244254
244405
244673
244791
244955
244963
245391
245501
246615
235164
239637
240172
241694
242295
243129
243321
243444
243455
243527
243825
243945
243967
244036
244124
244167
244234
244469
244761
244995
244998
245047
245103
245201
245319
245486
245663
245675
245702
245812
246068
246586
246992
234939
238933
241485
241987
242413
242822
243082
243115
243182
243928
244021
244350
244383
244427
244461
244474
244536
244591
244597
244646
244679
244857
245002
245083
245176
245187
245275
245276
245277
245290
245421
246665
234942
238405
240073
240562
241377
241690
242912
242924
243137
243235
243443
243957
244133
244135
244141
244151
244247
244262
244471
244479
244554
244567
244704
244751
244779
244815
244877
244895
245301
245372
245397
245499
245524
245631
246106
239425
243215
239843
240350
240850
241465
241592
242602
242620
242918
243426
243519
243539
243754
243803
243952
244041
244050
244645
244783
244785
244786
244951
244977
245211
245479
245614
245622
245722
245760
245886
245912
245988
246110
246202
246482
246537
246753
247297
238718
239350
241062
241488
241689
242011
242298
242309
242466
242502
242940
243108
243113
243448
243452
243929
243966
244066
244323
244563
244639
244657
244677
244918
244966
244993
245062
245402
245565
245600
245799
245806
245898
246301
246585
246720
247030
244217
239124
239234
239636
239868
240661
242307
242700
242707
242895
243029
243673
243828
244325
244462
244466
244470
244586
244652
244682
244774
244848
244894
245075
245521
245687
245784
245794
245879
245892
246010
246060
246226
246588
248324
233093
240560
241386
241398
241583
241821
243031
243033
243039
243227
243316
244185
244308
244321
244340
244511
244770
245160
245181
245260
245358
245403
245404
245620
245665
245696
245887
245902
245919
245990
246095
246221
246435
246526
246633
246704
246902
249553
235989
239342
242210
242802
243132
243511
243636
243733
243935
244231
244560
244844
244853
244884
244897
244913
244991
245285
245409
245506
245562
245787
245986
246089
246327
246477
246534
246807
248013
249025
239545
236263
240761
241083
242701
243128
243246
243616
243627
243633
244131
244339
244589
244670
244676
244922
245163
245171
245198
245265
245406
245412
245477
245493
245497
245708
245893
245903
245909
245910
246012
246017
246125
246174
246208
246346
246539
246549
246559
246613
246693
246901
247062
247071
247208
247708
247985
231440
244221
241481
239828
243253
243333
243816
243840
243850
243892
244016
244252
244263
244801
244971
244997
245051
245090
245093
245205
245312
245400
245482
245495
245591
245605
245688
245690
245705
246104
246105
246211
246239
246318
246401
246402
246421
246516
246533
211437
246823
247092
247451
243413
241273
241280
241495
241680
241795
242596
242705
242922
243018
243109
243208
243329
243421
243516
243623
243831
244460
244869
244964
245179
245186
245261
245278
245305
245378
245706
245835
245966
245993
245999
246121
246130
246262
246296
246443
246455
246675
246729
246739
247400
247534
247599
241167
242509
243217
243638
244150
244250
244748
244871
244965
244976
245175
245206
245222
245383
245592
245699
245715
245778
245877
245983
246030
246092
246111
246119
246178
246201
246412
246499
246550
246616
246748
246779
246812
246830
246994
247034
247040
247248
247432
247514
243523
239232
242294
243318
243436
243847
244032
244161
244246
244451
244464
244577
244771
244879
245019
245064
245288
245377
245381
245393
245411
245516
245599
245805
245821
245851
245882
246035
246082
246094
246115
246225
246264
246304
246492
246535
246546
246621
246651
246661
246712
210912
246802
246834
246925
247164
245348
243420
244484
237599
238535
240657
242296
242300
242722
243194
243213
244272
244394
244457
244752
245152
245153
245321
245384
245385
245590
245697
245765
245906
209512
246026
246093
246114
246313
246324
246379
246408
246545
246837
247017
247044
247065
247331
247849
211001
240984
241575
242710
243163
243325
243520
243724
244064
244147
244389
244542
244547
244558
244582
244664
244776
244954
245298
245424
245434
245617
245666
245685
245703
245876
245975
245998
246001
246108
246153
246183
246223
246256
246316
246347
246422
246543
246572
246595
246842
246866
246909
247173
247626
247701
247732
248115
243411
236993
240771
243020
243212
243554
243729
244148
244319
244764
244872
244873
245190
245268
245392
245396
245560
245577
245594
245720
245916
245981
246005
246196
246521
246600
246603
246612
246636
246659
246711
246801
246814
246829
246850
247079
247110
247202
247427
247440
248119
233210
242515
238723
239859
241887
242489
242600
243117
244570
244659
245066
245100
245111
245251
245332
245490
245500
245671
245677
245701
245776
245987
246072
246103
246185
246212
246216
246258
246297
246414
246416
246454
246513
246569
246640
246724
246808
246819
246955
247059
247069
247422
248623
212583
249441
242590
244777
240862
241300
242095
242118
243019
243125
244232
244333
244336
244668
244867
244878
245061
245191
245259
245292
245485
245616
245777
245792
245895
245897
246205
246328
246378
246394
246404
246415
246493
246512
246518
246609
246611
246617
246708
246766
246835
246934
247108
247166
247497
247771
242199
242336
211735
240852
240462
243052
243615
244320
244807
244875
244973
245295
245498
245528
245576
245578
245602
245613
245626
246006
246132
246194
246200
246399
246409
246420
246520
246618
246687
246705
246848
246945
246961
247002
247022
247122
247227
247244
247263
247290
247295
247299
247342
247343
247352
247535
247841
248322
248462
249026
249659
249964
212061
211538
237886
238757
241374
242078
242217
242219
242408
242594
242696
243007
243231
243617
243622
243662
243722
244376
245369
245579
245681
245686
245780
245913
246077
246279
246315
246406
246429
246525
246527
246536
246790
246811
246818
246847
246922
246942
247053
247142
247181
247200
247220
247348
247383
247426
247469
247718
247731
247974
248225
240872
241161
243425
243546
244361
244371
244430
244552
244662
245068
245270
245314
245800
245815
245878
245891
245899
245908
245911
245989
246085
246088
246195
246198
246207
246237
246329
246410
246411
246413
246531
246605
246622
246638
246710
246759
246855
246939
246944
247056
247093
247114
247137
247224
247319
247326
247382
247520
247530
247620
247622
247627
247675
247720
247740
247748
247757
247774
247968
248198
248257
248379
245858
212849
233012
238929
244237
244440
244641
245172
245263
245274
245581
245593
245822
246008
246069
246134
246244
246321
246354
246417
246427
246442
246629
246702
246713
246727
246820
247005
247025
247078
247158
247168
247171
247251
247272
247322
247417
247540
247559
247561
247628
247837
247866
247951
248223
248424
248928
242731
243830
242723
244139
244327
244762
244967
245363
245517
245627
245670
245809
245874
245875
245997
246054
246224
246231
246281
246294
246320
246389
246486
246610
246676
246826
246919
247120
247132
247139
247193
247338
247339
247350
247445
247638
247651
247661
247704
247745
247829
247865
248621
248678
228713
244256
235374
241794
241802
242093
242402
243037
243345
243536
243835
244854
244865
245065
245151
245389
245669
245813
245866
246000
246273
246277
246343
246497
246562
246627
246663
246744
246769
247073
247090
247222
247225
247268
247327
247341
247347
247349
247367
247429
247430
247431
247434
247435
247525
247551
247560
247624
247654
247684
247812
247840
247895
248098
248141
248429
248575
248674
243823
243944
244037
244230
244436
244543
244556
244766
245102
245257
245491
245604
245930
245971
245985
246303
246358
246419
209598
246631
246803
246886
246907
247000
247033
247055
247117
247320
247324
247344
247368
247463
247552
247556
247634
247646
247649
247668
247775
247878
247960
247982
248445
248446
248586
248589
248639
248670
249965
247391
211708
242103
242919
243000
243418
243819
244044
244048
244054
244249
244539
244655
245370
245382
245863
246090
246123
246128
246189
246235
246331
246384
246456
246462
246519
246623
246722
246846
246885
246892
246969
246971
247039
247052
247128
247138
247240
247245
247266
247346
247453
247528
247532
247581
247650
247655
247663
247672
247681
247756
247816
247823
247836
247863
247958
248014
248250
248412
248454
248566
248618
211443
249361
249658
250763
240249
240282
242017
242305
242706
242797
244793
245070
245112
245180
245374
245567
245684
245802
246099
246102
246187
246334
246407
246599
246841
247042
247045
247135
247153
247252
247361
247518
247539
247629
247639
247686
247751
247846
247862
248038
248061
248169
248174
248179
248188
248238
248259
248265
248273
248276
248368
248541
248622
248692
248812
248830
248969
243311
234849
239128
240563
241590
241996
243827
244909
245473
245595
245610
245630
245833
246360
246425
246483
246530
246836
246890
247049
247126
247241
247308
247323
247335
247358
247359
247423
247424
247442
247468
247526
247575
247660
247666
247788
247853
247911
247978
248007
248048
248053
248078
248160
248209
248247
248258
248268
248269
248313
248348
248377
248495
248583
248654
248700
248738
248856
211186
250764
212427
248822
242114
242396
243834
244228
244344
245564
245881
245977
246507
246597
246804
246832
246928
246930
246940
246960
247048
247066
247144
247209
247239
247250
247328
247381
247408
247489
247499
247523
247531
247541
247554
247648
247694
247769
247791
247805
247870
247881
247953
247970
247975
247977
248054
248059
248155
248252
248389
248485
248488
248570
248620
248686
248694
248794
249001
249078
249204
249435
249503
250265
251084
241284
242080
244144
244348
244476
244565
244654
245149
245680
246004
246109
246510
246647
210824
247023
247129
247340
247438
247457
247544
247569
247617
247619
247636
247640
247753
247844
247940
248035
248045
248047
248077
248136
248146
248151
248175
248187
248202
248221
248359
248395
248477
248539
248873
248930
211275
249076
249625
239840
242318
244034
244244
245049
245668
245790
246083
246305
246479
246491
246511
246697
246911
247058
247130
247143
247148
247254
247333
247355
247370
247444
247447
247467
247516
247522
247548
247637
247734
247759
247773
247782
247797
247833
247835
247889
247927
247950
247959
248029
248043
248052
248071
248089
248096
248114
248166
248172
248204
248244
248249
248358
248363
248384
248398
212487
248463
248484
248496
248667
248672
248675
248705
248711
248751
248807
248829
248893
249014
249966
213102
250371
213115
241290
241989
242102
243116
244033
244240
244757
244870
245069
245161
245253
245387
245588
245786
245922
245976
246352
246386
246723
246843
247067
247119
247195
247232
247233
247257
247287
247337
247351
247377
247415
247421
247449
247460
247543
247763
247847
247875
247947
248033
248040
248042
248067
248070
248080
248154
248164
248167
248364
248365
248407
248464
248565
248612
248795
248803
248849
248871
249077
249131
249438
249487
249550
213541
250762
212312
249110
248927
243107
243924
244763
245279
245773
245970
246080
246097
246191
246199
246219
246229
246312
246553
246686
246824
246912
246932
247109
247134
247136
247157
247167
247221
247228
247325
247414
247448
247838
247852
247879
247933
247983
247984
248063
248069
248093
248123
248192
248270
248303
248361
248411
248415
212310
248472
248474
248479
248482
248535
248572
248647
248676
248764
248767
248802
248870
248976
249127
249207
249326
211367
249346
249391
249402
249440
212504
247216
237625
240559
242096
242713
243558
243632
244862
244986
245502
246016
246426
246498
246653
246799
246821
246825
246895
247080
247099
247118
247125
247242
247316
247410
247565
247652
247737
247738
247789
247842
247861
247909
247935
247942
247945
247961
247972
247980
248026
248036
248062
248111
248130
248147
248206
248211
248331
248534
248574
248579
248584
248592
248665
248668
248682
248902
248982
249176
249295
249591
212930
249961
250368
250876
245077
248506
246391
241381
243548
244424
244578
244760
245271
245484
245526
246064
246289
246308
246523
246685
246691
246706
246903
246921
247031
247214
247217
247238
247481
247510
247547
247596
247598
247632
247633
247747
247831
247851
247885
247993
248008
248051
248142
248245
248254
248295
248350
248374
248391
248447
248470
248501
248666
248669
248786
248800
248832
248848
248863
248876
248895
248985
249075
249108
249183
249202
249240
249283
249317
249340
249436
249478
249962
250027
250269
212130
212938
213818
241285
243941
244463
244540
245057
245085
245354
245795
246169
246293
246319
246339
246387
246502
246682
246707
246809
247029
247087
247089
247205
247215
247230
247249
247329
247363
247413
247495
247538
247566
247573
247600
247630
247665
247736
247758
247761
247762
247871
247906
247926
247955
247964
247997
248025
248128
248190
248218
248224
248251
248255
248266
248408
248444
248568
248587
248598
248650
248664
248756
248757
248878
248971
248998
249060
249197
249280
249544
249613
250358
241263
241786
242901
243119
243222
243509
244950
244956
245462
245597
245598
245664
245894
246076
246290
246489
246517
246606
246817
246838
246894
246913
246918
247026
247113
247169
247212
247229
247505
247621
247625
247643
247843
247991
248290
248349
248449
248452
248455
248576
248765
248778
248780
248850
248879
248888
248892
248894
248897
248967
249070
249090
249132
249161
249179
249220
249223
249278
249287
249348
249396
249477
249502
249513
249840
249841
249942
250107
250118
250263
251082
212935
214425
240262
243528
243730
244447
244744
244883
245379
245683
245783
246071
246213
246688
246926
246938
247028
247127
247360
247524
247567
247644
247647
247682
247713
247733
247811
247818
247923
247934
248003
248023
248028
248050
248140
248148
248173
248193
248207
248232
248264
248279
248390
248393
248418
248439
248456
248557
248599
248641
248651
248661
248726
248838
248872
248901
248903
248925
248957
248965
248979
249006
249079
249133
249162
249169
249258
249275
249303
249320
249382
249392
249457
249545
249726
249808
250033
250231
250329
250457
250703
250765
250872
212855
236580
243159
246170
213640
213309
241901
242302
242316
244235
244435
244959
245053
245884
245973
246503
246730
246923
247105
247131
247218
247234
247310
247484
247533
247702
247777
247887
247949
248065
248153
248156
248186
248300
248373
248382
248403
248475
248499
248546
248552
248573
248577
248649
248653
248663
248681
248698
248727
248744
248763
248770
248772
248773
248776
248839
248860
248936
249030
249047
249175
249190
249234
249269
249272
249274
249314
249337
249339
249357
249367
249370
249407
249508
249510
249548
249594
249618
249900
249916
250052
250094
250226
250844
247296
244661
213545
245785
241400
242803
242804
244548
245679
246167
246192
246254
246789
246813
247020
247133
247292
247537
247616
247657
247845
247855
247937
247976
248037
248124
248149
248152
248182
248205
248248
248291
248323
248341
248370
248442
248531
248538
248603
248660
248722
248736
248741
248752
248793
248808
248857
248875
248900
248961
248987
249009
249056
249065
249107
249165
249192
249219
249226
249291
249293
249395
249410
249467
249475
249492
249631
249656
212842
249853
250015
250361
250500
249540
252205
212072
212687
213552
243637
244962
245165
245869
246495
246806
246989
247012
247283
247307
247549
247746
247815
247832
247874
247920
247957
247989
247990
248041
248072
248079
248081
248082
248195
248242
248352
248369
248372
248376
248386
248399
248465
248489
248548
248637
248680
248685
248750
248759
248771
248898
248899
248966
248975
248980
248989
249008
249059
249063
249064
249068
249085
249128
249148
249377
249378
249474
249476
249499
249516
249574
249604
249610
249729
249756
249871
249923
249934
250018
250020
250100
250116
250129
250333
249336
245979
213378
235553
213462
242196
244750
245771
245793
245796
246091
246529
246958
247019
247024
247261
247354
247496
247764
247932
247969
248027
248044
248158
248274
248354
248375
248537
248553
248563
248643
248655
248659
248739
248749
248755
248758
248762
248779
248783
248797
248805
248855
248941
248943
248946
248973
248986
248988
248993
248994
249050
249051
249054
249084
249089
249174
249237
249241
249256
249300
249390
249404
249494
249577
249596
249612
249617
249707
249716
249746
249784
249858
249937
249989
249996
250043
250115
250119
250266
250825
213993
251586
212844
215038
212757
212766
240873
240874
241572
243428
244341
244538
244881
245395
245471
245801
245890
246929
247206
247744
247780
247941
247966
248056
248126
248178
248271
248297
248325
248362
248378
248430
248433
248450
248562
248607
248687
248781
248785
248824
248882
248948
248999
249012
249045
249052
249157
249196
249199
249208
249216
249304
249352
249366
249383
249415
249471
249472
249483
249490
249493
249504
249519
249589
249599
249611
249710
249724
249780
249805
249809
249881
249887
249955
250087
250414
250441
250535
250620
251261
214083
242492
243648
244138
244343
244876
245492
245496
246203
246395
246810
247111
247112
247124
247226
247330
247519
247954
248019
248031
248263
248278
248306
248307
248357
248409
248467
248504
248513
248595
248648
248697
248699
248709
248724
248865
248942
248974
249039
249082
249088
249096
249099
249166
249186
249273
249290
249312
249376
249533
249567
249584
249601
249632
249713
249722
249787
249801
249884
249985
250002
250042
250064
250181
250198
250207
250218
250428
250561
251081
212602
251295
214682
213202
248451
213558
240561
241166
244238
245772
246063
246795
246900
247106
247332
247729
248073
248159
248171
248262
248316
248351
248360
248527
248555
248571
248601
248617
248626
248679
248721
248869
248880
248886
248887
248954
248955
248970
248996
249061
249071
249074
249095
249171
249172
249271
249309
249355
249362
249373