/*--------------------------------*- C++ -*----------------------------------*\
| =========                 |                                                 |
| \\      /  F ield         | OpenFOAM: The Open Source CFD Toolbox           |
|  \\    /   O peration     | Version:  2406                                  |
|   \\  /    A nd           | Website:  www.openfoam.com                      |
|    \\/     M anipulation  |                                                 |
\*---------------------------------------------------------------------------*/
FoamFile
{
    version     2.0;
    format      ascii;
    arch        "LSB;label=32;scalar=64";
    class       Cloud<dsmcParcel>;
    location    "0.005/lagrangian/dsmc";
    object      positions;
}
// * * * * * * * * * * * * * * * * * * * * * * * * * * * * * * * * * * * * * //

9404
(
(0.2402529199 0.1032175259 -2.710505431e-20) 201
(0.2898343968 0.1012421913 0) 148
(0.2970053381 0.09342884027 -4.33680869e-19) 88
(0.2285823143 0.0833678834 0) 109
(0.3034778296 0.09510395716 -2.168404345e-19) 89
(0.2450403888 0.07820480556 -4.33680869e-19) 82
(0.2929156041 0.1074947854 5.421010862e-20) 178
(0.298310438 0.09960243149 -1.084202172e-19) 119
(0.2362799844 0.07963041844 -4.33680869e-19) 81
(0.2268121193 0.08086297227 -4.33680869e-19) 109
(0.2840653659 0.0917830904 -3.252606517e-19) 87
(0.2912345303 0.1626287905 -4.065758147e-19) 478
(0.2953315731 0.09519944309 -2.168404345e-19) 88
(0.2731341461 0.0761453511 -2.168404345e-19) 25
(0.2736548952 0.1063841467 4.33680869e-19) 175
(0.2504033287 0.07847140446 4.33680869e-19) 52
(0.2982281283 0.09810176187 -1.084202172e-19) 119
(0.2573859076 0.08288282979 5.421010862e-20) 83
(0.2857976783 0.08406972582 -1.084202172e-19) 57
(0.2788550817 0.1241591354 -1.084202172e-19) 266
(0.2778545602 0.0900038095 0) 86
(0.3025365874 0.1035133628 -2.168404345e-19) 149
(0.2021001056 0.07256946034 4.878909776e-19) 76
(0.2829597409 0.1082910379 -4.33680869e-19) 177
(0.2868767683 0.1057739464 0) 177
(0.2263493518 0.06600834202 0) 19
(0.2969747391 0.0824685409 0) 28
(0.2655860165 0.08319102794 -2.168404345e-19) 84
(0.1650039292 0.04827823695 1.084202172e-19) 11
(0.2401152167 0.08501808749 -7.453889936e-20) 111
(0.3010456992 0.08416889436 8.131516294e-20) 29
(0.280178195 0.1134122352 0) 206
(0.2755127896 0.1182230848 3.388131789e-20) 236
(0.2415248978 0.07475447586 -1.084202172e-19) 51
(0.2851746324 0.07938159746 2.710505431e-20) 27
(0.30003999 0.1090020365 -1.084202172e-19) 179
(0.3045731388 0.1443965566 -1.270549421e-19) 359
(0.2874020348 0.1084076237 -4.33680869e-19) 177
(0.1869884635 0.06980566846 0) 104
(0.1874127779 0.08518093432 1.084202172e-19) 164
(0.2652585726 0.09577667342 1.084202172e-19) 144
(0.3034507659 0.1210921297 -2.168404345e-19) 239
(0.3001410872 0.0915144511 -1.626303259e-19) 89
(0.2855641354 0.09564205089 -2.710505431e-20) 117
(0.2703501902 0.08077684827 6.776263578e-20) 55
(0.2617504774 0.1279575978 0) 324
(0.2338733916 0.08219922137 0) 110
(0.2472556523 0.07408906689 -2.710505431e-20) 52
(0.2952035937 0.09643233267 0) 118
(0.2675363732 0.1087041926 0) 205
(0.294579631 0.07899527988 4.33680869e-19) 28
(0.2591514787 0.1095522147 0) 204
(0.2999829374 0.08794117702 -2.168404345e-19) 59
(0.2741536513 0.07480521509 2.168404345e-19) 25
(0.2910954102 0.1163539042 -5.421010862e-20) 208
(0.2508563663 0.07083059201 4.33680869e-19) 22
(0.2255154857 0.08795274539 -1.084202172e-19) 139
(0.253323243 0.1466059115 5.421010862e-20) 413
(0.2833967416 0.08807717118 -2.168404345e-19) 87
(0.3003629759 0.08590476332 0) 29
(0.2430567933 0.07786730615 2.168404345e-19) 81
(0.2975559775 0.09204111361 0) 89
(0.2126363728 0.07075061094 0) 77
(0.2161865687 0.08223986208 -2.168404345e-19) 138
(0.2203691058 0.07123943581 0) 78
(0.2884399593 0.08313468121 2.168404345e-19) 57
(0.2696239229 0.1076898363 1.626303259e-19) 205
(0.2382552789 0.06780530215 1.084202172e-19) 21
(0.2835091063 0.08921438358 1.084202172e-19) 87
(0.2742821623 0.07927838653 0) 55
(0.2772958491 0.09140614973 1.084202172e-19) 116
(0.2192801297 0.06525573914 0) 48
(0.281869865 0.121159696 -4.33680869e-19) 266
(0.2948677 0.09492702178 0) 88
(0.2893899951 0.1035135382 -4.33680869e-19) 147
(0.2860890604 0.0815148215 1.355252716e-19) 27
(0.293025128 0.1024539587 4.607859233e-19) 148
(0.2926305033 0.1460263548 3.252606517e-19) 388
(0.2639145956 0.09431174372 2.168404345e-19) 144
(0.2916421265 0.1011894679 0) 148
(0.2493306139 0.112942786 -2.168404345e-19) 232
(0.2873670936 0.09273639171 -2.168404345e-19) 87
(0.2715450608 0.07340582957 4.33680869e-19) 25
(0.2721560387 0.07336100178 -4.33680869e-19) 25
(0.2961824217 0.08382595771 0) 28
(0.2527539572 0.08316299063 1.084202172e-19) 83
(0.2847033187 0.1076111173 -5.421010862e-20) 177
(0.2384661452 0.08559182108 -1.084202172e-19) 111
(0.2988917097 0.1086905974 2.168404345e-19) 179
(0.190812256 0.06394466069 -3.252606517e-19) 75
(0.2835845496 0.09762143121 -1.626303259e-19) 117
(0.2443673657 0.07461786666 -5.421010862e-20) 52
(0.2731813159 0.07609098045 -2.168404345e-19) 25
(0.2809744981 0.1132673963 0) 206
(0.2366215792 0.07353599174 -1.084202172e-19) 51
(0.3022917725 0.1266409266 0) 269
(0.2919195995 0.1052163874 -2.168404345e-19) 148
(0.2692802171 0.0850806412 1.084202172e-19) 85
(0.1630529077 0.06323615369 3.252606517e-19) 101
(0.2195671361 0.0769638176 -4.33680869e-19) 108
(0.2851969493 0.09152059731 0) 87
(0.2107273994 0.06122040484 -2.168404345e-19) 17
(0.2097786153 0.07050644827 1.084202172e-19) 77
(0.2844865131 0.09122499734 -5.421010862e-20) 87
(0.2581316022 0.1200740671 0) 263
(0.260711612 0.09045245704 2.168404345e-19) 114
(0.2932541978 0.09808570989 -6.776263578e-21) 118
(0.2432438133 0.1191006144 4.33680869e-19) 291
(0.2657061597 0.1014821915 2.168404345e-19) 174
(0.2937216123 0.08508872871 -2.168404345e-19) 58
(0.2675399538 0.07373591497 0) 25
(0.2610995546 0.1005915963 5.421010862e-20) 174
(0.2591133236 0.08843346551 -4.33680869e-19) 114
(0.2577430277 0.08150085714 0) 83
(0.2644265226 0.1046237737 0) 174
(0.2773472774 0.1241800769 0) 266
(0.3030750975 0.08328089922 -1.084202172e-19) 29
(0.2623854856 0.08980822993 0) 114
(0.2056260386 0.06169233971 0) 46
(0.2716471153 0.0755934558 -1.151964808e-19) 25
(0.1742925135 0.05452319756 -2.168404345e-19) 42
(0.294721977 0.1116333996 3.252606517e-19) 178
(0.2664681965 0.08373111546 0) 84
(0.227381859 0.06460251071 -2.168404345e-19) 19
(0.2621092121 0.08121823495 0) 54
(0.2928067653 0.1097847082 0) 178
(0.2386913537 0.06399057753 -2.168404345e-19) 21
(0.2860961175 0.123250108 -3.252606517e-19) 267
(0.2850873164 0.106334827 -1.084202172e-19) 177
(0.2933008961 0.09400271211 2.168404345e-19) 88
(0.2746324873 0.1075076113 0) 176
(0.3005008647 0.08810793854 5.421010862e-20) 59
(0.2644362028 0.08451492248 -1.626303259e-19) 84
(0.2147588773 0.07488953685 1.084202172e-19) 78
(0.2092749396 0.06971139818 -2.168404345e-19) 77
(0.2706398385 0.07271177611 0) 25
(0.2978685814 0.08888434423 0) 59
(0.2169411673 0.07878872678 -5.421010862e-20) 108
(0.2377909439 0.08607200188 2.168404345e-19) 111
(0.2461448123 0.08896330053 0) 112
(0.2616348873 0.08043994561 0) 54
(0.2267852278 0.0826642567 0) 109
(0.230589421 0.1033221106 2.168404345e-19) 200
(0.2843891491 0.1129267077 -1.626303259e-19) 207
(0.237129995 0.06909746792 0) 21
(0.2921890688 0.1278613975 0) 268
(0.2430214363 0.09989196991 2.168404345e-19) 171
(0.2125769391 0.09033063179 -2.303929617e-19) 167
(0.2806326401 0.07996204996 2.168404345e-19) 26
(0.3007951654 0.1575569992 4.065758147e-20) 449
(0.225061864 0.06225532317 0) 19
(0.2279868736 0.1050224508 -2.168404345e-19) 229
(0.2811155105 0.1365780382 0) 326
(0.2755842929 0.08084567635 -2.710505431e-19) 56
(0.1898756349 0.07302935836 -6.505213035e-19) 104
(0.2055262499 0.08260115813 3.388131789e-20) 136
(0.2848494615 0.07822752328 -1.084202172e-19) 27
(0.2566358866 0.08900440632 0) 113
(0.2916744357 0.09501099367 2.168404345e-19) 118
(0.3029461455 0.09427698983 -5.421010862e-20) 89
(0.1629352136 0.1104737481 -5.421010862e-20) 311
(0.2587223455 0.1008715918 -1.897353802e-19) 173
(0.2174744563 0.06246381997 2.710505431e-20) 18
(0.2341278065 0.07068995524 -2.168404345e-19) 50
(0.3021604281 0.118483216 -2.168404345e-19) 209
(0.2657480578 0.08255188029 0) 54
(0.2355846918 0.09156166155 2.168404345e-19) 140
(0.3018008028 0.1190649553 2.168404345e-19) 209
(0.1786543489 0.07509589039 1.355252716e-19) 133
(0.2443084193 0.13736387 -1.084202172e-19) 382
(0.223165203 0.09440043012 0) 169
(0.2166612202 0.06335729096 -4.33680869e-19) 18
(0.2287146165 0.1293036891 -2.168404345e-19) 350
(0.2765731208 0.08751867017 -1.084202172e-19) 86
(0.2864144278 0.1153854659 -1.084202172e-19) 207
(0.2514563621 0.1449307736 1.084202172e-19) 412
(0.302101604 0.08931120509 0) 59
(0.2051816043 0.1226088456 -4.33680869e-19) 346
(0.1826089382 0.0791766825 4.33680869e-19) 133
(0.2666605192 0.09369769122 -4.33680869e-19) 114
(0.2213137867 0.07316193698 0) 79
(0.2963522304 0.0831344765 0) 28
(0.2945650961 0.1228802465 -1.084202172e-19) 238
(0.2242625422 0.08689719794 8.131516294e-20) 139
(0.3041084869 0.08686962325 0) 29
(0.2662844626 0.08449025413 -1.084202172e-19) 84
(0.3032623757 0.132077236 -2.168404345e-19) 299
(0.1838212075 0.09546196165 0) 224
(0.2592196986 0.07706939722 0) 54
(0.2894876765 0.1231387182 -2.168404345e-19) 267
(0.3004576416 0.1190150015 -5.421010862e-20) 239
(0.2276033623 0.07818494672 -2.168404345e-19) 79
(0.2923414711 0.1449762165 3.252606517e-19) 388
(0.2144512674 0.06463501793 3.252606517e-19) 48
(0.2530611301 0.07376313475 4.33680869e-19) 53
(0.2799871518 0.1111499111 2.710505431e-19) 206
(0.2856007839 0.08457222962 -1.355252716e-20) 57
(0.2993554051 0.08669119369 4.33680869e-19) 59
(0.2575187141 0.09316252835 2.168404345e-19) 143
(0.283897292 0.09615124414 1.084202172e-19) 117
(0.250235161 0.07035666804 -2.168404345e-19) 22
(0.2734634792 0.07944355006 0) 55
(0.2737017152 0.08084223131 0) 55
(0.3031470334 0.1030702236 0) 119
(0.2288938035 0.08540447458 0) 140
(0.2950291228 0.08044570269 -2.168404345e-19) 28
(0.2531906383 0.07909567983 -1.084202172e-19) 53
(0.2911808621 0.1211215729 0) 238
(0.2564711125 0.06882026181 -4.33680869e-19) 23
(0.2993608114 0.09271007928 -1.084202172e-19) 89
(0.2472617729 0.09455910622 0) 142
(0.2318523899 0.07505515163 2.710505431e-19) 80
(0.262142367 0.084933007 2.710505431e-20) 84
(0.2784797068 0.09181850702 2.168404345e-19) 116
(0.2776505798 0.1578064182 1.084202172e-19) 446
(0.2808455824 0.09810383627 0) 146
(0.2538591783 0.09232449789 -1.084202172e-19) 143
(0.2257748007 0.07502678509 1.084202172e-19) 79
(0.278327054 0.1288090655 -1.355252716e-20) 296
(0.302947594 0.1267872609 0) 269
(0.2328211451 0.09617444385 -1.084202172e-19) 170
(0.2545985018 0.1335113242 -1.084202172e-19) 353
(0.218995294 0.06069663662 -2.168404345e-19) 18
(0.2697920882 0.09832011249 -5.421010862e-20) 145
(0.1977630563 0.07359905795 1.084202172e-19) 105
(0.3046240057 0.1053041953 -1.084202172e-19) 149
(0.2550256756 0.1177400131 3.252606517e-19) 263
(0.2730434215 0.08924455786 0) 85
(0.2147055454 0.09355526906 2.168404345e-19) 168
(0.2491350515 0.0920649971 -1.084202172e-19) 142
(0.1820451814 0.06153209657 0) 73
(0.2388918254 0.06621348322 -1.490777987e-19) 21
(0.241054642 0.06742302559 8.131516294e-20) 21
(0.2800034981 0.09751489997 2.168404345e-19) 116
(0.2122029521 0.08340722369 1.084202172e-19) 137
(0.2186546788 0.1200125945 0) 318
(0.1843277119 0.05205559349 2.168404345e-19) 14
(0.2537695994 0.09938772269 3.794707604e-19) 173
(0.2791985254 0.1462532083 0) 386
(0.2591128352 0.09759103505 2.168404345e-19) 144
(0.2448472338 0.08047677996 0) 82
(0.2268913623 0.07120725023 2.168404345e-19) 49
(0.2495540319 0.1175061781 -2.168404345e-19) 262
(0.2886937257 0.08605266307 -4.33680869e-19) 57
(0.2283104675 0.08432696536 0) 109
(0.2443420729 0.1040598949 0) 202
(0.1954342161 0.07954651137 3.252606517e-19) 135
(0.2475750325 0.1374406271 5.217722955e-19) 382
(0.2903503987 0.1425415108 -1.084202172e-19) 358
(0.2104892415 0.07357904908 3.252606517e-19) 77
(0.2013208276 0.07620739283 2.710505431e-20) 106
(0.1813310379 0.05034918079 1.084202172e-19) 13
(0.3042677157 0.0994716835 -1.084202172e-19) 119
(0.239299372 0.06434868595 5.421010862e-20) 21
(0.2562187508 0.1362498059 -1.084202172e-19) 353
(0.2741451073 0.07854889509 0) 25
(0.2993739731 0.1162683181 -1.084202172e-19) 209
(0.2798923406 0.08426076695 1.084202172e-19) 56
(0.2152403775 0.08213497841 0) 138
(0.2375710952 0.06603114295 0) 21
(0.2300413036 0.1025237094 3.252606517e-19) 200
(0.2365143308 0.1352948988 3.252606517e-19) 381
(0.301827338 0.09526890254 0) 89
(0.2075725083 0.0566012067 0) 17
(0.2290566547 0.08473314417 2.168404345e-19) 110
(0.2359691557 0.1091833211 0) 230
(0.2695424153 0.09848093083 -1.626303259e-19) 145
(0.2468666213 0.06688415182 5.421010862e-20) 22
(0.2408549949 0.07726937766 -2.168404345e-19) 81
(0.2880300992 0.1125955717 -1.084202172e-19) 207
(0.24630259 0.07499749124 8.131516294e-20) 52
(0.2471293297 0.07729802439 0) 52
(0.2858124955 0.1182580493 2.710505431e-20) 237
(0.292552123 0.08820354451 -2.168404345e-19) 58
(0.2715639168 0.1259470501 -1.084202172e-19) 295
(0.2360816537 0.06939780338 -2.168404345e-19) 50
(0.2942366709 0.08500267779 0) 58
(0.2030934696 0.05490560843 0) 16
(0.2855888306 0.08395723408 1.084202172e-19) 57
(0.1865420108 0.08794239938 5.014435048e-19) 194
(0.2331604791 0.07394399438 -5.421010862e-20) 50
(0.2441599194 0.06783604401 2.168404345e-19) 22
(0.15941298 0.06714670643 0) 100
(0.2155373734 0.08732703733 1.084202172e-19) 138
(0.2958685991 0.1007685181 2.168404345e-19) 118
(0.2608185383 0.08656683635 -2.168404345e-19) 84
(0.2469517921 0.06800884335 0) 22
(0.2717940063 0.10306244 0) 175
(0.3040698417 0.1561638415 -2.168404345e-19) 419
(0.2466770734 0.07729727095 0) 52
(0.2769826977 0.07638941631 -5.421010862e-20) 26
(0.2659772898 0.1064420092 2.168404345e-19) 204
(0.2461385146 0.1154180545 0) 262
(0.2383580101 0.08198484069 -1.084202172e-19) 111
(0.2383845306 0.0958841278 -1.084202172e-19) 171
(0.2801621378 0.08083253756 -4.33680869e-19) 56
(0.2631512708 0.08518226235 0) 84
(0.2816664148 0.1115225564 4.33680869e-19) 206
(0.3012301175 0.1297205106 -1.084202172e-19) 269
(0.2651037491 0.09556026686 -1.084202172e-19) 144
(0.2161361004 0.07791439583 4.33680869e-19) 108
(0.2676917939 0.1027688399 2.168404345e-19) 175
(0.275033098 0.1069473367 0) 176
(0.2637827651 0.07999888971 0) 54
(0.2937439717 0.09844555 -5.421010862e-20) 118
(0.2228363447 0.1054642661 2.168404345e-19) 229
(0.2778898213 0.1611959293 5.421010862e-20) 476
(0.1900457966 0.05362235422 0) 14
(0.2432464891 0.07896349163 -2.168404345e-19) 81
(0.1805726475 0.05148256198 6.09863722e-20) 13
(0.2438132692 0.104386995 0) 201
(0.2488082779 0.07365232848 0) 52
(0.2250495234 0.1138906689 -8.131516294e-20) 259
(0.2790200484 0.1120271838 -2.168404345e-19) 206
(0.2934442023 0.1044266251 8.809142651e-20) 148
(0.2909415175 0.09978105457 0) 118
(0.2634447968 0.09148013215 5.421010862e-20) 114
(0.2750822174 0.1140714263 5.421010862e-20) 236
(0.2892314318 0.08455021797 -2.168404345e-19) 57
(0.1858496573 0.08107029131 -2.168404345e-19) 134
(0.2639320571 0.07099387702 0) 24
(0.2793649309 0.1606904058 2.168404345e-19) 476
(0.2154329948 0.1013801661 0) 228
(0.2553955776 0.07785836884 -6.776263578e-20) 53
(0.3023579606 0.11345499 2.168404345e-19) 179
(0.171477705 0.1002316313 6.776263578e-20) 252
(0.238756942 0.07037980275 0) 51
(0.2945255286 0.08271401503 0) 28
(0.2926791173 0.0847318027 -5.421010862e-20) 58
(0.2580369795 0.09006556478 2.168404345e-19) 113
(0.2220373534 0.1046092123 5.929230631e-20) 229
(0.2361456715 0.08305427777 2.168404345e-19) 110
(0.2788230945 0.1366852901 0) 356
(0.2455674078 0.07915040938 2.710505431e-20) 82
(0.2209618749 0.09112977853 2.168404345e-19) 168
(0.2810685881 0.09075509962 -2.168404345e-19) 86
(0.210383054 0.06524840314 -5.421010862e-20) 47
(0.1984623287 0.07642319563 -2.168404345e-19) 106
(0.2196742148 0.0718403336 -2.168404345e-19) 78
(0.2229727598 0.08802675192 0) 139
(0.2133981471 0.09253076668 -2.168404345e-19) 168
(0.3031497678 0.1204742812 0) 239
(0.2379639764 0.08657883415 -2.168404345e-19) 111
(0.2616036461 0.07719423349 -1.084202172e-19) 54
(0.2310292374 0.07503762664 0) 80
(0.253154821 0.1528998459 2.168404345e-19) 443
(0.2939460871 0.08563137147 -2.168404345e-19) 58
(0.2445764806 0.0959991284 -2.168404345e-19) 172
(0.2889196814 0.08874350813 0) 87
(0.2842866675 0.09434307895 2.168404345e-19) 117
(0.2598307415 0.1392783541 -2.168404345e-19) 384
(0.3009155563 0.1427973567 2.57498016e-19) 359
(0.2287187786 0.0664155253 4.33680869e-19) 20
(0.2863338973 0.07968472388 1.084202172e-19) 27
(0.1821795801 0.06182575261 2.168404345e-19) 73
(0.2667386367 0.09499614495 -5.421010862e-20) 145
(0.2326643548 0.06740865092 0) 20
(0.2299468111 0.08858889763 1.355252716e-19) 140
(0.2665581996 0.08023297184 0) 54
(0.2809410515 0.093352432 0) 116
(0.2852383772 0.08833661996 -2.168404345e-19) 87
(0.301946419 0.1392771833 -1.084202172e-19) 329
(0.2780613582 0.1049063058 4.743384505e-20) 176
(0.2214387422 0.1092249539 0) 259
(0.2984213095 0.09611410713 3.252606517e-19) 89
(0.281587408 0.07981638961 2.168404345e-19) 26
(0.2245330876 0.0959508387 -2.168404345e-19) 169
(0.301909406 0.1036328947 0) 149
(0.2713618568 0.08248066636 2.710505431e-19) 55
(0.2220425823 0.1198852004 2.168404345e-19) 319
(0.2402340741 0.08066310199 -4.065758147e-20) 81
(0.2230882593 0.06101505541 1.084202172e-19) 19
(0.2016305105 0.08890818237 2.168404345e-19) 166
(0.2560267328 0.09360080997 2.168404345e-19) 143
(0.2429278595 0.06972104732 -2.168404345e-19) 21
(0.2355772327 0.07770640561 1.626303259e-19) 80
(0.2873061487 0.07772926749 0) 27
(0.1766097937 0.0624716633 0) 73
(0.1881009428 0.07689592269 -2.168404345e-19) 134
(0.2660463389 0.07923596325 -1.084202172e-19) 54
(0.1674183283 0.04497631336 -4.33680869e-19) 11
(0.2895218301 0.1316836259 -4.33680869e-19) 297
(0.2907190028 0.1536951535 1.084202172e-19) 418
(0.2133323119 0.1044434957 0) 227
(0.2136756499 0.09257965718 2.168404345e-19) 168
(0.2649072548 0.08995464853 -1.084202172e-19) 114
(0.2509207368 0.1548885034 0) 472
(0.2829114344 0.1289640577 4.33680869e-19) 297
(0.2385106971 0.1067560515 1.084202172e-19) 231
(0.19062143 0.06623840178 -2.168404345e-19) 75
(0.2247760215 0.07915872552 -4.997494389e-20) 109
(0.2506894745 0.06770238983 -4.33680869e-19) 22
(0.2721154536 0.09232724278 5.421010862e-20) 115
(0.2746206238 0.0755069647 4.33680869e-19) 26
(0.2823132473 0.09844777307 -1.355252716e-20) 147
(0.2249457093 0.07222927759 -5.149960319e-19) 49
(0.1932889176 0.05984811349 0) 45
(0.2674555286 0.1164774073 2.168404345e-19) 235
(0.2743243863 0.1478376667 -2.168404345e-19) 416
(0.2390657228 0.07198833543 3.252606517e-19) 51
(0.2618574769 0.1535453536 -1.28749008e-19) 444
(0.2925158877 0.09154848316 1.084202172e-19) 88
(0.2501122817 0.08126793796 -8.131516294e-20) 82
(0.2413053467 0.06984014913 -1.084202172e-19) 21
(0.2802074656 0.08588538961 2.168404345e-19) 56
(0.2664692479 0.0878828573 0) 84
(0.209644748 0.07309247052 -1.423015351e-19) 77
(0.2318799769 0.06830576296 -2.168404345e-19) 50
(0.1985723833 0.05728973101 1.084202172e-19) 16
(0.2779589516 0.08257760496 -1.219727444e-19) 56
(0.2979373547 0.1156700559 -4.269046054e-19) 209
(0.247093194 0.09530780304 -2.168404345e-19) 142
(0.2268070591 0.0659285158 0) 19
(0.2182230618 0.07247464795 0) 78
(0.2551004551 0.07297996357 2.168404345e-19) 23
(0.2600352558 0.07484280472 6.505213035e-19) 24
(0.21237821 0.06391208331 0) 47
(0.271436736 0.07392656457 2.168404345e-19) 25
(0.2324854712 0.06350414562 2.168404345e-19) 20
(0.3037181509 0.1137202389 -2.168404345e-19) 179
(0.2463886971 0.07866036076 1.084202172e-19) 82
(0.2334284037 0.08634129691 0) 140
(0.2291780027 0.1180376874 -2.168404345e-19) 290
(0.2626319074 0.115036196 -2.168404345e-19) 234
(0.2830878609 0.1285996196 -2.168404345e-19) 297
(0.2477897513 0.07749335289 3.523657061e-19) 52
(0.293316989 0.1135374163 -1.965116438e-19) 208
(0.2479290887 0.09379719565 -8.131516294e-20) 142
(0.2569118323 0.07619161007 0) 53
(0.2418040184 0.07058580634 0) 21
(0.303268573 0.08492484173 -2.168404345e-19) 29
(0.2628414777 0.09399366846 -2.066760391e-19) 144
(0.3042837957 0.1578822899 2.168404345e-19) 419
(0.2605785824 0.08907618739 0) 114
(0.1893931817 0.06038863798 -2.168404345e-19) 44
(0.229803739 0.07947051165 0) 110
(0.2398305247 0.08760086314 0) 111
(0.2332418504 0.08640286335 0) 140
(0.2434697753 0.08076983792 -2.168404345e-19) 81
(0.1297757109 0.03884219654 4.33680869e-19) 7
(0.2599552622 0.07572804713 0) 54
(0.2542792658 0.1236211043 -5.963111949e-19) 293
(0.1996915604 0.09531206097 0) 196
(0.2818327861 0.09916484933 0) 146
(0.2332521279 0.09110715852 0) 140
(0.2652446401 0.07249449407 4.33680869e-19) 24
(0.218866176 0.1090135978 -1.084202172e-19) 258
(0.2582649298 0.09618529706 0) 143
(0.2868976078 0.1174464014 -3.252606517e-19) 237
(0.252074384 0.1003319004 2.168404345e-19) 173
(0.2487470304 0.07155492254 1.084202172e-19) 22
(0.2715427802 0.09644789651 0) 145
(0.2198450779 0.09725619631 -3.252606517e-19) 198
(0.2993675742 0.1019182783 -2.168404345e-19) 119
(0.2495328186 0.09880556479 -2.303929617e-19) 172
(0.2446656386 0.09646790107 -2.168404345e-19) 172
(0.2874021044 0.09060181726 0) 87
(0.2916852108 0.1233271595 -3.252606517e-19) 268
(0.2906700879 0.1115802339 0) 208
(0.2945237689 0.088650427 0) 58
(0.3017921942 0.1047877875 0) 149
(0.271534458 0.08631058076 -5.421010862e-20) 85
(0.3004421202 0.1198026009 6.505213035e-19) 239
(0.2997222317 0.09432731465 2.710505431e-20) 89
(0.2739505597 0.1298122512 0) 295
(0.2432566924 0.08070214009 0) 81
(0.2191671398 0.0695245218 2.168404345e-19) 48
(0.2871569102 0.1125202445 0) 207
(0.2945691615 0.09613105918 0) 118
(0.1545240618 0.04880004135 0) 40
(0.2661307881 0.07321160518 4.33680869e-19) 24
(0.2649548693 0.1047321003 -2.168404345e-19) 174
(0.250978675 0.1146300969 2.168404345e-19) 262
(0.2401837878 0.08330445904 -2.168404345e-19) 111
(0.2698080757 0.08928353476 0) 85
(0.2691166788 0.09708217978 0) 145
(0.2518581149 0.08021623064 -1.084202172e-19) 83
(0.2226437667 0.09373500228 -2.168404345e-19) 169
(0.2534129915 0.087249125 -1.084202172e-19) 113
(0.2231289768 0.1069412362 -3.252606517e-19) 229
(0.2837365002 0.1263153645 -1.084202172e-19) 267
(0.2533546793 0.09539299214 -2.168404345e-19) 143
(0.2507094714 0.06777705973 0) 22
(0.2202542528 0.06112386352 0) 18
(0.2916394416 0.1232592491 1.084202172e-19) 268
(0.2840322165 0.1426197664 1.084202172e-19) 357
(0.2523935073 0.08617398481 -4.33680869e-19) 113
(0.2718592533 0.07845808442 -1.084202172e-19) 25
(0.2972889393 0.1117891631 -4.33680869e-19) 179
(0.2841782025 0.1151749848 0) 207
(0.2221125593 0.102791976 2.168404345e-19) 229
(0.2818426749 0.09350540083 4.33680869e-19) 116
(0.2286228222 0.1068288432 -1.084202172e-19) 230
(0.2725286875 0.07561962314 -8.131516294e-20) 25
(0.2399455962 0.0666325792 -3.388131789e-20) 21
(0.2512066602 0.0721303192 0) 22
(0.2193863483 0.08228971084 -2.168404345e-19) 108
(0.1692887619 0.06758408679 0) 102
(0.281235489 0.08767932626 -4.33680869e-19) 86
(0.2686699076 0.07559573828 0) 25
(0.2191184499 0.07203940315 -2.168404345e-19) 78
(0.2649699266 0.1111450474 0) 234
(0.2628060551 0.1006282771 -7.453889936e-20) 174
(0.2681834521 0.07620260023 0) 25
(0.2612122819 0.09420331086 3.252606517e-19) 144
(0.2641635433 0.09283054245 0) 114
(0.3038775059 0.1010342867 0) 119
(0.2777682181 0.114580367 -5.692061406e-19) 236
(0.2021006463 0.05771089368 1.355252716e-20) 16
(0.302925764 0.09628083634 -2.168404345e-19) 89
(0.3047998352 0.1184429363 0) 209
(0.1685488644 0.04715114691 0) 12
(0.2625332086 0.1045563341 2.168404345e-19) 174
(0.2125292754 0.09543602445 1.084202172e-19) 197
(0.2557074679 0.09987423274 -5.421010862e-20) 173
(0.2413752911 0.10352216 -2.168404345e-19) 201
(0.2099857791 0.09179851864 -1.084202172e-19) 167
(0.287137831 0.1233260863 -1.084202172e-19) 267
(0.2916686244 0.09061653635 -2.168404345e-19) 88
(0.2291924474 0.07453768541 0) 80
(0.2557730021 0.06906846164 -2.168404345e-19) 23
(0.2162907229 0.07781524173 1.626303259e-19) 108
(0.3023803418 0.1536181701 2.168404345e-19) 419
(0.195168533 0.05839124191 2.710505431e-19) 15
(0.2121805953 0.06088475886 2.168404345e-19) 17
(0.2527348805 0.07731398012 2.168404345e-19) 53
(0.3028593007 0.1366191071 -2.168404345e-19) 329
(0.2996190262 0.0835807174 5.421010862e-20) 29
(0.2963781921 0.1661696653 2.168404345e-19) 478
(0.2882350477 0.09420354971 2.168404345e-19) 117
(0.254293013 0.08177052585 2.168404345e-19) 83
(0.2325636506 0.07173474379 -5.421010862e-20) 50
(0.2045122927 0.1092714262 0) 256
(0.3037138978 0.08145656025 0) 29
(0.2632904344 0.1039425405 5.421010862e-20) 174
(0.1838883547 0.05596735482 0) 44
(0.1635051852 0.08989188843 1.355252716e-19) 221
(0.2452617775 0.0869582199 1.084202172e-19) 112
(0.2973029983 0.09687886188 -1.084202172e-19) 119
(0.1654832877 0.06060948174 -1.084202172e-19) 71
(0.2521872887 0.08070392545 -1.084202172e-19) 83
(0.1745778107 0.07440502807 0) 132
(0.2569813417 0.09221446194 2.168404345e-19) 143
(0.2530277902 0.09153569068 0) 143
(0.2459732901 0.0766084454 -5.421010862e-20) 52
(0.2320884587 0.06584214915 3.794707604e-19) 20
(0.2491315168 0.0686199985 0) 22
(0.2783151589 0.1101868452 1.084202172e-19) 206
(0.2366816156 0.09151403974 -2.168404345e-19) 141
(0.2129766147 0.05862285971 0) 17
(0.2797765583 0.07876703132 -1.084202172e-19) 26
(0.2798527828 0.0758336175 0) 26
(0.2573942003 0.09880919773 -2.168404345e-19) 173
(0.2794345869 0.08202888981 1.084202172e-19) 56
(0.2871980542 0.08472734183 -5.421010862e-20) 57
(0.1997091847 0.07474481863 2.168404345e-19) 106
(0.301432201 0.1185581014 -1.626303259e-19) 209
(0.2373228739 0.07780744582 0) 81
(0.2420009331 0.06528846561 -4.33680869e-19) 21
(0.2932761464 0.08919969347 2.168404345e-19) 58
(0.2729388826 0.07394208 2.168404345e-19) 25
(0.3029168537 0.1253212674 2.168404345e-19) 269
(0.276122901 0.07656053752 3.252606517e-19) 26
(0.2588601653 0.07277733179 4.33680869e-19) 23
(0.2288326373 0.1082562273 0) 230
(0.2634146234 0.1088774215 -1.084202172e-19) 204
(0.2967639056 0.08902712908 -2.168404345e-19) 58
(0.2744170403 0.09306932501 0) 116
(0.246448088 0.09837102851 -6.776263578e-20) 172
(0.2192316162 0.07849878131 -1.084202172e-19) 108
(0.2618423792 0.07330894823 5.421010862e-20) 24
(0.2750105208 0.1076362829 2.168404345e-19) 206
(0.2050766565 0.05916436677 2.168404345e-19) 16
(0.283674228 0.08893534945 -1.084202172e-19) 87
(0.2843266726 0.1205935998 -2.168404345e-19) 237
(0.2696141966 0.1174419013 0) 235
(0.2742752683 0.07791636322 0) 25
(0.274556253 0.09759412952 -2.168404345e-19) 146
(0.3004584191 0.1254220381 -1.084202172e-19) 269
(0.2291412062 0.074180035 3.794707604e-19) 80
(0.2818849055 0.1276858329 -2.168404345e-19) 296
(0.2645555909 0.1316408825 -1.084202172e-19) 324
(0.2532285294 0.08175346347 1.084202172e-19) 83
(0.3013645131 0.09812719223 -4.33680869e-19) 119
(0.2272127689 0.06446354143 -2.168404345e-19) 19
(0.2255288269 0.06362128697 -1.626303259e-19) 19
(0.2657862413 0.07631153829 0) 24
(0.2815704201 0.08233392105 2.168404345e-19) 56
(0.1977884226 0.08561938196 1.084202172e-19) 165
(0.2940455193 0.1046879279 -5.421010862e-20) 148
(0.2652299736 0.1075136668 -2.168404345e-19) 204
(0.244910467 0.1224066166 0) 292
(0.2869012603 0.1172569952 2.168404345e-19) 237
(0.2604905525 0.08825162416 1.355252716e-20) 114
(0.3011851572 0.1205388246 0) 239
(0.217154916 0.07795879179 3.2187252e-20) 108
(0.238829266 0.1017724388 -5.421010862e-20) 201
(0.2770211753 0.09108187586 2.168404345e-19) 86
(0.1876936372 0.08000767696 1.084202172e-19) 134
(0.2719019963 0.07311194553 -4.33680869e-19) 25
(0.1881568176 0.05429193966 -2.168404345e-19) 14
(0.2590188683 0.09030354512 4.33680869e-19) 113
(0.2565315389 0.1488922263 1.084202172e-19) 413
(0.2350520848 0.09331828508 -2.168404345e-19) 170
(0.22374218 0.06797897322 -1.084202172e-19) 49
(0.2362080967 0.06875282047 4.33680869e-19) 20
(0.2984467508 0.136433911 0) 329
(0.2233859732 0.07493612014 2.710505431e-20) 79
(0.2437298217 0.0752831481 4.33680869e-19) 51
(0.2191895329 0.1100751528 -2.168404345e-19) 258
(0.1926440498 0.06222064043 -1.084202172e-19) 45
(0.2227361443 0.0765434868 2.168404345e-19) 79
(0.2745671504 0.09249993673 -2.168404345e-19) 116
(0.25505201 0.07632835417 5.421010862e-20) 53
(0.2294308534 0.1061389104 0) 230
(0.2739369342 0.09395779708 -2.168404345e-19) 115
(0.2472608528 0.08410938337 -8.131516294e-20) 112
(0.2740520986 0.07420282788 2.168404345e-19) 25
(0.2294771215 0.1096817707 0) 260
(0.2591318429 0.07629000979 -2.168404345e-19) 54
(0.2647493908 0.08191004742 0) 54
(0.2235478187 0.08793130374 -2.303929617e-19) 139
(0.205885449 0.07067797159 3.794707604e-19) 77
(0.2607445379 0.08627142447 -5.421010862e-20) 84
(0.2472235886 0.08556590101 2.710505431e-20) 112
(0.2288257297 0.1261009938 -4.33680869e-19) 320
(0.236684923 0.08855348552 2.168404345e-19) 141
(0.2376852884 0.07192615425 0) 51
(0.2755934013 0.1207223214 -3.252606517e-19) 266
(0.2648097765 0.1004572693 0) 174
(0.2431121497 0.06556435176 0) 21
(0.1824254262 0.09415308182 -2.168404345e-19) 223
(0.1997184774 0.07725088464 1.626303259e-19) 106
(0.2781655524 0.1100204478 -3.252606517e-19) 206
(0.2964599419 0.1655913445 0) 478
(0.2206501164 0.06838057131 -2.168404345e-19) 48
(0.2326556736 0.09009398061 -5.421010862e-20) 140
(0.2776096554 0.09698946241 2.710505431e-19) 146
(0.1923373546 0.05941398851 1.897353802e-19) 45
(0.2519130288 0.102895476 2.710505431e-20) 203
(0.2042287153 0.05736086843 -2.168404345e-19) 16
(0.3033619358 0.1234549316 0) 239
(0.2623543497 0.142906137 -1.084202172e-19) 384
(0.2753744928 0.07385060062 0) 26
(0.1968433462 0.05658467676 -2.168404345e-19) 15
(0.2653297129 0.09894803521 0) 144
(0.2541591208 0.0759299894 2.168404345e-19) 53
(0.2120944738 0.1550540104 0) 496
(0.2708368519 0.1424891713 3.252606517e-19) 385
(0.1826802699 0.0837390644 4.33680869e-19) 163
(0.1752114885 0.06080059718 0) 72
(0.2216556998 0.1294243633 0) 349
(0.265059463 0.07411084806 2.168404345e-19) 24
(0.2543894032 0.1075976277 -1.084202172e-19) 203
(0.2885530135 0.09235554685 -2.168404345e-19) 87