/*--------------------------------*- C++ -*----------------------------------*\
| =========                 |                                                 |
| \\      /  F ield         | OpenFOAM: The Open Source CFD Toolbox           |
|  \\    /   O peration     | Version:  2406                                  |
|   \\  /    A nd           | Website:  www.openfoam.com                      |
|    \\/     M anipulation  |                                                 |
\*---------------------------------------------------------------------------*/
FoamFile
{
    version     2.0;
    format      ascii;
    arch        "LSB;label=32;scalar=64";
    class       vectorField;
    location    "0.005/lagrangian/dsmc";
    object      U;
}
// * * * * * * * * * * * * * * * * * * * * * * * * * * * * * * * * * * * * * //


9404
(
(1114.298106 859.0220771 499.5329241)
(573.2913222 519.5595058 -68.70699062)
(-325.6753143 175.6294097 676.2510183)
(325.6533583 366.6316999 -53.68751518)
(301.1179779 229.9310204 219.1177622)
(-245.7195239 -91.99564479 254.1306993)
(871.151929 487.7743216 985.2011523)
(680.2845756 138.4355124 361.5178139)
(475.1916534 289.9602651 -700.0028544)
(-516.2198035 966.6965735 34.66682517)
(640.6309358 -350.4790009 -165.2028918)
(1023.631096 1093.023843 -3.827031974)
(-138.5791888 132.0119322 480.8860375)
(121.0727938 361.4205319 -671.0098607)
(223.2239075 672.2710894 -434.5887529)
(400.7957772 300.9269684 -249.5168821)
(88.38073431 77.09889691 58.11459916)
(1150.639672 321.2012937 -288.8873947)
(78.06544399 387.9827605 -1193.243757)
(1120.309408 476.1025036 416.5700505)
(135.8732236 60.23333274 -413.5189393)
(820.9873369 18.51159618 -180.0780636)
(1637.259515 177.3919718 -732.5822496)
(1277.925111 863.0697766 -853.8896148)
(-670.142498 -13.86932126 -305.5240924)
(-82.8780771 -450.231653 274.9497591)
(23.61030602 -90.35076951 -168.5336189)
(574.6959869 -938.4939869 699.534642)
(468.4966981 -204.9852816 -419.0659534)
(-184.9630986 366.3566394 -151.237256)
(-472.8732759 502.6481729 -220.3856372)
(639.6075212 467.6362516 -750.1169249)
(704.3485805 74.04445363 510.5687316)
(927.0996941 174.347841 -637.8020046)
(126.8907986 -388.3544809 -260.7038118)
(398.8298381 -21.3282236 -59.36216461)
(523.1739228 1038.336883 -240.9916471)
(975.2496729 -289.349774 237.6302448)
(931.3651509 120.9463547 241.1805157)
(812.8979153 -147.1958765 307.9636362)
(420.4962825 670.011075 -678.5362148)
(619.7766766 -130.2307712 395.2241168)
(101.5979055 224.219054 -1295.912027)
(391.6303027 196.5537486 314.908875)
(-346.427718 93.74184153 526.0907581)
(1122.777614 512.3112377 -775.3252392)
(546.9584016 75.60628561 152.8678718)
(191.9050951 -361.1793527 -457.7320998)
(815.5149019 497.2158705 -469.3279346)
(579.3540662 41.79404095 157.5871115)
(939.6131296 -588.0849575 681.3325889)
(1410.258371 333.5819574 521.3001797)
(126.4273687 748.0699653 -302.1071308)
(162.4867576 -113.8998923 448.7708028)
(205.2691821 148.7246678 354.1506558)
(544.1394067 -551.5362462 772.45624)
(864.7108185 857.9263442 -47.17884338)
(1867.252072 1003.892626 240.6005807)
(949.7463729 254.5362506 -441.6872451)
(764.1652349 59.83151537 -225.5966204)
(634.1722816 -556.3983838 402.4062007)
(164.6708264 287.5802661 -415.7626577)
(99.62316532 857.5725757 66.49411438)
(-261.8078491 618.7471667 -94.50550265)
(-593.8583853 55.26332224 91.04762817)
(-319.4316855 208.0342431 482.3891345)
(441.1149463 782.6494235 -419.1397159)
(382.776629 184.3323506 -357.4185636)
(1650.240404 1029.367795 -840.5332247)
(-51.75816041 -341.7331139 -469.1907178)
(345.6824485 1203.686331 -36.79445305)
(532.6390551 -620.9979967 270.6086461)
(794.1501448 129.3130615 -395.5299024)
(880.3734118 -63.21261503 -933.0547035)
(715.8462295 495.6003107 -258.3584397)
(160.6117807 -66.13469188 -309.9934582)
(726.8312009 -56.86721443 352.5223624)
(784.3825819 397.6216635 -89.92985899)
(-940.4932504 277.6842307 -608.8862966)
(1083.663469 75.09278334 -1053.05962)
(1393.372743 330.0549563 286.571908)
(192.9760669 619.5267025 579.3956595)
(421.3602171 -510.4711831 -68.34002948)
(-209.3425459 570.0742711 310.0438387)
(523.8246924 -410.4479425 -51.63856594)
(751.5048033 796.2959661 -283.5581492)
(-513.8289808 16.66328603 409.3946094)
(1021.466513 174.0722362 -504.3751754)
(219.8762905 440.6426693 155.788865)
(124.9959823 -250.9048465 100.0588424)
(381.6257078 103.50029 301.3263137)
(755.131901 317.6565151 497.2129276)
(-276.9625935 -113.4876094 -228.0504965)
(504.8705431 1091.463754 322.6783305)
(580.313085 274.990708 10.89920749)
(998.1455407 626.0025806 782.2930583)
(843.7005793 -254.0010926 -126.8891014)
(467.589792 599.95133 -88.74682126)
(720.5445236 459.9394651 36.79813296)
(415.5480341 1090.028881 754.8140086)
(230.600912 273.4016423 1.204189422)
(576.0571109 1124.399013 -108.9398693)
(651.3582835 -438.8716271 -644.7500368)
(1072.524974 -108.5417491 -221.3119524)
(250.0584225 548.7954971 -148.9745078)
(-634.7127823 301.600221 1007.313414)
(997.2227434 499.4099012 -49.41024573)
(9.350480262 1150.839089 310.6842764)
(1046.092911 1698.521115 250.805593)
(832.6661639 -372.5161112 -609.8744373)
(32.65396154 107.9973072 436.3040808)
(617.9391239 -126.0399549 -194.2124968)
(200.8133326 430.7534753 -419.8295528)
(417.7096862 141.0041094 -552.4744085)
(-295.1323851 1241.322391 -113.6516857)
(439.7866215 1046.894894 -368.3507047)
(571.2143094 831.0795041 -6.923404912)
(-7.225544912 116.8923909 218.4807091)
(-176.9451239 161.8103613 -263.8564525)
(-441.672173 566.4300337 -178.6916409)
(168.4533204 -321.1792491 282.6739423)
(1465.124491 752.0893831 413.6860538)
(662.8297909 440.6442605 51.65593285)
(-31.87223812 711.4611457 1089.877611)
(548.3829901 131.8444318 168.7257017)
(64.81571106 954.6828074 -628.8371203)
(-204.428138 95.52934716 235.2597526)
(563.82593 608.6969309 -102.556886)
(428.2096252 770.5971075 172.8681034)
(970.9981248 154.0308416 -630.0677316)
(1618.169897 66.89942379 -610.8632043)
(597.7121632 178.2403774 804.9434584)
(454.5369977 716.1248827 -153.2649886)
(82.91654848 949.3839753 -281.4640494)
(-682.9310666 -24.72486034 93.36343563)
(324.7967968 195.4514885 -130.0127064)
(62.39686986 679.6723969 402.4893494)
(-70.94788068 162.6947867 306.4750043)
(285.7605656 300.401386 -57.03450895)
(1206.08737 -35.60133211 185.1373576)
(145.058354 629.229289 -537.4156633)
(56.67866862 346.2850324 504.087222)
(325.0659547 215.6818288 -223.1831107)
(639.8927069 -133.6869436 -219.9120427)
(-473.4056995 628.9339427 -247.130032)
(260.7725013 928.1740781 -482.1268047)
(865.3288895 -620.337027 576.6211949)
(443.3022961 1213.19193 -268.2789704)
(433.9108411 -390.6077457 -689.0936145)
(789.7115529 215.367175 -49.98939268)
(254.0410944 116.222317 -533.0734176)
(-73.47528402 1214.015487 -82.2813841)
(1131.322416 79.8368573 5.051349351)
(681.7149826 489.1140339 -208.3778476)
(284.9475066 892.9561476 961.1764512)
(-422.0367182 527.2748566 534.2367755)
(125.508417 946.7371499 162.3090596)
(553.7943911 153.7275759 329.909412)
(1593.432804 652.8871786 326.4930108)
(180.0245878 -867.2086464 -315.3362354)
(715.6700932 249.4307896 -204.6073737)
(61.60499984 1327.22486 -1356.553653)
(379.2404944 730.1147018 -1079.523566)
(-31.31822625 286.0676801 -119.4139355)
(842.6877735 369.1893358 678.905041)
(417.9083108 136.10624 -924.2731739)
(897.0366618 755.9392676 -375.166891)
(1405.686939 -164.3183334 388.3401323)
(889.2810638 363.6113975 252.7425519)
(881.4393705 -522.8134393 -234.7193649)
(1131.259054 135.2894935 655.4979881)
(199.1813208 -186.5368029 323.6022102)
(22.8227854 453.9373143 746.3439646)
(438.6174223 -47.5351663 -755.4395779)
(1177.308262 1376.357565 184.9515965)
(1120.218743 798.8154882 128.6912017)
(766.1781827 29.60091017 -270.9707734)
(1429.620253 438.9049 -1145.383331)
(1877.341182 394.4369566 214.7206623)
(443.7719303 -595.3072091 1219.53849)
(-202.933631 -373.1091284 33.43007179)
(94.43842923 209.6310098 1064.327166)
(990.1774751 677.6774851 1151.003624)
(-351.9751256 707.8990105 56.62027035)
(663.8252243 -7.853747517 448.4806515)
(647.4582524 193.9309971 997.4717689)
(175.6711097 -2.97986812 91.68130608)
(251.3283731 766.228765 522.851323)
(-37.00601451 -118.1902938 -330.1651304)
(589.1883399 -6.129128636 -553.3547684)
(1134.824505 667.5038873 -419.8460096)
(697.6211383 227.9045647 468.7266311)
(881.7730478 763.8418336 -60.8062389)
(1584.046355 143.9483096 272.4871507)
(-700.6617079 451.04196 -277.9805841)
(399.1482441 479.19396 19.87005516)
(-143.7428471 810.5794733 -195.9962002)
(110.0113118 -446.2947815 101.4683953)
(1007.975066 -278.3424665 -78.42360267)
(409.990892 442.6885767 598.5062738)
(1554.097218 436.376787 -232.4775519)
(266.8176146 324.0196195 38.14445326)
(393.6245723 611.2751321 1121.03635)
(976.5019727 196.4652011 313.4376796)
(808.8046281 -14.13427855 99.05620702)
(-608.3751298 45.92147832 -15.80706825)
(292.3908589 172.408902 563.6288195)
(1211.139183 653.3241777 -816.768296)
(-629.3738174 72.05655723 263.0967534)
(293.0899525 396.279556 684.2756366)
(749.0673166 444.9735953 591.5722874)
(-470.4152861 671.0737776 607.8321537)
(560.5452653 763.4547287 -524.5790825)
(1287.669685 553.606355 133.6302508)
(1166.020603 728.4577749 249.1865166)
(-34.47183668 144.1116196 487.1920049)
(682.2216156 283.6029827 -2.796912446)
(386.0685363 -74.74240424 -76.71073038)
(1260.652311 66.69870161 -491.9058282)
(1463.17752 788.3317188 569.2047421)
(202.1652776 1064.697856 -246.683526)
(1200.667605 927.5279237 -299.691501)
(849.3179226 610.9054618 109.6714889)
(860.6493657 647.1705271 -265.163832)
(161.8398748 315.1926085 -285.213458)
(491.0104998 -668.1408756 13.60704634)
(1107.771099 485.5972396 300.8138764)
(649.1802206 411.4186821 -258.0939896)
(185.7249267 136.739153 544.8293004)
(353.517448 -13.0358639 57.3925869)
(757.8407384 219.5267119 649.0398392)
(141.5093927 289.994415 -300.0015947)
(-477.2630854 375.0246174 -23.70312657)
(168.8562859 189.9909715 411.7752694)
(962.2451185 582.8098123 -85.49633705)
(1049.838383 491.6159642 124.6182602)
(-754.0885036 -262.3545283 -555.4747583)
(1784.098428 -67.80497131 -801.7267255)
(463.7589873 301.1140981 271.974823)
(-35.13969059 387.5083808 -115.2100131)
(645.5907476 287.5157882 925.2823294)
(516.3534368 -316.1845204 189.3964422)
(-156.2471178 725.4250744 649.9449345)
(1066.665029 464.7778813 476.5748102)
(528.320521 643.6274863 -1002.493695)
(70.36088756 304.8193959 -846.4164583)
(542.3165977 514.0592392 -116.1048722)
(898.2069216 956.7552292 -405.2728506)
(1220.336476 41.93671681 446.422843)
(938.3916857 90.46876323 760.1394944)
(997.9178798 381.5215258 -210.7838674)
(-163.1089449 -474.5335396 -223.0723685)
(565.9374336 -73.52238605 461.5759719)
(-190.7878714 -327.3895155 -314.7624715)
(273.3589764 768.2551414 -270.3100002)
(176.9915161 506.0152586 -3.363040408)
(1197.586858 362.7366573 -681.4128486)
(305.6666983 -104.3209185 -337.4513635)
(89.68782074 364.517032 111.1925277)
(260.6000347 -169.6219464 646.913106)
(1081.526125 450.5175905 296.2162222)
(-92.19292828 840.0535732 451.7397427)
(335.4782857 516.9479081 370.3594655)
(647.0395795 813.3061775 218.3825154)
(336.7279764 -219.1899205 199.9335929)
(2125.270249 -266.0705037 -303.2018816)
(647.7970388 700.5721568 -417.0952929)
(-198.0103436 297.7171794 -173.5591069)
(-46.76336712 834.9607847 233.6486322)
(855.8142387 769.9555299 -139.718285)
(506.811451 720.8404524 650.0092471)
(-33.33793506 15.71290169 -464.515718)
(1230.966782 1069.578487 -362.4269419)
(-557.2428609 872.3903103 146.1263742)
(644.3999846 145.1299533 530.1146343)
(458.9225221 274.623151 -230.7236582)
(592.2321363 276.8823071 -25.25271025)
(-49.99298692 -749.0689175 -926.774374)
(456.7560441 168.0066735 -681.7920945)
(558.4374981 624.4642395 -136.0879295)
(114.877113 521.1997659 -115.0716279)
(960.7746322 -243.1720888 829.114101)
(29.59015286 146.337572 -296.2136156)
(945.8282839 45.72123542 -638.965172)
(439.5918542 871.3692692 -101.4427117)
(84.00341131 775.0892566 -379.9466976)
(-96.35610339 -551.6816564 -271.0142396)
(-188.5236942 210.136416 1067.441135)
(656.6053784 895.2401183 484.4437508)
(643.9561101 -281.8542285 -301.4955158)
(68.34836243 391.5259036 683.2404195)
(735.8548511 307.7372586 -395.6605411)
(890.39722 575.9474757 -169.8237451)
(169.5526314 437.0488505 659.193193)
(174.5471611 402.3714538 -105.6517254)
(-354.6595277 348.8642825 247.6783804)
(82.23381191 113.0442534 416.8692362)
(655.6178898 -331.0652541 -199.1472565)
(1277.936423 773.3529856 -89.97708167)
(309.2059301 95.3612894 -72.59217915)
(541.7643412 592.4605695 -14.08818733)
(200.4841062 -16.14766332 138.0564202)
(938.9622253 302.8636225 -678.1414168)
(495.1569593 426.1563836 104.2876024)
(336.9428387 -57.62369264 -390.6337069)
(1389.607538 -437.102092 539.6490646)
(1185.904626 887.9728891 259.0034053)
(274.2836712 392.3572949 -13.23972743)
(-676.0675128 745.1912416 -36.1925718)
(-280.3766095 323.5485353 287.0866048)
(852.5667615 348.2607364 -471.3830838)
(568.4492253 -508.8657735 -933.6166814)
(674.7256926 798.487659 -909.3879883)
(968.4305785 -15.04207408 -536.829234)
(-53.97764852 -14.84141635 -338.5411735)
(177.0863664 -255.6995369 650.8706996)
(661.0661965 378.7806091 2.176870636)
(1505.734394 185.8649591 -873.0641078)
(-275.5050607 1058.69103 185.1558786)
(918.2183736 39.38047102 -110.5073046)
(-37.98271327 -200.5371015 -409.4972284)
(898.2809234 1415.952701 575.6917881)
(1048.057601 -16.81392377 61.06017944)
(927.7558776 176.8979001 510.6130023)
(613.9207376 5.015279002 -464.4496006)
(1224.323299 303.9734357 -61.91750209)
(-194.2835242 459.335203 10.66643802)
(430.1614032 150.2685529 -121.0764136)
(991.5129784 15.75060046 -145.9254745)
(843.0334932 -341.2065944 756.3622684)
(2114.839628 686.6503444 -1026.676233)
(1080.282381 148.2091709 175.4445073)
(456.3584088 334.3494289 -269.5410795)
(441.5315325 350.4389887 -981.8832911)
(736.8498588 686.6597154 -217.3732533)
(-55.04151702 -86.3479102 -227.0508806)
(694.8235284 -21.43828184 24.35484409)
(1012.722008 114.4518473 108.7648941)
(670.979091 94.08731023 238.1284283)
(1375.309037 559.0237126 201.2521024)
(605.04186 -174.759063 525.6675038)
(999.1906285 626.3299624 -625.1312746)
(1460.040936 162.852661 307.6783723)
(357.9150573 -63.60704661 -52.63264892)
(420.1164247 -293.0206223 773.4146777)
(745.8796733 381.733895 -514.9788195)
(388.7998951 -144.5386132 -432.0767715)
(-341.0081656 616.1210125 257.9554472)
(380.6040786 552.0933894 -122.0355866)
(-222.4353281 668.1753387 232.2547474)
(1468.411905 375.4769846 -198.7082991)
(273.9674876 339.7330988 -369.0916403)
(402.9739647 411.0769746 422.2022933)
(-128.0666874 619.2649956 268.8914422)
(-58.19382422 706.8111907 391.4832463)
(1740.702704 345.4754499 -661.780707)
(-187.0135572 762.9958108 301.5601589)
(-659.1529525 595.5958911 169.2059162)
(-109.808006 -193.1247593 337.6068234)
(-303.6102372 -139.8095158 -100.8855311)
(493.5247949 1157.055854 18.89388702)
(1398.306622 250.5426689 -16.94109794)
(-417.1767022 970.2576257 437.6670412)
(1426.425985 -252.3480288 -6.538014542)
(652.1359358 457.3880683 187.2072667)
(354.1682984 -408.9054682 651.8218497)
(2417.036281 875.3244318 17.34556452)
(89.5795158 348.7837145 -263.4480377)
(1150.779078 -419.1524558 328.9542871)
(1110.950333 434.7449017 399.199656)
(59.89119209 649.3955795 -461.6408206)
(43.33935811 12.96802265 -191.8485585)
(1167.581631 907.3677547 -32.56010964)
(1031.536601 -747.8364595 20.45740788)
(75.18087488 -593.2882065 -635.8200186)
(726.7501166 749.6588327 424.2571361)
(642.1150253 -676.7472478 -227.9364018)
(1095.180341 -15.72976631 710.8799252)
(33.78824904 766.9605429 -405.844)
(-5.641803053 -406.0773352 746.0753022)
(177.708095 -225.1559271 -1134.742363)
(855.0471424 1180.423492 597.4006)
(1582.807008 -612.7677394 -790.479273)
(1286.24759 672.9270624 288.8594343)
(1683.973634 859.497515 -153.201832)
(760.1725197 831.0443694 527.7051224)
(1356.179791 641.8725015 659.3425562)
(628.6454077 971.8074264 -175.1805522)
(933.7337469 457.595347 -294.1983384)
(30.10805413 720.9825133 748.4752511)
(-496.2322604 397.8030771 580.5907818)
(101.8475677 700.7203035 214.8119411)
(403.9964942 -304.0296708 70.49269936)
(132.4842128 -263.449177 22.93326954)
(792.3476357 830.3507624 345.2197869)
(1030.496941 183.9191032 -414.2130269)
(-563.4648429 -94.01377879 1494.525053)
(797.4391455 -50.13213292 -287.797213)
(887.3314146 266.6397385 -488.8818854)
(840.9043411 357.8672885 -101.9336004)
(1580.632197 478.1660988 190.4927642)
(-295.1134948 145.9021085 277.0272544)
(683.5518015 -180.1162869 -136.7868626)
(14.7489086 145.4406567 71.75701843)
(328.9196768 390.1818446 -437.4994745)
(-717.0304706 -166.9331142 -103.4948345)
(1062.402317 496.9662958 107.7261076)
(-389.3697499 338.3558495 15.80312457)
(484.3671965 -282.0428265 -504.6844071)
(-407.0749411 538.3865344 169.8017463)
(844.3121919 417.9236619 -444.8932903)
(69.96221092 833.972862 189.7941694)
(140.147582 529.9403405 -21.50376832)
(-20.1807269 -29.44927693 -815.0865501)
(757.9631374 298.7605962 -244.2654358)
(214.3479698 70.16170655 -331.272097)
(58.30275154 312.142375 -79.09929608)
(1245.337021 65.52889738 -62.7391487)
(-424.0291277 87.64951037 48.86636387)
(1192.25051 588.3473562 46.19750137)
(-317.4601938 -287.8350339 -356.754983)
(-374.1482305 375.4178773 -327.798899)
(696.335491 1084.348737 -401.2061821)
(502.2849877 734.665385 -484.4282645)
(1180.547193 1192.389403 81.62401074)
(817.7657415 1028.308978 -193.7595032)
(-33.59550261 476.2563372 332.707009)
(616.7509438 989.9496182 -330.2255479)
(-215.9179834 377.5801699 84.98164379)
(1084.624204 134.2798 399.7302225)
(815.2110537 271.9560064 280.3542469)
(1389.896738 -87.24000053 328.4610921)
(1480.57471 300.656604 -118.5539201)
(-541.3879819 578.6664189 -575.8317001)
(457.6433797 -240.6233818 -285.972426)
(-473.5820223 410.0889757 263.9352661)
(-18.51384559 713.4606602 458.1766295)
(436.5709617 572.4653747 -202.6678585)
(961.5164782 633.6038197 332.2459871)
(-954.1332544 541.3213597 -749.035804)
(1021.092562 488.5401878 -1155.856983)
(1645.934578 221.8709819 1109.081967)
(1368.964402 20.95641062 -221.9395677)
(1016.550812 -861.1563394 564.2854126)
(849.0321106 -585.1058933 525.0722076)
(674.0746269 160.9100092 -1209.267854)
(1017.017847 634.6568183 -392.9704034)
(364.2436384 103.2009691 -46.20830798)
(1903.590395 -1106.26206 234.6746473)
(745.2469332 808.5907932 -878.0362541)
(128.5288705 -662.0755514 629.4086094)
(1119.810152 -476.1704826 -680.0869795)
(797.3980113 689.3473988 467.9533581)
(389.118261 597.7219692 286.8185935)
(295.0053072 608.6188396 -1062.609633)
(499.1135499 451.6346656 -66.17071233)
(223.4139077 282.3096093 -175.6009429)
(1641.059776 501.1449636 537.7983595)
(983.4022601 316.479933 -867.1257793)
(-95.3483392 -436.6728295 857.4515716)
(241.0723638 676.4209928 894.2872869)
(251.7718183 358.5664622 472.0880306)
(1136.832345 -1059.760233 102.5830023)
(888.5286023 894.4784394 580.9710747)
(1373.130169 432.3449242 -961.9468175)
(856.4591245 1106.039624 996.4318527)
(371.6601982 -230.4166487 -119.0967003)
(1061.633777 311.2365262 -8.913211708)
(391.189644 356.4850649 -299.3627934)
(-276.0733847 489.6884542 516.9626693)
(1331.167939 -273.5178853 434.9996668)
(394.114262 853.5174488 145.5050031)
(1121.181106 -60.78187829 -289.7104563)
(693.0078352 112.2009909 445.4739824)
(-401.2776796 364.351285 183.8473368)
(-193.5897353 247.2490495 109.3464267)
(-3.829986604 65.8029034 -310.0349183)
(209.6355017 -57.50902691 105.9484829)
(1415.169796 244.7907366 -903.8232305)
(453.7887615 574.4871984 -450.1952332)
(925.3168479 109.1500229 312.6818123)
(1205.664487 90.74997194 709.0115255)
(55.50092286 -514.5040363 598.1066323)
(265.2439379 119.0348569 -117.6131549)
(1390.516649 -119.6055585 126.7596342)
(927.0118681 1316.783905 -142.8213986)
(-21.99888863 484.7787005 -196.0099331)
(6.215244615 521.0097816 429.8321214)
(1157.427994 -942.9274043 496.6235885)
(986.8948625 933.3442299 459.3907079)
(1080.790059 32.40343541 -18.65867492)
(462.3474753 910.3061551 611.0157707)
(600.2093941 1117.704837 66.435675)
(48.63055645 274.2586054 -982.9196483)
(1782.557397 -573.4695188 360.6853247)
(721.0629355 -831.5107986 -265.3758386)
(256.8821941 -313.6909919 -22.75279585)
(1.545583229 363.9649095 -727.171026)
(850.468816 -558.3796256 161.398785)
(-319.3075984 875.0784122 -323.0302069)
(290.5355532 -974.8780004 70.9768365)
(474.0839913 -155.3933225 -81.45099203)
(1529.650403 417.859445 -579.9324198)
(340.8700959 348.3207556 124.8950126)
(1677.726906 545.8284217 76.7247347)
(1074.5124 240.4510913 -555.3732894)
(136.5437207 -439.4306151 -695.9238147)
(766.8643195 580.1771229 359.6262334)
(389.6110245 198.4499029 1574.026097)
(333.0351856 -392.6246268 881.5319812)
(342.4937005 384.8716399 200.5036196)
(604.9793063 -460.26628 319.9073297)
(-575.9105233 447.9713392 84.77590108)
(170.2448426 629.9735356 -1262.631326)
(1331.954799 -85.02829057 -565.3049378)
(470.9906515 84.46189424 -478.1272338)
(396.3718418 501.321679 -811.4802464)
(1199.378086 324.3542054 -933.9958621)
(109.2149915 -148.7767698 -52.73618568)
(325.1474203 -212.1239967 286.3374835)
(-311.7145191 318.0393061 21.35430013)
(1224.974255 572.6266961 186.0693511)
(2144.870103 572.5503038 1054.164918)
(225.5239182 567.4881841 468.498557)
(258.1496232 328.1170269 147.4197393)
(762.250928 -626.5922948 -227.7820517)
(1086.042432 1412.567017 83.61569876)
(-303.433066 -637.3961322 198.1602369)
(1055.225701 1048.543367 -90.69690945)
(230.8467073 6.719267665 -241.1058617)
(781.5395323 -150.8820541 -448.4441094)
(-366.458894 521.0476692 -7.999353794)
(288.4355347 -116.9674456 680.0824487)
(671.1400684 -707.9905628 296.5402035)
(332.5089517 -103.296933 22.39166032)
(-507.5274219 320.1689827 510.1307241)
(856.1302702 -547.0808223 967.3293424)
(1075.851081 -74.8871865 -240.2474058)
(719.1743852 412.5773779 43.79102566)
(681.0272415 275.467763 518.0345497)
(-55.15492873 241.9040199 -166.3433423)
(1499.525795 -513.4870303 -587.074813)
(375.3100512 -23.76219741 193.217673)
(680.2367296 -278.0819253 100.5492101)
(486.0296691 378.7990765 -888.2890746)
(200.5384559 -793.9377063 813.6430922)
(174.2346283 -221.8424023 241.9945223)
(1206.806269 734.7294056 -91.51317873)
(898.0061281 471.9398027 -358.0932088)
(-792.9457215 -159.0937305 -225.7005709)
(985.0956047 -1380.410792 -374.2937805)
(11.90254524 446.2831953 136.3712431)
(324.935169 580.3388378 49.05458492)
(-105.0929764 156.5576414 159.7480016)
(425.2515413 -841.4494786 -125.1992584)
(-469.5266588 851.3869435 281.253378)
(1841.245103 -742.7293548 -266.108385)
(865.2115399 -206.659011 -382.8099398)
(-142.2817821 378.4692289 -50.11750889)
(933.3125726 -30.98308866 -48.92694514)
(1465.074244 -286.1879369 -240.283536)
(1094.376484 1289.971488 -12.20694975)
(-315.7888266 -746.1053316 -253.7643944)
(-411.8130924 542.2900372 -114.2194953)
(-24.36437877 583.2834801 -642.1447035)
(1381.394315 6.436040158 280.3929227)
(340.6751202 494.239241 -962.9085033)
(791.3317406 497.5548022 355.0527974)
(1501.272375 -587.0627423 609.3443359)
(474.7828584 -141.5175456 -21.64939103)
(-62.1861926 -286.5017197 357.9753665)
(1346.797637 -245.1337046 -395.9000046)
(144.9830085 637.0029095 309.9085325)
(-47.56016314 77.50513022 -144.8593795)
(1012.033386 1098.011854 -313.2955572)
(1102.805376 210.0685924 460.5007836)
(92.25202408 188.9948903 802.0840558)
(1311.115433 -347.1097132 173.3636471)
(1324.78536 -58.70824968 327.4940119)
(565.6297699 23.64064144 341.8703208)
(883.9921615 902.8786191 -314.1716543)
(873.658947 389.0184634 -541.9551087)
(291.9848619 -173.8091009 38.03437078)
(1195.105341 123.4904171 144.6970878)
(605.0765323 667.9808272 -636.685751)
(-387.8502515 4.268350841 143.4242259)
(677.6734507 -197.87923 -250.8980969)
(1115.261107 -321.661669 -95.42731895)
(273.7608752 99.39966973 670.6061389)
(315.3674223 748.7326621 8.615203221)
(617.4881574 -409.4341217 -469.135196)
(748.8681667 -36.96965223 -874.6673118)
(756.0223418 807.1443989 810.3021667)
(-40.65967105 504.6381323 350.2819668)
(1333.404322 -431.5267092 658.4534049)
(458.5064296 644.8054454 -347.3467446)
(-157.1934973 -158.1648739 -1297.168105)
(46.24052089 199.6650617 -67.64044585)
(1055.428301 363.6594112 -84.219548)
(192.7963357 202.0895625 587.7620981)
(-163.047513 -257.0974743 91.9461343)
(-246.5772731 964.2962082 -424.0008123)
(809.6655302 523.8434302 681.5875305)
(-332.8490644 951.3341489 406.4334497)
(76.15278461 929.7533672 -123.5228524)
(377.8040392 -164.7991055 1023.619324)
(978.2962099 651.8229901 215.9001875)
(916.3158609 -26.3113836 -1486.0692)
(544.2204056 395.312431 -8.447197927)
(2500.871003 274.5278178 -459.1383582)
(-667.3411565 -81.00070401 212.044272)
(36.33715617 935.9833988 627.8076077)
(1045.046141 -406.6980427 598.5741344)
(833.4580042 232.5294545 -286.045061)
(1442.920743 1353.299587 -546.2000872)
(690.5972738 -469.6579805 -1134.434177)
(341.899217 223.9480759 865.8064731)
(-236.0673281 511.6279278 614.5034767)
(1354.599736 617.1594294 -91.5946746)
(186.069854 -19.78581544 -453.5039875)
(671.5681223 238.5079344 -108.8553303)
(501.4265752 247.4002701 447.5182393)
(-589.4988573 553.2248619 4.01775012)
(341.8467173 848.2785129 -371.870382)
(331.4398309 -131.6405004 992.9452241)
(-10.05669421 -581.4465002 191.8835257)
(471.7460711 556.6965302 -499.6931482)
(-123.2121963 333.5656962 145.64716)
(1359.808074 574.1040696 377.8461545)
(1622.808302 224.5386646 1120.206879)
(-767.6862455 -86.6855815 -163.5615411)
(68.10746882 1297.261468 156.7474904)
(592.8996474 76.19970268 -605.4328298)
(-12.22110305 641.2751378 -316.7313138)
(739.2294587 645.7459457 -304.4212712)
(357.6782758 430.0624345 -11.11445314)
(1566.531883 74.08882485 748.074949)
(581.9662327 797.0715436 558.4834521)
(707.5667022 8.477057191 166.9080548)
(1446.806991 -242.5661237 -41.75856483)
(160.1754729 -435.0936994 648.8418621)
(688.8653397 -324.9951919 -1006.489899)
(502.6914977 982.8692462 118.2695805)
(-100.2335386 61.93064373 692.1661963)
(-93.9741922 30.1147499 -841.7737453)
(930.9273679 349.0455907 -236.2014473)
(357.2253512 -86.37997815 -435.8355339)
(1666.251298 1635.920337 -1118.98126)
(846.0278364 541.5123974 257.7270688)
(1294.989313 202.6819061 -504.1000216)
(443.6029415 175.7645662 -290.9427669)
(1732.266881 -946.4228 236.8566714)
(421.1252768 380.6972864 274.1329887)
(596.7015999 -47.76692586 6.538026136)
(-170.975983 481.6812616 -311.6679411)
(825.5188297 16.1454397 -113.9123663)
(1383.719454 210.3200333 65.68746663)
(202.6814928 -347.0802587 357.9016521)
(1365.438111 18.73150618 -246.2999874)
(-166.7188149 41.64048221 -19.99622992)
(497.2057427 408.6580647 -239.6683199)
(1917.026543 808.529674 195.0838427)
(405.2065741 377.65303 -716.4637779)
(53.37401419 181.8811928 349.1473852)
(280.6961066 436.4386669 57.12226536)
(1226.727852 464.2385855 551.7608863)
(689.2791891 145.3528834 -371.6929053)
(63.29584509 384.1353844 236.0396696)
(1154.219243 317.8959438 116.8814402)
(1453.599954 -2.378453413 -953.9745988)
(396.4401785 -422.7254446 244.6531417)
(1019.159934 631.9397099 804.6956983)
(1709.495534 714.9081232 -283.6352207)
(330.3621856 486.0403257 -325.9645727)
(607.6074408 1497.950809 3.198064275)
(1228.681139 451.4358361 -461.467695)
(546.9594795 -646.0161469 -743.9949311)
(-379.0598216 928.9342697 -370.0171847)
(1274.47411 584.3298805 686.2780066)
(-395.036547 37.37768055 373.8502234)
(218.4047992 60.44259591 -75.21523501)
(206.7389931 538.2844176 -482.049719)
(1499.654933 1014.17312 559.4787697)
(1335.82815 -11.06109304 -414.9702965)
(-600.0177915 33.33562492 258.3963035)
(945.5667781 72.9210524 -298.2195399)
(1313.32904 643.8767268 -60.74545791)
(982.2212693 425.3969024 11.46269873)
(828.9914998 -34.37897789 -288.8113074)
(1527.854344 29.26508222 615.7767551)
(505.1783844 621.2310322 240.5632709)
(137.0809883 -251.7435525 807.0947775)
(1043.346336 -263.8704132 -249.5042984)
(395.7937292 489.9535018 -64.35548564)
(1346.428701 559.7929936 676.0510869)
(-652.1899359 25.80275921 -254.1855105)
(1160.241966 357.2437379 575.5882002)
(243.1205193 -396.3135861 -651.2125658)
(1075.393551 -403.6156728 -39.95034525)
(211.1504443 -955.0992348 90.19021085)
(455.8188838 468.8818664 -206.8309246)
(793.9427632 208.4561236 668.5508194)
(88.01228574 -110.7981921 204.8521185)
(1340.12228 135.7421201 -697.3454292)
(-459.2779579 652.0373721 272.2766699)
(516.5337346 447.1852042 159.9384067)
(1677.329089 432.5950486 -1174.097531)
(691.0590324 215.5989496 -733.1934168)
(1163.497619 360.9474116 218.0379091)
(43.22040483 -41.39727743 -260.9711218)
(62.37577139 719.9467953 274.9471769)
(1065.901326 744.2030433 736.1513653)
(-573.3790579 561.9556126 174.2988441)
(35.36635685 271.9871008 614.8411295)
(-729.5973793 170.0485691 137.6671516)
(45.08021868 -206.9836648 -168.8585461)
(-249.2879702 -171.0893441 154.4455592)
(-545.4540149 251.1835094 140.8765833)
(-247.9575872 -126.961404 1071.163915)
(1056.228585 587.9801683 483.3803598)
(921.5783138 564.6858231 -539.1054435)
(897.1108112 192.9963917 -536.0822297)
(718.9768061 700.4465282 -404.1839636)
(632.0368712 466.236085 261.5905404)
(1416.676984 96.188961 342.0264316)
(172.3442102 17.23422215 -6.736928541)
(799.0212645 518.4810895 547.4697181)
(953.8916994 526.5592653 -1345.746265)
(1043.341076 -130.3922794 469.6556496)
(524.5051949 149.50039 -470.8843646)
(854.0980162 -200.5615069 -268.4417179)
(341.7962757 354.9036045 865.4294729)
(264.2923759 -334.4024595 70.49042181)
(202.7190775 -30.67504217 -653.3294339)
(1301.658667 -221.5780778 594.7213811)
(39.52024732 514.8686466 -14.2229204)
(589.5223702 821.8252656 710.0684167)
(520.0746786 504.446834 -353.8953306)
(-192.0248111 528.8655036 205.3609975)
(631.9582849 6.490149049 -14.86986709)
(1044.22739 -143.1118028 282.993361)
(1094.682205 742.305677 769.3728198)
(118.6088522 -171.6890781 -855.4003562)
(120.7772224 163.8446348 -206.6390591)
(962.4141866 232.3576108 -128.5095199)
(822.8777742 9.713220955 -757.9522529)
(797.0315054 851.3085249 -673.3976716)
(1073.063623 -109.9681283 -343.2854033)
(185.3667677 666.5069098 232.3103538)
(1011.656294 432.585786 154.3500325)
(686.6267176 1249.213998 -668.4892362)
(1063.445651 116.4967336 -826.9368388)
(335.2986481 -725.4174219 647.8444686)
(609.9500042 724.8810889 1151.67126)