FoamFile
{
    version     2.0;
    format      ascii;
    class       cloud;
    location    "0";
    object      dsmcCloud;
}
