/*--------------------------------*- C++ -*----------------------------------*\
| =========                 |                                                 |
| \\      /  F ield         | OpenFOAM: The Open Source CFD Toolbox           |
|  \\    /   O peration     | Version:  2406                                  |
|   \\  /    A nd           | Website:  www.openfoam.com                      |
|    \\/     M anipulation  |                                                 |
\*---------------------------------------------------------------------------*/
FoamFile
{
    version     2.0;
    format      ascii;
    arch        "LSB;label=32;scalar=64";
    class       volScalarField;
    location    "0.012";
    object      dsmcSigmaTcRMax;
}
// * * * * * * * * * * * * * * * * * * * * * * * * * * * * * * * * * * * * * //

dimensions      [0 3 -1 0 0 0 0];

internalField   nonuniform List<scalar> 
546
(
6.216209286e-16
5.935175517e-16
5.732062202e-16
6.059135872e-16
6.116306663e-16
6.375995745e-16
6.633434866e-16
6.277871645e-16
6.267282693e-16
6.08352801e-16
6.243320989e-16
6.221227457e-16
7.214254002e-16
6.790894225e-16
6.380959279e-16
6.191700398e-16
6.347343103e-16
8.033898866e-16
6.674069471e-16
6.121841489e-16
5.941024834e-16
6.020900113e-16
6.481570351e-16
5.879022485e-16
6.161405843e-16
6.164534651e-16
5.869149661e-16
6.384025419e-16
6.446257897e-16
6.525114452e-16
6.125136775e-16
5.881432775e-16
6.050163446e-16
7.515453606e-16
5.851545429e-16
6.211281152e-16
6.040446766e-16
6.104014461e-16
6.680235802e-16
6.533038172e-16
6.127539838e-16
5.930147804e-16
6.338217434e-16
6.493361007e-16
6.036077449e-16
6.248064259e-16
6.001024486e-16
6.430594026e-16
5.728778407e-16
6.856286553e-16
6.074096718e-16
6.570983013e-16
6.192901962e-16
6.26744578e-16
6.055316458e-16
6.555249531e-16
6.230758655e-16
6.427240187e-16
6.79104779e-16
7.054936999e-16
6.370201117e-16
6.106073124e-16
6.428252761e-16
6.304464462e-16
5.885669436e-16
6.200307009e-16
6.51221527e-16
6.076170779e-16
6.523277491e-16
6.123145908e-16
6.01440566e-16
6.769394982e-16
6.523124804e-16
6.655272477e-16
5.934150797e-16
6.300320478e-16
6.066508345e-16
6.315574093e-16
7.124221891e-16
6.070595794e-16
5.8638791e-16
6.161785306e-16
5.999807023e-16
5.933106904e-16
6.202094219e-16
6.37886177e-16
6.335941813e-16
6.227415767e-16
6.274589273e-16
6.071085829e-16
6.395350927e-16
6.30952402e-16
6.681160908e-16
5.981926187e-16
6.258035369e-16
6.055015778e-16
6.053483839e-16
6.81747623e-16
5.89494273e-16
5.979042271e-16
6.251734665e-16
6.005265503e-16
6.240954986e-16
6.037049626e-16
6.225286293e-16
6.103622804e-16
6.458080072e-16
6.297833086e-16
6.120427147e-16
5.950721543e-16
6.08550518e-16
6.180932227e-16
6.036022528e-16
7.107946559e-16
6.180827164e-16
6.146536158e-16
6.968197028e-16
6.244888917e-16
6.38759937e-16
7.133194702e-16
6.055103871e-16
6.166633471e-16
5.844974678e-16
6.472833931e-16
6.087113963e-16
5.916406498e-16
6.560984496e-16
6.009551523e-16
6.435219773e-16
6.564760509e-16
6.524790777e-16
6.499553803e-16
5.980563137e-16
5.981783082e-16
5.996915785e-16
5.836026359e-16
6.217658008e-16
6.028841099e-16
6.785880491e-16
6.248913565e-16
5.980344738e-16
5.915079907e-16
6.216812259e-16
6.134164622e-16
6.776048372e-16
6.169998749e-16
6.217513399e-16
6.123714876e-16
6.068118669e-16
6.307582826e-16
5.885600163e-16
6.032430236e-16
6.153710151e-16
6.032903807e-16
6.260850475e-16
6.28925641e-16
6.327369519e-16
6.159796598e-16
5.853006007e-16
5.846147674e-16
5.993090778e-16
6.418814901e-16
6.283632977e-16
5.98120022e-16
6.330973735e-16
6.180051271e-16
6.484621529e-16
5.88173507e-16
5.96004762e-16
6.355217386e-16
6.163109786e-16
6.27547545e-16
6.045649526e-16
6.268195274e-16
5.967136317e-16
5.8803339e-16
6.124268481e-16
6.44902237e-16
6.217617333e-16
6.012498552e-16
6.476148094e-16
5.857063074e-16
6.367964024e-16
6.284305609e-16
6.88435726e-16
6.282878779e-16
6.370382194e-16
6.560593795e-16
6.119653436e-16
6.035347023e-16
6.478639704e-16
6.085121799e-16
6.058457962e-16
6.479020388e-16
6.110186271e-16
6.102974093e-16
6.137214002e-16
5.899304759e-16
6.747378469e-16
6.038480705e-16
6.340793993e-16
6.187631123e-16
6.028270519e-16
6.247180627e-16
6.492566611e-16
5.974703629e-16
6.595359198e-16
6.001623269e-16
5.945349686e-16
6.350784206e-16
6.047210694e-16
6.224633351e-16
6.223229373e-16
6.135731e-16
6.066383001e-16
5.86928237e-16
6.339933662e-16
6.062474988e-16
6.025851752e-16
6.288247929e-16
6.009809769e-16
6.525017325e-16
5.919336204e-16
5.892974878e-16
5.78170382e-16
6.093211551e-16
5.876963456e-16
6.008301077e-16
5.836786227e-16
6.824450846e-16
6.174154542e-16
6.064574092e-16
6.184703549e-16
6.221902011e-16
6.33329162e-16
6.140031276e-16
6.425835514e-16
6.284773328e-16
6.13300327e-16
6.56709285e-16
6.037942871e-16
6.003708995e-16
6.111726109e-16
6.021111143e-16
6.133431861e-16
5.979358455e-16
6.092375498e-16
5.971735509e-16
6.293381766e-16
6.461180279e-16
6.304956429e-16
6.038359395e-16
6.183533391e-16
6.020577259e-16
6.149929515e-16
6.019146341e-16
6.301022505e-16
6.07011496e-16
6.649076894e-16
6.105120925e-16
5.996016312e-16
5.992492152e-16
5.894135725e-16
5.996912119e-16
6.166998594e-16
6.045535253e-16
6.441612624e-16
6.255762242e-16
6.241980578e-16
6.423880765e-16
6.342746233e-16
6.40968447e-16
6.431490212e-16
6.218775237e-16
6.078491337e-16
6.21434454e-16
5.96730673e-16
5.753460942e-16
6.436992662e-16
6.094396048e-16
5.981314796e-16
6.281817853e-16
6.329719843e-16
6.2019776e-16
6.168199455e-16
6.101632458e-16
6.244201309e-16
6.600193041e-16
6.341362446e-16
5.851004604e-16
6.404349715e-16
6.265894065e-16
5.882424714e-16
6.452949496e-16
6.067783048e-16
6.561715675e-16
6.190484844e-16
6.201717658e-16
6.069275247e-16
6.324958177e-16
6.041943292e-16
6.035685363e-16
6.121525971e-16
6.217553887e-16
6.132314252e-16
6.299725356e-16
6.097860488e-16
6.403496352e-16
6.49546218e-16
6.371584236e-16
6.424359617e-16
6.129764745e-16
5.957904086e-16
6.239478525e-16
6.50151556e-16
6.099013796e-16
6.088548927e-16
6.068657551e-16
6.114308762e-16
6.083147859e-16
5.758964905e-16
6.16776295e-16
6.287515819e-16
6.165868341e-16
6.12552904e-16
5.964529774e-16
6.340047905e-16
6.253211028e-16
5.960759235e-16
6.055238053e-16
6.574133461e-16
6.005784725e-16
6.462318084e-16
6.255175955e-16
6.112719241e-16
6.35072086e-16
6.319648702e-16
6.178584817e-16
5.80872995e-16
6.304855715e-16
5.844060607e-16
6.149511226e-16
5.92937042e-16
6.413373863e-16
6.361384996e-16
6.085991561e-16
5.920658748e-16
5.934425012e-16
5.980571504e-16
5.842398407e-16
6.213036773e-16
6.075381225e-16
5.949560248e-16
6.053820671e-16
6.067492796e-16
6.210731119e-16
6.105934135e-16
5.870897676e-16
6.105243486e-16
6.087122882e-16
7.49345792e-16
6.848869175e-16
7.125836608e-16
7.362939589e-16
7.95007197e-16
7.218952126e-16
6.883096757e-16
6.64450517e-16
7.837507976e-16
6.549076285e-16
6.493601793e-16
6.864015046e-16
6.892997084e-16
7.380880479e-16
7.349107422e-16
7.350401675e-16
6.389576525e-16
6.127501821e-16
7.997783618e-16
6.410086915e-16
6.823188395e-16
6.726955921e-16
7.227905046e-16
6.822174605e-16
6.722784509e-16
6.51638199e-16
6.368932942e-16
6.585925071e-16
7.095266256e-16
7.572412857e-16
6.423495074e-16
6.453695024e-16
6.794182483e-16
6.457319294e-16
6.993905055e-16
6.318932112e-16
6.379428265e-16
7.244552741e-16
6.897778284e-16
6.111408908e-16
6.138601372e-16
6.261407011e-16
7.377503329e-16
6.620925029e-16
6.836107867e-16
8.138014578e-16
6.4234657e-16
6.511110011e-16
6.282998116e-16
6.307177112e-16
6.480599346e-16
6.413458424e-16
6.716987446e-16
6.654942738e-16
6.765524491e-16
7.303780413e-16
6.31624936e-16
6.694439089e-16
6.017344096e-16
6.127629337e-16
6.809855213e-16
6.846034059e-16
6.872742781e-16
6.211950538e-16
6.837007991e-16
6.364221294e-16
7.044039662e-16
6.065297406e-16
6.331672759e-16
6.066826996e-16
6.574836424e-16
6.459117453e-16
6.386554376e-16
7.612215974e-16
6.229317448e-16
6.027433136e-16
6.197453063e-16
6.25357945e-16
6.249370916e-16
6.186648369e-16
6.284166393e-16
7.487123796e-16
6.292105318e-16
6.801638994e-16
6.875456239e-16
6.223769369e-16
6.565076585e-16
6.521095853e-16
6.429798765e-16
6.229192485e-16
7.39745771e-16
6.124646907e-16
6.357193826e-16
6.361608299e-16
8.362791722e-16
6.432487934e-16
6.30746384e-16
6.410169117e-16
6.487845455e-16
5.932775842e-16
5.995177786e-16
6.251040274e-16
6.328589243e-16
5.841346265e-16
5.904366738e-16
6.345620479e-16
6.152297631e-16
6.032873522e-16
6.321223501e-16
6.316213317e-16
6.689488319e-16
5.920219381e-16
6.831900722e-16
6.112100914e-16
6.408717105e-16
6.586513849e-16
6.271402533e-16
5.831171994e-16
6.290824937e-16
6.253110369e-16
6.327069497e-16
6.212769346e-16
5.891371878e-16
6.202272058e-16
6.145029969e-16
6.16807994e-16
6.118619638e-16
6.179061922e-16
5.978279269e-16
6.234916998e-16
6.256873684e-16
6.083467519e-16
6.292417795e-16
6.696141274e-16
6.257486973e-16
6.013441489e-16
6.357114197e-16
5.965758027e-16
6.586807485e-16
6.900791684e-16
6.163490602e-16
6.109003291e-16
6.177398046e-16
6.243724147e-16
5.906697877e-16
6.17957798e-16
6.335095769e-16
6.315886365e-16
6.226125361e-16
6.261081196e-16
6.21254725e-16
6.29583522e-16
6.281311921e-16
5.910404496e-16
6.016876231e-16
5.930087405e-16
6.34202102e-16
6.198652405e-16
6.312562e-16
6.533127605e-16
6.135431692e-16
5.808764104e-16
5.918595092e-16
6.238891302e-16
6.258460198e-16
6.048617585e-16
6.106378865e-16
6.179721007e-16
6.223904739e-16
5.951474806e-16
6.011185369e-16
6.020905704e-16
6.175825879e-16
5.937029045e-16
6.324685498e-16
6.049944151e-16
5.890332579e-16
5.963485664e-16
6.008378444e-16
6.04389854e-16
6.177127366e-16
6.682650626e-16
6.257445365e-16
6.047459533e-16
5.830882424e-16
6.047924544e-16
)
;

boundaryField
{
    flow
    {
        type            zeroGradient;
    }
    obstacle
    {
        type            zeroGradient;
    }
    frontAndBack
    {
        type            empty;
    }
    procBoundary2to0
    {
        type            processor;
        value           nonuniform List<scalar> 
31
(
5.77140436e-16
6.165626245e-16
6.89408652e-16
6.042668291e-16
6.068936118e-16
5.853279503e-16
5.993777446e-16
6.033673745e-16
6.280862708e-16
6.136283378e-16
6.163284239e-16
6.243445758e-16
7.457437284e-16
7.783538596e-16
6.87295892e-16
6.092778192e-16
6.419762031e-16
8.289662159e-16
6.107711194e-16
7.089255215e-16
7.941713625e-16
7.483969276e-16
7.518308379e-16
7.191390263e-16
7.376478844e-16
7.5292836e-16
5.932428717e-16
7.016861311e-16
6.998634201e-16
7.125753636e-16
7.125753636e-16
)
;
    }
    procBoundary2to3
    {
        type            processor;
        value           nonuniform List<scalar> 
19
(
7.179725086e-16
8.198887675e-16
7.574267963e-16
8.322312955e-16
6.584566072e-16
7.630959559e-16
7.099477119e-16
6.960814672e-16
6.602067909e-16
6.358749212e-16
7.28134963e-16
8.12317462e-16
7.641361172e-16
5.99830332e-16
6.277589394e-16
6.78260548e-16
5.892368893e-16
6.191007236e-16
5.912136849e-16
)
;
    }
}


// ************************************************************************* //
