/*--------------------------------*- C++ -*----------------------------------*\
| =========                 |                                                 |
| \\      /  F ield         | OpenFOAM: The Open Source CFD Toolbox           |
|  \\    /   O peration     | Version:  2406                                  |
|   \\  /    A nd           | Website:  www.openfoam.com                      |
|    \\/     M anipulation  |                                                 |
\*---------------------------------------------------------------------------*/
FoamFile
{
    version     2.0;
    format      ascii;
    arch        "LSB;label=32;scalar=64";
    class       volScalarField;
    location    "0.012";
    object      dsmcRhoNMean;
}
// * * * * * * * * * * * * * * * * * * * * * * * * * * * * * * * * * * * * * //

dimensions      [0 -3 0 0 0 0 0];

internalField   nonuniform List<scalar> 
546
(
7.418
9.579
9.6465
9.6245
9.606666667
9.6105
9.611333333
9.598833333
9.557166667
9.617166667
9.621666667
9.666
9.651166667
9.586333333
9.5945
9.586
9.587333333
9.603333333
9.546833333
9.525
7.4545
9.552833333
9.623666667
9.667833333
9.663666667
9.647666667
9.629333333
9.635833333
9.6065
9.587666667
9.5925
9.575666667
9.6035
9.573333333
9.607166667
9.572666667
9.576
9.615833333
9.6405
9.617833333
7.419
9.5525
9.572166667
9.547166667
9.564333333
9.573666667
9.610666667
9.613666667
9.589166667
9.621833333
9.598
9.599
9.561833333
9.544333333
9.569166667
9.592833333
9.563
9.555666667
9.532333333
9.5395
7.457833333
9.594833333
9.623
9.559166667
9.577166667
9.541333333
9.5255
9.528666667
9.598
9.558
9.601
9.626333333
9.684
9.643833333
9.6165
9.584666667
9.574333333
9.574
9.649666667
9.643833333
7.439
9.571833333
9.591333333
9.591166667
9.5815
9.6085
9.585833333
9.593666667
9.533
9.485166667
9.4875
9.442666667
9.4745
9.526666667
9.599166667
9.641833333
9.683833333
9.675333333
9.6475
9.619666667
7.4355
9.5795
9.606333333
9.610833333
9.669666667
9.676
9.6425
9.634333333
9.680666667
9.693
9.7165
9.681
9.674833333
9.630833333
9.623333333
9.635333333
9.618333333
9.580833333
9.618666667
9.628833333
7.448166667
9.563166667
9.645833333
9.650833333
9.5995
9.612
9.624
9.660833333
9.6555
9.6785
9.679
9.709166667
9.708333333
9.657666667
9.637333333
9.634833333
9.651333333
9.613333333
9.605833333
9.5955
7.434
9.602166667
9.649333333
9.64
9.662666667
9.636
9.678333333
9.660833333
9.656
9.639833333
9.643166667
9.585666667
9.595333333
9.599833333
9.609833333
9.616833333
9.628333333
9.667833333
9.697
9.685333333
7.455666667
9.570333333
9.582166667
9.621833333
9.611833333
9.562666667
9.5395
9.579666667
9.5575
9.611333333
9.645
9.659
9.673
9.670833333
9.627666667
9.574833333
9.586833333
9.576333333
9.562833333
9.555833333
7.416666667
9.515833333
9.5715
9.546333333
9.5455
9.574
9.5835
9.596833333
9.582
9.543
9.507833333
9.515833333
9.5435
9.575666667
9.588166667
9.6015
9.597666667
9.549
9.5215
9.4855
7.459833333
9.575166667
9.615333333
9.592666667
9.5825
9.557
9.588333333
9.538
9.5865
9.611166667
9.590333333
9.583166667
9.576166667
9.552
9.5385
9.557666667
9.5785
9.615333333
9.665666667
9.687666667
7.4145
9.581166667
9.6045
9.607833333
9.599833333
9.574333333
9.594166667
9.560833333
9.5205
9.537666667
9.5345
9.567166667
9.570166667
9.6115
9.646666667
9.606
9.6335
9.554333333
9.612833333
9.624833333
7.463833333
9.593166667
9.6645
9.6195
9.645833333
9.6275
9.616333333
9.617
9.648166667
9.647833333
9.63
9.6635
9.669333333
9.639166667
9.639333333
9.677666667
9.591
9.661
9.6515
9.632833333
7.421833333
9.521
9.581
9.586333333
9.584333333
9.620833333
9.637333333
9.689666667
9.670166667
9.660666667
9.602666667
9.5395
9.508166667
9.550666667
9.558
9.56
9.5905
9.567666667
9.565166667
9.581833333
7.452166667
9.596833333
9.625166667
9.566333333
9.615166667
9.597833333
9.541
9.579333333
9.567333333
9.561
9.559666667
9.5925
9.6235
9.568166667
9.573833333
9.5615
9.541833333
9.543
9.573166667
9.590166667
7.413833333
9.5305
9.577333333
9.601333333
9.653666667
9.602833333
9.566166667
9.545833333
9.529166667
9.574166667
9.5835
9.577166667
9.5635
9.583
9.634666667
9.6455
9.635
9.598
9.559
9.565666667
7.472666667
9.636833333
9.680833333
9.619166667
9.553666667
9.629
9.645333333
9.6655
9.6655
9.701333333
9.669
9.628166667
9.6425
9.593
9.5945
9.571
9.566166667
9.567166667
9.610833333
9.586833333
7.295
9.367666667
9.4315
9.4745
9.471833333
9.473833333
9.500833333
9.490166667
9.476
9.468666667
9.531
9.531
9.5465
9.531
9.516166667
9.523
9.536166667
9.569
9.5815
9.575666667
9.331833333
9.2885
9.233
9.147833333
9.091166667
9.076166667
9.498666667
9.4655
9.405666667
9.296
9.278
9.245333333
9.2275
9.172833333
9.085
9.0095
9.600666667
9.5565
9.529
9.475333333
9.371333333
9.277666667
9.206333333
9.181166667
9.1135
9.072833333
9.551833333
9.454166667
9.3875
9.3335
9.280666667
9.208166667
9.152333333
9.1035
9.061833333
9.026333333
9.622333333
9.582166667
9.468166667
9.46
9.384333333
9.293166667
9.195833333
9.1265
8.999666667
8.985
9.6085
9.495833333
9.431666667
9.345
9.284
9.214666667
9.202666667
9.207166667
9.0935
8.995333333
9.576666667
9.517333333
9.467
9.426333333
9.4325
9.369666667
9.250833333
9.169
9.143833333
9.084166667
9.567666667
9.5275
9.443166667
9.392166667
9.279833333
9.2055
9.169833333
9.121333333
8.994333333
8.915833333
9.677333333
9.610166667
9.470666667
9.324833333
9.2225
9.145666667
9.0895
8.989333333
8.9515
8.901
9.437
9.372
9.315333333
9.2125
9.21
9.166166667
9.134666667
9.016666667
8.974833333
8.922333333
9.472666667
9.486
9.437
9.436
9.3575
9.284833333
9.217
9.173833333
9.114166667
8.989666667
9.654166667
9.547666667
9.4715
9.414833333
9.370833333
9.2755
9.196333333
9.124666667
9.076333333
9.014333333
9.606666667
9.534166667
9.473666667
9.363666667
9.283166667
9.235166667
9.196666667
9.180166667
9.1335
9.084
9.544166667
9.522
9.4725
9.429333333
9.33
9.3015
9.195833333
9.1275
9.035333333
8.962666667
9.580666667
9.540333333
9.4325
9.4005
9.3745
9.2685
9.186666667
9.121666667
9.046333333
8.929666667
9.506833333
9.464
9.388333333
9.327333333
9.263333333
9.192333333
9.114666667
9.058833333
9.033166667
9.003166667
9.532666667
9.482666667
9.4105
9.355833333
9.3065
9.188
9.151166667
9.055666667
9.007
8.990333333
9.534666667
9.452833333
9.388
9.300666667
9.265333333
9.245
9.200166667
9.189333333
9.125166667
9.007666667
9.525
9.435166667
9.368166667
9.367
9.221833333
9.152166667
9.109166667
8.967333333
8.861666667
8.866333333
)
;

boundaryField
{
    flow
    {
        type            calculated;
        value           nonuniform List<scalar> 
48
(
7.418
7.4545
7.419
7.457833333
7.439
7.4355
7.448166667
7.434
7.455666667
7.416666667
7.459833333
7.4145
7.463833333
7.421833333
7.452166667
7.413833333
7.472666667
7.295
7.295
9.367666667
9.4315
9.4745
9.471833333
9.473833333
9.500833333
9.490166667
9.476
9.468666667
9.531
9.531
9.5465
9.531
9.516166667
9.523
9.536166667
9.569
9.5815
9.575666667
9.525
9.435166667
9.368166667
9.367
9.221833333
9.152166667
9.109166667
8.967333333
8.861666667
8.866333333
)
;
    }
    obstacle
    {
        type            calculated;
        value           nonuniform List<scalar> 0();
    }
    frontAndBack
    {
        type            empty;
    }
    procBoundary2to0
    {
        type            processor;
        value           nonuniform List<scalar> 
31
(
7.435
9.574666667
9.614
9.554166667
9.582
9.564666667
9.617
9.6575
9.691166667
9.656666667
9.637333333
9.617833333
9.619166667
9.617333333
9.589
9.6035
9.575
9.561
9.602833333
9.598333333
9.323833333
9.2565
9.18
9.159333333
9.195
9.155
9.575833333
9.446666667
9.401333333
9.365333333
9.365333333
)
;
    }
    procBoundary2to3
    {
        type            processor;
        value           nonuniform List<scalar> 
19
(
9.046833333
9.001666667
8.998333333
8.971833333
8.936
8.9025
9.0375
8.839666667
8.872833333
8.822333333
8.924166667
8.954166667
9.026166667
8.9235
8.879666667
8.9
8.970666667
8.9175
8.777333333
)
;
    }
}


// ************************************************************************* //
