/*--------------------------------*- C++ -*----------------------------------*\
| =========                 |                                                 |
| \\      /  F ield         | OpenFOAM: The Open Source CFD Toolbox           |
|  \\    /   O peration     | Version:  2406                                  |
|   \\  /    A nd           | Website:  www.openfoam.com                      |
|    \\/     M anipulation  |                                                 |
\*---------------------------------------------------------------------------*/
FoamFile
{
    version     2.0;
    format      ascii;
    arch        "LSB;label=32;scalar=64";
    class       volScalarField;
    location    "0.012";
    object      iDof;
}
// * * * * * * * * * * * * * * * * * * * * * * * * * * * * * * * * * * * * * //

dimensions      [0 -3 0 0 0 0 0];

internalField   nonuniform List<scalar> 
546
(
1.24967977e+20
2.291079578e+20
2.499359539e+20
1.874519654e+20
2.499359539e+20
1.457959731e+20
1.874519654e+20
1.874519654e+20
1.457959731e+20
3.749039309e+20
2.499359539e+20
1.457959731e+20
3.332479385e+20
1.666239693e+20
2.915919462e+20
3.124199424e+20
1.457959731e+20
1.666239693e+20
1.457959731e+20
2.707639501e+20
1.874519654e+20
2.707639501e+20
1.24967977e+20
1.666239693e+20
2.082799616e+20
6.248398848e+19
2.082799616e+20
2.082799616e+20
2.082799616e+20
1.24967977e+20
1.666239693e+20
2.082799616e+20
1.24967977e+20
2.915919462e+20
2.707639501e+20
2.291079578e+20
2.499359539e+20
1.874519654e+20
2.707639501e+20
4.165599232e+20
1.457959731e+20
1.874519654e+20
2.707639501e+20
1.666239693e+20
2.082799616e+20
1.457959731e+20
2.291079578e+20
2.915919462e+20
2.291079578e+20
2.082799616e+20
2.082799616e+20
2.082799616e+20
1.24967977e+20
2.499359539e+20
2.082799616e+20
2.707639501e+20
2.082799616e+20
1.666239693e+20
1.24967977e+20
2.707639501e+20
1.457959731e+20
2.499359539e+20
2.499359539e+20
1.666239693e+20
2.082799616e+20
1.874519654e+20
1.24967977e+20
1.666239693e+20
1.24967977e+20
2.082799616e+20
1.874519654e+20
1.874519654e+20
3.124199424e+20
1.457959731e+20
2.082799616e+20
3.332479385e+20
1.24967977e+20
2.082799616e+20
1.041399808e+20
1.666239693e+20
1.041399808e+20
2.291079578e+20
2.707639501e+20
2.082799616e+20
1.874519654e+20
2.915919462e+20
1.24967977e+20
1.24967977e+20
1.457959731e+20
1.457959731e+20
4.165599232e+19
1.666239693e+20
1.457959731e+20
2.082799616e+20
8.331198464e+19
2.915919462e+20
1.457959731e+20
4.165599232e+20
2.499359539e+20
8.331198464e+19
2.291079578e+20
1.874519654e+20
1.666239693e+20
1.041399808e+20
2.707639501e+20
2.291079578e+20
1.666239693e+20
1.666239693e+20
2.082799616e+20
2.915919462e+20
3.540759347e+20
3.124199424e+20
2.499359539e+20
2.291079578e+20
1.666239693e+20
2.499359539e+20
1.874519654e+20
1.457959731e+20
1.666239693e+20
2.082799616e+20
1.874519654e+20
6.248398848e+19
1.874519654e+20
1.666239693e+20
2.082799616e+20
2.082799616e+20
1.24967977e+20
2.291079578e+20
8.331198464e+19
3.124199424e+20
1.666239693e+20
1.666239693e+20
2.499359539e+20
1.24967977e+20
2.915919462e+20
1.457959731e+20
1.874519654e+20
3.124199424e+20
1.666239693e+20
2.082799616e+20
1.24967977e+20
2.082799616e+20
2.499359539e+20
1.24967977e+20
3.124199424e+20
1.457959731e+20
1.666239693e+20
8.331198464e+19
2.915919462e+20
2.291079578e+20
1.874519654e+20
2.082799616e+20
3.332479385e+20
2.291079578e+20
2.707639501e+20
1.457959731e+20
1.041399808e+20
2.291079578e+20
1.666239693e+20
1.457959731e+20
1.874519654e+20
2.082799616e+20
1.874519654e+20
2.082799616e+20
1.666239693e+20
2.499359539e+20
2.915919462e+20
2.499359539e+20
1.24967977e+20
1.041399808e+20
2.291079578e+20
1.041399808e+20
2.707639501e+20
3.332479385e+20
1.874519654e+20
1.666239693e+20
1.874519654e+20
1.874519654e+20
1.666239693e+20
1.24967977e+20
1.666239693e+20
2.082799616e+20
1.457959731e+20
2.291079578e+20
1.24967977e+20
1.457959731e+20
2.499359539e+20
2.082799616e+20
1.457959731e+20
2.499359539e+20
2.499359539e+20
1.874519654e+20
1.666239693e+20
1.457959731e+20
1.041399808e+20
1.24967977e+20
2.082799616e+20
2.082799616e+20
2.082799616e+20
2.707639501e+20
1.666239693e+20
2.082799616e+20
2.082799616e+20
3.540759347e+20
1.874519654e+20
2.082799616e+20
1.874519654e+20
2.082799616e+20
2.291079578e+20
2.291079578e+20
2.082799616e+20
1.874519654e+20
1.874519654e+20
1.457959731e+20
2.082799616e+20
1.457959731e+20
2.291079578e+20
1.457959731e+20
1.874519654e+20
1.666239693e+20
8.331198464e+19
2.291079578e+20
1.666239693e+20
1.24967977e+20
1.874519654e+20
1.874519654e+20
2.291079578e+20
1.874519654e+20
1.041399808e+20
2.499359539e+20
2.499359539e+20
1.874519654e+20
1.874519654e+20
3.749039309e+20
3.124199424e+20
2.707639501e+20
1.457959731e+20
1.666239693e+20
2.291079578e+20
1.457959731e+20
1.457959731e+20
2.499359539e+20
2.291079578e+20
1.874519654e+20
2.291079578e+20
2.291079578e+20
2.082799616e+20
1.24967977e+20
1.041399808e+20
2.915919462e+20
2.499359539e+20
1.457959731e+20
1.24967977e+20
2.291079578e+20
2.499359539e+20
3.332479385e+20
2.707639501e+20
2.499359539e+20
1.24967977e+20
1.874519654e+20
1.666239693e+20
2.082799616e+20
1.24967977e+20
2.915919462e+20
1.666239693e+20
1.457959731e+20
2.499359539e+20
1.666239693e+20
2.082799616e+20
2.291079578e+20
3.124199424e+20
2.291079578e+20
2.915919462e+20
1.457959731e+20
1.666239693e+20
2.915919462e+20
1.457959731e+20
1.457959731e+20
2.707639501e+20
1.874519654e+20
1.666239693e+20
1.874519654e+20
2.915919462e+20
1.457959731e+20
1.874519654e+20
2.082799616e+20
1.041399808e+20
1.874519654e+20
2.707639501e+20
2.291079578e+20
2.082799616e+20
8.331198464e+19
2.082799616e+20
8.331198464e+19
1.457959731e+20
8.331198464e+19
2.499359539e+20
1.24967977e+20
2.499359539e+20
1.874519654e+20
2.082799616e+20
1.041399808e+20
2.915919462e+20
1.874519654e+20
1.666239693e+20
2.082799616e+20
1.666239693e+20
1.874519654e+20
2.915919462e+20
1.666239693e+20
2.082799616e+20
3.124199424e+20
8.331198464e+19
1.041399808e+20
1.24967977e+20
2.291079578e+20
2.499359539e+20
1.666239693e+20
1.666239693e+20
2.499359539e+20
1.24967977e+20
2.082799616e+20
2.082799616e+20
1.666239693e+20
1.666239693e+20
2.082799616e+20
3.95731927e+20
1.457959731e+20
1.457959731e+20
2.707639501e+20
1.041399808e+20
1.457959731e+20
2.291079578e+20
1.874519654e+20
2.291079578e+20
1.666239693e+20
1.041399808e+20
1.457959731e+20
2.499359539e+20
2.082799616e+20
1.457959731e+20
2.082799616e+20
2.082799616e+20
1.041399808e+20
2.707639501e+20
2.291079578e+20
2.707639501e+20
1.457959731e+20
2.082799616e+20
1.457959731e+20
3.540759347e+20
1.666239693e+20
1.874519654e+20
2.915919462e+20
1.457959731e+20
1.457959731e+20
1.457959731e+20
2.915919462e+20
2.291079578e+20
2.707639501e+20
2.578663208e+20
1.514855908e+20
1.743592096e+20
1.975609287e+20
2.653174291e+20
1.55894653e+20
2.090185754e+20
2.104558102e+20
1.271477674e+20
2.560684792e+20
1.719108806e+20
1.514855908e+20
1.525643094e+20
1.975609287e+20
1.768782848e+20
1.781653177e+20
3.135278652e+20
1.473190672e+20
1.907216511e+20
1.066951997e+20
2.148885992e+20
1.947671896e+20
2.179490135e+20
8.78048572e+19
1.989880718e+20
3.340599706e+20
3.553315781e+20
2.946381343e+20
1.271477674e+20
1.707123195e+20
1.074443004e+20
3.46252779e+20
2.397439148e+20
1.975609301e+20
1.326587136e+20
2.227066455e+20
1.881167178e+20
2.104558088e+20
2.542955348e+20
1.707123206e+20
3.00844041e+20
2.596895843e+20
1.525643084e+20
2.195121415e+20
1.768782848e+20
3.117893059e+20
2.299204329e+20
1.052279044e+20
2.331042402e+20
1.707123206e+20
1.933997406e+20
8.656319476e+19
1.743592108e+20
1.097560723e+20
1.326587145e+20
1.781653177e+20
1.881167178e+20
8.418232409e+19
1.48339062e+20
1.280342396e+20
2.363774608e+20
2.380487872e+20
1.307694081e+20
2.634145716e+20
8.843914303e+19
2.449773135e+20
2.299204345e+20
3.788204584e+20
1.695303565e+20
1.280342405e+20
2.578663208e+20
1.514855908e+20
1.307694081e+20
1.756097144e+20
1.326587136e+20
1.336239882e+20
2.090185754e+20
2.946381343e+20
2.966781259e+20
2.347294409e+20
1.289331604e+20
1.514855908e+20
1.961541108e+20
1.975609287e+20
1.768782861e+20
1.336239882e+20
2.090185754e+20
2.735925515e+20
2.754868275e+20
1.280342387e+20
2.148885992e+20
1.514855919e+20
1.961541135e+20
1.975609301e+20
1.989880718e+20
2.227066471e+20
2.299204329e+20
1.683646482e+20
1.695303577e+20
1.493732806e+20
1.93399742e+20
2.380487872e+20
1.743592096e+20
2.414633556e+20
2.432076416e+20
2.227066471e+20
1.463130037e+20
2.315013913e+20
2.966781239e+20
1.493732806e+20
2.578663208e+20
2.81330383e+20
3.051286189e+20
1.975609301e+20
2.653174291e+20
1.55894653e+20
2.090185754e+20
1.894102279e+20
1.695303554e+20
1.920513594e+20
1.719108806e+20
1.298447921e+20
2.833337155e+20
1.536585001e+20
1.989880718e+20
1.336239882e+20
1.672148603e+20
1.683646482e+20
1.271477683e+20
2.133904008e+20
1.289331604e+20
2.164079884e+20
1.089745075e+20
2.195121445e+20
2.653174272e+20
2.227066455e+20
2.299204329e+20
1.68364647e+20
3.390607108e+20
1.280342396e+20
1.933997406e+20
2.164079869e+20
1.743592096e+20
1.53658499e+20
2.21097856e+20
2.449773135e+20
2.299204329e+20
3.156837153e+20
2.331042418e+20
2.133903993e+20
2.363774592e+20
1.731263895e+20
1.743592108e+20
2.195121445e+20
8.843914303e+19
1.336239882e+20
2.717241498e+20
2.735925533e+20
1.695303565e+20
2.347294409e+20
2.363774608e+20
2.164079869e+20
1.525643084e+20
1.756097144e+20
1.547685003e+20
2.227066471e+20
1.463130028e+20
2.735925533e+20
1.695303565e+20
1.920513594e+20
1.719108806e+20
2.380487872e+20
2.61538818e+20
8.78048572e+19
2.432076416e+20
2.895186412e+20
1.463130028e+20
2.315013897e+20
1.271477674e+20
1.707123206e+20
2.363774608e+20
2.164079869e+20
1.961541108e+20
2.414633573e+20
1.989880718e+20
1.336239882e+20
)
;

boundaryField
{
    flow
    {
        type            zeroGradient;
    }
    obstacle
    {
        type            calculated;
        value           nonuniform List<scalar> 0();
    }
    frontAndBack
    {
        type            empty;
    }
    procBoundary2to0
    {
        type            processor;
        value           nonuniform List<scalar> 
31
(
1.666239693e+20
1.666239693e+20
1.041399808e+20
2.291079578e+20
3.332479385e+20
2.082799616e+20
1.24967977e+20
2.082799616e+20
1.457959731e+20
1.666239693e+20
2.499359539e+20
1.457959731e+20
1.041399808e+20
1.24967977e+20
2.707639501e+20
1.24967977e+20
3.124199424e+20
1.666239693e+20
1.874519654e+20
1.24967977e+20
2.363774608e+20
1.514855908e+20
1.525643094e+20
2.853657879e+20
1.989880718e+20
2.895186412e+20
3.344297206e+20
1.894102279e+20
1.907216511e+20
1.920513607e+20
1.920513607e+20
)
;
    }
    procBoundary2to3
    {
        type            processor;
        value           nonuniform List<scalar> 
19
(
3.140746287e+20
2.019051184e+20
3.365085331e+20
1.570373143e+20
2.692068246e+20
1.570373155e+20
1.570373155e+20
2.019051184e+20
2.019051199e+20
1.794712164e+20
2.692068246e+20
3.140746309e+20
2.019051184e+20
2.019051184e+20
1.121695118e+20
1.570373143e+20
2.692068246e+20
1.12169511e+20
1.794712164e+20
)
;
    }
}


// ************************************************************************* //
