/*--------------------------------*- C++ -*----------------------------------*\
| =========                 |                                                 |
| \\      /  F ield         | OpenFOAM: The Open Source CFD Toolbox           |
|  \\    /   O peration     | Version:  2406                                  |
|   \\  /    A nd           | Website:  www.openfoam.com                      |
|    \\/     M anipulation  |                                                 |
\*---------------------------------------------------------------------------*/
FoamFile
{
    version     2.0;
    format      ascii;
    arch        "LSB;label=32;scalar=64";
    class       volScalarField;
    location    "0.012";
    object      iDofMean;
}
// * * * * * * * * * * * * * * * * * * * * * * * * * * * * * * * * * * * * * //

dimensions      [0 -3 0 0 0 0 0];

internalField   nonuniform List<scalar> 
546
(
1.545020755e+20
1.995113752e+20
2.00917265e+20
2.00459049e+20
2.000876164e+20
2.001674571e+20
2.001848138e+20
1.999244638e+20
1.990566306e+20
2.003063104e+20
2.004000364e+20
2.013234109e+20
2.010144623e+20
1.996641138e+20
1.998342092e+20
1.996571712e+20
1.996849418e+20
2.000181898e+20
1.98841408e+20
1.983866634e+20
1.552622974e+20
1.98966376e+20
2.004416924e+20
2.013615955e+20
2.012748122e+20
2.009415643e+20
2.005597177e+20
2.006950997e+20
2.000841451e+20
1.996918845e+20
1.997925532e+20
1.994419486e+20
2.000216611e+20
1.993933499e+20
2.000980304e+20
1.993794646e+20
1.994488912e+20
2.002785397e+20
2.00792297e+20
2.003201957e+20
1.545229035e+20
1.989594333e+20
1.993690506e+20
1.988483507e+20
1.992058979e+20
1.994002926e+20
2.001709284e+20
2.002334124e+20
1.997231265e+20
2.004035077e+20
1.999071071e+20
1.999279351e+20
1.991538279e+20
1.98789338e+20
1.993065666e+20
1.997994958e+20
1.991781273e+20
1.990253886e+20
1.985394021e+20
1.986886694e+20
1.55331724e+20
1.998411518e+20
2.00427807e+20
1.990982866e+20
1.994731906e+20
1.98726854e+20
1.983970774e+20
1.984630327e+20
1.999071071e+20
1.990739873e+20
1.999695911e+20
2.004972337e+20
2.016983148e+20
2.008617236e+20
2.002924251e+20
1.996294005e+20
1.994141779e+20
1.994072352e+20
2.009832203e+20
2.008617236e+20
1.549394634e+20
1.993621079e+20
1.997682538e+20
1.997647825e+20
1.995634452e+20
2.001258011e+20
1.996536999e+20
1.998168525e+20
1.985532874e+20
1.975570149e+20
1.976056136e+20
1.966718251e+20
1.973348496e+20
1.984213767e+20
1.999314065e+20
2.008200676e+20
2.016948435e+20
2.015178055e+20
2.009380929e+20
2.003583804e+20
1.548665654e+20
1.995217892e+20
2.000806738e+20
2.001743998e+20
2.013997802e+20
2.015316908e+20
2.00833953e+20
2.006638577e+20
2.016288882e+20
2.018857668e+20
2.023752247e+20
2.016358308e+20
2.015073915e+20
2.005909597e+20
2.004347497e+20
2.006846857e+20
2.003306097e+20
1.995495599e+20
2.003375524e+20
2.005493037e+20
1.551303867e+20
1.991815986e+20
2.009033796e+20
2.010075196e+20
1.999383491e+20
2.001986991e+20
2.00448635e+20
2.012157996e+20
2.011047169e+20
2.015837608e+20
2.015941748e+20
2.02222486e+20
2.022051294e+20
2.011498442e+20
2.007263417e+20
2.006742717e+20
2.010179336e+20
2.002264697e+20
2.000702598e+20
1.998550371e+20
1.548353234e+20
1.999938905e+20
2.009762776e+20
2.00781883e+20
2.012539842e+20
2.00698571e+20
2.015802895e+20
2.012157996e+20
2.011151309e+20
2.007784116e+20
2.008478383e+20
1.996502285e+20
1.998515658e+20
1.999452918e+20
2.001535718e+20
2.002993677e+20
2.005388897e+20
2.013615955e+20
2.019690788e+20
2.017260855e+20
1.552865967e+20
1.993308659e+20
1.995773305e+20
2.004035077e+20
2.001952278e+20
1.991711846e+20
1.986886694e+20
1.995252605e+20
1.990635733e+20
2.001848138e+20
2.00886023e+20
2.011776149e+20
2.014692068e+20
2.014240795e+20
2.005250044e+20
1.994245919e+20
1.996745278e+20
1.994558339e+20
1.991746559e+20
1.9902886e+20
1.544743048e+20
1.981957401e+20
1.993551652e+20
1.98830994e+20
1.988136373e+20
1.994072352e+20
1.996051012e+20
1.998828078e+20
1.995738592e+20
1.987615673e+20
1.980291162e+20
1.981957401e+20
1.987719813e+20
1.994419486e+20
1.997022985e+20
1.999800051e+20
1.999001645e+20
1.988865353e+20
1.983137654e+20
1.975639576e+20
1.5537338e+20
1.994315346e+20
2.002681257e+20
1.997960245e+20
1.995842732e+20
1.990531593e+20
1.997057698e+20
1.986574274e+20
1.996675852e+20
2.001813424e+20
1.997474258e+20
1.995981585e+20
1.994523626e+20
1.989490193e+20
1.986678414e+20
1.990670446e+20
1.995009612e+20
2.002681257e+20
2.013164682e+20
2.017746841e+20
1.544291775e+20
1.995565025e+20
2.000424891e+20
2.001119158e+20
1.999452918e+20
1.994141779e+20
1.998272665e+20
1.991329999e+20
1.982929374e+20
1.986504847e+20
1.985845294e+20
1.992649106e+20
1.993273946e+20
2.001882851e+20
2.009207363e+20
2.000737311e+20
2.00646501e+20
1.98997618e+20
2.002160557e+20
2.004659917e+20
1.55456692e+20
1.998064385e+20
2.012921689e+20
2.003549091e+20
2.009033796e+20
2.00521533e+20
2.002889537e+20
2.003028391e+20
2.009519783e+20
2.009450356e+20
2.00573603e+20
2.012713409e+20
2.013928375e+20
2.007645263e+20
2.007679976e+20
2.015664042e+20
1.997613112e+20
2.012192709e+20
2.010214049e+20
2.006326157e+20
1.545819162e+20
1.983033514e+20
1.995530312e+20
1.996641138e+20
1.996224579e+20
2.003826797e+20
2.007263417e+20
2.018163401e+20
2.014101942e+20
2.012123282e+20
2.000043045e+20
1.986886694e+20
1.980360588e+20
1.989212487e+20
1.990739873e+20
1.991156433e+20
1.997508972e+20
1.992753246e+20
1.992232546e+20
1.995703879e+20
1.552136987e+20
1.998828078e+20
2.004729344e+20
1.992475539e+20
2.002646544e+20
1.999036358e+20
1.987199114e+20
1.995183179e+20
1.992683819e+20
1.991364713e+20
1.991087006e+20
1.997925532e+20
2.00438221e+20
1.992857386e+20
1.994037639e+20
1.991468853e+20
1.98737268e+20
1.987615673e+20
1.993898786e+20
1.997439545e+20
1.544152922e+20
1.985012174e+20
1.994766619e+20
1.999765338e+20
2.010665323e+20
2.000077758e+20
1.992440826e+20
1.9882058e+20
1.984734467e+20
1.994107066e+20
1.996051012e+20
1.994731906e+20
1.991885413e+20
1.995946872e+20
2.006708003e+20
2.00896437e+20
2.00677743e+20
1.999071071e+20
1.990948153e+20
1.992336686e+20
1.556406726e+20
2.007159277e+20
2.016323595e+20
2.003479664e+20
1.989837326e+20
2.00552775e+20
2.008929656e+20
2.013129969e+20
2.013129969e+20
2.020593334e+20
2.013858949e+20
2.005354184e+20
2.00833953e+20
1.998029672e+20
1.998342092e+20
1.993447512e+20
1.992440826e+20
1.992649106e+20
2.001743998e+20
1.996745278e+20
1.51940232e+20
1.951097254e+20
1.964392458e+20
1.973348496e+20
1.972793083e+20
1.973209643e+20
1.978833202e+20
1.976611549e+20
1.973660916e+20
1.97213353e+20
1.985116314e+20
1.985116314e+20
1.988344653e+20
1.985116314e+20
1.982026828e+20
1.983450074e+20
1.986192427e+20
1.993030952e+20
1.995634452e+20
1.994419486e+20
2.005304607e+20
2.010105586e+20
2.012323227e+20
2.008060499e+20
2.010037473e+20
2.021322647e+20
1.985397775e+20
1.992069472e+20
1.993182529e+20
1.983677152e+20
1.993736437e+20
2.000763975e+20
2.011124522e+20
2.013548302e+20
2.008674022e+20
2.006475537e+20
2.006717683e+20
2.01122095e+20
2.019318459e+20
2.021945164e+20
2.013792693e+20
2.00776118e+20
2.006511268e+20
2.01537757e+20
2.014975325e+20
2.020580291e+20
1.996510596e+20
1.989684306e+20
1.989332777e+20
1.991679292e+20
1.994309474e+20
1.992720811e+20
1.994742021e+20
1.998328808e+20
2.003551921e+20
2.010224418e+20
2.011246405e+20
2.016622636e+20
2.006427088e+20
2.018673192e+20
2.016586259e+20
2.01111549e+20
2.004222789e+20
2.003377559e+20
1.989807005e+20
2.001019224e+20
2.008354982e+20
1.998453284e+20
1.998692266e+20
1.994133295e+20
1.995025769e+20
1.994127463e+20
2.005712121e+20
2.0210849e+20
2.010553368e+20
2.003320526e+20
2.001701224e+20
2.002978098e+20
2.006179857e+20
2.011489034e+20
2.026936726e+20
2.027670715e+20
2.016209999e+20
2.012706839e+20
2.02168196e+20
2.023104314e+20
1.99982007e+20
2.005117732e+20
2.001129265e+20
2.004198209e+20
1.9941304e+20
1.992143723e+20
1.998556129e+20
2.002243427e+20
1.988627816e+20
1.985615348e+20
2.022742427e+20
2.022515412e+20
2.006956884e+20
1.989829922e+20
1.98181012e+20
1.979195312e+20
1.981047544e+20
1.973267824e+20
1.979157472e+20
1.982311866e+20
1.972508296e+20
1.97239184e+20
1.974039713e+20
1.96585904e+20
1.979123999e+20
1.98363169e+20
1.990891602e+20
1.979267837e+20
1.984316422e+20
1.987062941e+20
1.979963292e+20
1.996383816e+20
1.999822482e+20
2.013551822e+20
2.010820095e+20
2.009312104e+20
2.008836043e+20
2.0137678e+20
2.015122709e+20
2.002058522e+20
2.017900177e+20
2.009361924e+20
2.007133465e+20
2.009035058e+20
2.013685262e+20
2.007292282e+20
2.004331777e+20
2.002975148e+20
2.006757855e+20
2.007551952e+20
2.007971781e+20
2.006520757e+20
2.007592596e+20
1.998116569e+20
1.994846695e+20
1.998563827e+20
2.004404413e+20
2.015158058e+20
2.019397282e+20
2.023067182e+20
1.99490812e+20
2.003960225e+20
2.007345391e+20
2.012129219e+20
2.004910645e+20
2.012918904e+20
2.004222817e+20
2.003597099e+20
1.997692828e+20
1.996045428e+20
2.002537298e+20
2.007818568e+20
1.998868846e+20
2.005976449e+20
2.014473187e+20
2.005777426e+20
2.002224923e+20
2.002316584e+20
2.000124905e+20
1.988696137e+20
1.98710476e+20
1.991753788e+20
1.989509385e+20
1.990363385e+20
1.990584724e+20
1.989294351e+20
1.986532608e+20
1.988523932e+20
1.997213797e+20
2.005065061e+20
1.99250442e+20
1.995682296e+20
1.994206775e+20
1.996445025e+20
1.999860762e+20
1.988356584e+20
1.994487733e+20
1.987828796e+20
1.991428403e+20
2.002206993e+20
1.992922443e+20
1.989403698e+20
1.989438734e+20
1.984672974e+20
1.991014515e+20
2.000691853e+20
2.005167263e+20
2.017170253e+20
2.017554786e+20
2.006067241e+20
1.99090193e+20
1.985685632e+20
1.985235794e+20
1.998827884e+20
1.981666861e+20
1.980601964e+20
1.985333875e+20
1.968438557e+20
1.959295515e+20
1.974591369e+20
)
;

boundaryField
{
    flow
    {
        type            calculated;
        value           nonuniform List<scalar> 
48
(
1.545020755e+20
1.552622974e+20
1.545229035e+20
1.55331724e+20
1.549394634e+20
1.548665654e+20
1.551303867e+20
1.548353234e+20
1.552865967e+20
1.544743048e+20
1.5537338e+20
1.544291775e+20
1.55456692e+20
1.545819162e+20
1.552136987e+20
1.544152922e+20
1.556406726e+20
1.51940232e+20
1.51940232e+20
1.951097254e+20
1.964392458e+20
1.973348496e+20
1.972793083e+20
1.973209643e+20
1.978833202e+20
1.976611549e+20
1.973660916e+20
1.97213353e+20
1.985116314e+20
1.985116314e+20
1.988344653e+20
1.985116314e+20
1.982026828e+20
1.983450074e+20
1.986192427e+20
1.993030952e+20
1.995634452e+20
1.994419486e+20
1.99090193e+20
1.985685632e+20
1.985235794e+20
1.998827884e+20
1.981666861e+20
1.980601964e+20
1.985333875e+20
1.968438557e+20
1.959295515e+20
1.974591369e+20
)
;
    }
    obstacle
    {
        type            calculated;
        value           nonuniform List<scalar> 0();
    }
    frontAndBack
    {
        type            empty;
    }
    procBoundary2to0
    {
        type            processor;
        value           nonuniform List<scalar> 
31
(
1.548561514e+20
1.994211206e+20
2.002403551e+20
1.989941466e+20
1.995738592e+20
1.992128406e+20
2.003028391e+20
2.011463729e+20
2.018475821e+20
2.011290162e+20
2.007263417e+20
2.003201957e+20
2.003479664e+20
2.003097817e+20
1.997196552e+20
2.000216611e+20
1.994280632e+20
1.991364713e+20
2.000077758e+20
1.999140498e+20
2.003585498e+20
2.003180531e+20
2.000771944e+20
2.010584903e+20
2.0329948e+20
2.038879354e+20
2.001527041e+20
1.988105874e+20
1.99226424e+20
1.998472234e+20
1.998472234e+20
)
;
    }
    procBoundary2to3
    {
        type            processor;
        value           nonuniform List<scalar> 
19
(
2.029557728e+20
2.019425083e+20
2.0186773e+20
2.012732302e+20
2.004693487e+20
1.997178144e+20
2.027463912e+20
1.983082161e+20
1.990522753e+20
1.979193618e+20
2.002038809e+20
2.008768994e+20
2.024921389e+20
2.001889249e+20
1.992055751e+20
1.996617282e+20
2.012470573e+20
2.000543229e+20
1.969098362e+20
)
;
    }
}


// ************************************************************************* //
