/*--------------------------------*- C++ -*----------------------------------*\
| =========                 |                                                 |
| \\      /  F ield         | OpenFOAM: The Open Source CFD Toolbox           |
|  \\    /   O peration     | Version:  2406                                  |
|   \\  /    A nd           | Website:  www.openfoam.com                      |
|    \\/     M anipulation  |                                                 |
\*---------------------------------------------------------------------------*/
FoamFile
{
    version     2.0;
    format      ascii;
    arch        "LSB;label=32;scalar=64";
    class       volScalarField;
    location    "0.012";
    object      internalE;
}
// * * * * * * * * * * * * * * * * * * * * * * * * * * * * * * * * * * * * * //

dimensions      [1 -1 -2 0 0 0 0];

internalField   nonuniform List<scalar> 
546
(
0.2305505041
0.5163886089
0.4040182153
0.4149722114
0.4560609598
0.4736293485
0.2897870815
0.1812252402
0.2584078379
0.756781972
0.6299119639
0.342883764
0.8028148438
0.6821948754
0.5668302015
0.7613191734
0.7868515169
0.3433004913
0.3867664279
0.7080898484
0.3572321686
0.5562591942
0.1731937942
0.4470455589
0.5203305326
0.1792886235
0.6219306698
0.5293367884
0.3283479531
0.2781067215
0.3278928336
0.4172835334
0.2683658463
0.454246132
0.5376038138
0.4226988693
0.3657523762
0.4996989945
0.3732511104
0.5979258457
0.1435344347
0.3499939473
0.6440020883
0.2813923436
0.450980342
0.3053458926
0.5809374759
0.642115378
0.4585362133
0.6194106183
0.4035415956
0.279726994
0.334929111
0.7911524386
0.5408991057
0.7053059688
0.5955021064
0.286231725
0.4783508887
0.5819438187
0.416009197
0.5806680878
0.5343350051
0.127196071
0.2998341772
0.6453163883
0.2349486527
0.3605136353
0.2410187011
0.5505571608
0.3751413946
0.3678772957
0.5402033062
0.2235892356
0.2015468872
0.8169970622
0.35929513
0.5683295117
0.1534766409
0.4338175246
0.2880102312
0.3230606555
0.651974637
0.4159897704
0.6125634894
0.9123913376
0.273230548
0.3210388768
0.4159993429
0.3678752798
0.1582765425
0.3831762059
0.3031534994
0.2722040448
0.1407934788
0.6725136364
0.2266460652
0.613192283
0.337970416
0.09131628636
0.4666064729
0.3853345933
0.4286323972
0.2646102574
1.01317395
0.5332782668
0.3517106613
0.3553401713
0.7495405849
0.6346750892
0.5701857095
0.7896800965
0.3688404809
0.5268892235
0.5150277205
0.4206976346
0.3193764629
0.2360861865
0.2377189041
0.6389244952
0.2188771793
0.05587322624
0.4996566359
0.3322861737
0.5432027103
0.2041656886
0.3861572843
0.6218727099
0.2987906508
0.5669048474
0.5355594789
0.2703462815
0.6979653312
0.1866034964
0.666995512
0.6454750023
0.3921137542
0.4525185868
0.3452195552
0.4300335997
0.128126857
0.4651884889
0.6233392307
0.2104822042
0.4702249606
0.5440462248
0.2806340072
0.1769118443
0.7725625067
0.6360301629
0.5191844802
0.362903721
0.8524829234
0.5549747915
0.3898426355
0.304737639
0.2191449705
0.5718947333
0.5377358813
0.2880652425
0.7399078234
0.4927712105
0.3657404983
0.358118688
0.3014716024
0.6807432948
0.4052661657
0.3757780317
0.2216710107
0.1963757462
0.7066603089
0.2250869404
0.5545315526
0.6961342662
0.5617902683
0.4800915251
0.4482851878
0.4016341475
0.3334464345
0.2150814077
0.3338001506
0.4096423002
0.2012660005
0.414208839
0.2229034787
0.3345014096
0.2027328432
0.3978482895
0.4452613017
0.6344251591
0.5144166253
0.7531147764
0.2412231299
0.2357556403
0.1727392883
0.2794982683
0.5160936343
0.6934226463
0.370777925
0.6344325524
0.2104205575
0.3152015523
0.2118202346
0.6806401288
0.4111305394
0.2307638173
0.5221073125
0.2782196446
0.3212802239
0.5580736748
0.291568439
0.3445803804
0.5620835626
0.5536063558
0.3698008393
0.2887172508
0.5146275678
0.3294026022
0.1565855861
0.3939675449
0.1405523503
0.3223174316
0.2971034566
0.2947804078
0.3767020482
0.5124678263
0.2423168431
0.2966983269
0.393148727
0.5266999148
0.6381162883
0.2640144256
0.8246872024
0.652403685
0.9855626565
0.3678569942
0.348745789
0.2733687261
0.4573258055
0.1753158368
0.2150171748
0.8335228032
0.3955662527
0.4085895918
0.5347587914
0.5006296021
0.376976935
0.254811603
0.2730336782
0.6701218646
0.7509380171
0.2574199054
0.1414400947
0.3697107187
0.7215285582
0.5694942576
0.8425849419
0.6579862288
0.1473247867
0.2957839035
0.3375969077
0.2697156272
0.3336574634
0.5374461522
0.3572250552
0.2049058071
0.3718122892
0.397345757
0.6476902611
0.39102542
0.3850808246
0.5579917596
0.4437819861
0.3894454471
0.3457124749
0.7931978129
0.2439607779
0.2226748638
0.7821362973
0.3940118826
0.245432708
0.5304328773
0.6289353046
0.2857742644
0.3390487034
0.361941907
0.2011096841
0.4518128272
0.7134539724
0.6882680224
0.3627673573
0.1190379759
0.3807106333
0.05733086721
0.440458672
0.1693794845
0.5115025707
0.1508221982
0.504816335
0.6105875924
0.3825638309
0.2543828037
0.6834448544
0.3062591622
0.2073913714
0.7922925764
0.3019541969
0.3532839145
0.6005005359
0.2083775059
0.3364245642
0.9763851273
0.2379629355
0.2203164297
0.1408395821
0.5810800464
0.5653739161
0.3041903275
0.2578364726
0.5529072401
0.09132271997
0.4648883441
0.4759606076
0.2700711963
0.5435028979
0.2477758013
0.8977158919
0.08297865304
0.276536877
0.6990835951
0.1711291603
0.1944125069
0.565528129
0.2173336584
0.4485466211
0.3502875956
0.0929017666
0.3494625534
0.3894633662
0.516014301
0.3458413963
0.5334896968
0.4256241288
0.205309085
0.4909885415
0.5173500149
0.4918264338
0.343191231
0.3659251853
0.4881279566
0.9350692192
0.4964741514
0.2848538964
0.5217026701
0.3838999993
0.1169900214
0.331198873
0.7186021536
0.3267594772
0.7772955317
0.4041910835
0.1321098791
0.4072943368
0.4228842908
0.5036332366
0.7106166714
0.9000033884
0.2576474963
0.2551251525
0.5624033224
0.2560822931
0.4533056829
0.2515755292
0.7070849719
0.2990433453
0.4478567261
0.7649064173
0.3262092799
0.4023246851
0.1367258561
0.2086313578
0.6212910175
0.6551382425
0.2260748331
0.3766223586
0.4652043679
0.6475371557
0.357366045
0.1368205683
0.4976881317
0.2657651706
0.9629382984
0.4766802953
0.5459864699
0.3020440064
0.3785865709
0.3077427883
0.2472435666
0.594503529
0.3165827825
0.7211306204
0.3063518798
0.2725123473
0.1999772808
0.7916714271
0.5035494351
0.5086051191
0.1867455353
0.2569116442
0.3971773548
0.5259933504
0.1760644235
0.3504069377
0.2737796523
0.5251869913
0.5941004364
0.267240164
0.08383650636
0.2632676395
0.3620106809
0.596807224
0.5028298048
0.3489535241
0.5915793838
0.05639269639
0.3508600336
0.3836726653
0.4921886808
0.302327684
0.2913550339
0.5307505024
0.3018238635
0.285607421
0.3262315365
0.1314996771
0.3022863932
0.3898671485
0.452958351
0.6567434115
0.9215610097
0.3965347508
0.1996283878
0.391322462
0.3916234978
0.2620443742
0.302602559
0.6145940763
0.5694131075
0.577891683
0.2454075093
0.4847583638
0.2871908011
0.4410025678
0.4194384533
0.4500196891
0.4844963516
0.3409697498
0.4977938727
0.3215833676
0.4904596922
0.3016326664
0.531111392
0.4071641828
0.4249098031
0.4062780502
0.3234503977
0.1572760243
0.4527918464
0.4711870141
0.4046249184
0.5423240159
0.4576670828
0.4868162274
0.4556655163
0.7473269259
0.3750885319
0.5230083361
0.3219480067
0.4078100784
0.4095066739
0.3593485062
0.1434279589
0.3894664279
0.1995943493
0.5976127754
0.4575325744
0.2182770146
0.6206749619
0.2501017884
0.2704402938
0.2599219793
0.4326975754
0.4901970179
0.2585941722
0.9099062294
0.2000297524
0.4188626353
0.2633453287
0.4997503179
0.2801698928
0.5581126018
0.3294071106
0.3784753537
0.44710619
0.6095328088
0.5042531657
0.636506096
0.472179885
0.2101844283
0.4062066981
0.4702803457
0.5526054642
0.2773918481
0.419386901
0.1604501924
0.2845817855
0.6884480196
0.3641537393
0.4448732586
0.6463965895
0.3536308245
0.2358163633
0.3743110036
0.3520328614
0.2465422106
0.6134588308
0.3892374922
0.4286557926
0.2252101376
0.658958273
0.187622916
0.6909273816
0.6838395847
0.07215715033
0.3635883644
0.277543515
0.1238877203
0.5948472711
0.2318979859
0.4315497386
0.4109987997
0.5226123355
0.5034561816
0.5956917318
0.4214336629
0.215510144
)
;

boundaryField
{
    flow
    {
        type            zeroGradient;
    }
    obstacle
    {
        type            calculated;
        value           nonuniform List<scalar> 0();
    }
    frontAndBack
    {
        type            empty;
    }
    procBoundary2to0
    {
        type            processor;
        value           nonuniform List<scalar> 
31
(
0.2557961308
0.3201441977
0.3291007376
0.4163795431
0.8121399683
0.375020286
0.3207500443
0.6321208354
0.1795527594
0.5035803857
0.4760023417
0.1814546794
0.1517686294
0.2758478492
0.9220725181
0.3228951104
0.9104564639
0.5157397602
0.2111567487
0.2039039565
0.4891068156
0.4512172397
0.1691863535
0.5219026427
0.4947129289
0.6086328602
1.080458309
0.3348354372
0.407076825
0.2881900357
0.2881900357
)
;
    }
    procBoundary2to3
    {
        type            processor;
        value           nonuniform List<scalar> 
19
(
0.7266906872
0.4100961568
0.7739062197
0.2236134119
0.6306920587
0.2812719462
0.5334337436
0.228129963
0.2994768918
0.3782709153
0.8608860623
1.039535666
0.5596489465
0.2283939908
0.3236563874
0.4486647431
0.6271981403
0.4151202177
0.2663276089
)
;
    }
}


// ************************************************************************* //
