/*--------------------------------*- C++ -*----------------------------------*\
| =========                 |                                                 |
| \\      /  F ield         | OpenFOAM: The Open Source CFD Toolbox           |
|  \\    /   O peration     | Version:  2406                                  |
|   \\  /    A nd           | Website:  www.openfoam.com                      |
|    \\/     M anipulation  |                                                 |
\*---------------------------------------------------------------------------*/
FoamFile
{
    version     2.0;
    format      ascii;
    arch        "LSB;label=32;scalar=64";
    class       volScalarField;
    location    "0.012";
    object      internalT;
}
// * * * * * * * * * * * * * * * * * * * * * * * * * * * * * * * * * * * * * //

dimensions      [1 2 -2 0 0 0 0];

internalField   nonuniform List<scalar> 
546
(
300.5559892
302.8562538
302.4529723
301.3381413
299.7895037
297.89103
296.3152269
296.4371117
296.7769395
297.7332395
297.3870349
299.5366539
299.9603258
299.7036571
300.4306819
299.3590495
297.794957
297.2927178
297.2068777
298.1122779
302.2196166
301.6859233
301.9600773
301.7921962
300.9384399
300.2197393
300.9180399
300.1598368
299.5223143
298.8928237
298.3327883
295.9571383
298.4268314
298.6098464
299.0905303
299.9972328
301.4682364
302.0659807
300.510799
302.2317568
298.6285498
299.2549258
299.4006673
298.9129603
302.1008775
303.6348369
303.6035524
302.8675156
302.3863073
301.6354569
300.920796
300.3985287
299.1674079
299.5602303
298.816864
299.6574185
299.7964821
300.6652018
302.8791785
301.7636113
301.3288301
300.6704122
299.9093613
299.4719928
299.1918199
298.0041349
300.1967225
299.8110549
300.6121208
299.119506
299.1239886
300.9237768
301.3116471
302.2819557
300.5795324
299.0998889
298.4122212
297.6091058
297.1494505
296.2497879
300.2694101
300.6064589
302.7414179
303.4672203
302.1961452
301.8143659
299.6459999
297.8009678
299.0735753
299.5108692
299.4237003
298.8552572
296.9190585
297.822797
297.9954684
299.3355443
298.9981854
299.0649442
298.5887519
299.3535298
301.7223708
300.2604434
299.1443674
299.5028714
299.6676355
300.0484194
301.3670864
302.9728198
303.3861887
303.1814578
302.4607891
302.7198221
301.5741398
301.4466395
300.6079627
299.7949645
300.0836257
301.5007408
302.2255773
302.4908846
298.0365768
298.9109475
299.6777733
300.8080657
302.6723737
302.6427867
303.8772252
303.7355328
301.4656946
300.0073682
302.1185876
300.6339708
301.551799
302.134575
300.9817684
299.7844037
299.4462674
298.6595281
299.8816353
300.3388459
301.1504882
302.1101325
300.8805626
300.51408
300.6918967
300.7272036
301.0071549
299.8362303
301.1232449
300.2892566
299.5038023
299.1349939
301.0179661
300.012033
300.9897924
301.3119753
301.8922923
300.7530886
299.8085679
299.5298484
300.229941
301.9946698
303.3947954
303.523715
303.3669715
302.4450484
301.6185219
301.820301
301.1394227
302.9983903
301.6228428
303.4106102
302.1084788
301.6626102
301.4109469
302.3605637
302.0345463
302.3747039
303.2311876
302.5949175
301.4602839
301.0343226
299.1158929
297.8771376
296.4204033
296.4881249
297.0963171
298.6935747
299.406069
300.1236953
301.5909823
300.6044528
301.2266476
300.0392188
299.5214141
298.8779836
298.8461488
299.9131087
298.3645298
297.8377866
297.6684105
298.262044
298.9010428
301.2657018
300.7370675
301.2477823
300.2611622
298.6428811
300.1830902
298.2827296
297.8898749
298.3445342
296.9116384
298.8638151
298.0185188
297.2912623
298.6432202
298.5794255
300.0762524
301.6673137
302.7426754
302.3482112
302.1064554
301.1279439
301.4803039
301.6018979
299.9929414
301.4796324
299.2530247
299.177058
296.996614
297.655446
298.3803856
298.386312
297.7803354
298.4954563
299.1313673
299.0418562
298.549159
298.0146565
301.6249896
302.0519493
302.6605124
303.8977947
304.167304
303.5211347
301.8407481
299.9390957
299.674009
299.7749757
301.1146137
301.1880336
301.2047031
300.9236369
300.8233635
301.5513117
301.2765419
301.3665957
301.7488203
301.2493892
300.8836884
301.1880968
302.9779736
301.219634
301.6443708
301.4380268
300.911692
303.00246
302.6515465
303.6283598
300.6365958
300.9134169
300.4052277
300.3927247
301.5790831
301.4632562
299.4548196
301.3555672
301.2300672
300.6537906
303.1243517
303.5186119
303.5092203
303.9557703
303.0772715
303.6528707
305.0810779
303.5557004
302.811006
303.1188479
303.611826
303.4139638
303.4290593
303.8770797
302.511019
301.2977949
303.8023986
303.4032037
303.4184983
303.6781935
296.4529186
296.8092482
296.4573248
297.9116173
299.2852552
300.2171528
301.0885469
300.6568224
300.3235885
300.1719178
300.880337
299.993448
300.8021808
300.6074856
300.6402442
301.7343264
302.0064489
302.0185717
299.8789795
300.8305005
299.5718763
301.4131489
303.0439703
301.1764858
301.4919641
301.1536451
300.2615276
300.5626327
301.7320987
301.1860392
301.2655097
300.9337555
301.1584154
301.36366
301.3940785
300.8809964
299.8829896
299.6693831
299.4124185
299.291172
301.5115987
299.9754543
300.7841395
302.5442918
302.6969903
301.7133069
301.9985483
301.86255
300.299396
299.4421046
299.0795802
298.6358176
298.9588124
297.2635432
297.132743
295.281052
297.6242832
297.6242027
296.2739839
298.443731
302.0939246
303.24247
304.0932809
303.4849572
304.6918967
303.7800595
296.9928594
298.1696121
300.453818
301.5133489
301.9755866
302.2997836
301.0563531
301.0461777
300.6026464
302.0328873
300.7108664
303.5416363
302.4599347
299.89129
300.9848606
301.6601102
301.9500549
302.0135371
302.9412984
305.1914004
303.8040595
301.4368555
298.8388254
299.3558253
298.7578471
298.4410755
298.2299031
300.0460688
299.885663
300.354854
294.0758569
295.6258036
297.4887189
298.3976928
297.0011394
298.9864434
299.6354814
298.3446959
297.1875129
298.0412506
299.9689159
299.0125058
299.8774933
299.5954297
299.6136548
300.058291
299.708586
300.7818417
299.6443008
298.9629323
302.1662504
302.5033213
300.8395905
299.8483513
299.0418935
297.9624549
298.8099292
297.6982298
298.8311517
299.4666701
300.8200346
300.7876141
301.558654
301.0819266
301.6918066
302.7942855
299.7771318
299.9518448
301.2299127
300.4510757
299.6152453
301.1271921
301.916501
302.4076233
304.2195088
302.0772902
305.6853432
305.0676989
303.5554435
302.1845522
301.9765896
301.2655137
301.3221634
300.7190125
300.0505084
299.8408468
299.3167932
298.7783613
300.6185297
301.2063279
298.6724837
299.2043786
300.002087
302.2316927
301.3458269
301.76821
301.432013
301.6577592
301.2881749
300.5756701
302.2251322
301.579345
300.6176045
299.602919
300.338685
300.1039743
300.4095822
299.5440196
299.6277314
299.1492134
297.8111258
299.5590445
299.5074487
300.6948751
301.5163623
301.6068532
301.9737236
302.9030553
303.3533204
304.8610424
301.2903847
301.4363613
299.4420746
298.8939317
301.0609361
300.4313734
303.0076531
303.667329
303.6985782
302.9476906
300.2152755
301.4306716
302.2326059
301.7374187
301.1851188
301.8269056
301.4647069
300.205063
301.0466433
301.7653028
302.2712054
303.5112136
303.2686396
303.6630306
302.5953621
300.7297616
300.2718688
301.0794223
300.7723382
300.7163778
301.8259491
301.4208474
300.3225645
300.4339975
301.3377896
301.1075994
302.2475211
301.8383045
300.4974429
300.7219993
300.5872806
299.3925178
298.0527371
299.0244472
298.8113716
300.2906862
300.7955482
303.0161811
301.3083255
300.6943918
299.3308971
299.3856623
299.2934451
298.6925603
298.3847294
296.8238503
298.0328056
295.4640795
298.6167663
298.6952759
)
;

boundaryField
{
    flow
    {
        type            calculated;
        value           nonuniform List<scalar> 
48
(
300.5559892
302.2196166
298.6285498
301.3288301
300.2694101
301.7223708
298.0365768
301.1504882
300.229941
301.4602839
297.6684105
302.7426754
301.6249896
300.8836884
303.1243517
296.4529186
299.5718763
301.5115987
301.5115987
299.9754543
300.7841395
302.5442918
302.6969903
301.7133069
301.9985483
301.86255
300.299396
299.4421046
299.0795802
298.6358176
298.9588124
297.2635432
297.132743
295.281052
297.6242832
297.6242027
296.2739839
298.443731
299.3308971
299.3856623
299.2934451
298.6925603
298.3847294
296.8238503
298.0328056
295.4640795
298.6167663
298.6952759
)
;
    }
    obstacle
    {
        type            calculated;
        value           nonuniform List<scalar> 0();
    }
    frontAndBack
    {
        type            empty;
    }
    procBoundary2to0
    {
        type            processor;
        value           nonuniform List<scalar> 
31
(
299.8949516
299.8501239
299.1998021
300.1013729
300.661523
300.8557309
301.1235386
301.7334372
302.0409147
301.7943151
302.9344972
302.360663
301.6359731
302.0059781
301.7411339
301.359499
301.1877552
300.9469161
300.6105449
299.5696053
302.2769884
301.6597532
304.0186932
304.0695039
305.1486959
306.6284961
301.0485368
298.7960359
299.4965633
300.9310835
300.9310835
)
;
    }
    procBoundary2to3
    {
        type            processor;
        value           nonuniform List<scalar> 
19
(
303.7649645
303.3060595
304.4628766
300.6935323
300.2581358
298.0699231
298.3577201
303.3504288
301.5030101
303.1040055
300.4721987
300.2300278
303.3050625
303.0178844
300.7802157
300.3631085
299.9501793
301.2310828
300.0275856
)
;
    }
}


// ************************************************************************* //
