/*--------------------------------*- C++ -*----------------------------------*\
| =========                 |                                                 |
| \\      /  F ield         | OpenFOAM: The Open Source CFD Toolbox           |
|  \\    /   O peration     | Version:  2406                                  |
|   \\  /    A nd           | Website:  www.openfoam.com                      |
|    \\/     M anipulation  |                                                 |
\*---------------------------------------------------------------------------*/
FoamFile
{
    version     2.0;
    format      ascii;
    arch        "LSB;label=32;scalar=64";
    class       volScalarField;
    location    "0.012";
    object      internalEMean;
}
// * * * * * * * * * * * * * * * * * * * * * * * * * * * * * * * * * * * * * //

dimensions      [1 -1 -2 0 0 0 0];

internalField   nonuniform List<scalar> 
546
(
0.3205629353
0.4171169227
0.4194968615
0.4169974243
0.4140857024
0.411627612
0.4094856615
0.4091213225
0.4078123766
0.4116949652
0.4114086592
0.416291799
0.4162408719
0.4130909295
0.4144457793
0.4126015987
0.4105029256
0.4104945215
0.4079616001
0.4082685608
0.3239233534
0.4143700307
0.4178218911
0.4195060717
0.4181390199
0.4164497675
0.4166252003
0.4158559797
0.4137094682
0.4120306326
0.4114659345
0.407473087
0.4120676292
0.411025149
0.4131417438
0.4129060779
0.4150752023
0.4176282176
0.4165438556
0.4179443254
0.3185501302
0.4110166778
0.4120634613
0.4103177837
0.4154394943
0.4179564104
0.4195284851
0.4186420472
0.4169116961
0.4172932035
0.4152733278
0.4145957859
0.411297944
0.4110842566
0.4111310837
0.41330725
0.4122130898
0.4130905396
0.4151162455
0.4138982319
0.3231130133
0.4147908989
0.4149555697
0.4116018676
0.4119911161
0.4088202967
0.4111448155
0.4107531169
0.4148473532
0.4110672253
0.4129227427
0.4165033418
0.4195384707
0.4191437649
0.4156019063
0.4121870622
0.4107960313
0.4096761944
0.4122762655
0.4107795688
0.3211639125
0.4137085783
0.4174956124
0.4184892582
0.4163163954
0.4169621108
0.4129899171
0.4107823926
0.4099290783
0.4084685695
0.4084501431
0.4057482445
0.4044785221
0.4079434817
0.4112863372
0.4149721972
0.416310102
0.4160375551
0.4141801883
0.4140430484
0.3225661421
0.4135633588
0.4131802677
0.4138692184
0.4166318191
0.4174344556
0.4178174338
0.41968788
0.4222816044
0.4225342714
0.4225518684
0.4213686009
0.4195064866
0.4174220672
0.4159365641
0.4153289155
0.4149953332
0.415329481
0.4179719919
0.4187810794
0.3191685152
0.4110026636
0.4156189848
0.417402824
0.417755798
0.4182588893
0.4204892109
0.4219017061
0.41851763
0.4174851825
0.4204448392
0.4196827314
0.4209278815
0.4195403432
0.4170596367
0.4152927332
0.415534713
0.412811195
0.4141770286
0.414362274
0.3218898028
0.4170956127
0.4174385299
0.4165267994
0.4177532266
0.4166492436
0.4188692557
0.4164854074
0.4180638631
0.4162079876
0.4152628725
0.4122784499
0.4152920083
0.4140983094
0.4158806494
0.4166290731
0.4179306599
0.4180616608
0.41800601
0.4171149629
0.3218411522
0.4155539671
0.417996781
0.4199054869
0.4192524586
0.4158403107
0.4136992277
0.4157190594
0.413821462
0.4187212976
0.4182804354
0.4213703961
0.4201701467
0.4194560606
0.4172354083
0.4162530798
0.4163253804
0.4163377599
0.4169284624
0.4157490698
0.3214696333
0.4118735776
0.4116428564
0.4088602192
0.4068252184
0.4081330992
0.4093761204
0.4121496387
0.4124942094
0.4117999594
0.4122882924
0.411285432
0.4133349764
0.4130932858
0.4129186916
0.4126046341
0.4123959736
0.4117697439
0.4084638761
0.4062011181
0.3192735664
0.4106250335
0.4132309723
0.4155182808
0.4143495571
0.4139487114
0.4139456998
0.4095534373
0.4137589405
0.4121974565
0.4107622602
0.4110817698
0.4088085856
0.4104580149
0.4087186229
0.4085404994
0.4112929392
0.4127863362
0.4170273436
0.4201927296
0.3227428313
0.4165113964
0.4171918894
0.4159849419
0.4161249232
0.4151869592
0.4138275362
0.4144334632
0.4096372073
0.4102716593
0.4071463179
0.4094475371
0.4105734505
0.4123548979
0.4130231335
0.4122696812
0.414330733
0.4108028608
0.4126371785
0.4124126061
0.3236907907
0.4166244209
0.4205680181
0.4203210477
0.4218454532
0.4201492135
0.4173385166
0.4147379573
0.4157143014
0.4158399973
0.4169262224
0.4184786004
0.4187543884
0.4170584089
0.416926646
0.4195975771
0.4154610355
0.4186183725
0.4187371438
0.4172355566
0.3210782832
0.4123077136
0.4173716894
0.4151804479
0.4156791345
0.4169767307
0.4169625343
0.4221395881
0.4208021473
0.4217455622
0.4150828494
0.4127321075
0.4106817107
0.4125002237
0.4144473177
0.4143748309
0.4129273485
0.4145589978
0.4142780762
0.414206001
0.3247913668
0.4188074228
0.4200308971
0.4180776898
0.4189973496
0.4190363381
0.4185142583
0.4180948029
0.4165466555
0.4166940991
0.4173135857
0.4184739829
0.419847249
0.4180495557
0.416416713
0.4142123782
0.4167965499
0.4162997755
0.4176368053
0.4187365326
0.3160091367
0.4067187602
0.408232784
0.4112634147
0.4154116869
0.4145109271
0.4141267359
0.4126539448
0.4114768988
0.413211247
0.4145902119
0.4130949686
0.4136175266
0.4141926325
0.4164711287
0.4184567289
0.4183781799
0.4167882677
0.4121540544
0.4137501839
0.3218679545
0.4176357165
0.4218125345
0.4165427708
0.414139749
0.4169369655
0.4164069996
0.4176960822
0.4193213054
0.4201141939
0.4188244869
0.4165964789
0.417528131
0.4156678323
0.4157747903
0.4140503588
0.4124685742
0.4122178598
0.4137442257
0.4125439045
0.3162499097
0.404034303
0.4078841145
0.4121415062
0.4122334613
0.4109805752
0.412541502
0.4118927678
0.4091481588
0.4076643975
0.4098513052
0.4092431838
0.4103520686
0.4073626527
0.4065496977
0.4043062493
0.4080780974
0.4094830129
0.4081578108
0.410896622
0.4181922156
0.4207871778
0.4224333195
0.4206952069
0.4227841134
0.4238854468
0.4070494198
0.4100355031
0.4134075469
0.4128869317
0.4156168833
0.4175296264
0.4179654269
0.4184550094
0.4168270205
0.4183518608
0.4165709695
0.4214360249
0.4216249191
0.4185880512
0.4184205572
0.4181032466
0.4182445759
0.420181021
0.4213876627
0.4256983885
0.4187152645
0.4140322079
0.4103912199
0.4115861225
0.4113064074
0.4105430027
0.4106686264
0.413912452
0.4147724543
0.4168048852
0.4082989411
0.4115480781
0.4120476917
0.4158292912
0.413455259
0.415089846
0.4145651938
0.4126052288
0.4082207859
0.4117003532
0.4158822003
0.4125123495
0.4137551432
0.4124230887
0.4126327683
0.4130590555
0.4149744761
0.4196524599
0.4158868886
0.4134484679
0.4175406968
0.4182731136
0.4166375952
0.4163637737
0.4184329028
0.4170734786
0.4158956619
0.4136284249
0.4170540144
0.4182349974
0.4152898157
0.4163450715
0.4165820387
0.4165613362
0.4153083582
0.4164107605
0.413588497
0.4145930481
0.4135282727
0.4118342728
0.4183676477
0.4204316633
0.4182909744
0.4153959843
0.4162006021
0.4127245778
0.4180450794
0.415562033
0.4147362315
0.413521259
0.4111930031
0.4102005318
0.4106204399
0.4081002512
0.4099406389
0.4105872273
0.4113696999
0.4082322493
0.4117942465
0.4131705106
0.4082309744
0.4123496087
0.4141611175
0.4201036128
0.418303983
0.4185761594
0.4180107661
0.419350818
0.419118842
0.4154169317
0.4210017064
0.4183245607
0.4165280597
0.4155154315
0.4174999887
0.415849289
0.4156588148
0.41418066
0.4150788255
0.4145799166
0.4128118211
0.4149346423
0.415084785
0.4147634221
0.4152159347
0.4161144809
0.4178381656
0.4213726767
0.4228867929
0.4257609604
0.4149175183
0.4170021917
0.4149430834
0.4151705765
0.4166803602
0.4174698956
0.4192308187
0.4200123547
0.4188177417
0.4174377
0.4150180652
0.4177971844
0.4170414449
0.4178386428
0.4188404359
0.417921094
0.4166802732
0.4149582068
0.4156660057
0.4142774883
0.4146399497
0.4173149993
0.4165115959
0.4172322763
0.4158115378
0.4129800391
0.411778765
0.4133000879
0.4146828276
0.4162355334
0.4151542325
0.4152582724
0.4134392963
0.4140569071
0.4160130549
0.413303982
0.4161479109
0.4141969837
0.4131036947
0.4156499911
0.4135372154
0.4111662558
0.4093334966
0.4096842362
0.4107004216
0.4147397557
0.4163663386
0.4219509578
0.4196527468
0.416413131
0.4113912181
0.4103884155
0.4101690661
0.4121481991
0.4081885719
0.4058350958
0.4084615919
0.4014950125
0.4038943091
0.4071544538
)
;

boundaryField
{
    flow
    {
        type            calculated;
        value           nonuniform List<scalar> 
48
(
0.3205629353
0.3239233534
0.3185501302
0.3231130133
0.3211639125
0.3225661421
0.3191685152
0.3218898028
0.3218411522
0.3214696333
0.3192735664
0.3227428313
0.3236907907
0.3210782832
0.3247913668
0.3160091367
0.3218679545
0.3162499097
0.3162499097
0.404034303
0.4078841145
0.4121415062
0.4122334613
0.4109805752
0.412541502
0.4118927678
0.4091481588
0.4076643975
0.4098513052
0.4092431838
0.4103520686
0.4073626527
0.4065496977
0.4043062493
0.4080780974
0.4094830129
0.4081578108
0.410896622
0.4113912181
0.4103884155
0.4101690661
0.4121481991
0.4081885719
0.4058350958
0.4084615919
0.4014950125
0.4038943091
0.4071544538
)
;
    }
    obstacle
    {
        type            calculated;
        value           nonuniform List<scalar> 0();
    }
    frontAndBack
    {
        type            empty;
    }
    procBoundary2to0
    {
        type            processor;
        value           nonuniform List<scalar> 
31
(
0.3205909204
0.4127898277
0.4135866485
0.4122511594
0.4142238587
0.4137416274
0.4163757346
0.4189760977
0.4208651157
0.4190244703
0.4197654628
0.4181225847
0.4171782658
0.4176103937
0.4160149397
0.4161170552
0.4146457179
0.4137083686
0.4150540851
0.4134230303
0.4180869076
0.4171488623
0.4199054178
0.4220354033
0.4282539602
0.431576355
0.4159600141
0.4100793887
0.4119005619
0.4151631218
0.4151631218
)
;
    }
    procBoundary2to3
    {
        type            processor;
        value           nonuniform List<scalar> 
19
(
0.4255912519
0.4228267301
0.4242822344
0.417795449
0.415524241
0.4109495998
0.4175841578
0.4152779984
0.4142975835
0.4141270122
0.4152698378
0.416330017
0.4239761516
0.4187568368
0.4136226919
0.4139949254
0.4167084106
0.4160076576
0.4078328458
)
;
    }
}


// ************************************************************************* //
