/*--------------------------------*- C++ -*----------------------------------*\
| =========                 |                                                 |
| \\      /  F ield         | OpenFOAM: The Open Source CFD Toolbox           |
|  \\    /   O peration     | Version:  2406                                  |
|   \\  /    A nd           | Website:  www.openfoam.com                      |
|    \\/     M anipulation  |                                                 |
\*---------------------------------------------------------------------------*/
FoamFile
{
    version     2.0;
    format      ascii;
    arch        "LSB;label=32;scalar=64";
    class       volScalarField;
    location    "0.012";
    object      linearKEMean;
}
// * * * * * * * * * * * * * * * * * * * * * * * * * * * * * * * * * * * * * //

dimensions      [1 -1 -2 0 0 0 0];

internalField   nonuniform List<scalar> 
546
(
5.879792473
7.902554112
7.878963384
7.853409471
7.843467758
7.847276386
7.852485279
7.839087919
7.824382549
7.873183367
7.882616644
7.928911198
7.915798447
7.846112265
7.861393778
7.85581724
7.847668352
7.860385321
7.819454046
7.797699676
5.913747414
7.922328293
7.891952929
7.926711176
7.90894832
7.891620354
7.882905002
7.886262496
7.854338119
7.836399239
7.852442573
7.836200741
7.861181776
7.857529523
7.877940882
7.847120494
7.856338596
7.874533147
7.890854487
7.873253421
5.873136591
7.897676286
7.843182156
7.816918451
7.84333857
7.860728186
7.875047866
7.891022981
7.871932522
7.879232959
7.857061613
7.856090181
7.802028067
7.794352956
7.815573506
7.829840256
7.810755048
7.797747332
7.79862573
7.801006133
5.903458046
7.933975201
7.881257281
7.823305699
7.837442418
7.816265592
7.806268878
7.80529691
7.860681888
7.819918683
7.857546022
7.887945531
7.943436659
7.906591758
7.887919409
7.849435276
7.853675349
7.847716344
7.892361187
7.895811922
5.902846388
7.915575375
7.844294003
7.83494251
7.829131632
7.837859613
7.818567214
7.833978596
7.787094906
7.765555087
7.778297212
7.735922533
7.766210789
7.807245735
7.856530922
7.891965862
7.922465304
7.923302821
7.893336435
7.864250333
5.887970481
7.91574939
7.847008929
7.850153731
7.889582786
7.900639896
7.865113564
7.85423167
7.885484006
7.907682505
7.918729922
7.890853895
7.889175888
7.863451873
7.861889132
7.870975105
7.849320849
7.812925633
7.839226376
7.869728269
5.895886418
7.900711216
7.88516608
7.892533858
7.851216387
7.857457962
7.863157377
7.899950557
7.899410951
7.893091938
7.907583279
7.912215122
7.91576942
7.876812372
7.846895262
7.851657924
7.852475807
7.83943637
7.832721024
7.821038387
5.896457139
7.947984653
7.901444531
7.888645904
7.909324551
7.885712738
7.912678775
7.890342122
7.889736337
7.879531622
7.884023755
7.828225376
7.833416577
7.849814374
7.8518081
7.853273287
7.872029344
7.8956562
7.91197435
7.906779537
5.89578495
7.901038825
7.820000226
7.842347116
7.834171547
7.801613144
7.797123662
7.845381942
7.820483133
7.866983
7.887340084
7.902124766
7.913895768
7.910425472
7.874694363
7.82906917
7.839704663
7.823458719
7.824640093
7.832580189
5.869955915
7.859416098
7.827061904
7.820198217
7.821613523
7.830065426
7.841505593
7.844425226
7.834629948
7.809818005
7.770835082
7.783368127
7.805979859
7.834342338
7.849762277
7.857306338
7.846978702
7.80913983
7.797335084
7.764372384
5.917952495
7.934677067
7.886109879
7.852229224
7.844052204
7.802799423
7.834371869
7.797034068
7.838299673
7.846926629
7.83733584
7.817023907
7.816553837
7.805385408
7.802607507
7.820376664
7.841196457
7.872041476
7.911568702
7.925667153
5.870699649
7.917819284
7.851388931
7.859867279
7.851078801
7.839263318
7.853499687
7.832315692
7.804933356
7.811304739
7.80876781
7.845214294
7.84288353
7.860421353
7.879664003
7.853911698
7.863041781
7.798162948
7.849135796
7.84992825
5.922522195
7.942958882
7.90270939
7.869701946
7.896420652
7.882063536
7.870789976
7.856469164
7.870788053
7.883280278
7.859609336
7.893376167
7.909895604
7.883943414
7.887798331
7.915890159
7.846707638
7.910228149
7.898464111
7.88750789
5.877736753
7.891141268
7.854836443
7.845463748
7.844374354
7.858662137
7.880983977
7.909479776
7.912497422
7.901873901
7.850172676
7.799875888
7.768861752
7.79896388
7.812455638
7.812034665
7.841709438
7.829194615
7.837846157
7.843557324
5.891798633
7.915547802
7.846054367
7.810907539
7.834609005
7.818870026
7.78304242
7.81829763
7.805029897
7.80171901
7.794629927
7.828852997
7.858539421
7.816968414
7.818259832
7.805007513
7.797736244
7.7797913
7.815862094
7.825558563
5.869944749
7.878620798
7.843794071
7.865903527
7.9076146
7.874372325
7.835607149
7.819209617
7.81907773
7.841995284
7.859796946
7.833922133
7.830375783
7.827656659
7.863712427
7.875061557
7.867490394
7.830413728
7.799581012
7.810801433
5.909581884
7.978587836
7.928295397
7.876967988
7.839994355
7.890002019
7.902769723
7.925427258
7.899284351
7.943964
7.903481476
7.875231966
7.885053867
7.840658019
7.849876825
7.820226239
7.837955644
7.830116801
7.858996204
7.840340524
5.78816882
7.74124668
7.701894932
7.730164715
7.73316156
7.744429413
7.752268795
7.73667467
7.732146139
7.720635411
7.767648446
7.76614341
7.785906264
7.777524293
7.764337819
7.769461666
7.767887751
7.785194013
7.808670791
7.810590477
7.876852139
7.891376363
7.904770412
7.883106591
7.893772194
7.931948889
7.806223373
7.843212125
7.861161154
7.817458887
7.859641358
7.879332876
7.903423983
7.90280369
7.879322758
7.880982167
7.884810527
7.897544161
7.90205912
7.912504388
7.876969568
7.859789438
7.872179904
7.906469166
7.917286846
7.921108625
7.823497307
7.794150057
7.801114477
7.813554274
7.826923572
7.820561782
7.834370788
7.854581796
7.874406552
7.885779363
7.917908083
7.946701821
7.909493251
7.945709834
7.939944287
7.894503589
7.8689062
7.853459269
7.797620427
7.835785498
7.869874574
7.831762048
7.83540224
7.820908393
7.833959566
7.829531631
7.867263936
7.932622906
7.88078663
7.852782714
7.859247257
7.87039878
7.881954368
7.878116226
7.932984499
7.927362646
7.885098572
7.882232642
7.922978946
7.917448882
7.817408013
7.821258405
7.814161131
7.837424591
7.803032107
7.804374271
7.846627968
7.868110318
7.820612324
7.822556956
7.929497106
7.933951241
7.886255631
7.81074852
7.793744838
7.772827565
7.777464477
7.743878238
7.758676062
7.756505684
7.751636566
7.744437201
7.762708191
7.730466441
7.772551735
7.789537477
7.799534755
7.757500979
7.786778631
7.803515062
7.799879241
7.859598298
7.850847499
7.894117446
7.880306304
7.892988572
7.884921227
7.907391477
7.903996169
7.858730255
7.912753008
7.878047442
7.884632046
7.901825415
7.923648323
7.890262781
7.87745379
7.870625254
7.879261471
7.890958777
7.875501195
7.88136222
7.871431387
7.842023693
7.831216606
7.848607818
7.870754757
7.911137249
7.933502049
7.947565885
7.837123828
7.859834763
7.879761048
7.889671936
7.870813797
7.90602499
7.867140421
7.870790415
7.858009542
7.849031242
7.876240744
7.885979215
7.852294117
7.87328331
7.897787715
7.857406752
7.849623466
7.855655675
7.834991126
7.800066155
7.800201913
7.809840465
7.802811988
7.813517654
7.819888015
7.823503496
7.799597771
7.816406518
7.829677583
7.861562987
7.806159196
7.814107452
7.818407099
7.822086779
7.847872081
7.79013865
7.811446703
7.765198125
7.784290071
7.830853516
7.806815907
7.798203224
7.787113402
7.770981722
7.793473824
7.830301805
7.850207912
7.900470541
7.902307978
7.855549643
7.800748066
7.799015974
7.794282911
7.853987955
7.786417665
7.781941353
7.806045027
7.735538895
7.700733359
7.761801682
)
;

boundaryField
{
    flow
    {
        type            calculated;
        value           nonuniform List<scalar> 
48
(
5.879792473
5.913747414
5.873136591
5.903458046
5.902846388
5.887970481
5.895886418
5.896457139
5.89578495
5.869955915
5.917952495
5.870699649
5.922522195
5.877736753
5.891798633
5.869944749
5.909581884
5.78816882
5.78816882
7.74124668
7.701894932
7.730164715
7.73316156
7.744429413
7.752268795
7.73667467
7.732146139
7.720635411
7.767648446
7.76614341
7.785906264
7.777524293
7.764337819
7.769461666
7.767887751
7.785194013
7.808670791
7.810590477
7.800748066
7.799015974
7.794282911
7.853987955
7.786417665
7.781941353
7.806045027
7.735538895
7.700733359
7.761801682
)
;
    }
    obstacle
    {
        type            calculated;
        value           nonuniform List<scalar> 0();
    }
    frontAndBack
    {
        type            empty;
    }
    procBoundary2to0
    {
        type            processor;
        value           nonuniform List<scalar> 
31
(
5.88295102
7.927105864
7.869402148
7.83286842
7.849158698
7.828215917
7.858534593
7.902967468
7.917811539
7.885071728
7.855950271
7.830956888
7.823816489
7.840006114
7.817607521
7.846149199
7.827937154
7.823336501
7.865891254
7.861840217
7.880252145
7.869079606
7.864668991
7.890020501
7.958765465
7.969891094
7.864800061
7.819634581
7.815490123
7.850127041
7.850127041
)
;
    }
    procBoundary2to3
    {
        type            processor;
        value           nonuniform List<scalar> 
19
(
7.948398882
7.929317594
7.929345837
7.900269042
7.850359318
7.832214306
7.947424008
7.809349759
7.79494175
7.762628618
7.863007614
7.894430525
7.94871072
7.856117902
7.827561838
7.82375889
7.872178091
7.845663532
7.714376415
)
;
    }
}


// ************************************************************************* //
