/*--------------------------------*- C++ -*----------------------------------*\
| =========                 |                                                 |
| \\      /  F ield         | OpenFOAM: The Open Source CFD Toolbox           |
|  \\    /   O peration     | Version:  2406                                  |
|   \\  /    A nd           | Website:  www.openfoam.com                      |
|    \\/     M anipulation  |                                                 |
\*---------------------------------------------------------------------------*/
FoamFile
{
    version     2.0;
    format      ascii;
    arch        "LSB;label=32;scalar=64";
    class       volScalarField;
    location    "0.012";
    object      linearKE;
}
// * * * * * * * * * * * * * * * * * * * * * * * * * * * * * * * * * * * * * //

dimensions      [1 -1 -2 0 0 0 0];

internalField   nonuniform List<scalar> 
546
(
4.414646029
9.435956629
9.03489542
6.337972646
10.431501
5.515763316
7.169214199
6.326208757
5.445451493
13.90172206
9.883025502
6.63632073
13.0906777
5.751257736
11.81654453
13.87425174
6.478473399
5.452630727
6.290719014
8.890852293
8.235788453
9.63240308
4.383053163
6.634226545
8.332276666
2.142972014
8.588021116
8.702784146
7.882157323
5.837774622
8.114679357
8.342914723
5.477573555
9.870022018
11.19365507
9.018259844
9.508135519
6.338447906
10.66338162
16.99053978
5.940166696
7.880487221
10.70784607
5.901261667
8.062778827
6.030225295
8.872312654
11.23894421
8.899671971
8.271902502
7.411007132
9.717221883
5.517393499
11.13709497
9.526512311
12.17437274
7.513576831
5.43094134
4.632943936
11.04290522
5.445496134
10.1412683
10.89650988
5.201471771
8.625776884
6.061200994
5.205846406
6.620657847
5.5267957
8.417044824
8.198473988
6.173454206
12.48284061
5.625504482
8.601386995
11.72393683
4.566701494
8.486102843
4.793269705
6.510226827
3.256305159
8.858825455
8.806254448
8.167876872
7.501566103
10.63006504
5.724448416
6.036450181
6.379401723
5.008513241
1.952493066
7.19960626
5.537577081
7.290856982
2.905373172
11.79878403
6.067254833
15.00714002
10.28733262
2.945641678
10.14832302
7.925691439
6.671001013
4.356551789
10.02839666
8.557975996
6.81790299
6.857319648
8.515303979
11.83586308
14.23741063
11.43279324
9.657585953
9.601256478
7.274130234
10.00510868
6.30524431
4.74953373
5.694798906
6.995943248
5.516162006
1.96169031
8.820234011
5.8151059
8.596133685
9.638536187
4.562304423
9.249520678
4.104041614
11.71547574
5.429537607
7.272228215
9.611907893
3.924051682
11.28533
5.364399121
7.211160367
11.19661716
6.567314475
7.386801314
4.987077024
8.431400508
11.48889794
5.728764821
11.16261322
7.209326535
4.846869354
3.321800475
11.77229864
9.799872078
6.76103956
8.267562346
13.65787732
7.646502281
12.73593547
5.012109684
4.407806819
9.285757789
7.082085487
5.711580815
7.323817664
6.839472392
7.623233241
8.955192854
6.493345851
8.171187885
11.34010757
11.57896833
4.498268584
5.169822658
9.625310852
4.052743956
10.79529318
12.38296465
7.167793069
7.464852759
6.791970566
5.252356199
6.795819792
4.382770229
7.338372118
7.490463433
4.791214181
8.662992114
3.745816141
6.549907946
8.743080531
7.694285543
5.681235546
10.13322125
9.920808677
8.300980074
6.477590303
5.379321546
4.085091014
3.576741311
8.636552674
8.766841749
8.925082203
11.44832589
6.15005072
8.438411075
8.95201866
12.62100845
7.338684129
7.902857455
7.393063859
8.299316989
10.05863065
9.130441537
10.18847078
7.148701358
7.55911815
5.534682868
8.772191348
5.201736338
9.433898345
4.773272172
7.225074603
6.937436589
3.138607656
8.595233133
6.976702962
5.017924987
8.430068522
7.245415806
10.47249649
7.809125023
3.102994489
12.80577275
10.18264765
7.738043451
8.132745649
14.01851444
13.02267807
10.45205416
5.891545402
6.125326323
8.326465277
5.596757646
5.131855433
8.798133099
9.381273873
6.861047369
8.543702894
9.506879555
9.933586315
5.283438782
3.658853345
10.1302923
8.865855546
5.552330202
3.824980716
10.66177748
9.617125986
12.98485506
11.29156276
9.199356952
5.616679041
5.851402536
6.960959231
8.131618799
5.57124085
11.14998403
6.920135008
6.420228881
8.378272397
6.34000513
7.712941655
9.064817689
11.1712004
9.305448863
9.796720921
5.150827417
6.63843652
11.52471531
5.355853637
5.076902933
10.89729855
7.241392029
6.208858941
7.847196246
10.91572652
6.120404776
6.803598331
8.516080336
5.188901764
7.121366734
12.04685415
8.591692589
10.51372943
3.171376307
6.713886317
2.511495712
5.600701072
3.21928798
9.465813319
5.282075723
7.930172819
7.427379258
7.29080442
3.202830472
11.2320548
7.108649085
5.98411576
7.447282873
7.872767642
8.189314135
10.87616086
5.580382268
7.027473796
11.74069789
3.53843147
4.851914661
5.162168278
7.99640301
11.1221903
6.043828056
6.51411781
7.801355654
5.571945094
9.060363888
8.264460318
5.73209242
7.323108602
8.583103557
13.24753293
6.926529694
5.306826006
9.193528051
3.67524096
5.007440813
8.903170347
7.680067858
9.821522155
5.928882172
4.100244703
5.142157674
10.02112967
7.783317118
4.828862149
7.788606828
6.836626318
4.785825142
10.75651831
7.639661943
10.77501263
6.198319219
8.336401725
5.00791576
15.99315985
5.224524587
7.487492469
9.845984315
5.389619957
6.44986232
6.021172346
11.80977014
8.121482848
11.31437949
12.06199661
6.593520427
6.804919717
8.316638202
9.577751675
5.971921993
7.344147753
8.562654143
5.287588307
9.226245204
6.394393429
5.495568544
5.957082782
7.778687789
7.112689442
5.758552884
13.23601883
5.527356975
7.245037263
4.21057385
6.391578854
6.784911284
7.352594887
2.602876716
8.060028402
10.97741805
13.74006752
10.39764563
5.483635944
6.773409094
3.576459643
14.36304459
9.750523565
6.405662804
4.058582157
7.008615934
6.864310317
7.173044052
10.46943432
6.10204428
11.63573458
11.0072383
6.006784
7.540124494
6.148705277
10.33494955
9.851599279
3.431418179
9.512112747
7.20804259
6.756394064
4.133028014
6.606726723
4.025459762
5.622473013
5.431123992
7.489130194
3.302947634
4.704194551
5.471726051
9.142883285
7.860389935
5.921809424
9.297083859
2.898192158
11.62308948
10.2175908
15.07213864
6.502294479
5.72490471
7.838626435
5.584086379
4.899728124
6.521214104
4.348623324
5.064888558
7.446193659
13.24817197
10.94206595
9.116492326
5.406485758
6.081671427
7.874156421
6.968460027
7.953704026
6.878967905
8.389599073
9.877888778
9.988522284
6.21551586
9.874518621
5.556590312
7.400425697
8.421380441
7.757986074
8.281728638
9.763872834
7.408662924
6.237841101
5.344701049
7.635835973
9.163556505
7.245999717
8.483128462
9.645871564
9.962862499
5.773070854
10.15109712
12.4119883
5.051216155
9.570795239
10.88169622
12.52564245
6.320338738
10.65817344
5.509007569
6.556076041
9.205053356
5.647322178
7.471990247
7.998565028
5.586867256
12.57956354
6.567704832
9.008863923
5.553904911
6.386819277
7.127474423
4.480063049
7.432737878
5.334769302
10.35793991
2.96867153
7.863093349
10.52565405
9.115664536
7.577594402
6.292399539
13.22196779
5.881190503
6.561660829
8.526665254
7.215390371
6.355873489
10.29593818
9.820293173
8.621181548
10.51141178
8.73101977
8.085897541
9.90390021
6.96046
5.771053432
8.505199778
3.290510029
5.077129047
11.37173283
11.99816468
5.529484194
9.582117165
8.238751994
10.08979355
6.070441952
5.830699815
5.809883353
7.509276247
6.486762549
9.691638685
7.314450112
6.556493642
5.140809426
9.798127838
9.00679615
3.997670468
8.934051714
10.85106968
4.994994974
8.298523466
4.711163254
6.789755271
9.256231277
9.475256407
6.981961462
7.569747808
7.422012713
5.987060718
)
;

boundaryField
{
    flow
    {
        type            zeroGradient;
    }
    obstacle
    {
        type            calculated;
        value           nonuniform List<scalar> 0();
    }
    frontAndBack
    {
        type            empty;
    }
    procBoundary2to0
    {
        type            processor;
        value           nonuniform List<scalar> 
31
(
6.172745303
6.741677611
3.571429255
9.96280342
12.62952896
6.177797473
4.610622206
8.356853269
6.089060831
7.534708189
10.75324489
6.102466073
3.224285477
4.102289676
10.30690544
4.338234992
12.01163245
5.889236455
7.928246545
4.538312186
7.902866155
6.038017672
5.34613451
11.24584561
8.51631014
11.32860584
12.96271616
8.106088239
6.379092136
5.993224901
5.993224901
)
;
    }
    procBoundary2to3
    {
        type            processor;
        value           nonuniform List<scalar> 
19
(
11.78408146
6.213640861
14.74419309
6.688511249
9.697632999
5.978115361
7.49731783
7.816396142
9.063377765
7.89705474
10.30047769
11.8916658
7.637583551
8.474366796
4.708827169
6.393072527
11.59428444
5.328634309
7.09773525
)
;
    }
}


// ************************************************************************* //
