/*--------------------------------*- C++ -*----------------------------------*\
| =========                 |                                                 |
| \\      /  F ield         | OpenFOAM: The Open Source CFD Toolbox           |
|  \\    /   O peration     | Version:  2406                                  |
|   \\  /    A nd           | Website:  www.openfoam.com                      |
|    \\/     M anipulation  |                                                 |
\*---------------------------------------------------------------------------*/
FoamFile
{
    version     2.0;
    format      ascii;
    arch        "LSB;label=32;scalar=64";
    class       volVectorField;
    location    "0.012";
    object      momentum;
}
// * * * * * * * * * * * * * * * * * * * * * * * * * * * * * * * * * * * * * //

dimensions      [1 -2 -1 0 0 0 0];

internalField   nonuniform List<vector> 
546
(
(0.004777913792 8.622604271e-05 0.0008010046362)
(0.009646630065 0.0002737216064 7.402525928e-05)
(0.009820689521 -0.0001822421566 -0.0004949390308)
(0.007273235371 0.0001849860573 -0.0002039909121)
(0.01070742 -0.0002521039354 0.0002653095746)
(0.005856139727 -0.0003521933879 0.001144687665)
(0.007608823663 0.0004089261005 -0.0005248825767)
(0.007219691612 -0.0004135616247 0.0001352077029)
(0.005870107502 -0.0006246489445 8.266537265e-05)
(0.01498887836 8.268358636e-05 0.0005383918397)
(0.010382249 -0.0007553612578 0.0003023342229)
(0.006275890032 -2.468970036e-05 -0.0003496765799)
(0.01411340286 0.0002504579118 0.0007032237303)
(0.006730591382 -0.0003597563212 2.349206063e-05)
(0.01236273301 -0.0003151325549 0.001023233068)
(0.0138204589 0.001406474341 -1.789577789e-05)
(0.006569989521 4.036999333e-05 -0.000224816756)
(0.006372080137 0.0006269169314 -0.0003460613911)
(0.006310016033 0.0005753767493 -0.0006864063234)
(0.009878181892 0.000298766311 0.000633563702)
(0.008348770183 3.317335922e-05 4.657062558e-05)
(0.01080096446 4.264135494e-05 -2.302875091e-06)
(0.004861626269 0.0003038699327 -0.0004169714055)
(0.006903049399 -0.0006403485535 -0.0004075732482)
(0.008742801325 3.430962874e-05 -0.0006538833057)
(0.002402623543 -0.0002307883443 0.0004754877415)
(0.009043308489 5.7148715e-05 -0.0001356930096)
(0.008957701889 0.000298186103 0.0001681362556)
(0.00844793813 -0.0006935395226 -9.198786457e-05)
(0.005706067499 -0.0003266918637 0.0002606758808)
(0.007666883752 0.0005617870668 0.0003925748936)
(0.008655017778 0.0007001227861 -0.00061841686)
(0.005432933232 -0.0005096645032 0.0002808500765)
(0.01129621216 -0.0008967833482 -0.0001767524743)
(0.01178899207 -0.0004585962625 0.0001370875717)
(0.00945278248 0.0005986105252 0.0003339733331)
(0.01040592754 0.0007056169754 0.0003690100056)
(0.007275857876 0.0004569368203 -0.0001813789638)
(0.01138600028 0.000609881243 0.0001391757078)
(0.01796343803 -0.0003643790336 0.0004036290508)
(0.006222347973 0.0006444795472 -0.000190582479)
(0.008256150046 0.000399025047 0.0003586006572)
(0.01133523972 -0.000128513023 -0.0007547876039)
(0.006486822566 -8.466410331e-05 -0.0004959596425)
(0.008553292645 0.0007003978968 -0.000117695586)
(0.006187452898 0.0002176662897 -7.191982295e-05)
(0.009431846258 0.0004215887997 -0.0004249907402)
(0.01210409484 -0.0002450339747 -0.0006347507408)
(0.009542377616 -0.0007153346585 0.0002924496281)
(0.008623255168 -0.001344620883 -7.655134733e-05)
(0.008035788308 -0.0002557918621 0.0003115066347)
(0.009539938294 0.0004237376372 -0.0003265009805)
(0.005613508731 0.0002225463317 -0.0001910864628)
(0.01107903654 0.0007638695517 0.001059001169)
(0.009790225067 -5.764694745e-05 -0.0002944787322)
(0.01197441656 -0.0002319620589 -0.0007295546013)
(0.008234936244 0.0004055913807 -0.0007088467394)
(0.006276877691 0.0004965320761 0.0002317603512)
(0.005066988688 0.0001339982767 0.0004104997904)
(0.01133411396 -0.001928050872 0.0009348925021)
(0.005829782726 0.0002033916024 8.696181412e-05)
(0.01067753222 0.0004509017318 0.0005421753238)
(0.0109404862 0.001247362376 -0.000527064946)
(0.006096745038 -1.168210482e-05 0.001335132411)
(0.008825445575 0.0001474795201 0.0003393454434)
(0.007039471307 0.0005869071141 0.0001273872272)
(0.005407548624 0.0001568171654 0.0002033867515)
(0.007025143569 0.000343991047 -0.0004052820259)
(0.005539287677 0.0001623830074 -2.559628656e-05)
(0.009057576039 0.0002018695573 -0.0001586938857)
(0.008458316992 0.0003491217998 0.0003342117233)
(0.007038983679 -0.0005638486882 -0.0002235543774)
(0.01331766437 -2.454571514e-05 0.001408881612)
(0.006124652256 0.0001259958924 -0.0005859759666)
(0.009112895811 0.0002122714447 -1.080910166e-05)
(0.01319793303 0.0002263732192 0.0003540031474)
(0.005058304969 -2.072665253e-05 0.0003495171395)
(0.009027119217 -0.0009400276363 0.0002631680261)
(0.004660989714 0.0001808532998 -0.0003713838935)
(0.006906354487 -0.0004458799361 -0.0004643342927)
(0.00384740339 -0.0002364313017 0.0005446371263)
(0.009485065069 -0.0006715418597 0.0005120894441)
(0.01010350919 0.0002330005818 0.0008292208168)
(0.008604910993 -0.0005225788007 0.0006962404253)
(0.007902661611 -0.0006247215702 -0.0004027435393)
(0.01161895183 5.938556777e-07 -0.0008389132071)
(0.005641663048 -0.0003663967264 -0.0002923511051)
(0.005676745097 -0.0008558388125 0.0002306265912)
(0.0064926232 0.000272992171 -0.0003933968119)
(0.005616599942 -0.0003992875956 -0.0006016373914)
(0.001927110981 3.419941235e-05 -9.932851733e-05)
(0.0073118932 2.838727938e-05 0.0002357274811)
(0.006114929108 0.0001819345275 0.0005123288525)
(0.008247557013 -0.0001623989903 -0.0007014545854)
(0.003064251839 4.450567419e-05 0.00060826588)
(0.01223433126 0.0002085353568 -0.0005135515866)
(0.005956764671 -0.0003444369736 -0.0006359037691)
(0.01652903032 -0.001418636309 -0.0003002206567)
(0.01057869311 -0.0007602141502 1.05756674e-05)
(0.003386850615 -0.0001877328373 -9.938784811e-05)
(0.0100191675 0.000352678932 -0.0006016408922)
(0.008160267154 -1.107037141e-06 2.080101533e-05)
(0.006984141536 -0.0008372363454 -0.0004807233401)
(0.004567151162 0.0001660998304 -0.0002750878648)
(0.01113556832 0.0005975670247 0.0004738586441)
(0.00944351764 -0.00041075384 -0.0005744409609)
(0.007200878934 0.0005809694511 -0.0006154299724)
(0.007386833322 -1.582939359e-05 0.0006464383607)
(0.008863500752 -0.0001554056237 -0.0005697181304)
(0.01227283457 -0.001485258041 -0.0005479861397)
(0.01464965732 0.001023381603 -0.000809458539)
(0.01245088723 -0.0008674215953 -0.0001706659775)
(0.0103902299 0.0007890995968 8.867503308e-05)
(0.00977785705 0.0002793042203 -0.0001413406559)
(0.007289333043 -0.0002129515719 -0.0003604909811)
(0.01047143436 -0.0002348249295 0.0001587303176)
(0.007097518847 -0.0007358493809 0.0003059377395)
(0.005516591974 -6.507600508e-05 0.0007915118764)
(0.006377607859 -0.0005593640694 -0.0004736917139)
(0.00788958279 -1.615873333e-05 -8.235461849e-05)
(0.006704485639 0.0003991195909 -0.0001671803336)
(0.00222841042 -0.0002625210917 -5.998057885e-05)
(0.008686246163 0.0005255641361 0.0008752449353)
(0.006468542147 -0.0005723871671 -0.0001589642811)
(0.008677341692 -0.0006797097364 -0.0002150842416)
(0.009559423395 -1.538174598e-05 0.0003156063568)
(0.004940904442 -0.0005521501808 0.0004067408803)
(0.009634330956 0.001001298077 0.0001613567467)
(0.004061397032 -7.984330594e-06 0.0002095622896)
(0.01279991546 -5.771039304e-05 7.638632997e-05)
(0.006255479865 -5.26769744e-05 -0.001109336621)
(0.007480477648 0.0004890179953 0.0006730044994)
(0.01001885432 0.0004523091999 0.0007459230847)
(0.004676834685 0.0002882333776 0.000384012153)
(0.01195551172 -0.0006232839162 -0.001431594942)
(0.005939391346 0.0008362275995 -0.0003520927699)
(0.007856498148 -0.000213359988 0.0002561157553)
(0.01242237136 0.0003955339761 0.0007307641107)
(0.006846074427 0.0001706679346 0.0001340447959)
(0.00837125728 -0.0002587218833 0.0002955266151)
(0.005418537052 0.0002022844328 -0.0002232842467)
(0.008790279374 0.0002600255879 3.075371423e-05)
(0.01146851734 -0.001297354762 0.0002608107216)
(0.005594856732 0.0004676071551 0.0002378472418)
(0.01232541117 7.393758746e-05 0.0002640791357)
(0.006697846831 0.001371976092 -1.091616366e-06)
(0.005908385801 0.0001125904552 0.0002850065048)
(0.003389729112 -0.0002922232133 -0.0003357410495)
(0.01205384596 -5.074140597e-05 0.0006120188537)
(0.01024112419 -0.0005036349139 0.0004233336963)
(0.007380649448 0.0003574928154 0.0001197635497)
(0.008872544254 -0.0002804308486 0.0005858112675)
(0.0142183108 -0.0008107458226 -0.0005730257026)
(0.00894390571 -4.481925696e-06 -0.0004172187898)
(0.01238790586 -0.000204731115 0.0005156094608)
(0.005586705398 -0.0003134146514 0.0002494147469)
(0.004598599498 8.205770226e-05 0.0002926661497)
(0.009750511939 0.0009134805449 0.0001987716402)
(0.007275330352 -0.0003056874043 -0.0003252843596)
(0.006140814473 -9.695430383e-05 0.0004325946716)
(0.007918348118 0.0003760645669 -0.0001371204227)
(0.008021695062 0.0003526053406 -0.0008414406953)
(0.007658845475 0.0009357049455 0.001237604721)
(0.009341306588 0.0008293353346 -0.0004829079091)
(0.006973772289 0.0005649701556 0.0002822379914)
(0.009585831849 -8.690408796e-05 6.6332561e-05)
(0.01205812637 -0.0003934430935 0.0004557553864)
(0.01132600105 -0.0006537349934 -0.0001683508733)
(0.005054563536 7.57544621e-05 -0.0004099769336)
(0.004915217485 0.0002301489079 -0.0001491485936)
(0.01020013716 0.0002669476394 2.257371136e-05)
(0.00434306644 -0.000321512853 1.791408567e-05)
(0.01139462671 -0.0008207530017 0.0007823433676)
(0.01355404332 0.0002121300931 0.0004271970833)
(0.007824328213 -0.0002437876752 0.0003880496586)
(0.007492987335 5.382848585e-06 1.246486951e-05)
(0.007441438225 -0.0003628474642 0.0006927920545)
(0.006542123006 -0.0007078659418 0.0004841989737)
(0.007015298346 -0.001038284014 -0.0001163110521)
(0.004812343587 6.449141131e-06 0.0004260065142)
(0.007348264163 -0.0004913604813 0.0001335638307)
(0.008098359771 0.0002525739949 0.0002308006604)
(0.005500031554 0.0003433158147 0.0002214213152)
(0.009130435225 0.0006317985843 0.0008613283598)
(0.004400826803 -0.0002144796723 -0.0003976148993)
(0.006563441527 0.0002583542925 0.000300308748)
(0.009543091988 0.0008346006898 -0.000405111914)
(0.008398974004 2.076800813e-05 0.0004186737566)
(0.006074333717 0.0002269660606 -0.0002451364165)
(0.01056840927 -9.121996066e-05 -0.0004304225409)
(0.01034149255 0.0004763004546 0.0006965364328)
(0.008306198408 -0.0003443823491 0.0001483407089)
(0.006783012098 0.0005397043118 -0.0004734983966)
(0.00597459494 -0.0002695451268 0.0004494589565)
(0.004397990922 -0.0001358367115 -0.0003153437779)
(0.004287482421 0.0002960773846 0.0001570795045)
(0.008973086424 0.0002114242361 -0.0005061132383)
(0.008899323911 4.588285387e-05 0.0001837387031)
(0.009287863679 0.0004836931498 0.0005875423437)
(0.01189218577 -0.0002076998893 0.0004217622102)
(0.006967012199 -0.0002910589804 0.0002323801985)
(0.008912024419 0.0002912109617 0.0001144247843)
(0.009246955441 -0.0003054109966 0.0003410583495)
(0.01383067327 0.0003147353703 0.0006326718124)
(0.007658136209 0.0001209802871 0.0002132775845)
(0.008577594576 -0.0002972720358 4.222727694e-05)
(0.007665711129 -4.644124077e-05 -0.0001951047054)
(0.008687336646 4.820044231e-05 0.0003888180764)
(0.01011420828 -0.0001438923274 -0.0005501879169)
(0.009604222726 -0.001317797743 0.0001420345418)
(0.009669294292 -0.0001965516471 0.0004911160407)
(0.007585533302 -0.0001338145819 0.0008523397289)
(0.008000413791 -0.0001947829539 -0.0008089543019)
(0.005871848023 0.0003988813617 0.0003516336824)
(0.008884449267 -0.001097845669 -0.0003490001524)
(0.005917490822 0.0003534770319 -0.0002991415763)
(0.00996020456 0.0003127171426 0.0001185596087)
(0.005564860327 0.0001375449014 -0.0002095072481)
(0.00780346203 0.0004793956543 -0.0001998049015)
(0.007177099025 0.0002051983426 0.0001073163856)
(0.003394967015 5.323418195e-05 -0.0001023107759)
(0.009101213184 0.0012485742 -0.0003741696901)
(0.007267012473 -9.358606068e-05 0.0004803168583)
(0.005389231555 8.124449723e-05 0.0001808856377)
(0.008167978389 0.0002378091289 -0.0009648859822)
(0.007954317774 0.0005360901281 -2.673481188e-05)
(0.01033696763 0.0005659694356 0.0004724488583)
(0.00795533389 0.001119271352 0.0002568424089)
(0.003755895202 0.0002399301062 -0.000512042185)
(0.01182590924 9.079898577e-05 -0.0001202443028)
(0.01057762801 9.80692955e-05 -2.845602467e-05)
(0.008255272932 -0.0002664118651 -4.924887956e-05)
(0.008234903079 -0.0002041965221 -6.370076597e-05)
(0.0154677458 0.0007108928761 -6.402095462e-05)
(0.01309777774 -0.000459405418 -0.0004881958186)
(0.01141244833 -0.0002798754035 -0.0005326630291)
(0.00616465232 -0.0001411791102 0.0008180482173)
(0.006732495038 -0.0005460126295 -0.000471552869)
(0.00897603838 -0.000103941712 0.0003233961046)
(0.00601625917 0.0006576511697 0.0001094630516)
(0.005825804053 -0.0003491004539 -1.17626594e-05)
(0.009741943924 -0.0002992368502 -0.0004259789362)
(0.009765195194 0.0003479413909 0.0001876193154)
(0.007744276829 0.0002075193651 0.0004741950177)
(0.009102364668 0.0006752446337 -0.0005407970993)
(0.009611449241 4.847067069e-05 0.0002075640052)
(0.009848805124 5.148624841e-05 0.0005021532829)
(0.005437778634 -0.0001845779643 -0.0003788662396)
(0.004105399528 0.0003319019183 -0.0001291405913)
(0.01165545031 -0.0007423902575 -0.0003378772936)
(0.01001190772 0.0001612413066 0.0001893778156)
(0.006074306097 0.001218732762 -0.0003031074515)
(0.004469712279 -0.0004466000675 -0.0005193861798)
(0.01046051951 0.001368761898 0.0001530696281)
(0.01024640593 0.0009111325124 -0.0006383783457)
(0.01389257861 0.0007939889061 0.0007986961623)
(0.01160037356 9.376615928e-05 -0.0003566899797)
(0.01025669838 2.392111158e-05 7.932365926e-05)
(0.005540942575 -0.0002969163913 -0.0003534391907)
(0.006885279323 0.0001924796544 -0.0003133111235)
(0.007060103587 -0.0005911017726 0.0005079951402)
(0.008590050656 0.0002850365435 -0.0001065565864)
(0.005617638459 -0.0004748503805 -0.0001900878905)
(0.01208929579 0.0004815632309 0.001238420137)
(0.007106967124 -0.0004613541401 -7.702377101e-05)
(0.006634851049 6.629572504e-05 -9.307420653e-05)
(0.009857261009 -0.0001434175713 0.0003323880419)
(0.006936405683 0.0002628182795 -0.0006227651662)
(0.008228632727 2.777931356e-05 -0.0003761576103)
(0.009654659523 0.0003536176094 -0.0004081069405)
(0.01222589028 -0.0009794878718 -0.0005800240761)
(0.009761506486 -0.000402680551 -0.000428811824)
(0.0113134717 -0.0001552251755 -0.0001501679913)
(0.00579998495 -0.0002977489725 0.0005260722814)
(0.006993037022 -0.0003506543964 -0.0003892268321)
(0.01199342146 -0.0001574064634 0.0002404147569)
(0.00588058175 0.0004912532393 0.0006676474548)
(0.005519954414 0.0001306290426 -0.0004502900251)
(0.01135818633 -0.0006884336122 -0.0005497713256)
(0.00761510934 0.000458277779 0.0002321970121)
(0.006719851056 0.0006056316431 0.0002588639911)
(0.008116985942 0.0004362303686 0.0007370923744)
(0.01178571121 -0.000824949855 -0.00018375031)
(0.006208382923 -5.813407375e-05 -0.0006779693528)
(0.007611416586 0.0001274709431 0.0004261458389)
(0.008438626026 9.136626317e-06 0.0006455804808)
(0.005091344136 0.0002543995015 -0.0005190015726)
(0.007763023291 9.446522962e-05 -0.0001491296801)
(0.01206355465 -0.0009665879436 -0.0004000306952)
(0.009289551165 9.353231753e-05 -0.0004036159833)
(0.009984180098 -0.0008859170089 -0.0003580197085)
(0.003395762792 5.878282429e-05 5.865341128e-05)
(0.00775377536 0.0001072039747 -0.0002290854451)
(0.00302768597 -0.0003038275725 6.539883881e-05)
(0.006102238576 0.0006011423066 1.432260082e-05)
(0.003273797444 -0.0003872686607 0.0006365034515)
(0.01023882437 0.0002066078 0.0006701982274)
(0.005391979172 -0.0004313680461 0.0003776398953)
(0.009252689636 0.0002052226881 0.0001544380501)
(0.007740423581 -0.0006917123055 0.0005683713974)
(0.008108413039 -0.0004796041675 0.0001768257464)
(0.003795205465 1.4339543e-05 -8.355110491e-05)
(0.01193133446 -0.0001653866864 0.0003412061743)
(0.007732122869 0.0003979169786 -0.0004301088939)
(0.00659028422 0.0006980568825 3.594072252e-05)
(0.008248838766 0.0003510110786 -0.000358490909)
(0.007659813189 -0.0001325827578 -0.0003256587092)
(0.008250275635 -7.589433883e-06 -0.0001008785441)
(0.01190596809 -0.0004180834381 0.0005022218587)
(0.006496790277 -0.0002217683633 -0.0001944130877)
(0.008186415543 -0.0005867249305 -0.00029030286)
(0.01282575797 0.0006812648149 -0.0006929993767)
(0.003675892035 -0.0002268225805 -0.0002213202678)
(0.00473044906 0.0001293243785 -0.0008709362913)
(0.005419580674 -5.263523967e-05 0.0002333407798)
(0.008995550123 0.0006076095938 -0.0003237673889)
(0.01113211477 0.0005244900984 0.0004536151645)
(0.006875498108 -0.0001152892725 0.0002909416589)
(0.007097087239 -0.0001986914844 -0.0003279045944)
(0.00929001332 -0.0007324351171 0.0001292895367)
(0.005447129172 0.0006053963338 -0.0001033949025)
(0.009174817538 0.0002913200811 0.0002646531216)
(0.008709898543 0.001079115924 0.0001180729462)
(0.006295449823 0.0005832040211 0.0002489753234)
(0.007550336833 2.31809555e-05 0.0006314543561)
(0.009103587192 -0.0002181865531 -1.828440779e-05)
(0.01510913789 -2.702489368e-05 0.0004406101566)
(0.00677270112 0.000409395413 -0.000778575869)
(0.005735596552 -0.001035061084 3.450073041e-05)
(0.01045323023 -0.0004366453899 0.0008643037524)
(0.004232869795 -7.906317462e-05 -5.275103812e-06)
(0.00554169811 0.0005374347998 -0.0001340546081)
(0.009565570473 0.0003165533344 -0.0002041898022)
(0.007821976618 0.0002576913097 -0.0009412630021)
(0.009926934152 0.0003021880001 -0.0002931827651)
(0.006432306021 -0.0008758942176 0.001459923916)
(0.004348490207 -0.0006005653054 7.670872774e-05)
(0.005859646144 -4.874916741e-05 -0.0001544091587)
(0.01045343664 0.0004780260695 0.0003213079249)
(0.00830499023 -0.0001338789877 -0.001107602436)
(0.005497076002 -0.0003009704973 0.0001665849262)
(0.008583289048 0.0004554077563 0.0001267656748)
(0.0077759099 0.0001328258382 -0.000110687005)
(0.004613619234 -0.0003308626417 0.0004071310059)
(0.01157482564 0.0003565957228 0.000666630137)
(0.008507358148 -0.0006879385449 -0.000315511231)
(0.011481015 -3.300884474e-05 0.0001584946589)
(0.00622751163 0.0007123653009 5.411609243e-05)
(0.008850284086 -0.0002130490781 0.0006315240627)
(0.005717468773 0.0005403210063 0.0001342119212)
(0.01585488589 0.0004725134745 0.0003965041154)
(0.005968676677 2.714264593e-06 -0.0008398249903)
(0.007937635938 -0.0002883495613 5.98990409e-05)
(0.0113307545 7.672894335e-05 0.0002509261952)
(0.005922322186 0.0005155911808 0.0001185630867)
(0.006438650724 -0.000361676977 0.000623451773)
(0.006174674919 0.0002201542934 0.000309010046)
(0.01226744185 0.0002799440406 -0.0007961063096)
(0.009144313772 0.0003476501459 0.0002210512408)
(0.01192227039 -7.65813289e-05 0.0003370874592)
(0.01161422217 -0.0006081659253 0.0005063850163)
(0.006656824652 -0.0009732835648 0.0001310240647)
(0.007355386838 0.0007167402034 0.0001340102064)
(0.008773534099 0.0001745454382 -0.0003033193549)
(0.01054950321 0.001163668585 0.0001035873016)
(0.006501445948 0.0004086468639 0.0003558387118)
(0.008372941876 -0.0003758315737 -0.0001778150562)
(0.009242971793 -0.0001094686106 0.0008333939504)
(0.005678556742 0.0005985881688 0.0002270784568)
(0.01029508825 0.0003213084957 0.0002808218943)
(0.006723932824 -0.0005222676324 0.0006439865982)
(0.006046052809 -0.0002081877244 -0.0007851538958)
(0.006370615795 -0.0008410014957 0.0003973196554)
(0.008123502346 0.0001319288053 7.294511369e-05)
(0.00749612777 -0.0004955168027 0.000761324952)
(0.006430240079 0.0002041073341 -0.001450595263)
(0.0134439244 0.0006797460931 0.001119648775)
(0.006195091577 -4.069330681e-05 -0.0004386201543)
(0.007838309825 -2.144251543e-05 0.000298290483)
(0.004464829439 0.0005061824782 0.0002462929065)
(0.007496705918 0.001046723723 -0.001027943969)
(0.007493525847 0.0001877850599 -0.0009389918526)
(0.008308371119 4.544561847e-05 0.0009459572631)
(0.003119629705 -0.0001994341029 0.0004796843121)
(0.008648081288 0.0001434649627 0.0003228685571)
(0.01262675403 -0.0003989897311 0.001250073909)
(0.01450264714 0.0009919213785 -0.0002532975887)
(0.01168933231 0.000797799034 0.0001126228719)
(0.005644493508 0.0001676557879 -7.1430778e-05)
(0.007135365352 -0.0001755222547 8.677906732e-05)
(0.004031310058 -0.0004748074007 -0.0003007064087)
(0.01494396094 0.0002926728438 0.000816396239)
(0.01004105408 -9.073997838e-05 -0.0007136393248)
(0.007386380847 -0.0007117217638 0.0001477972907)
(0.004741201228 9.807342182e-05 0.0001552843703)
(0.008150871465 -0.0007676437315 0.0004734096455)
(0.007441252066 0.0002444209363 0.0006834625014)
(0.008078012077 0.0003521276397 -5.092030396e-05)
(0.01113011369 0.0003115044236 0.0001310927669)
(0.006714700294 -0.0004631570052 0.0002367968288)
(0.01245283537 0.001142111459 0.0006614664484)
(0.01134839431 0.0003248836466 -8.539054598e-05)
(0.005528219156 0.001812609698 -0.0003630925673)
(0.008268217101 -0.0003265472602 -0.0001705922374)
(0.006902011796 -0.0002716486897 -0.0004437592416)
(0.0120840094 -0.0006020345063 0.0005393717894)
(0.01019490485 -0.0003225779474 -7.648746394e-05)
(0.004031470617 0.0003414909352 -0.0001105707568)
(0.009870958547 -0.0001500900036 -0.0006446812473)
(0.007360157303 -0.0001960817971 0.0001012482546)
(0.007464151791 0.0001177088318 -0.0005211530876)
(0.004143022578 0.0002052882566 0.0006092226752)
(0.007141134048 -0.0001194225187 0.0004924620123)
(0.0045517717 0.0001660039206 -5.290500369e-05)
(0.005818973081 0.0003740343529 5.436213963e-05)
(0.006584243843 -0.0004612106162 0.0004021534287)
(0.007937995999 -0.0002142594801 -0.0001097435228)
(0.003600224373 0.0003577903363 1.93865399e-05)
(0.005443390407 -0.0001747524226 -0.0002492425566)
(0.005728534391 -0.0002048241848 -0.0004677486296)
(0.009834071927 -0.0001397102975 -0.0004072515512)
(0.009027852386 0.0001550417108 -0.0002099049934)
(0.005906887693 -0.0008440807308 2.717001083e-05)
(0.0103102629 -0.0007052312014 0.0005682440428)
(0.003514775039 -0.0001177052539 -0.0004004766868)
(0.01133736958 9.623941757e-05 -0.0001778909878)
(0.01003231823 -0.0004811848005 -0.001307700863)
(0.01616633834 -0.0001698482098 0.0004015757303)
(0.006753691066 5.745299541e-05 0.0008238918787)
(0.005870596541 -0.0004340094696 -0.0001590044199)
(0.009397310207 3.149813645e-05 -0.0008532782414)
(0.005922514176 0.0004231683277 -0.0006438503823)
(0.005418121819 1.321855771e-05 0.0003272856761)
(0.007056347017 -0.0006630704979 0.0004640063873)
(0.005079306786 9.790515069e-05 0.0001081452815)
(0.005371824048 0.0003134828799 0.0003411407177)
(0.008286271911 0.0002896239794 -0.0002918838875)
(0.01310475204 0.0006254747942 0.0001266734478)
(0.01221094559 -0.0007261177449 0.0001765025206)
(0.009857404239 7.367185149e-05 0.0001910605533)
(0.005550351639 -0.0001677019914 0.0005809888617)
(0.006449175243 -0.0003413838878 -6.53192909e-05)
(0.008037476325 3.586622369e-05 8.798023473e-05)
(0.007877196616 -2.295810485e-05 -0.000750848858)
(0.007953181621 -0.0002748032271 -0.000529661324)
(0.006586460268 -0.0004639628911 0.000357821093)
(0.008710992545 0.0003251680398 -0.0003126479654)
(0.01107804998 0.0004535649737 9.400492822e-05)
(0.01094984272 -0.0006286760137 0.0009166087455)
(0.00597875061 -0.0006115007495 0.0002100552676)
(0.009619354949 -0.0001659031788 0.0005179727779)
(0.006156173264 0.000299286818 -0.0002427602169)
(0.007955128338 0.0005786198502 -0.0002850292796)
(0.008650648809 0.0003720345074 0.0001556069606)
(0.00839592636 -4.936458282e-06 -0.000260890506)
(0.009026862978 1.291388622e-05 0.000355200828)
(0.009893404387 0.001044199515 3.535110374e-05)
(0.007460237937 -0.0004892727088 -0.0004580611038)
(0.006901134964 0.000179637053 -0.0002934885277)
(0.005907081855 2.617939437e-05 -7.406078127e-05)
(0.007827339163 -0.0003738285142 0.0001928631897)
(0.009761598938 -0.0004437130852 7.681882155e-05)
(0.007348858057 0.0005516289894 0.000143585222)
(0.009497324489 -0.0005256857508 -9.772931785e-05)
(0.0099459981 0.0004578464042 0.0003587969008)
(0.009637921988 -0.0003020852405 -0.0003683298901)
(0.006239471882 0.0001758629867 -9.858023811e-05)
(0.01032931146 0.0008167646232 -0.0009492159639)
(0.01272336529 0.0006691131913 -5.466729816e-05)
(0.005763856714 6.202310861e-05 0.0003139675022)
(0.01055689991 -0.001101856932 2.930253833e-05)
(0.01143184167 0.001104127392 -8.864759251e-05)
(0.01318300414 0.000276678907 0.0005147555)
(0.007039597797 -0.0004555750608 -0.0004091090917)
(0.01125961736 0.0001086271462 -0.0007527006899)
(0.00594343386 -0.000663607413 0.0003067947445)
(0.007812894573 0.0007790405057 -0.0002077999804)
(0.008697565047 -0.0004947568186 0.001060769486)
(0.006455168844 0.0003959526514 -0.0001087457918)
(0.008044078157 0.0004155863051 -0.0004957167474)
(0.007785442837 0.0006787256497 0.0004013704764)
(0.005621196527 -9.364817151e-05 0.0001342968602)
(0.01246625621 0.000429195313 0.000540452805)
(0.006589868911 0.0004134024519 0.000462099466)
(0.008923959809 0.000115268107 0.0006645023147)
(0.005649983058 0.000188818977 -0.0003865529106)
(0.006856734489 0.00025598005 -1.412622221e-05)
(0.007389969712 -0.0006107760851 0.0003114555712)
(0.004814856526 -0.0007652265875 -1.226482005e-05)
(0.008461613526 0.0002712237881 0.000101827783)
(0.005467621577 0.0002436275031 0.0004612247155)
(0.009821346275 0.0002349082585 0.0003992147673)
(0.003734677607 0.0007847981949 5.658038663e-05)
(0.008972110347 0.0002732421504 -1.10242841e-05)
(0.01117648228 0.0002360231663 -0.0005776739427)
(0.009330604144 -3.168012458e-05 -0.0001387047212)
(0.008943466471 0.0002459312322 1.273556791e-05)
(0.006909026774 -0.0005631676922 -0.0002105957985)
(0.01385570162 0.0003247449047 0.0005079060063)
(0.005805663795 0.0004382021112 0.0003474175814)
(0.007572935835 -0.0006153585552 -0.0001121758597)
(0.00922263251 0.0007820182307 6.808436375e-05)
(0.00764283276 0.0003357257056 0.0004980014613)
(0.00632974758 0.0003013328338 0.000690601316)
(0.01014736559 0.0006896240756 0.001021206797)
(0.01034047396 -0.0001253046626 3.55453082e-05)
(0.009340461318 0.0001711079686 -0.0008042868063)
(0.01224398618 -0.000385498211 0.0006283490919)
(0.009488642182 0.0002508940393 0.0007293067978)
(0.008730157781 -0.0001864282183 0.0001272992215)
(0.01026638897 -0.0003716996411 -8.103186511e-05)
(0.007365358971 -0.0002124045542 -0.0007350648929)
(0.006732097356 0.0002496180442 -0.0002826221412)
(0.009149437983 0.0006280687976 -0.0001547447503)
(0.003523468803 9.525888362e-05 -0.0001592171434)
(0.005466377645 -2.328531293e-05 5.5168288e-05)
(0.0116712985 0.0002565680534 0.0001032049627)
(0.01211928312 -0.0005941966851 0.0002559607904)
(0.006427866671 0.0003286796382 -0.0004334610882)
(0.009995958282 -0.0003082311423 0.000198913891)
(0.009291236251 0.0001136258907 -0.0004171923401)
(0.009974084753 -0.0001671479973 -0.0003409505512)
(0.006341893459 4.444752879e-06 0.0001329389205)
(0.006827316136 0.0002427566439 -0.0002717127852)
(0.006293577455 -0.0006313641223 0.0002223384551)
(0.008656895357 -0.0004147428789 0.0001271901883)
(0.006558835039 0.0005245401278 -7.737033843e-05)
(0.01103751387 -0.0002268012988 9.602058343e-05)
(0.007405733914 2.721894148e-05 0.000435983725)
(0.007283448507 -0.0006634841409 0.0005670859871)
(0.006144024282 0.0003028590347 -0.0004976648472)
(0.0101710165 -0.0002694633924 -0.0003099273302)
(0.0102978799 2.171919343e-05 -0.0003798721728)
(0.003976438788 -0.0007251343109 -0.0001634972252)
(0.00957804053 -0.0001964589552 0.0002625095857)
(0.01183153769 0.0001824600057 -8.308453523e-05)
(0.00574783675 -0.0002938745722 0.0001707763471)
(0.009120850788 0.0004345660589 -9.689142346e-05)
(0.005179454179 0.0002152128689 2.408035902e-05)
(0.007045843301 0.0001214994605 0.0002397050677)
(0.009798147165 -0.0003104716456 3.321992151e-05)
(0.009563659435 -0.0006949928546 0.0005366396646)
(0.007822492418 0.0004425169339 0.0006029758452)
(0.008814341923 0.0003069302245 0.0003158836225)
(0.008053019071 -0.0003942043653 -0.0006122095956)
(0.005942882781 -0.0001541068195 0.0001689460847)
)
;

boundaryField
{
    flow
    {
        type            zeroGradient;
    }
    obstacle
    {
        type            calculated;
        value           nonuniform List<vector> 0();
    }
    frontAndBack
    {
        type            empty;
    }
    procBoundary2to0
    {
        type            processor;
        value           nonuniform List<vector> 
31
(
(0.006788729553 0.0001686082865 0.0001943129953)
(0.007119263015 -0.0003873318124 0.0005173130883)
(0.004127674824 -0.0004876300378 7.732046125e-05)
(0.009973664359 -0.0005269822598 0.0008274423839)
(0.01357710319 -3.502691582e-05 0.0004913600871)
(0.007574839465 0.0004960500215 0.0005767722703)
(0.005121396226 -4.632135495e-05 0.0006807816848)
(0.008770038777 0.0001137843873 0.000463154321)
(0.006391271084 0.000160190303 0.0003144543322)
(0.007729351671 -5.790476138e-05 -2.466519804e-05)
(0.01090302135 -0.0002839130854 -0.0005598705364)
(0.006075838829 0.0001394759854 0.0005579519101)
(0.003845908251 7.342990915e-05 -1.249032024e-05)
(0.004576713438 -0.0003134167537 -0.0002357047549)
(0.01111790107 0.0004617421204 -8.434828655e-05)
(0.004919684954 0.0003007487631 0.0005654018041)
(0.01288148403 0.0005967530687 -4.452039835e-05)
(0.006400301094 0.000304082601 0.0006601707239)
(0.008173107531 2.27565809e-06 0.0001307308697)
(0.004905413421 0.0001913068942 0.0002343369303)
(0.009145606759 -0.0002990271232 -0.000651806807)
(0.006428847589 0.0001265225567 0.0009182519927)
(0.006066813558 -0.0004038938407 -0.0002305171674)
(0.01189442824 -0.001230963864 -2.12448452e-05)
(0.008546929129 0.001083272634 5.454630686e-05)
(0.01197411509 0.0001561123437 -0.0008391683092)
(0.01379148995 -0.0008972034409 0.00054882)
(0.008374841604 -7.367131328e-05 -0.0004162992555)
(0.006824824584 -0.00096451349 0.0001799815348)
(0.007090779485 0.0002580208615 0.0006412307121)
(0.007090779485 0.0002580208615 0.0006412307121)
)
;
    }
    procBoundary2to3
    {
        type            processor;
        value           nonuniform List<vector> 
19
(
(0.01292837331 0.0003266621891 0.0003135667001)
(0.007356324485 -0.0007002399064 0.0004026574076)
(0.0150853737 -0.0003631354444 -0.0002676592183)