/*--------------------------------*- C++ -*----------------------------------*\
| =========                 |                                                 |
| \\      /  F ield         | OpenFOAM: The Open Source CFD Toolbox           |
|  \\    /   O peration     | Version:  2406                                  |
|   \\  /    A nd           | Website:  www.openfoam.com                      |
|    \\/     M anipulation  |                                                 |
\*---------------------------------------------------------------------------*/
FoamFile
{
    version     2.0;
    format      ascii;
    arch        "LSB;label=32;scalar=64";
    class       volVectorField;
    location    "0.012";
    object      momentumMean;
}
// * * * * * * * * * * * * * * * * * * * * * * * * * * * * * * * * * * * * * //

dimensions      [1 -2 -1 0 0 0 0];

internalField   nonuniform List<vector> 
546
(
(0.006337689032 2.902937179e-06 5.996880529e-07)
(0.008343348423 6.558996191e-06 -2.847310026e-06)
(0.008365017535 1.187969318e-05 3.338917617e-06)
(0.008339932903 1.397446094e-05 1.850658149e-06)
(0.008326948217 2.454810862e-06 -2.374136103e-06)
(0.008331836481 -3.144839157e-06 4.791665595e-06)
(0.008333711824 2.128810749e-06 7.81447028e-06)
(0.008319585436 -2.712383e-06 2.737679879e-06)
(0.008296018724 -9.853613142e-06 2.723005578e-06)
(0.008348125678 -1.066550468e-05 -3.509646351e-06)
(0.008353245293 -8.26331942e-06 -1.57306473e-05)
(0.008397165511 2.429326271e-06 -9.697466823e-06)
(0.008385150628 9.419215736e-06 -7.167872256e-06)
(0.00832014956 8.521692233e-06 4.767058395e-07)
(0.008333445832 8.795589668e-06 5.234689049e-06)
(0.008326508879 9.701834872e-06 -6.717461321e-06)
(0.008322174207 -6.944404689e-07 -1.470884024e-05)
(0.008335704364 -1.121988008e-05 -9.273954607e-06)
(0.008290070815 9.810997917e-07 -8.717766376e-06)
(0.008267814225 8.999295298e-06 -1.076622599e-05)
(0.006370869122 4.059628974e-06 7.846399861e-06)
(0.008344557286 4.791668573e-06 1.005691749e-05)
(0.008362023162 6.188570511e-06 1.447889582e-05)
(0.008397457518 -1.023203685e-06 3.510082515e-06)
(0.008385148835 7.038845797e-06 1.871239169e-06)
(0.008369468921 6.895896902e-06 -7.350190475e-06)
(0.008357147551 -9.175450674e-06 -1.264804486e-05)
(0.008361893652 -1.499061047e-05 -1.377226948e-05)
(0.008330460811 -9.166234609e-06 -1.214634281e-05)
(0.008312313043 -5.62383294e-08 -3.107141629e-06)
(0.008326741913 6.875323913e-06 -2.00990719e-06)
(0.00830933641 1.159204393e-06 -2.547474848e-06)
(0.008333384914 -3.137904712e-06 -1.305882348e-05)
(0.008319148439 1.618178269e-06 -1.326461247e-05)
(0.008344587265 1.186146524e-05 -9.026280115e-06)
(0.008314531561 8.7733833e-06 1.237428251e-06)
(0.008321177195 1.257682075e-05 5.070213999e-06)
(0.00834687587 1.638312137e-05 -1.059865781e-06)
(0.008365958564 8.165378767e-06 3.929941665e-06)
(0.008349973274 7.825416465e-06 5.827621093e-06)
(0.006330900411 -1.856417392e-07 -1.075710419e-05)
(0.008324998582 -5.204301968e-06 -1.476462668e-05)
(0.008313189014 -1.111232234e-05 -6.46973024e-06)
(0.008287708933 -1.781549109e-05 -4.339765273e-06)
(0.008309939517 -1.280287181e-05 1.226604468e-06)
(0.008321905099 -1.087964776e-05 6.415910286e-06)
(0.008345636146 5.860182344e-06 5.400632591e-06)
(0.008356796473 1.77708393e-05 7.412351892e-06)
(0.008337752917 1.802218273e-05 4.524910144e-07)
(0.008354148715 1.126464598e-05 -3.928670149e-06)
(0.008333235497 1.041322884e-05 -7.256906413e-06)
(0.008331577353 1.137369629e-05 -4.036706328e-06)
(0.008287065066 9.363779256e-06 3.144788813e-06)
(0.008275301727 8.285418586e-06 3.599056528e-06)
(0.008295407738 -5.839815627e-07 4.904552091e-07)
(0.008312695923 2.745564555e-06 -7.076279518e-06)
(0.008290323795 -1.071573083e-06 -5.866537255e-06)
(0.008281596814 1.854547643e-06 -2.538833858e-07)
(0.008274770566 5.007396514e-06 -7.75702595e-07)
(0.00827763941 -9.384224548e-06 -9.93932267e-06)
(0.006363580167 1.857705709e-06 3.471686854e-06)
(0.00836469155 -2.072342726e-06 5.22455509e-06)
(0.008354462963 -1.94732322e-06 2.395595829e-06)
(0.008296800464 4.737134359e-06 4.660863284e-06)
(0.008314209597 3.612640481e-07 2.477435051e-06)
(0.008288155008 3.830700183e-06 7.929088217e-06)
(0.008277108978 -4.744548247e-06 5.825578507e-06)
(0.008277052902 -7.078829698e-06 3.459697591e-06)
(0.008334336654 -9.565853897e-07 5.009767921e-06)
(0.008296574002 4.291852712e-06 8.042606147e-06)
(0.008333840534 -1.643651032e-06 4.929872158e-06)
(0.008361303418 -2.612884969e-07 9.735157151e-06)
(0.008415798857 8.203409935e-06 -6.637330582e-07)
(0.008379439282 1.101562389e-05 1.682996499e-06)
(0.008358065834 1.710417041e-05 5.795079795e-06)
(0.008320983184 1.253258152e-05 4.474158582e-06)
(0.008319325895 1.317056395e-05 6.894328603e-06)
(0.008313746446 4.25296041e-06 5.866147846e-06)
(0.008367462564 -4.664469098e-06 4.289239606e-06)
(0.008370237075 -8.127996094e-06 9.044979051e-06)
(0.006358744745 -1.554147288e-06 -8.508849764e-06)
(0.008346387979 8.441584008e-06 -7.508620879e-06)
(0.008321057674 1.439861749e-05 -5.298700617e-06)
(0.00831444659 6.208062744e-06 -1.297815295e-05)
(0.008306763367 1.098951953e-05 -9.562678552e-06)
(0.008322543555 1.144229869e-05 -1.039418062e-05)
(0.00830143542 8.40817196e-06 -7.335524734e-06)
(0.00831377114 4.294947715e-06 7.013303055e-06)
(0.008262532587 -6.330373962e-06 4.012218281e-06)
(0.008232287328 -9.156188541e-08 5.311864618e-06)
(0.008241199591 9.567457326e-06 3.867130643e-06)
(0.008201129353 7.112765482e-06 5.224711586e-06)
(0.00822990674 3.688816391e-06 6.980772515e-06)
(0.008274227839 9.318099317e-07 1.563159148e-06)
(0.008331892252 -6.751563572e-06 -3.017467292e-06)
(0.00836861747 -4.594915028e-06 2.185506333e-06)
(0.008402559543 -1.371321434e-05 3.919400606e-06)
(0.0084000844 -1.10589171e-05 3.026529734e-06)
(0.008372067211 -7.157253181e-06 3.78863554e-06)
(0.008343740422 1.429678979e-06 5.382894259e-06)
(0.006346129745 7.73250893e-06 -5.171536608e-06)
(0.008346708369 1.304762871e-05 -8.438736862e-06)
(0.00832876264 9.614380044e-06 -5.298973326e-06)
(0.008333038383 1.978181816e-05 1.184864181e-06)
(0.008377987926 1.374469891e-05 6.450850733e-06)
(0.00838601276 1.348668984e-05 9.672386059e-06)
(0.008354060217 1.063444242e-05 7.080852239e-06)
(0.008344162264 3.17606375e-06 -5.271135765e-06)
(0.0083797034 1.194686019e-05 2.449192141e-06)
(0.008396778681 -3.565532138e-06 2.546839124e-06)
(0.008409935046 -1.297088869e-05 2.929852329e-06)
(0.008382381475 -1.580390789e-05 -2.050956898e-06)
(0.008377603209 -1.542697927e-05 -3.84377773e-06)
(0.008344554495 -1.763309475e-05 5.767528303e-06)
(0.008337983518 -1.237358522e-05 5.516332777e-06)
(0.008348663105 -1.428606073e-05 -9.080388511e-07)
(0.00832864138 -8.016534553e-06 -2.580861953e-06)
(0.008295011762 -3.336214256e-06 -5.188671888e-06)
(0.008325447544 2.084963665e-06 3.807072907e-07)
(0.00834747321 -1.554136763e-06 -4.337377674e-06)
(0.006358944278 5.849365323e-06 4.399697907e-06)
(0.008337117075 8.35984307e-06 4.1845196e-06)
(0.008367963309 3.404691506e-06 3.448663001e-06)
(0.008372995857 -1.159834269e-06 -5.005745977e-06)
(0.008328729226 -9.265338474e-06 -1.164503788e-05)
(0.008337019881 -7.939675227e-06 -1.058653706e-05)
(0.008345294859 -5.303775623e-06 -6.525083361e-06)
(0.008378728081 1.757058616e-06 -5.074984853e-06)
(0.008377082626 1.753928325e-06 -6.005765353e-06)
(0.008384087139 -1.142946349e-06 -3.244340956e-06)
(0.008393549299 5.929079021e-06 3.932257599e-06)
(0.008407414367 1.12507507e-05 9.723464266e-07)
(0.008407876691 3.003544127e-06 -7.460741002e-06)
(0.008368018915 1.458985334e-06 -6.22336033e-06)
(0.008341991479 3.257801878e-06 -6.177915271e-06)
(0.0083436735 2.678016209e-06 -6.17829189e-06)
(0.008350778261 -5.491449977e-07 1.149024212e-06)
(0.008325908943 1.585643323e-06 -2.062394432e-06)
(0.008316765681 -1.085684157e-06 -3.152072687e-06)
(0.008305873347 -1.556172399e-06 -6.046202723e-06)
(0.006352059393 -7.493407034e-06 5.677659086e-06)
(0.008375562483 -1.025385123e-05 -3.184439926e-06)
(0.008376553309 -1.219717933e-05 1.215359862e-06)
(0.008364782725 -2.936195854e-06 1.570988065e-06)
(0.008386090779 -8.38780829e-06 1.260026087e-05)
(0.00836413076 -5.112235846e-06 3.042992538e-06)
(0.008393648456 3.585047526e-06 -9.20325556e-06)
(0.008374818338 5.17050813e-06 -9.235739737e-06)
(0.008373679266 -2.328293708e-07 -1.434875487e-05)
(0.008358871701 1.150331861e-05 -1.076700233e-05)
(0.00836264851 1.070084707e-05 -1.149576485e-05)
(0.008309128588 3.455964142e-06 -1.85662726e-05)
(0.00831567154 -8.091706858e-08 -6.435040284e-06)
(0.008327140135 -4.32780084e-07 -1.205991707e-05)
(0.008333071119 1.979511103e-06 -5.323462362e-06)
(0.008335720187 4.566894043e-07 -5.929857627e-06)
(0.008351038381 -3.395942776e-06 -8.128750087e-06)
(0.008380134447 -2.518929525e-06 -1.376485563e-05)
(0.008401435894 -5.293735307e-06 -1.696420478e-05)
(0.008392395841 -6.895425326e-06 -1.733067036e-05)
(0.006358919341 -6.050800713e-06 -9.48636272e-07)
(0.008337421445 -1.628509256e-05 -2.470409554e-06)
(0.008304363421 -2.419363306e-05 -1.809658416e-06)
(0.008331979505 -1.644006875e-05 -8.777866696e-06)
(0.008324000651 3.062010954e-06 -7.200755188e-06)
(0.008284673871 1.058857681e-05 -2.554254634e-07)
(0.008275444171 7.650727688e-06 4.888749987e-06)
(0.008317529895 -4.889651032e-06 6.723400665e-06)
(0.008291053127 9.020813803e-07 1.031089849e-05)
(0.008341139685 -4.734172435e-06 -1.784191789e-06)
(0.008366429055 -4.777348028e-06 3.780627853e-06)
(0.008378986413 -5.287626413e-06 8.433748823e-06)
(0.008390548453 2.979000396e-07 9.260420065e-06)
(0.008388759959 4.461373558e-06 2.609649085e-06)
(0.008350189872 3.136904636e-06 -8.468060997e-07)
(0.00830210735 6.768938968e-06 -7.773270284e-06)
(0.008315063628 -5.85972598e-06 -1.212016013e-06)
(0.008300065747 -9.123710011e-07 -1.86069288e-07)
(0.008295866767 1.492875275e-06 3.668064002e-06)
(0.008296878005 2.007641508e-06 6.615837048e-06)
(0.006329790897 -3.324995481e-06 -5.112907396e-06)
(0.008290147242 7.890753398e-06 -1.540391487e-07)
(0.008302651436 7.304807489e-06 -2.057020358e-06)
(0.00828999009 -3.392551443e-06 -6.502855143e-07)
(0.00828938406 -7.585807009e-06 2.105156428e-06)
(0.00830466788 -7.719970887e-06 2.025822411e-06)
(0.008316082528 -4.848600791e-06 4.323480631e-06)
(0.008321608782 -4.042913496e-06 -6.568688127e-07)
(0.008309462304 -4.561320816e-06 -2.729853675e-06)
(0.008278766638 -9.617641305e-06 -1.981399046e-06)
(0.008242508978 -3.685506217e-06 -5.596494382e-06)
(0.00824985092 8.627734981e-06 -8.982588318e-06)
(0.008276845404 6.115811145e-06 -1.600492664e-05)
(0.008303961874 8.627152951e-06 -1.463945866e-05)
(0.008316959651 4.318638157e-06 -4.896155347e-06)
(0.008328197638 7.551935539e-06 -6.094462764e-06)
(0.008318981791 1.58511561e-05 -1.028389328e-05)
(0.008278294147 1.924048274e-05 -4.899389867e-06)
(0.008263997031 1.672898381e-05 -3.824862012e-06)
(0.008232914489 8.17951822e-06 -9.014990338e-06)
(0.006373164975 5.624233404e-06 -3.300689356e-06)
(0.00835681503 7.701886654e-07 -6.278279846e-06)
(0.008354758891 9.957159319e-06 -6.601700075e-07)
(0.008325254353 3.344869645e-06 3.718024849e-06)
(0.008317527561 -1.712140199e-06 -8.297451193e-06)
(0.008283374186 -1.129636045e-05 -8.062217397e-06)
(0.008315197679 -8.069915087e-06 -5.549536339e-06)
(0.008275084704 -2.448045832e-06 -8.189725641e-06)
(0.008317151746 3.627960587e-06 -6.719215734e-06)
(0.008331704114 8.608635662e-06 -4.915186856e-06)
(0.008318912762 1.348437385e-06 -3.039596885e-06)
(0.008305131341 -2.2780253e-06 2.692887488e-06)
(0.00830003513 4.465185539e-07 -4.352910573e-07)
(0.008283371944 -5.773075411e-07 5.197666535e-07)
(0.008278407953 1.538818738e-06 -5.006340258e-06)
(0.008295358783 3.99020775e-06 6.488808623e-06)
(0.008315730708 1.080416659e-05 -5.298109118e-07)
(0.008348988915 3.844271654e-06 -5.978958121e-06)
(0.008391266197 1.144813549e-05 -3.139361338e-06)
(0.008408042445 1.399605701e-05 -1.097125411e-06)
(0.00633105372 2.9920623e-06 4.77698314e-06)
(0.008353007286 5.910409995e-06 1.843971875e-06)
(0.00833445757 -2.157973589e-06 -9.701873861e-06)
(0.008336845058 4.404215398e-06 -1.390647162e-05)
(0.008329738733 1.85466279e-06 -1.192249329e-05)
(0.008312773307 6.464188937e-06 -1.27712253e-05)
(0.008328079457 1.550240908e-06 -1.638069378e-05)
(0.008302714579 -5.633492267e-06 -1.836264169e-05)
(0.008272942544 -7.769281585e-06 -1.121021961e-05)
(0.008282247367 -2.99261457e-06 -1.367611665e-05)
(0.008280006175 -3.029747869e-06 -1.919948414e-05)
(0.008313300597 1.762415921e-06 -1.731596653e-05)
(0.008311952243 6.206052984e-06 -1.005656393e-05)
(0.008336592174 -3.20304123e-06 -2.005943372e-06)
(0.008362802208 -1.210933371e-06 -7.748211098e-06)
(0.008333552026 -6.503198717e-06 -8.737327031e-06)
(0.008348617171 -2.195510706e-06 -8.759825991e-06)
(0.008279987316 -5.600022736e-08 8.834703602e-07)
(0.008329250488 -3.445937598e-06 -5.133114336e-06)
(0.00833521179 9.042303305e-07 -2.373507141e-06)
(0.006378185565 2.746368369e-06 -1.78753107e-05)
(0.008370254808 -9.090230593e-07 -2.293095729e-05)
(0.00838536086 5.876076321e-06 -2.114876468e-05)
(0.008347223966 8.044994339e-06 -1.855656718e-05)
(0.00837211592 6.657171941e-06 -1.77523048e-05)
(0.008358119811 -6.8173732e-07 -1.601857655e-05)
(0.008346374301 1.904673295e-06 -1.089999614e-05)
(0.008338228968 4.712094621e-06 -7.668884352e-06)
(0.008358945679 3.723811877e-07 -6.992833686e-06)
(0.008366796786 -1.092521508e-05 -1.607375538e-06)
(0.008345678787 -8.293338501e-07 2.039781982e-06)
(0.008376707234 -9.413227435e-06 3.074286429e-06)
(0.008387945284 -9.793707444e-06 -5.663776284e-06)
(0.008363492069 2.407770154e-06 -9.915331607e-06)
(0.008366409322 6.546200644e-07 -5.930781562e-06)
(0.00839460257 3.54124145e-06 -2.898100236e-06)
(0.008323097608 -1.266013218e-06 -7.977551223e-06)
(0.008386707025 -1.871675012e-06 -6.263966587e-06)
(0.008377057881 4.647200474e-06 -8.085577554e-06)
(0.00836221027 9.059165044e-06 -4.82776832e-06)
(0.006338535497 2.230309163e-06 -1.724073686e-05)
(0.008314965056 -5.112418288e-07 -1.568361838e-05)
(0.008325277696 -3.944222803e-06 -1.359836551e-05)
(0.008321391374 -2.339576474e-06 -1.546214529e-05)
(0.008320914009 -7.090463883e-06 -8.166022072e-06)
(0.008343921657 7.359400384e-06 -8.647701805e-06)
(0.008361280588 6.958829352e-06 -4.09802661e-06)
(0.008396403472 7.332625355e-06 -5.965779853e-06)
(0.008389416066 1.397139566e-06 -1.128710479e-05)
(0.008377879011 8.404534063e-07 -6.500550568e-06)
(0.008327091253 -5.402220752e-06 -1.35804286e-05)
(0.008276134639 -3.600326794e-06 -9.616194933e-06)
(0.008247761122 -3.239520832e-06 -1.716068274e-05)
(0.008281278628 3.536471563e-07 -6.79387072e-06)
(0.008290645109 5.399313476e-06 -8.03730601e-06)
(0.00829176985 6.90149295e-06 -1.176506812e-05)
(0.008318977372 -1.778674371e-06 -1.452665797e-05)
(0.008304463192 -7.075305732e-07 -1.570086102e-05)
(0.008308562588 -5.5133705e-06 -9.172025838e-06)
(0.008318856719 -6.666976029e-06 -8.675477079e-06)
(0.006353999362 -4.198449504e-06 -7.186331278e-06)
(0.008353198836 -1.822503579e-06 -1.076946437e-05)
(0.00833540609 -2.891753953e-06 -7.427269912e-06)
(0.008292045562 -1.392434341e-06 2.125752442e-06)
(0.008322689559 -6.0613154e-07 2.186617553e-06)
(0.008304821145 2.042731754e-06 1.113703603e-06)
(0.008264659073 -1.185613161e-05 1.794273382e-06)
(0.008299203843 -1.248638052e-05 5.696828577e-06)
(0.008287807036 1.520133906e-07 4.021366916e-06)
(0.008284566031 1.698724419e-05 5.900225535e-06)
(0.008280200488 1.741349919e-05 4.327010223e-06)
(0.008312239972 1.511899709e-05 -2.798001225e-07)
(0.008341131659 1.119046986e-05 1.196280984e-05)
(0.008294909649 -8.010623008e-06 1.001745911e-05)
(0.008299341873 -1.232260986e-05 1.602025825e-06)
(0.008287884331 -1.411152721e-05 -8.187290986e-07)
(0.008276048331 -1.107886937e-05 2.390669824e-06)
(0.008264834415 -7.401090417e-06 -1.242340497e-06)
(0.008298031316 -1.014110646e-05 -9.585260615e-06)
(0.008311091423 -7.12709054e-06 -1.283545383e-05)
(0.006327368863 6.483092789e-06 -4.959564805e-06)
(0.008306934998 9.510758103e-06 -5.885286945e-06)
(0.008314970455 9.122139588e-06 -6.73143917e-06)
(0.008333365531 4.274780847e-06 -3.409762168e-06)
(0.008378464974 1.404180065e-06 -4.740685261e-06)
(0.00834216819 8.258558243e-06 -7.209459672e-06)
(0.008303721377 1.054236538e-05 -7.187449356e-06)
(0.008290453914 1.628563917e-05 -5.330804713e-06)
(0.008285004815 4.794216147e-06 -9.570957582e-06)
(0.008314557361 -7.536379642e-06 -1.15872207e-05)
(0.008327968951 -7.424329533e-06 -8.272519523e-06)
(0.008309935524 -5.277448117e-06 -5.844231062e-06)
(0.008303035057 -2.03080008e-06 -1.638750604e-05)
(0.00830869368 9.107275414e-06 -1.63860342e-05)
(0.008349445429 8.372930356e-06 -1.266549265e-05)
(0.00836041899 -2.020545672e-06 -7.779381806e-06)
(0.008352578115 -6.487478393e-06 3.647367806e-06)
(0.008318818258 -1.139461394e-05 -2.304561435e-06)
(0.008285377475 -5.928395558e-07 -1.040755106e-06)
(0.008293029178 -2.3202435e-06 1.453601646e-06)
(0.006375996229 4.107870171e-06 -1.488971221e-06)
(0.008410082086 2.531362319e-06 -3.422442497e-06)
(0.008407217213 2.101736247e-06 -8.196920198e-06)
(0.008354381974 3.701657721e-06 -9.585166422e-06)
(0.008308691086 8.188181704e-06 -1.104522266e-05)
(0.008366778766 7.847487031e-06 -9.43084445e-06)
(0.00837802101 6.017791999e-06 -1.343784083e-05)
(0.008398705685 3.889045939e-06 -1.282790339e-05)
(0.008381347061 8.904875166e-06 -6.975118075e-06)
(0.008421157826 5.069841579e-06 -4.641987613e-06)
(0.008384772127 2.690544844e-06 -4.251979481e-06)
(0.008352494666 4.342885938e-07 -4.087165964e-06)
(0.008363438485 1.027274029e-06 -7.104125197e-06)
(0.008319121986 1.803970327e-06 -3.904101229e-06)
(0.008325880073 1.386277435e-06 -4.888706903e-06)
(0.008300799784 1.166346422e-05 -5.857653801e-06)
(0.008309421607 2.49002374e-05 -1.240551062e-05)
(0.008304041223 1.380453369e-05 -2.017010775e-06)
(0.008336728859 2.933120284e-06 -4.500357366e-06)
(0.008318768433 1.018917342e-06 -9.992764638e-06)
(0.006234501359 1.906756794e-05 -1.897375443e-06)
(0.008168184343 2.371924996e-05 -2.353163181e-06)
(0.008178170303 2.998890866e-05 4.789802067e-06)
(0.008212948289 2.85858663e-05 -1.195392306e-06)
(0.008215739836 2.910897634e-05 -4.426219545e-06)
(0.008221285881 2.968220374e-05 -6.382405533e-06)
(0.008235205933 2.290594982e-05 -4.546004994e-06)
(0.008222158872 2.466558599e-05 -1.905693579e-06)
(0.008212887106 2.671227303e-05 -9.714230087e-06)
(0.008203603396 3.400374141e-05 -1.391342047e-05)
(0.008255681038 4.237393941e-05 -1.73187066e-05)
(0.008256356161 4.506635071e-05 -6.738004492e-06)
(0.008272018732 3.409362393e-05 -1.469409328e-06)
(0.008261760702 2.629148042e-05 1.38061127e-06)
(0.008247369477 3.034752721e-05 -1.018193375e-06)
(0.008252835703 2.997809067e-05 2.952823772e-06)
(0.008256871535 1.990540532e-05 1.740037333e-06)
(0.008278853582 3.055548276e-05 -9.213621402e-07)
(0.008298375923 3.099357137e-05 1.657638474e-06)
(0.008299122632 3.251280759e-05 6.274331246e-06)
(0.008344304914 2.4057905e-05 -3.605306537e-06)
(0.008361354159 1.701484337e-05 -7.884013125e-06)
(0.008374271463 1.520371516e-05 -1.110441158e-05)
(0.008352053568 1.660053936e-05 -1.189961683e-05)
(0.00835616543 2.639814955e-05 -1.037106798e-05)
(0.008393321134 5.114832963e-05 -2.845687959e-06)
(0.008274465532 9.330869688e-06 -1.65156952e-06)
(0.008308465671 1.218090621e-05 -2.995523524e-06)
(0.00832163953 9.345504636e-06 -7.508586298e-06)
(0.008276746232 8.533784854e-06 -1.044670174e-05)
(0.008320126883 -1.820724569e-06 -6.604227993e-06)
(0.008342955025 3.14688212e-06 4.861299827e-06)
(0.008373955297 3.393593102e-06 7.937329426e-06)
(0.00837288696 2.175339707e-05 1.088541377e-05)
(0.008351308138 2.416206075e-05 4.465794375e-06)
(0.008344636969 2.333527535e-05 2.078885425e-06)
(0.008363120103 3.807515444e-06 3.376533469e-06)
(0.008377273954 -2.946903056e-06 6.059928119e-06)
(0.008396018332 1.561943321e-06 1.764421037e-05)
(0.008403065649 -5.631479876e-06 1.430299882e-05)
(0.008364590743 -1.731152327e-06 1.035469643e-05)
(0.008340858999 1.227836443e-05 8.935896738e-06)
(0.008347707096 1.129365602e-05 6.68961995e-06)
(0.008381734182 1.396662804e-05 1.260114561e-05)
(0.008387414366 1.130814729e-05 1.020735675e-05)
(0.008395933051 2.393330751e-05 1.117595384e-05)
(0.008306632527 -1.470728774e-06 -1.053137791e-05)
(0.008274470233 -8.055355997e-07 -5.154968394e-06)
(0.008275292015 -2.175884233e-06 -4.605874495e-06)
(0.008287894875 -5.424150805e-06 -5.923958173e-08)
(0.008303376885 -1.431940664e-05 8.47030313e-07)
(0.008295200826 -7.364371673e-06 -3.599095695e-06)
(0.008302106977 -2.54211842e-06 -3.143930606e-06)
(0.00831741867 2.430819443e-06 -1.22340262e-05)
(0.008338130232 1.482864878e-06 -9.179862143e-06)
(0.008357830447 4.480499255e-06 -7.22578924e-06)
(0.008388968722 -1.282493899e-05 2.214217445e-06)
(0.008414404564 -5.53834985e-06 3.713783039e-06)
(0.00837424515 4.771975964e-06 -1.634938238e-06)
(0.008417983002 8.203592858e-06 -7.675178882e-06)
(0.00841122268 9.355349782e-06 -1.084873066e-06)
(0.008373508783 9.811316648e-06 -1.137552042e-06)
(0.008343934907 -2.221901397e-06 4.474541815e-06)
(0.008335444278 -7.529050317e-06 8.650730196e-06)
(0.008273847594 1.096243586e-06 -1.450462061e-06)
(0.00831608641 3.235274717e-06 -7.07830409e-06)
(0.008355735412 -1.237734709e-06 1.289516887e-05)
(0.008316471049 1.465003853e-06 1.262624978e-05)
(0.008318316181 -4.453012962e-06 1.205949682e-05)
(0.008299950879 5.06477344e-06 6.415582381e-06)
(0.008310113857 4.99240096e-06 -2.253362065e-06)
(0.008305568224 -4.472843329e-06 -2.272446991e-06)
(0.008345538308 8.021036418e-06 -6.119965951e-06)
(0.008410513556 8.355564934e-06 -7.778054532e-06)
(0.008360688603 5.031058193e-06 3.364719487e-06)
(0.008328618794 1.275080564e-05 5.274703204e-06)
(0.008334263852 1.802779716e-06 -7.001258766e-06)
(0.008342598607 3.730865803e-06 -1.138829761e-05)
(0.008355464888 6.77711172e-06 -1.570672402e-05)
(0.008360477768 -8.761306856e-07 -1.068818595e-05)
(0.008418270183 -2.602376357e-06 -9.981189899e-06)
(0.008420489809 5.017637712e-06 -9.521646217e-06)
(0.008374536921 8.642202052e-06 -1.074372702e-05)
(0.008366905497 8.898888978e-06 -1.506465369e-05)
(0.008407636579 1.820432858e-05 -1.549521002e-05)
(0.008409039797 1.580037019e-05 -2.46507768e-05)
(0.008305025659 1.860847391e-06 -4.885606243e-06)
(0.008316435121 -6.685887063e-06 -9.954701946e-06)
(0.008303574832 -2.098713139e-05 -1.16018423e-05)
(0.008328072485 -1.307527135e-05 -1.467021616e-05)
(0.008288665194 -5.32399977e-06 -1.995771504e-05)
(0.008286829314 -8.98907625e-06 -1.856725611e-05)
(0.008323420545 -3.65767361e-06 -1.547028208e-05)
(0.00834005839 1.370168261e-07 -1.528413498e-05)
(0.008286003287 2.83659472e-06 -1.129732971e-05)
(0.008281103726 5.061260466e-06 -5.261244987e-06)
(0.008416375886 -1.670378272e-06 -1.012095031e-05)
(0.008417235314 1.384671106e-06 -9.684055781e-06)
(0.008362725051 4.526934135e-06 2.504058408e-06)
(0.008285611236 5.917048959e-06 4.57982053e-06)
(0.008258241637 6.262297213e-06 3.520242821e-06)
(0.008241302817 1.176699153e-05 4.335788502e-06)
(0.008247888344 6.108128727e-06 -1.57837735e-06)
(0.00821495701 1.395585338e-05 -4.51305024e-06)
(0.008233306517 2.88885307e-08 -1.218945839e-05)
(0.008236718423 -4.865056944e-06 -1.300588286e-05)
(0.008217770811 5.200073296e-06 -4.210816703e-08)
(0.008212952289 1.102774135e-05 -2.547398762e-06)
(0.008226079418 2.104152639e-05 -3.40420643e-06)
(0.008195775461 2.233750317e-05 -1.702915336e-06)
(0.008244058518 1.945907742e-05 5.409296382e-08)
(0.008263507167 1.538834836e-05 -5.105098055e-06)
(0.008284205222 -9.020743969e-07 2.415055805e-06)
(0.008235533058 -4.427093269e-06 1.031816388e-05)
(0.008261512148 -4.558223835e-06 1.265689464e-05)
(0.008277238934 -7.369612455e-07 7.229893438e-06)
(0.008262512097 1.275071842e-05 -6.561754828e-06)
(0.00832746093 1.485859093e-05 8.063587611e-08)
(0.008327964151 1.372498709e-05 -1.07960517e-05)
(0.008377596452 8.00726149e-06 -5.845133364e-06)
(0.008368139451 -4.014816338e-07 -8.001907707e-06)
(0.008370611469 -5.91811383e-06 -4.237602019e-06)
(0.008363488144 8.594779274e-06 -8.35399714e-06)
(0.008386535123 1.049870849e-05 -1.261626002e-05)
(0.008384959407 1.913905779e-05 -5.754320575e-06)
(0.008333031438 1.7923422e-05 4.841751551e-06)
(0.008401031867 1.110520222e-05 -4.333610178e-06)
(0.008366047844 -4.750315461e-06 -9.474373326e-06)
(0.008363380797 -8.632445134e-06 -6.053653999e-06)
(0.008374985588 -1.313182395e-06 -2.886730186e-06)
(0.008394901724 9.89049512e-06 -3.585561643e-06)
(0.008364138731 1.567568129e-05 -6.561198613e-06)
(0.008349997031 1.02028286e-05 -6.844969207e-06)
(0.008341422037 1.529029592e-05 -1.327865048e-06)
(0.008355798095 6.192282974e-06 -7.134277486e-06)
(0.00836225675 1.403896633e-05 -1.870645396e-05)
(0.008354975286 -1.027954992e-06 -3.031484339e-06)
(0.008357581257 5.556202662e-06 -2.118865357e-06)
(0.008354775433 8.914200128e-06 -2.866801943e-06)
(0.008320343992 1.150087334e-05 -2.461175744e-06)
(0.00830641228 1.063247969e-05 4.007401662e-06)
(0.008324336328 9.620984502e-06 8.465093933e-07)
(0.008349027895 1.128442592e-06 -2.588368181e-06)
(0.008395290592 -2.066478514e-06 -4.030513725e-06)
(0.008417265607 1.535306501e-06 -9.061713487e-06)
(0.008430915526 1.838073416e-06 -1.418735146e-05)
(0.008310137444 7.71586643e-06 -7.206127167e-06)
(0.008338986536 7.221107229e-06 -9.819964716e-06)
(0.008354105996 2.914605639e-06 -1.080421775e-05)
(0.008371177643 3.005752763e-06 -1.619649103e-05)
(0.008349308401 -6.375196265e-06 -1.25329917e-05)
(0.008384251686 -8.380524697e-06 -1.493047089e-05)
(0.008345624268 -1.25212998e-06 -1.007574923e-05)
(0.008343885754 -4.133257081e-06 -1.391144339e-05)
(0.008326101029 -3.294433816e-06 -1.231172551e-05)
(0.008321251585 -1.047210818e-05 -8.986758324e-06)
(0.008351162451 -9.449239803e-06 -3.462980247e-06)
(0.008367387224 -3.6082407e-06 -1.312020317e-06)
(0.008333241737 -2.324493039e-06 6.227087199e-07)
(0.008356800999 4.629454121e-06 -2.835972977e-07)
(0.008383441862 9.939574925e-06 3.93540798e-06)
(0.008346408516 1.390385863e-05 5.001900162e-06)
(0.008336470925 1.156930411e-05 5.189226936e-06)
(0.008337477329 5.795173194e-06 1.02596045e-05)
(0.008324028266 1.883015121e-05 1.367729951e-05)
(0.008281596057 1.582595992e-05 8.696218473e-06)
(0.008275865352 1.892710674e-06 -8.613042351e-06)
(0.008288926585 2.153853435e-06 -1.165425567e-05)
(0.008280900234 2.32906497e-06 -4.988071279e-06)
(0.00828849982 1.722944009e-07 -3.482437211e-06)
(0.008294029238 1.391623335e-06 1.753765827e-06)
(0.00829292675 -9.351651036e-07 -3.40144903e-06)
(0.008273911724 1.143548297e-05 -8.851979642e-06)
(0.00829050982 1.723964763e-05 -1.10792302e-05)
(0.008312788148 1.190421261e-05 -1.202573995e-05)
(0.008345773587 4.934911207e-06 -9.357979152e-06)
(0.008290296089 -5.653778583e-06 -1.16795696e-05)
(0.008302578213 -7.976627373e-06 -7.449529726e-06)
(0.00830306234 -9.00406997e-07 -1.241215166e-05)
(0.008308039218 -1.833438942e-06 -1.310336752e-05)
(0.008328006812 3.576567867e-06 -1.283534139e-05)
(0.008273217612 9.250750581e-06 -3.98431422e-06)
(0.008295155608 5.078859469e-06 -2.458517669e-06)
(0.00825612585 -4.450736808e-06 -1.065467944e-05)
(0.008273624287 -4.213682173e-06 -1.065260299e-05)
(0.008319325695 8.157771773e-06 -4.708226596e-06)
(0.00829288488 3.421038162e-06 -2.318925119e-06)
(0.008278493874 1.109333417e-06 -1.024620719e-06)
(0.0082738255 -6.495960547e-06 -6.028181069e-06)
(0.008255846362 -6.6718774e-06 -6.103360545e-07)
(0.008280765437 -3.990475057e-06 -9.01967956e-06)
(0.008320513883 -5.571286166e-06 -1.713830734e-05)
(0.008338591849 -5.160128995e-07 -6.964239268e-06)
(0.008389342257 -5.28791853e-06 -9.357521097e-07)
(0.008389367717 -1.350368656e-05 2.1653435e-06)
(0.008341453809 -1.086970106e-05 -1.893677621e-06)
(0.008286467209 2.906646446e-05 4.782728367e-06)
(0.008276718867 3.55567196e-05 -2.189941635e-06)
(0.008274093432 3.068255116e-05 7.519203744e-06)
(0.008333360335 2.817934058e-05 1.048292749e-05)
(0.00826056031 2.573066233e-05 4.570116746e-06)
(0.00825714415 2.57439457e-05 1.15679745e-05)
(0.008280421578 1.884261769e-05 1.765849997e-05)
(0.008206535028 1.908234312e-05 9.507730808e-06)
(0.008171558898 3.167033266e-05 7.547565925e-06)
(0.008233772286 2.877205898e-05 9.212360046e-06)
)
;

boundaryField
{
    flow
    {
        type            calculated;
        value           nonuniform List<vector> 
48
(
(0.006337689032 2.902937179e-06 5.996880529e-07)
(0.006370869122 4.059628974e-06 7.846399861e-06)
(0.006330900411 -1.856417392e-07 -1.075710419e-05)
(0.006363580167 1.857705709e-06 3.471686854e-06)
(0.006358744745 -1.554147288e-06 -8.508849764e-06)
(0.006346129745 7.73250893e-06 -5.171536608e-06)
(0.006358944278 5.849365323e-06 4.399697907e-06)
(0.006352059393 -7.493407034e-06 5.677659086e-06)
(0.006358919341 -6.050800713e-06 -9.48636272e-07)
(0.006329790897 -3.324995481e-06 -5.112907396e-06)
(0.006373164975 5.624233404e-06 -3.300689356e-06)
(0.00633105372 2.9920623e-06 4.77698314e-06)
(0.006378185565 2.746368369e-06 -1.78753107e-05)
(0.006338535497 2.230309163e-06 -1.724073686e-05)
(0.006353999362 -4.198449504e-06 -7.186331278e-06)
(0.006327368863 6.483092789e-06 -4.959564805e-06)
(0.006375996229 4.107870171e-06 -1.488971221e-06)
(0.006234501359 1.906756794e-05 -1.897375443e-06)
(0.006234501359 1.906756794e-05 -1.897375443e-06)
(0.008168184343 2.371924996e-05 -2.353163181e-06)
(0.008178170303 2.998890866e-05 4.789802067e-06)
(0.008212948289 2.85858663e-05 -1.195392306e-06)
(0.008215739836 2.910897634e-05 -4.426219545e-06)
(0.008221285881 2.968220374e-05 -6.382405533e-06)
(0.008235205933 2.290594982e-05 -4.546004994e-06)
(0.008222158872 2.466558599e-05 -1.905693579e-06)
(0.008212887106 2.671227303e-05 -9.714230087e-06)
(0.008203603396 3.400374141e-05 -1.391342047e-05)
(0.008255681038 4.237393941e-05 -1.73187066e-05)
(0.008256356161 4.506635071e-05 -6.738004492e-06)
(0.008272018732 3.409362393e-05 -1.469409328e-06)
(0.008261760702 2.629148042e-05 1.38061127e-06)
(0.008247369477 3.034752721e-05 -1.018193375e-06)
(0.008252835703 2.997809067e-05 2.952823772e-06)
(0.008256871535 1.990540532e-05 1.740037333e-06)
(0.008278853582 3.055548276e-05 -9.213621402e-07)