/*--------------------------------*- C++ -*----------------------------------*\
| =========                 |                                                 |
| \\      /  F ield         | OpenFOAM: The Open Source CFD Toolbox           |
|  \\    /   O peration     | Version:  2406                                  |
|   \\  /    A nd           | Website:  www.openfoam.com                      |
|    \\/     M anipulation  |                                                 |
\*---------------------------------------------------------------------------*/
FoamFile
{
    version     2.0;
    format      ascii;
    arch        "LSB;label=32;scalar=64";
    class       volScalarField;
    location    "0.012";
    object      overallT;
}
// * * * * * * * * * * * * * * * * * * * * * * * * * * * * * * * * * * * * * //

dimensions      [1 2 -2 0 0 0 0];

internalField   nonuniform List<scalar> 
546
(
293.2690333
303.7431899
299.6975271
300.2223745
299.6731664
298.4929075
298.462569
299.3221294
298.4923741
299.3897915
300.3833653
301.2195207
300.7688126
300.1066417
299.5050796
299.6029372
298.4951805
298.25735
298.8456229
300.0019879
294.7581833
303.5475796
299.9899651
300.8773456
300.4252643
300.3861449
300.8156852
300.3156988
300.3892177
300.0506118
298.7415817
298.1975203
299.8005855
300.4566872
300.9629408
300.7685471
301.5028466
302.0157253
301.0902265
300.7814893
294.0293505
304.1124817
299.2981547
299.6121958
301.3749014
302.4923491
301.7863689
301.597394
300.7369019
300.8082174
300.110741
300.6181116
299.6572231
299.4293511
299.807324
300.137875
300.1057243
299.3050105
299.9103649
299.7083649
296.2021634
304.9658228
300.728664
299.8112808
298.8264135
298.2278157
298.7690306
298.7633819
299.8831325
298.6977991
298.8514073
299.6445359
300.1790454
300.2802993
299.7192958
299.6059368
299.2495815
300.1779961
300.7011265
299.085127
293.6617858
303.5537712
300.2265464
301.2782673
300.4252511
300.4310743
300.0159918
299.367392
299.9623122
299.6777786
299.9422877
298.5199033
297.912687
298.8280043
298.5760782
299.8860298
299.9418275
299.8259356
299.4161736
300.0199622
295.8746404
304.6629051
299.0406649
298.784077
299.7854439
299.5665295
299.3613449
300.2910434
300.4009602
301.2248639
301.140959
300.5675695
301.3987803
301.3023201
301.8963749
301.617435
301.9225236
302.0502713
302.5296525
303.0404093
292.5152485
302.334828
299.7311259
300.5725833
301.5920271
301.3819423
302.0546925
302.5692939
301.092817
299.8388991
300.5187818
299.9177835
300.5760931
299.7459004
299.3457464
299.0514606
298.7855716
299.5214952
300.1207352
299.9237726
294.5231527
304.6696062
299.9434205
300.1194171
300.0663367
299.7908725
300.4800411
299.8701296
300.0861184
300.9316671
300.4815619
299.5454159
300.4786158
300.0091604
299.8851282
300.238625
300.3455267
299.5262627
299.5970335
300.1773648
294.7294294
304.1240718
300.3989094
300.9898038
300.68361
300.7367865
299.8247232
300.3758511
300.855186
301.3399224
300.8054549
302.6632287
301.9580309
301.7502283
301.3477499
301.6669456
301.3071418
301.7319795
301.8624127
302.4235881
294.5543074
304.7981427
299.7593115
298.4673234
297.7270099
297.9037858
298.2442817
299.7071428
300.3059201
300.5102239
300.9250714
301.0069209
300.5073048
301.4047967
302.0294826
300.9801137
301.4635521
302.3374119
300.2574702
298.617154
294.3775362
303.7787729
299.4066607
300.7811809
300.6743832
301.1078309
300.2042534
298.8530475
299.7252022
299.1313451
298.4527485
298.6124872
298.9904874
299.4744518
298.3059754
298.3678153
299.4714567
298.9492104
299.7783506
300.5044273
294.1076816
303.9852244
299.160634
300.4825461
300.0819932
300.011322
299.4291765
299.7566881
298.5143517
299.0115005
298.2884684
298.3620265
299.0865477
299.9742436
299.1888634
299.0553805
299.4055007
299.3721032
299.7249334
299.8333191
294.9474478
304.292447
299.9228861
300.664646
301.1087936
300.7624851
300.3830788
299.2349544
299.0104142
298.6181902
300.0805756
301.035347
301.1430801
299.7352597
299.6895727
301.0294066
300.1284524
300.6730159
300.9161516
301.3159092
293.3142512
303.4301993
300.6740367
300.3815312
300.5358963
300.2533866
300.5334988
302.3895779
302.8912808
303.5720056
300.5249009
299.5758519
299.1366918
300.4089992
301.6781465
300.6808905
300.3408902
299.8598352
299.6976721
299.3393376
296.4491474
306.0315921
300.8113572
300.9559797
301.5034447
302.5042239
303.0689883
303.2221637
302.5855843
302.8482499
302.3196463
302.6260672
301.9715445
301.5156676
300.3044931
299.8246381
301.1281418
301.6697312
301.5466743
300.6479163
293.0989634
302.1814026
297.8315213
300.4382083
300.6473054
300.3469233
300.6352412
298.2872261
297.6338225
298.7960981
299.7225807
299.5592467
299.8954448
300.0558935
299.8173645
299.3192927
299.264995
298.6859562
298.1240531
299.3918425
293.5357519
303.5910154
300.6296336
298.9282602
298.2346561
298.3085657
298.9461967
299.2730619
300.5344419
300.1287531
300.0241556
300.271725
300.4682822
300.5669428
300.6764686
300.3286554
299.6975718
299.4705909
299.6393583
298.6160087
294.8952384
302.4301443
298.9754118
298.8457745
298.0398298
298.3950247
298.7709041
299.0084335
298.2547191
298.2951857
297.9784291
296.5818558
297.8914257
296.3576207
296.899373
295.7527628
296.9339159
297.8618638
297.1461749
297.3223291
305.5981421
306.3102177
306.4491681
307.1854707
310.8451547
313.938599
300.2975769
301.6065677
301.6268638
302.9050668
303.6545252
304.1918057
304.1230562
306.5953476
306.0299758
308.6782722
299.9587546
300.9745201
300.6022117
301.0062641
302.3043349
303.9815971
303.6817342
304.9254603
305.7855225
308.179757
301.3541448
301.7230985
301.7726484
301.8746702
300.0532586
300.9337643
302.4615485
304.0516347
304.2631049
304.7411792
297.608972
298.8934677
299.5938897
300.260393
299.559223
301.2051409
302.0132336
300.8459042
301.9207812
302.4022215
300.5880653
299.9918162
300.4057034
301.3544778
301.2417568
301.2245948
302.5915385
303.3621075
303.2972807
303.445777
302.2148014
302.1986912
301.0349174
301.0501649
301.9548529
299.9320453
299.9884839
299.1645249
300.3529688
299.9364718
301.0329889
301.1300428
302.2064186
300.1969097
301.1114517
301.2113327
300.3646106
301.6404151
302.529182
302.1056697
299.7672543
301.1319419
300.7690807
301.0136646
302.4002625
301.244254
302.4597153
302.3647514
302.1142876
302.1548734
301.6204821
301.3108864
301.69978
300.2160607
300.6622674
300.6952249
299.92997
300.4396539
301.4739898
301.1939917
299.2160493
299.7352053
300.4983579
301.829966
300.1118848
301.0621281
301.1997656
301.1387485
301.2371213
301.2806964
300.6826203
300.1771487
300.4724383
300.6663769
300.8870497
300.5583597
300.4698773
300.6104704
299.9670018
300.516821
300.0000121
300.3881349
299.5704607
300.2152003
300.8339372
300.3405187
300.9017063
300.8965943
300.9611036
302.0388027
301.3069863
301.2238296
301.7554894
300.5344853
300.2700842
300.428975
301.2476798
301.4181806
300.9801873
299.8772668
299.3247978
299.8279103
299.3372947
300.2978885
301.0559229
299.8597729
299.1975915
300.0111837
299.1820584
299.8752015
299.941704
300.6744753
300.9641549
300.4393422
300.1010994
300.3108058
300.0918761
299.4046881
299.9478423
300.2588116
299.9556003
299.2345252
298.2607556
299.1014473
299.5232225
298.6462873
300.3718742
300.2235275
299.7629518
300.1573296
298.5912905
299.1784894
298.4477764
298.7304929
299.1067462
299.7962715
300.2381176
301.5278069
301.5965634
300.4889433
298.3626799
297.6960074
297.2354099
297.4232678
297.7646353
296.6984581
297.2696092
296.2275298
297.1940794
298.1717324
)
;

boundaryField
{
    flow
    {
        type            calculated;
        value           nonuniform List<scalar> 
48
(
293.2690333
294.7581833
294.0293505
296.2021634
293.6617858
295.8746404
292.5152485
294.5231527
294.7294294
294.5543074
294.3775362
294.1076816
294.9474478
293.3142512
296.4491474
293.0989634
293.5357519
294.8952384
294.8952384
302.4301443
298.9754118
298.8457745
298.0398298
298.3950247
298.7709041
299.0084335
298.2547191
298.2951857
297.9784291
296.5818558
297.8914257
296.3576207
296.899373
295.7527628
296.9339159
297.8618638
297.1461749
297.3223291
298.3626799
297.6960074
297.2354099
297.4232678
297.7646353
296.6984581
297.2696092
296.2275298
297.1940794
298.1717324
)
;
    }
    obstacle
    {
        type            calculated;
        value           nonuniform List<scalar> 0();
    }
    frontAndBack
    {
        type            empty;
    }
    procBoundary2to0
    {
        type            processor;
        value           nonuniform List<scalar> 
31
(
293.5570098
303.8372326
298.8337882
299.6656611
299.143788
299.609652
299.691788
300.7681323
300.7820898
300.5265188
300.668167
300.4468358
301.3193629
301.9119074
301.7755679
300.2588084
299.59336
300.731587
301.0940496
301.0977111
305.194274
307.8839042
310.4211159
313.308834
318.2120249
320.938034
299.4991935
299.7765265
302.2514695
303.8791865
303.8791865
)
;
    }
    procBoundary2to3
    {
        type            processor;
        value           nonuniform List<scalar> 
19
(
317.4306614
313.2850764
310.6566581
306.9206169
304.8051351
304.0863348
301.3322412
303.2724809
302.0867078
301.5134322
301.7906904
302.0199154
301.6067122
300.3833266
299.9359159
300.915612
300.8131466
300.1681149
298.8091659
)
;
    }
}


// ************************************************************************* //
