/*--------------------------------*- C++ -*----------------------------------*\
| =========                 |                                                 |
| \\      /  F ield         | OpenFOAM: The Open Source CFD Toolbox           |
|  \\    /   O peration     | Version:  2406                                  |
|   \\  /    A nd           | Website:  www.openfoam.com                      |
|    \\/     M anipulation  |                                                 |
\*---------------------------------------------------------------------------*/
FoamFile
{
    version     2.0;
    format      ascii;
    arch        "LSB;label=32;scalar=64";
    class       volScalarField;
    location    "0.012";
    object      p;
}
// * * * * * * * * * * * * * * * * * * * * * * * * * * * * * * * * * * * * * //

dimensions      [1 -1 -2 0 0 0 0];

internalField   nonuniform List<scalar> 
546
(
0.3076095642
0.4191528503
0.4131272728
0.4144240589
0.4138178834
0.413013742
0.4144314408
0.4157574814
0.4117411156
0.4155126674
0.418317256
0.4201898397
0.4181107039
0.4140166732
0.4123176568
0.4131618425
0.41211166
0.4127144224
0.4117106449
0.4125818641
0.3105945668
0.4186317177
0.4132784869
0.4173865924
0.4169506331
0.4168344831
0.4163890144
0.4162158777
0.4157051244
0.414690695
0.4124056264
0.412614008
0.4152290942
0.415261993
0.4174524281
0.4146754296
0.4151546238
0.4175124148
0.4178824485
0.4146017963
0.3103734419
0.4221361634
0.4118283154
0.411917518
0.4137755956
0.415335334
0.4153434209
0.4157159805
0.4131215311
0.4153858161
0.4134101893
0.4151008822
0.4124202809
0.4107849158
0.4134023124
0.4144117119
0.4129217578
0.4099758782
0.4083346483
0.4091999471
0.3139508591
0.4246671461
0.4168448861
0.4123790778
0.4111525003
0.4093317283
0.4078859073
0.4083608606
0.4131706696
0.4101013356
0.4122956057
0.4135523836
0.4169101289
0.4145179412
0.4136195359
0.4133493629
0.4127172233
0.4155699054
0.4204891459
0.4173320314
0.3093848768
0.4204689585
0.4117153889
0.4134582189
0.4122503152
0.4137770394
0.4138398251
0.4143835644
0.4119593428
0.4088479504
0.4096291696
0.4049894087
0.4067344757
0.4102382902
0.4126219105
0.4162441042
0.418499902
0.4178019489
0.4160930851
0.4155793128
0.3121466304
0.4236695676
0.4129415434
0.4122137704
0.4169048033
0.4163170946
0.4131828106
0.4134964058
0.4153563986
0.4179895345
0.4194787611
0.416375581
0.4190999285
0.4170889948
0.4189077524
0.4195369286
0.4192337853
0.4165911485
0.4186728752
0.4200490545
0.3093138291
0.4188490583
0.4157423082
0.4168582298
0.4152705967
0.415354699
0.4162860039
0.4192017794
0.4176548681
0.4170944514
0.4167342097
0.4180164115
0.4186579464
0.4140122031
0.4132813418
0.4136004841
0.4140066589
0.4147968991
0.4147274108
0.413407848
0.3100835696
0.4229849951
0.4152715612
0.4156150968
0.4163047356
0.4144871421
0.417646739
0.4165638868
0.4156640421
0.4176919809
0.4175223165
0.4132212135
0.4140518393
0.4140917013
0.4133367732
0.4141555076
0.4143618332
0.415219413
0.4175144594
0.4186178114
0.3120137347
0.420437505
0.4111175667
0.4140629822
0.413071793
0.4119257476
0.4095986112
0.4124031497
0.4131704719
0.4149014984
0.416391225
0.4196404829
0.4198214104
0.4196591127
0.4170896051
0.4146615988
0.4146542861
0.4148628215
0.4137917951
0.4153567408
0.3091957018
0.420456309
0.4131186427
0.4102103481
0.4098139945
0.4113809981
0.4120124667
0.4144805767
0.4145604298
0.4126838864
0.410771076
0.41220319
0.4116898721
0.4162268265
0.4186813755
0.4174413269
0.4184158303
0.41731721
0.4127829651
0.4079726637
0.3133906828
0.4232834047
0.4143960011
0.4144044948
0.4142056151
0.4136281961
0.4138149405
0.4100338015
0.4127070534
0.4141519619
0.4120558435
0.4116971131
0.413579092
0.4118557569
0.4093756786
0.4110061819
0.4131940249
0.4136383827
0.4163373344
0.4174930865
0.3074004159
0.4202699471
0.4104118687
0.4144989969
0.4129081738
0.4115376322
0.4125313866
0.4104860116
0.4079519669
0.4098932682
0.4100979441
0.4110674618
0.4121929238
0.4160123008
0.416279195
0.4135585884
0.4149635758
0.4115589778
0.4153456562
0.416607251
0.3117473794
0.4217750033
0.4142278117
0.4128681011
0.4147757766
0.4137847778
0.4139794521
0.413115216
0.4141800462
0.4131655597
0.4145399905
0.4181250224
0.4186116013
0.4143134006
0.4143076806
0.4183872242
0.4128223388
0.4170126578
0.4168113184
0.4173891089
0.307615817
0.4174232111
0.4120819867
0.4132551423
0.4131332574
0.414245559
0.4160891196
0.4207164876
0.4213576854
0.4216151003
0.4148258245
0.4096744393
0.4077913677
0.4125374706
0.4146742153
0.4125825028
0.4149637313
0.4111296648
0.4107656021
0.4111878323
0.3128707986
0.4245866112
0.4138082094
0.4112008914
0.4153710507
0.4163944796
0.4139139064
0.4173291555
0.416029839
0.4160741188
0.4143534237
0.4166628477
0.4164860373
0.4126351555
0.4113544498
0.4108369814
0.4106817146
0.4123356104
0.4133427219
0.4117725393
0.3100504587
0.4189878972
0.4113866505
0.4170766292
0.4185625916
0.4148095514
0.4130875842
0.4072334609
0.4053347651
0.4100546993
0.4119313782
0.412098467
0.4115395169
0.4129259455
0.4145712629
0.4128746267
0.4120484889
0.4091232037
0.4081340993
0.4104523965
0.3110590015
0.422665108
0.416211601
0.4113604156
0.4066824982
0.4103721063
0.4133668002
0.4147091912
0.4165473048
0.4176562396
0.4159482339
0.4150690132
0.415933455
0.4138363257
0.4141248788
0.4127835402
0.4120435248
0.4117621036
0.4142668884
0.4109928257
0.3046836142
0.4095446372
0.4037961812
0.4037443198
0.4016627287
0.4034472121
0.4051930275
0.4054020104
0.4045051493
0.4050620137
0.407336321
0.4045520191
0.4079102364
0.4052935627
0.4060175196
0.4053827131
0.406500472
0.4100279854
0.410160414
0.4083233828
0.426277099
0.4278819892
0.427887815
0.4292447151
0.4370143341
0.4475103079
0.4145983294
0.4179128642
0.4160976218
0.4160632538
0.4194681617
0.42188499
0.4250614177
0.4313106116
0.4293699215
0.4336929559
0.4148344847
0.4154957345
0.4173088527
0.4211818513
0.4214777165
0.4234659113
0.422242287
0.4269331183
0.4279814646
0.4326456059
0.4130876423
0.4146874797
0.417106184
0.4173580809
0.4142787758
0.416258011
0.4203803956
0.4231218913
0.424863202
0.4269497839
0.41647465
0.4191297396
0.4169074321
0.4201555385
0.419390439
0.4202236284
0.4200481522
0.4183704373
0.4190569214
0.4217404247
0.4173128663
0.4147640817
0.414969804
0.4164589315
0.416369849
0.4157349375
0.421627337
0.4256524613
0.4243370546
0.4237809934
0.4176525117
0.4175710906
0.4170884476
0.4191451334
0.4252261432
0.4216683747
0.4186295949
0.4170239288
0.4205938056
0.4193285389
0.4157797972
0.4171350446
0.4180734405
0.4145205637
0.4139768323
0.4127825625
0.4149393587
0.4184829474
0.4165009998
0.4156142478
0.4187214104
0.4204427159
0.4156414805
0.41220468
0.4120524382
0.4108276322
0.4106929775
0.4094254586
0.4114545709
0.4134535694
0.4103848338
0.4103034968
0.4114780884
0.4069626736
0.4113336536
0.4125371326
0.4127742451
0.412015395
0.4137472952
0.4131423074
0.4094692334
0.4135688766
0.415302977
0.4191729425
0.4154492182
0.4169438411
0.4174739845
0.4181483098
0.419000475
0.4170409258
0.4174204902
0.4150828867
0.4161928289
0.4179735915
0.418770456
0.4168986798
0.4157978592
0.4166383026
0.4158621529
0.4177387785
0.417868707
0.4168486686
0.4152303314
0.4136606899
0.4136496639
0.4132026322
0.4153659319
0.4167206501
0.4173287145
0.4191918502
0.4149556225
0.4165121701
0.4202859946
0.4189685214
0.4148560758
0.4174643409
0.4151724226
0.4148275683
0.4125697137
0.4103863691
0.4129664022
0.4140946794
0.4103828605
0.4145162654
0.4185409942
0.413381482
0.4114576483
0.4145115578
0.4113751725
0.4099527896
0.4093141345
0.4108143421
0.4112365994
0.4098500429
0.4100990509
0.4120211472
0.4113673757
0.4094684977
0.4127882368
0.415179969
0.4108665339
0.4102382236
0.4087086448
0.4109960484
0.4118378755
0.4076732702
0.4118437865
0.4105038597
0.4114208131
0.4143492051
0.4089605291
0.4106763678
0.4102377147
0.4090130065
0.4113770498
0.4136016727
0.4150803303
0.4184966819
0.4203218279
0.4159389425
0.4091734045
0.4065282061
0.405468315
0.409229163
0.4067747636
0.4055493565
0.4067182915
0.4032240523
0.4006872157
0.4059650416
)
;

boundaryField
{
    flow
    {
        type            calculated;
        value           nonuniform List<scalar> 
48
(
0.3076095642
0.3105945668
0.3103734419
0.3139508591
0.3093848768
0.3121466304
0.3093138291
0.3100835696
0.3120137347
0.3091957018
0.3133906828
0.3074004159
0.3117473794
0.307615817
0.3128707986
0.3100504587
0.3110590015
0.3046836142
0.3046836142
0.4095446372
0.4037961812
0.4037443198
0.4016627287
0.4034472121
0.4051930275
0.4054020104
0.4045051493
0.4050620137
0.407336321
0.4045520191
0.4079102364
0.4052935627
0.4060175196
0.4053827131
0.406500472
0.4100279854
0.410160414
0.4083233828
0.4091734045
0.4065282061
0.405468315
0.409229163
0.4067747636
0.4055493565
0.4067182915
0.4032240523
0.4006872157
0.4059650416
)
;
    }
    obstacle
    {
        type            calculated;
        value           nonuniform List<scalar> 0();
    }
    frontAndBack
    {
        type            empty;
    }
    procBoundary2to0
    {
        type            processor;
        value           nonuniform List<scalar> 
31
(
0.3092987074
0.4219379419
0.4127434077
0.4112535927
0.4107388654
0.4108855813
0.4130761683
0.4167421186
0.4179416956
0.4160906969
0.4145315089
0.4137116583
0.4164484518
0.4173935938
0.4160940642
0.4135840001
0.4109873734
0.4132150177
0.416166713
0.4169378178
0.4248118596
0.4314939287
0.4346436125
0.4434083918
0.4588096776
0.4651438927
0.4123921239
0.4123221616
0.4182153113
0.4219417706
0.4219417706
)
;
    }
    procBoundary2to3
    {
        type            processor;
        value           nonuniform List<scalar> 
19
(
0.4575018941
0.4460123042
0.4386677401
0.4322157105
0.4260118192
0.4247743313
0.4245227687
0.4151001511
0.415634356
0.4105050465
0.4183068901
0.4204667559
0.4200194092
0.4126887732
0.4116876048
0.4152641318
0.4187065521
0.4135610156
0.4050724795
)
;
    }
}


// ************************************************************************* //
