/*--------------------------------*- C++ -*----------------------------------*\
| =========                 |                                                 |
| \\      /  F ield         | OpenFOAM: The Open Source CFD Toolbox           |
|  \\    /   O peration     | Version:  2406                                  |
|   \\  /    A nd           | Website:  www.openfoam.com                      |
|    \\/     M anipulation  |                                                 |
\*---------------------------------------------------------------------------*/
FoamFile
{
    version     2.0;
    format      ascii;
    arch        "LSB;label=32;scalar=64";
    class       volScalarField;
    location    "0.012";
    object      rhoMMean;
}
// * * * * * * * * * * * * * * * * * * * * * * * * * * * * * * * * * * * * * //

dimensions      [1 -3 0 0 0 0 0];

internalField   nonuniform List<scalar> 
546
(
3.706488372e-06
4.785069451e-06
4.819606295e-06
4.808964265e-06
4.799983754e-06
4.802288164e-06
4.802404453e-06
4.796339827e-06
4.774956244e-06
4.806355281e-06
4.808798683e-06
4.830531412e-06
4.823325377e-06
4.790596923e-06
4.794092035e-06
4.790642328e-06
4.790012594e-06
4.797760609e-06
4.771342621e-06
4.761011102e-06
3.72514019e-06
4.772972724e-06
4.807710455e-06
4.829534828e-06
4.826701318e-06
4.820021883e-06
4.81117842e-06
4.814257111e-06
4.798708074e-06
4.788680297e-06
4.792388166e-06
4.7833174e-06
4.797059989e-06
4.78312967e-06
4.801064658e-06
4.784116709e-06
4.786144523e-06
4.806019846e-06
4.817528078e-06
4.807528383e-06
3.705950003e-06
4.770191562e-06
4.782357889e-06
4.770527379e-06
4.780448968e-06
4.784256257e-06
4.802081619e-06
4.804740834e-06
4.792888177e-06
4.809155154e-06
4.797809173e-06
4.798224483e-06
4.78015755e-06
4.770063053e-06
4.781743914e-06
4.793204519e-06
4.778608329e-06
4.774252848e-06
4.764171612e-06
4.766768828e-06
3.727099063e-06
4.794322392e-06
4.809616702e-06
4.777200148e-06
4.786652032e-06
4.768886063e-06
4.761356638e-06
4.762407515e-06
4.796430359e-06
4.776922441e-06
4.797067314e-06
4.809794608e-06
4.839098557e-06
4.819280129e-06
4.806170329e-06
4.788698278e-06
4.783361139e-06
4.783705287e-06
4.820852504e-06
4.818625193e-06
3.717174696e-06
4.781300243e-06
4.790570784e-06
4.79089223e-06
4.784694443e-06
4.798607996e-06
4.787149057e-06
4.791666233e-06
4.761334665e-06
4.737688745e-06
4.740289398e-06
4.717625136e-06
4.732419991e-06
4.759726987e-06
4.795823327e-06
4.818219706e-06
4.839339572e-06
4.835234929e-06
4.821136146e-06
4.807290146e-06
3.715433858e-06
4.784714091e-06
4.798857168e-06
4.800990337e-06
4.831272889e-06
4.832593315e-06
4.816233028e-06
4.812358743e-06
4.834428018e-06
4.841974591e-06
4.851297758e-06
4.834968609e-06
4.833292267e-06
4.810284691e-06
4.805549758e-06
4.81245233e-06
4.803450227e-06
4.786233007e-06
4.805921156e-06
4.812407029e-06
3.722096248e-06
4.778838409e-06
4.821478073e-06
4.823497173e-06
4.798351707e-06
4.803841828e-06
4.810514597e-06
4.827512394e-06
4.824435648e-06
4.836147925e-06
4.837067967e-06
4.851262558e-06
4.850066198e-06
4.825369957e-06
4.814523882e-06
4.813611998e-06
4.821671079e-06
4.802442256e-06
4.79629404e-06
4.790187063e-06
3.714443209e-06
4.795931737e-06
4.820116581e-06
4.815378594e-06
4.826906473e-06
4.81545236e-06
4.834711383e-06
4.826765537e-06
4.824965026e-06
4.816699679e-06
4.817900205e-06
4.788998687e-06
4.793898091e-06
4.796272552e-06
4.801023141e-06
4.803918822e-06
4.809326846e-06
4.828029623e-06
4.844037986e-06
4.83817008e-06
3.724912331e-06
4.780550887e-06
4.786890165e-06
4.806799681e-06
4.802026113e-06
4.777183e-06
4.767205452e-06
4.786460865e-06
4.773244773e-06
4.801806968e-06
4.818914389e-06
4.826808443e-06
4.832496395e-06
4.832573216e-06
4.809291265e-06
4.781764846e-06
4.789621097e-06
4.783330001e-06
4.776643242e-06
4.774103754e-06
3.705612902e-06
4.753711098e-06
4.782184426e-06
4.769262078e-06
4.76723843e-06
4.780786798e-06
4.786972817e-06
4.79385463e-06
4.786441773e-06
4.765683099e-06
4.747872281e-06
4.749448266e-06
4.765040486e-06
4.781973057e-06
4.789140734e-06
4.795850195e-06
4.793074691e-06
4.770220201e-06
4.757064162e-06
4.738332747e-06
3.727814782e-06
4.783477428e-06
4.804318477e-06
4.792802088e-06
4.789131292e-06
4.776599052e-06
4.792484634e-06
4.767283384e-06
4.791022335e-06
4.803507226e-06
4.793039492e-06
4.790292904e-06
4.786604405e-06
4.773097727e-06
4.766755672e-06
4.776117578e-06
4.787952636e-06
4.806237325e-06
4.831404105e-06
4.84252872e-06
3.704736043e-06
4.787210222e-06
4.799991634e-06
4.80119216e-06
4.797249212e-06
4.784188427e-06
4.793367602e-06
4.776180305e-06
4.7575221e-06
4.765938485e-06
4.765255292e-06
4.780396239e-06
4.781492798e-06
4.802025557e-06
4.819721474e-06
4.800407777e-06
4.813104211e-06
4.773699101e-06
4.800396183e-06
4.807999651e-06
3.728901518e-06
4.791987123e-06
4.828403243e-06
4.805014826e-06
4.817858688e-06
4.810267647e-06
4.804400574e-06
4.803654827e-06
4.819080527e-06
4.818827189e-06
4.811570195e-06
4.828482007e-06
4.830950611e-06
4.815721909e-06
4.816515004e-06
4.834411529e-06
4.792408647e-06
4.827708004e-06
4.824199181e-06
4.814941518e-06
3.708919173e-06
4.758350221e-06
4.78880707e-06
4.791711464e-06
4.791754092e-06
4.809888855e-06
4.816902335e-06
4.843072088e-06
4.833652175e-06
4.827661488e-06
4.796713898e-06
4.766251773e-06
4.752285039e-06
4.77563482e-06
4.779599637e-06
4.779097405e-06
4.7931202e-06
4.780891147e-06
4.779508168e-06
4.78799266e-06
3.722769339e-06
4.793188204e-06
4.808011697e-06
4.778774745e-06
4.802514252e-06
4.793396692e-06
4.768437393e-06
4.788241277e-06
4.782614108e-06
4.781144311e-06
4.77910834e-06
4.795593907e-06
4.80899707e-06
4.779490186e-06
4.782464077e-06
4.777548739e-06
4.768576663e-06
4.769222054e-06
4.784531186e-06
4.79157997e-06
3.703666352e-06
4.758894596e-06
4.783561469e-06
4.795735017e-06
4.821491125e-06
4.798012558e-06
4.777728867e-06
4.767514748e-06
4.759443899e-06
4.782958707e-06
4.788466532e-06
4.785008946e-06
4.778873435e-06
4.7885806e-06
4.813232547e-06
4.81664018e-06
4.811808328e-06
4.794614922e-06
4.775556784e-06
4.779233238e-06
3.73446596e-06
4.815074575e-06
4.838553246e-06
4.806921629e-06
4.774192065e-06
4.811580019e-06
4.819041336e-06
4.829174746e-06
4.828335968e-06
4.845653822e-06
4.828893325e-06
4.809579351e-06
4.816531771e-06
4.792848603e-06
4.794804422e-06
4.784263303e-06
4.781738916e-06
4.780419219e-06
4.80139249e-06
4.789827919e-06
3.645500736e-06
4.680823733e-06
4.712619822e-06
4.733867745e-06
4.733024524e-06
4.733717263e-06
4.746263492e-06
4.741799046e-06
4.733238288e-06
4.730778675e-06
4.761894348e-06
4.760894708e-06
4.769101494e-06
4.760205302e-06
4.753114167e-06
4.755377615e-06
4.762155739e-06
4.779560515e-06
4.786590311e-06
4.78435151e-06
4.81026786e-06
4.821855318e-06
4.827851369e-06
4.817993368e-06
4.823424062e-06
4.851503624e-06
4.765016982e-06
4.782946209e-06
4.784419464e-06
4.761660198e-06
4.78702311e-06
4.802655096e-06
4.825545321e-06
4.830994706e-06
4.819790542e-06
4.815300914e-06
4.815231497e-06
4.823746541e-06
4.844180115e-06
4.84922068e-06
4.828769772e-06
4.814816754e-06
4.813244424e-06
4.834375852e-06
4.834770398e-06
4.846743009e-06
4.789113131e-06
4.773128165e-06
4.771856417e-06
4.778369875e-06
4.784277407e-06
4.781041745e-06
4.783933115e-06
4.790898689e-06
4.803332092e-06
4.820564699e-06
4.824699937e-06
4.837536134e-06
4.813751747e-06
4.843332063e-06
4.838607835e-06
4.826137383e-06
4.808873568e-06
4.8076868e-06
4.77446106e-06
4.800477225e-06
4.819118932e-06
4.796639169e-06
4.796551551e-06
4.786488701e-06
4.789439926e-06
4.786508896e-06
4.813394336e-06
4.84888059e-06
4.824574729e-06
4.805668035e-06
4.801757884e-06
4.8038853e-06
4.810569945e-06
4.82093123e-06
4.857160242e-06
4.859912572e-06
4.831994541e-06
4.823504147e-06
4.846960297e-06
4.851014186e-06
4.79399413e-06
4.805969023e-06
4.796816548e-06
4.806028398e-06
4.782912685e-06
4.77870912e-06
4.794953125e-06
4.803390908e-06
4.770658287e-06
4.762844887e-06
4.850805521e-06
4.850551841e-06
4.814621118e-06
4.772469094e-06
4.752074917e-06
4.745225466e-06
4.749592563e-06
4.732692449e-06
4.746029531e-06
4.753407396e-06
4.731728056e-06
4.730879796e-06
4.735072535e-06
4.717066409e-06
4.749101578e-06
4.761425729e-06
4.778864489e-06
4.749936332e-06
4.762158951e-06
4.768557164e-06
4.750375439e-06
4.789644948e-06
4.797753059e-06
4.830059322e-06
4.824620626e-06
4.820535768e-06
4.818216679e-06
4.830536258e-06
4.831832011e-06
4.800092388e-06
4.842948893e-06
4.823348534e-06
4.817007366e-06
4.820735051e-06
4.830001833e-06
4.814860723e-06
4.805964781e-06
4.801459235e-06
4.811505524e-06
4.813085762e-06
4.815045473e-06
4.813143674e-06
4.81489502e-06
4.793183508e-06
4.784293559e-06
4.792955366e-06
4.808850974e-06
4.836699168e-06
4.847783629e-06
4.856038822e-06
4.785963917e-06
4.805681119e-06
4.81363053e-06
4.825421531e-06
4.808640617e-06
4.828133636e-06
4.807142248e-06
4.802384552e-06
4.788136257e-06
4.786333092e-06
4.805293015e-06
4.818634045e-06
4.797955794e-06
4.81528364e-06
4.833730508e-06
4.812735489e-06
4.804529118e-06
4.804723533e-06
4.799852859e-06
4.77271064e-06
4.765365032e-06
4.775513191e-06
4.771343478e-06
4.771613971e-06
4.774005126e-06
4.772251469e-06
4.765567641e-06
4.77166262e-06
4.791816023e-06
4.811026394e-06
4.779591217e-06
4.787839763e-06
4.784018489e-06
4.789591469e-06
4.796318761e-06
4.767361118e-06
4.78264453e-06
4.767067429e-06
4.77546204e-06
4.800118148e-06
4.780228726e-06
4.771070925e-06
4.772628839e-06
4.761397407e-06
4.777541294e-06
4.801126424e-06
4.810191754e-06
4.838701266e-06
4.839340567e-06
4.810800977e-06
4.777133823e-06
4.764446585e-06
4.763488292e-06
4.795885027e-06
4.75439729e-06
4.752220746e-06
4.76419936e-06
4.722372635e-06
4.702692434e-06
4.739081605e-06
)
;

boundaryField
{
    flow
    {
        type            calculated;
        value           nonuniform List<scalar> 
48
(
3.706488372e-06
3.72514019e-06
3.705950003e-06
3.727099063e-06
3.717174696e-06
3.715433858e-06
3.722096248e-06
3.714443209e-06
3.724912331e-06
3.705612902e-06
3.727814782e-06
3.704736043e-06
3.728901518e-06
3.708919173e-06
3.722769339e-06
3.703666352e-06
3.73446596e-06
3.645500736e-06
3.645500736e-06
4.680823733e-06
4.712619822e-06
4.733867745e-06
4.733024524e-06
4.733717263e-06
4.746263492e-06
4.741799046e-06
4.733238288e-06
4.730778675e-06
4.761894348e-06
4.760894708e-06
4.769101494e-06
4.760205302e-06
4.753114167e-06
4.755377615e-06
4.762155739e-06
4.779560515e-06
4.786590311e-06
4.78435151e-06
4.777133823e-06
4.764446585e-06
4.763488292e-06
4.795885027e-06
4.75439729e-06
4.752220746e-06
4.76419936e-06
4.722372635e-06
4.702692434e-06
4.739081605e-06
)
;
    }
    obstacle
    {
        type            calculated;
        value           nonuniform List<scalar> 0();
    }
    frontAndBack
    {
        type            empty;
    }
    procBoundary2to0
    {
        type            processor;
        value           nonuniform List<scalar> 
31
(
3.71601902e-06
4.78394769e-06
4.804086453e-06
4.774135447e-06
4.787717175e-06
4.779461374e-06
4.805791988e-06
4.825622462e-06
4.841799185e-06
4.825391271e-06
4.815822265e-06
4.80610361e-06
4.804566156e-06
4.804896315e-06
4.791003521e-06
4.79816304e-06
4.783844834e-06
4.776226543e-06
4.795794966e-06
4.793225174e-06
4.803473226e-06
4.802710244e-06
4.797267344e-06
4.823027035e-06
4.876226578e-06
4.889030325e-06
4.798989084e-06
4.766729926e-06
4.778204446e-06
4.793468915e-06
4.793468915e-06
)
;
    }
    procBoundary2to3
    {
        type            processor;
        value           nonuniform List<scalar> 
19
(
4.871144977e-06
4.846150956e-06
4.841677259e-06
4.825169537e-06
4.811120306e-06
4.790429365e-06
4.863318983e-06
4.75676513e-06
4.774027378e-06
4.747810899e-06
4.800616566e-06
4.816388007e-06
4.857160094e-06
4.803882643e-06
4.779559389e-06
4.790053563e-06
4.826306038e-06
4.798797734e-06
4.725391392e-06
)
;
    }
}


// ************************************************************************* //
