/*--------------------------------*- C++ -*----------------------------------*\
| =========                 |                                                 |
| \\      /  F ield         | OpenFOAM: The Open Source CFD Toolbox           |
|  \\    /   O peration     | Version:  2406                                  |
|   \\  /    A nd           | Website:  www.openfoam.com                      |
|    \\/     M anipulation  |                                                 |
\*---------------------------------------------------------------------------*/
FoamFile
{
    version     2.0;
    format      ascii;
    arch        "LSB;label=32;scalar=64";
    class       volScalarField;
    location    "0.012";
    object      rhoM;
}
// * * * * * * * * * * * * * * * * * * * * * * * * * * * * * * * * * * * * * //

dimensions      [1 -3 0 0 0 0 0];

internalField   nonuniform List<scalar> 
546
(
2.905505464e-06
5.53358202e-06
5.811010928e-06
4.496139531e-06
6.01783293e-06
3.458697042e-06
4.634020865e-06
4.496139531e-06
3.458697042e-06
8.923338395e-06
5.948892263e-06
3.458697042e-06
8.161658575e-06
4.149769955e-06
6.917394084e-06
7.53952633e-06
3.52763771e-06
4.01188862e-06
3.458697042e-06
6.364202506e-06
4.496139531e-06
6.502083841e-06
2.974446132e-06
4.01188862e-06
5.049331109e-06
1.452752732e-06
5.049331109e-06
5.049331109e-06
4.980390442e-06
2.905505464e-06
3.942947953e-06
4.842509107e-06
2.905505464e-06
6.986334752e-06
6.502083841e-06
5.395700685e-06
5.948892263e-06
4.427198864e-06
6.571024508e-06
9.960780883e-06
3.52763771e-06
4.565080198e-06
6.571024508e-06
4.01188862e-06
4.911449774e-06
3.458697042e-06
5.395700685e-06
6.986334752e-06
5.464641352e-06
4.911449774e-06
4.911449774e-06
5.049331109e-06
2.974446132e-06
6.01783293e-06
5.187212443e-06
6.433143174e-06
4.980390442e-06
3.942947953e-06
2.974446132e-06
6.364202506e-06
3.458697042e-06
6.086773598e-06
5.948892263e-06
4.01188862e-06
4.980390442e-06
4.565080198e-06
3.043386799e-06
4.01188862e-06
2.974446132e-06
5.049331109e-06
4.634020865e-06
4.427198864e-06
7.608466997e-06
3.458697042e-06
5.187212443e-06
8.092717908e-06
2.974446132e-06
5.187212443e-06
2.421254554e-06
3.874007286e-06
2.559135888e-06
5.395700685e-06
6.364202506e-06
5.049331109e-06
4.496139531e-06
6.848453417e-06
2.974446132e-06
2.974446132e-06
3.665519044e-06
3.52763771e-06
9.685018214e-07
3.874007286e-06
3.596578377e-06
4.980390442e-06
2.00594431e-06
6.848453417e-06
3.458697042e-06
9.891840216e-06
5.879951596e-06
2.074884977e-06
5.464641352e-06
4.496139531e-06
4.080829287e-06
2.559135888e-06
6.708905843e-06
5.602522687e-06
4.149769955e-06
4.149769955e-06
4.980390442e-06
6.986334752e-06
8.439087484e-06
7.401644995e-06
6.086773598e-06
5.464641352e-06
4.01188862e-06
6.01783293e-06
4.358258196e-06
3.52763771e-06
3.942947953e-06
4.911449774e-06
4.496139531e-06
1.452752732e-06
4.496139531e-06
4.080829287e-06
4.842509107e-06
5.049331109e-06
3.112327466e-06
5.395700685e-06
2.074884977e-06
7.53952633e-06
3.874007286e-06
4.01188862e-06
5.948892263e-06
3.043386799e-06
7.055275419e-06
3.52763771e-06
4.496139531e-06
7.53952633e-06
3.942947953e-06
5.118271776e-06
3.043386799e-06
4.911449774e-06
6.01783293e-06
2.905505464e-06
7.332704328e-06
3.52763771e-06
4.01188862e-06
1.937003643e-06
6.77951275e-06
5.602522687e-06
4.358258196e-06
5.118271776e-06
8.092717908e-06
5.602522687e-06
6.364202506e-06
3.389756375e-06
2.559135888e-06
5.464641352e-06
4.01188862e-06
3.596578377e-06
4.496139531e-06
5.187212443e-06
4.427198864e-06
5.256153111e-06
4.01188862e-06
6.01783293e-06
6.917394084e-06
5.948892263e-06
2.974446132e-06
2.421254554e-06
5.740404021e-06
2.490195221e-06
6.433143174e-06
8.02377724e-06
4.565080198e-06
4.01188862e-06
4.427198864e-06
4.565080198e-06
3.942947953e-06
2.905505464e-06
3.942947953e-06
4.911449774e-06
3.389756375e-06
5.464641352e-06
2.905505464e-06
3.52763771e-06
5.948892263e-06
5.049331109e-06
3.458697042e-06
6.155714265e-06
5.948892263e-06
4.496139531e-06
3.942947953e-06
3.52763771e-06
2.490195221e-06
2.905505464e-06
4.911449774e-06
5.049331109e-06
5.049331109e-06
6.502083841e-06
4.080829287e-06
5.049331109e-06
5.049331109e-06
8.370146817e-06
4.358258196e-06
5.118271776e-06
4.358258196e-06
4.980390442e-06
5.464641352e-06
5.464641352e-06
5.049331109e-06
4.427198864e-06
4.565080198e-06
3.458697042e-06
4.911449774e-06
3.52763771e-06
5.602522687e-06
3.458697042e-06
4.565080198e-06
4.01188862e-06
2.00594431e-06
5.464641352e-06
4.080829287e-06
2.974446132e-06
4.496139531e-06
4.634020865e-06
5.464641352e-06
4.427198864e-06
2.559135888e-06
5.879951596e-06
6.086773598e-06
4.702961533e-06
4.565080198e-06
9.130160396e-06
7.332704328e-06
6.639965176e-06
3.458697042e-06
3.942947953e-06
5.395700685e-06
3.389756375e-06
3.52763771e-06
5.879951596e-06
5.53358202e-06
4.565080198e-06
5.395700685e-06
5.464641352e-06
5.187212443e-06
3.043386799e-06
2.490195221e-06
7.124216086e-06
6.01783293e-06
3.665519044e-06
2.974446132e-06
5.53358202e-06
5.879951596e-06
7.954836573e-06
6.571024508e-06
6.01783293e-06
2.905505464e-06
4.496139531e-06
3.942947953e-06
4.980390442e-06
3.043386799e-06
7.055275419e-06
3.942947953e-06
3.52763771e-06
6.155714265e-06
4.080829287e-06
4.842509107e-06
5.464641352e-06
7.332704328e-06
5.602522687e-06
6.848453417e-06
3.52763771e-06
3.942947953e-06
6.917394084e-06
3.52763771e-06
3.458697042e-06
6.433143174e-06
4.358258196e-06
4.080829287e-06
4.496139531e-06
6.917394084e-06
3.458697042e-06
4.634020865e-06
4.842509107e-06
2.628076555e-06
4.427198864e-06
6.502083841e-06
5.464641352e-06
5.049331109e-06
1.937003643e-06
4.980390442e-06
2.00594431e-06
3.596578377e-06
1.937003643e-06
6.01783293e-06
3.043386799e-06
5.811010928e-06
4.427198864e-06
4.980390442e-06
2.490195221e-06
6.848453417e-06
4.427198864e-06
3.942947953e-06
4.911449774e-06
4.080829287e-06
4.496139531e-06
6.986334752e-06
3.942947953e-06
5.049331109e-06
7.608466997e-06
2.00594431e-06
2.559135888e-06
2.974446132e-06
5.602522687e-06
5.879951596e-06
4.080829287e-06
4.149769955e-06
5.948892263e-06
2.974446132e-06
5.049331109e-06
5.049331109e-06
4.01188862e-06
4.149769955e-06
5.118271776e-06
9.269707971e-06
3.596578377e-06
3.458697042e-06
6.571024508e-06
2.490195221e-06
3.458697042e-06
5.53358202e-06
4.427198864e-06
5.464641352e-06
3.942947953e-06
2.559135888e-06
3.52763771e-06
5.948892263e-06
4.980390442e-06
3.389756375e-06
5.118271776e-06
4.911449774e-06
2.421254554e-06
6.571024508e-06
5.395700685e-06
6.502083841e-06
3.458697042e-06
5.187212443e-06
3.458697042e-06
8.439087484e-06
3.942947953e-06
4.496139531e-06
6.986334752e-06
3.52763771e-06
3.52763771e-06
3.52763771e-06
6.986334752e-06
5.53358202e-06
6.571024508e-06
6.20877634e-06
3.59367103e-06
4.270274991e-06
4.81126715e-06
6.388180399e-06
3.771982481e-06
5.274792768e-06
5.3807237e-06
3.236758332e-06
6.024224364e-06
4.0680561e-06
3.59367103e-06
3.763543565e-06
4.665950111e-06
4.185603512e-06
4.289775436e-06
7.358708014e-06
3.703811804e-06
4.574564758e-06
2.551295614e-06
5.067288058e-06
4.528337157e-06
5.139455687e-06
2.04146293e-06
4.919206233e-06
7.914326117e-06
8.33064434e-06
7.059319242e-06
3.096471962e-06
4.03969365e-06
2.56920811e-06
8.408532331e-06
5.718328266e-06
4.665950144e-06
3.157498482e-06
5.177929508e-06
4.37371369e-06
5.241401918e-06
6.192943924e-06
3.969061455e-06
7.208008334e-06
6.252675965e-06
3.619261292e-06
5.321632845e-06
4.112420122e-06
7.617680863e-06
5.622390659e-06
2.51620965e-06
5.63010314e-06
4.039693677e-06
4.638800223e-06
2.227487409e-06
4.198133897e-06
2.69714572e-06
3.157498504e-06
4.363491336e-06
4.581269135e-06
2.096560781e-06
3.448883191e-06
3.188692737e-06
5.78028847e-06
5.534634303e-06
3.184670985e-06
6.342364347e-06
2.202576857e-06
6.138017944e-06
5.41483525e-06
9.155880024e-06
3.941580789e-06
3.259324982e-06
6.066520087e-06
3.522039987e-06
3.184670985e-06
4.08292586e-06
3.230681872e-06
3.106757727e-06
5.067237323e-06
7.128980116e-06
7.318625541e-06
5.598723946e-06
3.139952234e-06
3.59367103e-06
4.560583075e-06
4.738608631e-06
4.258786933e-06
3.401621327e-06
4.998052174e-06
6.639670312e-06
6.545355108e-06
3.118060494e-06
4.996159932e-06
3.593671055e-06
4.77700651e-06
4.738608664e-06
4.919206233e-06
5.251645445e-06
5.414835214e-06
3.984138943e-06
4.011724001e-06
3.543560996e-06
4.496544001e-06
5.677896391e-06
4.053851622e-06
5.904657093e-06
5.800944448e-06
5.251645445e-06
3.540147635e-06
5.591389966e-06
7.038052751e-06
3.614193218e-06
6.351032594e-06
6.684193491e-06
7.527087129e-06
4.593291624e-06
6.388180399e-06
3.624550681e-06
5.067237323e-06
4.473448672e-06
4.081867132e-06
4.606458551e-06
4.0680561e-06
3.090522461e-06
6.731791132e-06
3.645218647e-06
4.699656061e-06
3.254189527e-06
3.956930651e-06
3.984138943e-06
3.026328797e-06
5.173223487e-06
2.99769598e-06
5.103116774e-06
2.605798423e-06
5.2489744e-06
6.314996963e-06
5.251645407e-06
5.484020362e-06
4.123460662e-06
8.093591079e-06
3.118060515e-06
4.638800223e-06
5.31800987e-06
4.342416114e-06
3.572560102e-06
5.433258714e-06
5.990586142e-06
5.484020362e-06
7.618289874e-06
5.630103178e-06
5.102591229e-06
5.709160304e-06
4.0968196e-06
4.125992774e-06
5.2489744e-06
2.056210075e-06
3.106757727e-06
6.455956781e-06
6.70933123e-06
3.941580789e-06
5.669356168e-06
5.56690409e-06
5.174747783e-06
3.691402415e-06
4.228242898e-06
3.744734414e-06
5.399077245e-06
3.60933276e-06
6.570009484e-06
4.081867159e-06
4.606458551e-06
4.139184227e-06
5.677896391e-06
6.29720089e-06
2.186779968e-06
5.874127838e-06
6.878740208e-06
3.540147611e-06
5.521729056e-06
3.166615147e-06
4.039693677e-06
5.638032217e-06
5.246378826e-06
4.704865321e-06
5.686681576e-06
4.699656061e-06
3.254189527e-06
)
;

boundaryField
{
    flow
    {
        type            zeroGradient;
    }
    obstacle
    {
        type            calculated;
        value           nonuniform List<scalar> 0();
    }
    frontAndBack
    {
        type            empty;
    }
    procBoundary2to0
    {
        type            processor;
        value           nonuniform List<scalar> 
31
(
4.01188862e-06
4.01188862e-06
2.559135888e-06
5.53358202e-06
7.954836573e-06
5.118271776e-06
3.043386799e-06
4.980390442e-06
3.52763771e-06
4.080829287e-06
5.879951596e-06
3.389756375e-06
2.421254554e-06
2.905505464e-06
6.364202506e-06
2.974446132e-06
7.470585662e-06
3.874007286e-06
4.565080198e-06
2.974446132e-06
5.709160344e-06
3.736933118e-06
3.619261318e-06
6.780071608e-06
4.699656061e-06
6.952456108e-06
7.913861301e-06
4.68243129e-06
4.644707943e-06
4.535826359e-06
4.535826359e-06
)
;
    }
    procBoundary2to3
    {
        type            processor;
        value           nonuniform List<scalar> 
19
(
7.673516195e-06
4.768550219e-06
8.195104477e-06
3.79962999e-06
6.481827318e-06
3.725373801e-06
3.725373801e-06
4.842806435e-06
4.991318902e-06
4.246961997e-06
6.481827318e-06
7.376491385e-06
4.917062651e-06
4.991318866e-06
2.682197367e-06
3.79962999e-06
6.333314887e-06
2.830709781e-06
4.469730644e-06
)
;
    }
}


// ************************************************************************* //
