/*--------------------------------*- C++ -*----------------------------------*\
| =========                 |                                                 |
| \\      /  F ield         | OpenFOAM: The Open Source CFD Toolbox           |
|  \\    /   O peration     | Version:  2406                                  |
|   \\  /    A nd           | Website:  www.openfoam.com                      |
|    \\/     M anipulation  |                                                 |
\*---------------------------------------------------------------------------*/
FoamFile
{
    version     2.0;
    format      ascii;
    arch        "LSB;label=32;scalar=64";
    class       volScalarField;
    location    "0.012";
    object      rhoN;
}
// * * * * * * * * * * * * * * * * * * * * * * * * * * * * * * * * * * * * * //

dimensions      [0 -3 0 0 0 0 0];

internalField   nonuniform List<scalar> 
546
(
6.248398848e+19
1.145539789e+20
1.24967977e+20
9.372598272e+19
1.24967977e+20
7.289798656e+19
9.372598272e+19
9.372598272e+19
7.289798656e+19
1.874519654e+20
1.24967977e+20
7.289798656e+19
1.666239693e+20
8.331198464e+19
1.457959731e+20
1.562099712e+20
7.289798656e+19
8.331198464e+19
7.289798656e+19
1.35381975e+20
9.372598272e+19
1.35381975e+20
6.248398848e+19
8.331198464e+19
1.041399808e+20
3.124199424e+19
1.041399808e+20
1.041399808e+20
1.041399808e+20
6.248398848e+19
8.331198464e+19
1.041399808e+20
6.248398848e+19
1.457959731e+20
1.35381975e+20
1.145539789e+20
1.24967977e+20
9.372598272e+19
1.35381975e+20
2.082799616e+20
7.289798656e+19
9.372598272e+19
1.35381975e+20
8.331198464e+19
1.041399808e+20
7.289798656e+19
1.145539789e+20
1.457959731e+20
1.145539789e+20
1.041399808e+20
1.041399808e+20
1.041399808e+20
6.248398848e+19
1.24967977e+20
1.041399808e+20
1.35381975e+20
1.041399808e+20
8.331198464e+19
6.248398848e+19
1.35381975e+20
7.289798656e+19
1.24967977e+20
1.24967977e+20
8.331198464e+19
1.041399808e+20
9.372598272e+19
6.248398848e+19
8.331198464e+19
6.248398848e+19
1.041399808e+20
9.372598272e+19
9.372598272e+19
1.562099712e+20
7.289798656e+19
1.041399808e+20
1.666239693e+20
6.248398848e+19
1.041399808e+20
5.20699904e+19
8.331198464e+19
5.20699904e+19
1.145539789e+20
1.35381975e+20
1.041399808e+20
9.372598272e+19
1.457959731e+20
6.248398848e+19
6.248398848e+19
7.289798656e+19
7.289798656e+19
2.082799616e+19
8.331198464e+19
7.289798656e+19
1.041399808e+20
4.165599232e+19
1.457959731e+20
7.289798656e+19
2.082799616e+20
1.24967977e+20
4.165599232e+19
1.145539789e+20
9.372598272e+19
8.331198464e+19
5.20699904e+19
1.35381975e+20
1.145539789e+20
8.331198464e+19
8.331198464e+19
1.041399808e+20
1.457959731e+20
1.770379674e+20
1.562099712e+20
1.24967977e+20
1.145539789e+20
8.331198464e+19
1.24967977e+20
9.372598272e+19
7.289798656e+19
8.331198464e+19
1.041399808e+20
9.372598272e+19
3.124199424e+19
9.372598272e+19
8.331198464e+19
1.041399808e+20
1.041399808e+20
6.248398848e+19
1.145539789e+20
4.165599232e+19
1.562099712e+20
8.331198464e+19
8.331198464e+19
1.24967977e+20
6.248398848e+19
1.457959731e+20
7.289798656e+19
9.372598272e+19
1.562099712e+20
8.331198464e+19
1.041399808e+20
6.248398848e+19
1.041399808e+20
1.24967977e+20
6.248398848e+19
1.562099712e+20
7.289798656e+19
8.331198464e+19
4.165599232e+19
1.457959731e+20
1.145539789e+20
9.372598272e+19
1.041399808e+20
1.666239693e+20
1.145539789e+20
1.35381975e+20
7.289798656e+19
5.20699904e+19
1.145539789e+20
8.331198464e+19
7.289798656e+19
9.372598272e+19
1.041399808e+20
9.372598272e+19
1.041399808e+20
8.331198464e+19
1.24967977e+20
1.457959731e+20
1.24967977e+20
6.248398848e+19
5.20699904e+19
1.145539789e+20
5.20699904e+19
1.35381975e+20
1.666239693e+20
9.372598272e+19
8.331198464e+19
9.372598272e+19
9.372598272e+19
8.331198464e+19
6.248398848e+19
8.331198464e+19
1.041399808e+20
7.289798656e+19
1.145539789e+20
6.248398848e+19
7.289798656e+19
1.24967977e+20
1.041399808e+20
7.289798656e+19
1.24967977e+20
1.24967977e+20
9.372598272e+19
8.331198464e+19
7.289798656e+19
5.20699904e+19
6.248398848e+19
1.041399808e+20
1.041399808e+20
1.041399808e+20
1.35381975e+20
8.331198464e+19
1.041399808e+20
1.041399808e+20
1.770379674e+20
9.372598272e+19
1.041399808e+20
9.372598272e+19
1.041399808e+20
1.145539789e+20
1.145539789e+20
1.041399808e+20
9.372598272e+19
9.372598272e+19
7.289798656e+19
1.041399808e+20
7.289798656e+19
1.145539789e+20
7.289798656e+19
9.372598272e+19
8.331198464e+19
4.165599232e+19
1.145539789e+20
8.331198464e+19
6.248398848e+19
9.372598272e+19
9.372598272e+19
1.145539789e+20
9.372598272e+19
5.20699904e+19
1.24967977e+20
1.24967977e+20
9.372598272e+19
9.372598272e+19
1.874519654e+20
1.562099712e+20
1.35381975e+20
7.289798656e+19
8.331198464e+19
1.145539789e+20
7.289798656e+19
7.289798656e+19
1.24967977e+20
1.145539789e+20
9.372598272e+19
1.145539789e+20
1.145539789e+20
1.041399808e+20
6.248398848e+19
5.20699904e+19
1.457959731e+20
1.24967977e+20
7.289798656e+19
6.248398848e+19
1.145539789e+20
1.24967977e+20
1.666239693e+20
1.35381975e+20
1.24967977e+20
6.248398848e+19
9.372598272e+19
8.331198464e+19
1.041399808e+20
6.248398848e+19
1.457959731e+20
8.331198464e+19
7.289798656e+19
1.24967977e+20
8.331198464e+19
1.041399808e+20
1.145539789e+20
1.562099712e+20
1.145539789e+20
1.457959731e+20
7.289798656e+19
8.331198464e+19
1.457959731e+20
7.289798656e+19
7.289798656e+19
1.35381975e+20
9.372598272e+19
8.331198464e+19
9.372598272e+19
1.457959731e+20
7.289798656e+19
9.372598272e+19
1.041399808e+20
5.20699904e+19
9.372598272e+19
1.35381975e+20
1.145539789e+20
1.041399808e+20
4.165599232e+19
1.041399808e+20
4.165599232e+19
7.289798656e+19
4.165599232e+19
1.24967977e+20
6.248398848e+19
1.24967977e+20
9.372598272e+19
1.041399808e+20
5.20699904e+19
1.457959731e+20
9.372598272e+19
8.331198464e+19
1.041399808e+20
8.331198464e+19
9.372598272e+19
1.457959731e+20
8.331198464e+19
1.041399808e+20
1.562099712e+20
4.165599232e+19
5.20699904e+19
6.248398848e+19
1.145539789e+20
1.24967977e+20
8.331198464e+19
8.331198464e+19
1.24967977e+20
6.248398848e+19
1.041399808e+20
1.041399808e+20
8.331198464e+19
8.331198464e+19
1.041399808e+20
1.978659635e+20
7.289798656e+19
7.289798656e+19
1.35381975e+20
5.20699904e+19
7.289798656e+19
1.145539789e+20
9.372598272e+19
1.145539789e+20
8.331198464e+19
5.20699904e+19
7.289798656e+19
1.24967977e+20
1.041399808e+20
7.289798656e+19
1.041399808e+20
1.041399808e+20
5.20699904e+19
1.35381975e+20
1.145539789e+20
1.35381975e+20
7.289798656e+19
1.041399808e+20
7.289798656e+19
1.770379674e+20
8.331198464e+19
9.372598272e+19
1.457959731e+20
7.289798656e+19
7.289798656e+19
7.289798656e+19
1.457959731e+20
1.145539789e+20
1.35381975e+20
1.289331604e+20
7.574279541e+19
8.717960478e+19
9.878046435e+19
1.326587145e+20
7.794732648e+19
1.045092877e+20
1.052279051e+20
6.35738837e+19
1.280342396e+20
8.595544028e+19
7.574279541e+19
7.628215471e+19
9.878046435e+19
8.84391424e+19
8.908265883e+19
1.567639326e+20
7.365953358e+19
9.536082555e+19
5.334759983e+19
1.074442996e+20
9.738359478e+19
1.089745067e+20
4.39024286e+19
9.949403591e+19
1.670299853e+20
1.776657891e+20
1.473190672e+20
6.35738837e+19
8.535615974e+19
5.372215018e+19
1.731263895e+20
1.198719574e+20
9.878046504e+19
6.63293568e+19
1.113533227e+20
9.405835892e+19
1.052279044e+20
1.271477674e+20
8.535616032e+19
1.504220205e+20
1.298447921e+20
7.628215418e+19
1.097560707e+20
8.84391424e+19
1.55894653e+20
1.149602165e+20
5.26139522e+19
1.165521201e+20
8.535616032e+19
9.669987032e+19
4.328159738e+19
8.717960539e+19
5.487803613e+19
6.632935727e+19
8.908265883e+19
9.405835892e+19
4.209116205e+19
7.416953098e+19
6.40171198e+19
1.181887304e+20
1.190243936e+20
6.538470404e+19
1.317072858e+20
4.421957151e+19
1.224886568e+20
1.149602172e+20
1.894102292e+20
8.476517826e+19
6.401712024e+19
1.289331604e+20
7.574279541e+19
6.538470404e+19
8.78048572e+19
6.63293568e+19
6.681199412e+19
1.045092877e+20
1.473190672e+20
1.48339063e+20
1.173647204e+20
6.446658021e+19
7.574279541e+19
9.807705538e+19
9.878046435e+19
8.843914303e+19
6.681199412e+19
1.045092877e+20
1.367962757e+20
1.377434137e+20
6.401711936e+19
1.074442996e+20
7.574279594e+19
9.807705674e+19
9.878046504e+19
9.949403591e+19
1.113533235e+20
1.149602165e+20
8.418232409e+19
8.476517884e+19
7.468664028e+19
9.669987098e+19
1.190243936e+20
8.717960478e+19
1.207316778e+20
1.216038208e+20
1.113533235e+20
7.315650187e+19
1.157506956e+20
1.48339062e+20
7.468664028e+19
1.289331604e+20
1.406651915e+20
1.525643094e+20
9.878046504e+19
1.326587145e+20
7.794732648e+19
1.045092877e+20
9.470511396e+19
8.476517769e+19
9.60256797e+19
8.595544028e+19
6.492239607e+19
1.416668578e+20
7.682925005e+19
9.949403591e+19
6.681199412e+19
8.360743015e+19
8.418232409e+19
6.357388413e+19
1.066952004e+20
6.446658021e+19
1.082039942e+20
5.448725375e+19
1.097560723e+20
1.326587136e+20
1.113533227e+20
1.149602165e+20
8.418232352e+19
1.695303554e+20
6.40171198e+19
9.669987032e+19
1.082039934e+20
8.717960478e+19
7.682924951e+19
1.10548928e+20
1.224886568e+20
1.149602165e+20
1.578418577e+20
1.165521209e+20
1.066951997e+20
1.181887296e+20
8.656319476e+19
8.717960539e+19
1.097560723e+20
4.421957151e+19
6.681199412e+19
1.358620749e+20
1.367962766e+20
8.476517826e+19
1.173647204e+20
1.181887304e+20
1.082039934e+20
7.628215418e+19
8.78048572e+19
7.738425015e+19
1.113533235e+20
7.315650138e+19
1.367962766e+20
8.476517826e+19
9.60256797e+19
8.595544028e+19
1.190243936e+20
1.30769409e+20
4.39024286e+19
1.216038208e+20
1.447593206e+20
7.315650138e+19
1.157506948e+20
6.35738837e+19
8.535616032e+19
1.181887304e+20
1.082039934e+20
9.807705538e+19
1.207316786e+20
9.949403591e+19
6.681199412e+19
)
;

boundaryField
{
    flow
    {
        type            zeroGradient;
    }
    obstacle
    {
        type            calculated;
        value           nonuniform List<scalar> 0();
    }
    frontAndBack
    {
        type            empty;
    }
    procBoundary2to0
    {
        type            processor;
        value           nonuniform List<scalar> 
31
(
8.331198464e+19
8.331198464e+19
5.20699904e+19
1.145539789e+20
1.666239693e+20
1.041399808e+20
6.248398848e+19
1.041399808e+20
7.289798656e+19
8.331198464e+19
1.24967977e+20
7.289798656e+19
5.20699904e+19
6.248398848e+19
1.35381975e+20
6.248398848e+19
1.562099712e+20
8.331198464e+19
9.372598272e+19
6.248398848e+19
1.181887304e+20
7.574279541e+19
7.628215471e+19
1.426828939e+20
9.949403591e+19
1.447593206e+20
1.672148603e+20
9.470511396e+19
9.536082555e+19
9.602568036e+19
9.602568036e+19
)
;
    }
    procBoundary2to3
    {
        type            processor;
        value           nonuniform List<scalar> 
19
(
1.570373143e+20
1.009525592e+20
1.682542666e+20
7.851865717e+19
1.346034123e+20
7.851865773e+19
7.851865773e+19
1.009525592e+20
1.009525599e+20
8.973560819e+19
1.346034123e+20
1.570373155e+20
1.009525592e+20
1.009525592e+20
5.608475592e+19
7.851865717e+19
1.346034123e+20
5.608475552e+19
8.973560819e+19
)
;
    }
}


// ************************************************************************* //
