/*--------------------------------*- C++ -*----------------------------------*\
| =========                 |                                                 |
| \\      /  F ield         | OpenFOAM: The Open Source CFD Toolbox           |
|  \\    /   O peration     | Version:  2406                                  |
|   \\  /    A nd           | Website:  www.openfoam.com                      |
|    \\/     M anipulation  |                                                 |
\*---------------------------------------------------------------------------*/
FoamFile
{
    version     2.0;
    format      ascii;
    arch        "LSB;label=32;scalar=64";
    class       volScalarField;
    location    "0.012";
    object      rhoNMean;
}
// * * * * * * * * * * * * * * * * * * * * * * * * * * * * * * * * * * * * * //

dimensions      [0 -3 0 0 0 0 0];

internalField   nonuniform List<scalar> 
546
(
7.725103775e+19
9.975568761e+19
1.004586325e+20
1.002295245e+20
1.000438082e+20
1.000837285e+20
1.000924069e+20
9.99622319e+19
9.952831531e+19
1.001531552e+20
1.002000182e+20
1.006617054e+20
1.005072311e+20
9.983205692e+19
9.991710458e+19
9.982858559e+19
9.984247092e+19
1.000090949e+20
9.9420704e+19
9.919333171e+19
7.763114868e+19
9.948318799e+19
1.002208462e+20
1.006807978e+20
1.006374061e+20
1.004707821e+20
1.002798588e+20
1.003475498e+20
1.000420726e+20
9.984594226e+19
9.989627658e+19
9.972097428e+19
1.000108306e+20
9.969667495e+19
1.000490152e+20
9.968973228e+19
9.972444561e+19
1.001392699e+20
1.003961485e+20
1.001600979e+20
7.726145175e+19
9.947971666e+19
9.968452528e+19
9.942417533e+19
9.960294897e+19
9.970014628e+19
1.000854642e+20
1.001167062e+20
9.986156325e+19
1.002017539e+20
9.995355357e+19
9.996396757e+19
9.957691397e+19
9.9394669e+19
9.965328329e+19
9.989974791e+19
9.958906364e+19
9.951269432e+19
9.926970103e+19
9.934433468e+19
7.766586201e+19
9.992057591e+19
1.002139035e+20
9.954914331e+19
9.973659528e+19
9.936342701e+19
9.919853871e+19
9.923151637e+19
9.995355357e+19
9.953699365e+19
9.998479556e+19
1.002486168e+20
1.008491574e+20
1.004308618e+20
1.001462125e+20
9.981470026e+19
9.970708895e+19
9.970361761e+19
1.004916101e+20
1.004308618e+20
7.746973171e+19
9.968105395e+19
9.988412691e+19
9.988239125e+19
9.97817226e+19
1.000629005e+20
9.982684993e+19
9.990842624e+19
9.927664369e+19
9.877850745e+19
9.880280678e+19
9.833591253e+19
9.866742481e+19
9.921068837e+19
9.996570323e+19
1.004100338e+20
1.008474217e+20
1.007589028e+20
1.004690465e+20
1.001791902e+20
7.743328272e+19
9.97608946e+19
1.000403369e+20
1.000871999e+20
1.006998901e+20
1.007658454e+20
1.004169765e+20
1.003319288e+20
1.008144441e+20
1.009428834e+20
1.011876123e+20
1.008179154e+20
1.007536958e+20
1.002954798e+20
1.002173749e+20
1.003423428e+20
1.001653049e+20
9.977477993e+19
1.001687762e+20
1.002746518e+20
7.756519336e+19
9.95907993e+19
1.004516898e+20
1.005037598e+20
9.996917457e+19
1.000993495e+20
1.002243175e+20
1.006078998e+20
1.005523585e+20
1.007918804e+20
1.007970874e+20
1.01111243e+20
1.011025647e+20
1.005749221e+20
1.003631708e+20
1.003371358e+20
1.005089668e+20
1.001132349e+20
1.000351299e+20
9.992751857e+19
7.741766172e+19
9.999694523e+19
1.004881388e+20
1.003909415e+20
1.006269921e+20
1.003492855e+20
1.007901447e+20
1.006078998e+20
1.005575655e+20
1.003892058e+20
1.004239191e+20
9.982511426e+19
9.992578291e+19
9.99726459e+19
1.000767859e+20
1.001496839e+20
1.002694448e+20
1.006807978e+20
1.009845394e+20
1.008630427e+20
7.764329835e+19
9.966543296e+19
9.978866527e+19
1.002017539e+20
1.000976139e+20
9.95855923e+19
9.934433468e+19
9.976263027e+19
9.953178665e+19
1.000924069e+20
1.004430115e+20
1.005888075e+20
1.007346034e+20
1.007120398e+20
1.002625022e+20
9.971229595e+19
9.983726392e+19
9.972791694e+19
9.958732797e+19
9.951442998e+19
7.723715242e+19
9.909787006e+19
9.967758262e+19
9.9415497e+19
9.940681867e+19
9.970361761e+19
9.98025506e+19
9.99414039e+19
9.97869296e+19
9.938078367e+19
9.901455808e+19
9.909787006e+19
9.938599067e+19
9.972097428e+19
9.985114925e+19
9.999000256e+19
9.995008224e+19
9.944326766e+19
9.915688272e+19
9.878197878e+19
7.768669001e+19
9.971576728e+19
1.001340629e+20
9.989801225e+19
9.97921366e+19
9.952657965e+19
9.985288492e+19
9.932871368e+19
9.983379259e+19
1.000906712e+20
9.987371292e+19
9.979907926e+19
9.972618128e+19
9.947450966e+19
9.933392068e+19
9.953352231e+19
9.975048061e+19
1.001340629e+20
1.006582341e+20
1.008873421e+20
7.721458876e+19
9.977825127e+19
1.000212446e+20
1.000559579e+20
9.99726459e+19
9.970708895e+19
9.991363324e+19
9.956649997e+19
9.914646872e+19
9.932524235e+19
9.929226469e+19
9.963245529e+19
9.966369729e+19
1.000941425e+20
1.004603681e+20
1.000368656e+20
1.003232505e+20
9.949880899e+19
1.001080279e+20
1.002329959e+20
7.7728346e+19
9.990321924e+19
1.006460844e+20
1.001774545e+20
1.004516898e+20
1.002607665e+20
1.001444769e+20
1.001514195e+20
1.004759891e+20
1.004725178e+20
1.002868015e+20
1.006356704e+20
1.006964188e+20
1.003822632e+20
1.003839988e+20
1.007832021e+20
9.988065558e+19
1.006096354e+20
1.005107025e+20
1.003163078e+20
7.729095808e+19
9.915167572e+19
9.97765156e+19
9.983205692e+19
9.981122893e+19
1.001913399e+20
1.003631708e+20
1.009081701e+20
1.007050971e+20
1.006061641e+20
1.000021522e+20
9.934433468e+19
9.901802941e+19
9.946062433e+19
9.953699365e+19
9.955782164e+19
9.987544858e+19
9.963766229e+19
9.96116273e+19
9.978519393e+19
7.760684936e+19
9.99414039e+19
1.002364672e+20
9.962377696e+19
1.001323272e+20
9.99518179e+19
9.935995568e+19
9.975915894e+19
9.963419096e+19
9.956823564e+19
9.955435031e+19
9.989627658e+19
1.002191105e+20
9.964286929e+19
9.970188195e+19
9.957344264e+19
9.936863401e+19
9.938078367e+19
9.969493928e+19
9.987197725e+19
7.72076461e+19
9.92506087e+19
9.973833094e+19
9.99882669e+19
1.005332661e+20
1.000038879e+20
9.96220413e+19
9.941029e+19
9.923672337e+19
9.970535328e+19
9.98025506e+19
9.973659528e+19
9.959427063e+19
9.97973436e+19
1.003354002e+20
1.004482185e+20
1.003388715e+20
9.995355357e+19
9.954740764e+19
9.96168343e+19
7.782033632e+19
1.003579638e+20
1.008161797e+20
1.001739832e+20
9.949186632e+19
1.002763875e+20
1.004464828e+20
1.006564984e+20
1.006564984e+20
1.010296667e+20
1.006929474e+20
1.002677092e+20
1.004169765e+20
9.990148358e+19
9.991710458e+19
9.967237562e+19
9.96220413e+19
9.963245529e+19
1.000871999e+20
9.983726392e+19
7.597011599e+19
9.755486268e+19
9.821962289e+19
9.866742481e+19
9.863965414e+19
9.866048214e+19
9.894166009e+19
9.883057744e+19
9.86830458e+19
9.860667648e+19
9.92558157e+19
9.92558157e+19
9.941723267e+19
9.92558157e+19
9.910134139e+19
9.917250371e+19
9.930962135e+19
9.965154762e+19
9.97817226e+19
9.972097428e+19
1.002652304e+20
1.005052793e+20
1.006161614e+20
1.004030249e+20
1.005018736e+20
1.010661323e+20
9.926988873e+19
9.960347359e+19
9.965912646e+19
9.918385761e+19
9.968682187e+19
1.000381987e+20
1.005562261e+20
1.006774151e+20
1.004337011e+20
1.003237768e+20
1.003358841e+20
1.005610475e+20
1.00965923e+20
1.010972582e+20
1.006896346e+20
1.00388059e+20
1.003255634e+20
1.007688785e+20
1.007487662e+20
1.010290146e+20
9.982552978e+19
9.948421529e+19
9.946663887e+19
9.958396461e+19
9.971547368e+19
9.963604056e+19
9.973710105e+19
9.991644039e+19
1.001775961e+20
1.005112209e+20
1.005623203e+20
1.008311318e+20
1.003213544e+20
1.009336596e+20
1.008293129e+20
1.005557745e+20
1.002111395e+20
1.001688779e+20
9.949035024e+19
1.000509612e+20
1.004177491e+20
9.992266422e+19
9.993461329e+19
9.970666477e+19
9.975128845e+19
9.970637316e+19
1.002856061e+20
1.01054245e+20
1.005276684e+20
1.001660263e+20
1.000850612e+20
1.001489049e+20
1.003089928e+20
1.005744517e+20
1.013468363e+20
1.013835358e+20
1.008104999e+20
1.00635342e+20
1.01084098e+20
1.011552157e+20
9.999100349e+19
1.002558866e+20
1.000564632e+20
1.002099105e+20
9.970651999e+19
9.960718617e+19
9.992780643e+19
1.001121713e+20
9.943139081e+19
9.928076738e+19
1.011371213e+20
1.011257706e+20
1.003478442e+20
9.949149612e+19
9.9090506e+19
9.895976561e+19
9.90523772e+19
9.86633912e+19
9.89578736e+19
9.911559328e+19
9.862541479e+19
9.861959201e+19
9.870198565e+19
9.829295202e+19
9.895619995e+19
9.918158448e+19
9.954458011e+19
9.896339183e+19
9.92158211e+19
9.935314704e+19
9.899816459e+19
9.981919079e+19
9.999112409e+19
1.006775911e+20
1.005410047e+20
1.004656052e+20
1.004418022e+20
1.0068839e+20
1.007561355e+20
1.001029261e+20
1.008950088e+20
1.004680962e+20
1.003566732e+20
1.004517529e+20
1.006842631e+20
1.003646141e+20
1.002165889e+20
1.001487574e+20
1.003378927e+20
1.003775976e+20
1.00398589e+20
1.003260379e+20
1.003796298e+20
9.990582846e+19
9.974233476e+19
9.992819135e+19
1.002202207e+20
1.007579029e+20
1.009698641e+20
1.011533591e+20
9.974540599e+19
1.001980112e+20
1.003672696e+20
1.00606461e+20
1.002455322e+20
1.006459452e+20
1.002111408e+20
1.00179855e+20
9.988464142e+19
9.98022714e+19
1.001268649e+20
1.003909284e+20
9.994344232e+19
1.002988224e+20
1.007236594e+20
1.002888713e+20
1.001112462e+20
1.001158292e+20
1.000062452e+20
9.943480685e+19
9.935523799e+19
9.95876894e+19
9.947546925e+19
9.951816924e+19
9.952923621e+19
9.946471757e+19
9.93266304e+19
9.94261966e+19
9.986068985e+19
1.002532531e+20
9.962522098e+19
9.978411482e+19
9.971033876e+19
9.982225124e+19
9.999303812e+19
9.941782918e+19
9.972438666e+19
9.939143981e+19
9.957142016e+19
1.001103496e+20
9.964612217e+19
9.947018491e+19
9.947193669e+19
9.923364871e+19
9.955072575e+19
1.000345926e+20
1.002583631e+20
1.008585126e+20
1.008777393e+20
1.003033621e+20
9.954509652e+19
9.92842816e+19
9.926178969e+19
9.994139421e+19
9.908334305e+19
9.90300982e+19
9.926669373e+19
9.842192785e+19
9.796477573e+19
9.872956843e+19
)
;

boundaryField
{
    flow
    {
        type            calculated;
        value           nonuniform List<scalar> 
48
(
7.725103775e+19
7.763114868e+19
7.726145175e+19
7.766586201e+19
7.746973171e+19
7.743328272e+19
7.756519336e+19
7.741766172e+19
7.764329835e+19
7.723715242e+19
7.768669001e+19
7.721458876e+19
7.7728346e+19
7.729095808e+19
7.760684936e+19
7.72076461e+19
7.782033632e+19
7.597011599e+19
7.597011599e+19
9.755486268e+19
9.821962289e+19
9.866742481e+19
9.863965414e+19
9.866048214e+19
9.894166009e+19
9.883057744e+19
9.86830458e+19
9.860667648e+19
9.92558157e+19
9.92558157e+19
9.941723267e+19
9.92558157e+19
9.910134139e+19
9.917250371e+19
9.930962135e+19
9.965154762e+19
9.97817226e+19
9.972097428e+19
9.954509652e+19
9.92842816e+19
9.926178969e+19
9.994139421e+19
9.908334305e+19
9.90300982e+19
9.926669373e+19
9.842192785e+19
9.796477573e+19
9.872956843e+19
)
;
    }
    obstacle
    {
        type            calculated;
        value           nonuniform List<scalar> 0();
    }
    frontAndBack
    {
        type            empty;
    }
    procBoundary2to0
    {
        type            processor;
        value           nonuniform List<scalar> 
31
(
7.742807572e+19
9.971056028e+19
1.001201775e+20
9.949707332e+19
9.97869296e+19
9.96064203e+19
1.001514195e+20
1.005731865e+20
1.009237911e+20
1.005645081e+20
1.003631708e+20
1.001600979e+20
1.001739832e+20
1.001548909e+20
9.985982759e+19
1.000108306e+20
9.971403161e+19
9.956823564e+19
1.000038879e+20
9.99570249e+19
1.001792749e+20
1.001590265e+20
1.000385972e+20
1.005292451e+20
1.0164974e+20
1.019439677e+20
1.000763521e+20
9.940529369e+19
9.961321199e+19
9.992361168e+19
9.992361168e+19
)
;
    }
    procBoundary2to3
    {
        type            processor;
        value           nonuniform List<scalar> 
19
(
1.014778864e+20
1.009712541e+20
1.00933865e+20
1.006366151e+20
1.002346743e+20
9.98589072e+19
1.013731956e+20
9.915410806e+19
9.952613765e+19
9.895968091e+19
1.001019404e+20
1.004384497e+20
1.012460694e+20
1.000944625e+20
9.960278754e+19
9.983086411e+19
1.006235286e+20
1.000271615e+20
9.845491812e+19
)
;
    }
}


// ************************************************************************* //
