/*--------------------------------*- C++ -*----------------------------------*\
| =========                 |                                                 |
| \\      /  F ield         | OpenFOAM: The Open Source CFD Toolbox           |
|  \\    /   O peration     | Version:  2406                                  |
|   \\  /    A nd           | Website:  www.openfoam.com                      |
|    \\/     M anipulation  |                                                 |
\*---------------------------------------------------------------------------*/
FoamFile
{
    version     2.0;
    format      ascii;
    arch        "LSB;label=32;scalar=64";
    class       volScalarField;
    location    "0.012";
    object      translationalT;
}
// * * * * * * * * * * * * * * * * * * * * * * * * * * * * * * * * * * * * * //

dimensions      [1 2 -2 0 0 0 0];

internalField   nonuniform List<scalar> 
546
(
288.4110628
304.3344806
297.8605636
299.4785299
299.5956083
298.8941592
299.8941304
301.2454745
299.6359972
300.4941595
302.3809189
302.3414319
301.3078038
300.375298
298.8880113
299.7655289
298.9619962
298.9004381
299.9381198
301.2617947
289.7838945
304.7886838
298.6765569
300.2674453
300.0831472
300.4970819
300.7474487
300.4196068
300.9671533
300.8224705
299.0141106
299.6911083
300.7164216
301.6879143
302.2112144
301.2827566
301.5259201
301.9822218
301.4765115
299.8146443
290.9632176
307.3508524
299.229813
300.0783529
300.8909173
301.7306906
300.5749133
300.7506462
299.6372983
300.2567244
299.5707042
300.7645001
299.9837665
299.3420983
300.4676306
300.4581793
300.3118858
298.3982162
297.9311558
298.3382006
292.7843856
307.8294298
301.2748658
300.0374729
298.5828092
298.3769362
297.817236
298.0649333
299.3971404
298.4166612
298.6696864
298.7917086
299.4239776
298.9458616
299.1458047
299.9433021
299.8078217
301.8905897
303.0689105
300.9753531
289.256703
305.518646
298.5499653
299.8189653
299.244655
299.5088799
300.2626531
300.4116748
300.5548034
299.7890515
300.2880126
298.2963341
298.5751059
299.4981425
298.9631514
300.2530201
300.5709222
300.3332632
299.9677881
300.4642505
291.9761534
307.5978795
298.97153
298.3048808
299.8639828
299.2452696
298.024184
298.5031925
298.4108078
299.9204679
300.2610722
299.1327345
301.281874
301.2061071
302.7553163
302.8324153
303.1484555
302.4166249
302.7323693
303.4067591
288.834363
304.6174149
299.7666944
300.4155951
300.871796
300.5413795
300.8396708
301.7918013
300.8442319
299.7265864
299.4522446
299.4403253
299.9256226
298.1534507
298.2550651
298.5628319
298.3451077
300.09614
300.2801352
299.647057
290.1049289
306.375922
299.318659
299.8563085
299.6492967
299.1666518
300.128632
299.8927292
299.3947007
301.3599407
301.1334016
299.8190306
300.1190489
300.0072454
299.1486854
299.5230581
299.3143497
298.7083788
299.4560106
300.6090425
291.0624216
305.5436732
298.4016521
299.3005296
298.8947024
299.5979453
298.6288574
299.4128846
300.6656948
300.2342772
300.2605296
302.1649745
301.8577323
301.8086403
301.3056186
301.2045335
300.8222056
301.3034965
300.9498961
302.3093685
289.9503231
307.307356
300.1882572
298.8607807
298.598081
298.8475597
299.0095914
300.3828549
300.9058208
300.7679097
300.4811308
301.275233
300.0277429
302.315182
303.7015282
302.3815337
303.2084876
303.9536139
301.5194305
299.1367323
292.18362
307.4565922
299.7437394
300.4581669
300.6325936
301.01453
300.1663141
298.9931585
299.4199436
299.6970887
298.8279976
298.7911225
300.3763868
299.8815429
298.4976131
299.0855173
300.0236143
299.1957336
299.5797493
299.7291696
288.3510191
305.0765665
297.196753
300.052281
299.149786
298.9509381
299.0533332
298.6080586
298.021903
298.9011288
299.1497048
298.8330801
299.5573225
301.0328647
300.127882
299.4286632
299.5882563
299.5922678
300.5087831
301.0457609
290.4957533
305.7861122
298.0978019
298.5092136
299.0697867
298.9233854
299.4112994
298.7655268
298.5680177
297.8469999
299.3912169
300.9335559
301.1019981
298.9430082
298.9337122
300.6814699
299.3630594
300.2106294
300.3610391
301.3602559
288.2679597
304.9249343
299.1380788
299.822796
299.7969134
299.4636264
300.2813699
301.9809899
303.0511036
303.534436
300.4504376
298.6841419
298.2910013
300.4198488
301.7441887
300.1593134
300.931604
298.8626805
298.6760753
298.4630356
291.9990113
307.7069122
299.0127818
298.9561193
300.4542268
301.7384593
301.7275952
302.9998059
302.4353032
302.6678511
301.4581933
302.1008028
300.999868
299.9413928
298.8334759
298.8425336
299.345304
300.5140828
300.2987916
298.6277315
290.8629932
305.762839
298.7476524
302.1226024
301.5553389
300.4334369
300.3330374
296.7074952
295.8406451
297.878885
298.9507431
299.2697792
299.2909541
299.6881655
299.268778
297.7092702
297.437359
296.4642126
296.9541022
298.4327372
289.511669
305.0429264
299.0200758
297.4294431
296.0631174
296.4118461
298.0693095
298.413348
299.736004
299.4238957
299.1965862
299.8303713
300.0081933
300.035798
300.198062
299.9604281
299.5739599
299.3380628
299.7906515
298.1658998
290.4843315
304.0666044
297.7695934
296.3800963
294.9350562
296.1828366
296.6191413
297.1056892
296.8916012
297.5305732
297.2443283
295.2125479
297.1798345
295.7536723
296.743793
296.0672366
296.473671
298.0203046
297.7276355
296.5747279
307.9342872
308.3553828
308.0197596
309.6524797
314.9473268
320.7109586
302.5007219
303.8978714
302.4088943
303.8328787
304.7738177
305.4531538
306.1675249
310.2947942
309.6481954
313.1085289
299.4573468
299.2631092
299.3637297
301.7495801
303.1839845
305.529255
304.836187
306.8667424
307.6816719
310.1719948
299.7208683
301.9139272
303.7285304
303.5539001
300.9168662
302.5955568
305.2826455
306.7220121
307.1813995
307.6653959
299.9643821
301.0719104
300.9973369
301.5021932
301.264612
302.6842726
303.5984018
302.5133764
305.0762934
305.3095355
301.0008315
300.6446898
300.7578435
302.5271765
302.3271581
302.0021307
304.5135068
305.0822847
305.7326006
306.4343402
302.2471687
301.9956045
301.1651354
301.8513741
303.8968259
301.2451056
300.7741871
300.1420549
301.3675135
300.249673
301.1749584
301.3583285
302.6382616
299.6068984
300.7245483
300.1560308
300.7562631
302.7661286
303.3953615
303.2087323
299.8685936
301.1351084
300.0041338
300.0843588
301.1874316
300.6888965
300.3092966
300.5627864
301.153517
302.1350874
301.3830771
301.3411349
301.9515245
299.8807595
301.0701067
301.2648104
300.3387546
301.5471824
302.0442966
301.1857675
299.5784265
300.0890897
300.8292052
301.5621482
299.2892568
300.5914068
301.0449341
300.7927414
301.2030855
301.750714
299.6542791
299.2423512
300.3756609
301.3753487
301.2526263
300.8612832
300.510074
301.3214376
300.1931821
301.4285594
301.4592696
300.9408618
299.6124688
299.8954171
300.3789872
299.4962957
300.187028
299.5589536
299.3662923
300.1573096
301.3180539
301.0821417
303.2977659
301.6281877
299.7428496
300.4273761
300.0743642
299.9187483
299.1679267
297.8303176
298.731146
298.7594028
297.4070872
299.3382017
300.9697924
298.5483512
297.6861812
299.8819309
297.9390018
298.615134
298.3887031
298.7833165
299.4278318
298.2902167
298.4382576
300.0315019
299.971881
298.2881986
299.3981783
299.9537675
298.7087011
297.776977
296.8862163
298.2130805
298.3135111
297.0054126
299.1214429
299.1470095
299.2732911
299.7808831
297.2606304
299.0358038
298.7111359
298.5345233
299.3036627
299.4666617
299.8664971
300.5355575
301.788722
300.3519775
297.7172017
296.5695708
295.8633864
296.5770728
297.3512393
296.6148633
296.7608116
296.7364967
296.2456215
297.8227034
)
;

boundaryField
{
    flow
    {
        type            calculated;
        value           nonuniform List<scalar> 
48
(
288.4110628
289.7838945
290.9632176
292.7843856
289.256703
291.9761534
288.834363
290.1049289
291.0624216
289.9503231
292.18362
288.3510191
290.4957533
288.2679597
291.9990113
290.8629932
289.511669
290.4843315
290.4843315
304.0666044
297.7695934
296.3800963
294.9350562
296.1828366
296.6191413
297.1056892
296.8916012
297.5305732
297.2443283
295.2125479
297.1798345
295.7536723
296.743793
296.0672366
296.473671
298.0203046
297.7276355
296.5747279
297.7172017
296.5695708
295.8633864
296.5770728
297.3512393
296.6148633
296.7608116
296.7364967
296.2456215
297.8227034
)
;
    }
    obstacle
    {
        type            calculated;
        value           nonuniform List<scalar> 0();
    }
    frontAndBack
    {
        type            empty;
    }
    procBoundary2to0
    {
        type            processor;
        value           nonuniform List<scalar> 
31
(
289.3317152
306.4953051
298.5897789
299.3751866
298.1319647
298.7789328
298.7372875
300.1245956
299.9428731
299.6813213
299.1572803
299.170951
301.1082895
301.8491935
301.7985239
299.5250146
298.5304298
300.5880342
301.4163861
302.1164483
307.1391311
312.0333382
314.6893978
319.4683874
326.920911
330.4777258
298.4662979
300.4301869
304.0880737
305.8445886
305.8445886
)
;
    }
    procBoundary2to3
    {
        type            processor;
        value           nonuniform List<scalar> 
19
(
326.5411261
319.9377543
314.7858457
311.0720067
307.8364679
308.097276
303.3152552
303.2205157
302.4758396
300.45305
302.6696849
303.2131738
300.4744787
298.6269548
299.3730494
301.2839478
301.3884581
299.4594697
297.996886
)
;
    }
}


// ************************************************************************* //
