/*--------------------------------*- C++ -*----------------------------------*\
| =========                 |                                                 |
| \\      /  F ield         | OpenFOAM: The Open Source CFD Toolbox           |
|  \\    /   O peration     | Version:  2406                                  |
|   \\  /    A nd           | Website:  www.openfoam.com                      |
|    \\/     M anipulation  |                                                 |
\*---------------------------------------------------------------------------*/
FoamFile
{
    version     2.0;
    format      ascii;
    arch        "LSB;label=32;scalar=64";
    class       volVectorField;
    location    "0.012";
    object      UMean;
}
// * * * * * * * * * * * * * * * * * * * * * * * * * * * * * * * * * * * * * //

dimensions      [0 1 -1 0 0 0 0];

internalField   nonuniform List<vector> 
546
(
(1709.890439 0.7832041782 0.1617941277)
(1743.621176 1.370721211 -0.5950404806)
(1735.622585 2.464867968 0.6927780845)
(1734.247219 2.905919065 0.3848350802)
(1734.78675 0.5114206605 -0.4946133621)
(1734.972204 -0.6548626508 0.9977880192)
(1735.320693 0.4432801881 1.627199532)
(1734.569638 -0.5655110142 0.5707852191)
(1737.402041 -2.063602814 0.570268174)
(1736.893174 -2.219042092 -0.7302095135)
(1737.075275 -1.718374996 -3.271221846)
(1738.352325 0.5029107698 -2.007536231)
(1738.458423 1.952846843 -1.486085158)
(1736.766773 1.778837245 0.09950865145)
(1738.274061 1.834672677 1.091904163)
(1738.077758 2.025163685 -1.402204728)
(1737.401321 -0.1449767522 -3.070731015)
(1737.415649 -2.338566052 -1.932975687)
(1737.471289 0.2056234208 -1.827109698)
(1736.566886 1.890206745 -2.261331839)
(1710.236071 1.089792267 2.106336799)
(1748.29352 1.003917024 2.107055302)
(1739.294253 1.287217808 3.011598964)
(1738.7715 -0.2118638175 0.7267951552)
(1737.242121 1.458313936 0.3876848899)
(1736.396457 1.430677509 -1.52492886)
(1737.027152 -1.907110872 -2.628887096)
(1736.902176 -3.113795157 -2.860725791)
(1735.97991 -1.910146328 -2.531169353)
(1735.825432 -0.0117440142 -0.6488513403)
(1737.493213 1.43463419 -0.4193957418)
(1737.149287 0.2423431891 -0.5325749129)
(1737.185887 -0.6541308048 -2.722255612)
(1739.26885 0.338309513 -2.773207791)
(1738.07017 2.470590606 -1.88005802)
(1737.944968 1.833856453 0.2586534413)
(1738.597143 2.627756159 1.059352465)
(1736.754349 3.408875097 -0.2205287983)
(1736.566643 1.694931225 0.8157589539)
(1736.853661 1.627742125 1.212186518)
(1708.307021 -0.05009288821 -2.902657667)
(1745.212634 -1.091004816 -3.095185275)
(1738.303408 -2.323607434 -1.352832722)
(1737.273109 -3.734490901 -0.9097034623)
(1738.317796 -2.678173514 0.2565877129)
(1739.435484 -2.274052052 1.341046537)
(1737.920512 1.220342095 1.124644065)
(1739.281423 3.698605173 1.542716277)
(1739.609315 3.760192616 0.09440884028)
(1737.134371 2.342333657 -0.8169148266)
(1736.883481 2.1704133 -1.512545862)
(1736.387571 2.370396869 -0.8412916783)
(1733.638479 1.95888507 0.6578839253)
(1734.841161 1.736962068 0.7545092145)
(1734.80803 -0.1221273186 0.1025682717)
(1734.266896 0.5728035481 -1.476314956)
(1734.882465 -0.2242437567 -1.227666478)
(1734.637247 0.388447722 -0.05317761624)
(1736.875 1.051052926 -0.1628200364)
(1736.53049 -1.968676243 -2.085127899)
(1707.381548 0.4984320721 0.9314715803)
(1744.707774 -0.4322493475 1.089737957)
(1737.033007 -0.4048811662 0.498084562)
(1736.749604 0.9916131232 0.9756474796)
(1736.957176 0.07547322131 0.5175715793)
(1737.964568 0.8032693867 1.662670928)
(1738.392985 -0.9964698315 1.22351232)
(1737.997615 -1.486397306 0.7264597958)
(1737.612355 -0.1994369392 1.044478403)
(1736.803162 0.8984555987 1.683637582)
(1737.278214 -0.3426366412 1.02768459)
(1738.39095 -0.05432425252 2.024027624)
(1739.125326 1.695235143 -0.1371604753)
(1738.732561 2.285740525 0.3492215547)
(1739.02822 3.558794058 1.205758306)
(1737.629456 2.617116551 0.9343162426)
(1739.221784 2.753411997 1.441314675)
(1737.930317 0.8890515103 1.226277016)
(1735.681097 -0.9675610474 0.8897263716)
(1737.059169 -1.686787366 1.877087071)
(1710.639199 -0.4180990712 -2.289063727)
(1745.63143 1.765541501 -1.570414008)
(1736.965812 3.00561627 -1.106068745)
(1735.469343 1.295805133 -2.708921913)
(1736.111567 2.296806966 -1.998597542)
(1734.366208 2.384503736 -2.166082461)
(1734.108406 1.756404879 -1.532336814)
(1735.048047 0.8963369955 1.463645987)
(1735.339599 -1.329537705 0.8426667233)
(1737.616752 -0.01932627708 1.121193245)
(1738.543557 2.018327685 0.8158005384)
(1738.402081 1.507700438 1.107487652)
(1739.048258 0.7794778144 1.475095729)
(1738.382866 0.1957696175 0.3284136153)
(1737.3226 -1.407800728 -0.6291864997)
(1736.869213 -0.9536541106 0.4535920872)
(1736.302943 -2.833695411 0.8099040267)
(1737.264998 -2.287151971 0.6259323028)
(1736.534078 -1.484557367 0.7858387369)
(1735.643194 0.2973981048 1.119735671)
(1708.04541 2.081186 -1.391906519)
(1744.452899 2.726940098 -1.763686754)
(1735.572106 2.003472849 -1.104215679)
(1735.691555 4.120362003 0.2467957855)
(1734.116064 2.844943604 1.335227978)
(1735.30281 2.790776909 2.001489765)
(1734.563126 2.208041505 1.47020549)
(1733.902793 0.6599806705 -1.095333088)
(1733.33916 2.471204483 0.5066146671)
(1734.164135 -0.7363797704 0.5259918398)
(1733.543366 -2.673694615 0.6039316643)
(1733.699255 -3.268668149 -0.4241923917)
(1733.311943 -3.191815934 -0.795271115)
(1734.73194 -3.665707101 1.198999368)
(1735.073808 -2.57485321 1.147908783)
(1734.804323 -2.968561504 -0.1886852666)
(1733.887307 -1.668911756 -0.5372933685)
(1733.09819 -0.6970438446 -1.084082593)
(1732.331279 0.433832266 0.07921629971)
(1734.573397 -0.322943748 -0.9012906947)
(1708.43091 1.571524467 1.182048398)
(1744.590706 1.749346254 0.8756352992)
(1735.559756 0.7061509884 0.7152709084)
(1735.876597 -0.2404550531 -1.037783541)
(1735.747968 -1.930941923 -2.426882937)
(1735.490089 -1.652776155 -2.203764704)
(1734.802939 -1.1025381 -1.356421071)
(1735.620211 0.3639677068 -1.051262936)
(1736.386023 0.3635509836 -1.244863812)
(1733.629176 -0.2363340341 -0.6708522995)
(1735.255605 1.225758882 0.8129423911)
(1733.036352 2.319138692 0.2004316227)
(1733.559161 0.6192789962 -1.538276118)
(1734.171471 0.3023571968 -1.289716723)
(1732.672157 0.6766612769 -1.283183015)
(1733.349822 0.5563423495 -1.28350434)
(1731.926157 -0.1138910118 0.2383041467)
(1733.68226 0.3301743651 -0.4294470025)
(1733.998294 -0.2263589654 -0.6571892093)
(1733.935071 -0.3248667283 -1.262205973)
(1710.097325 -2.017370199 1.52853571)
(1746.389011 -2.138031104 -0.6639877505)
(1737.832098 -2.530473926 0.2521432503)
(1737.097626 -0.609753895 0.3262439358)
(1737.363428 -1.737719249 2.610421591)
(1736.935626 -1.061631486 0.6319224677)
(1736.12193 0.7415225527 -1.903579103)
(1735.078755 1.071215929 -1.913442794)
(1735.490148 -0.04825514165 -2.973856761)
(1735.393996 2.38821587 -2.235348486)
(1735.745481 2.221060341 -2.386052919)
(1735.045075 0.7216465001 -3.876858988)
(1734.636695 -0.01687917996 -1.342339816)
(1736.169086 -0.09023258776 -2.514435311)
(1735.686514 0.4123102607 -1.108818309)
(1735.191725 0.09506601197 -1.234379232)
(1736.425626 -0.7061160292 -1.690205375)
(1735.725565 -0.5217303376 -2.851029655)
(1734.386873 -1.092835218 -3.502079221)
(1734.621913 -1.425213503 -3.582071335)
(1707.132618 -1.624414261 -0.2546734494)
(1744.029431 -3.406530534 -0.5167625265)
(1734.813863 -5.054144178 -0.3780446916)
(1733.373566 -3.420169311 -1.826135325)
(1733.435108 0.6376497924 -1.499524371)
(1734.217398 2.216489679 -0.05346779962)
(1735.910955 1.604866366 1.025495972)
(1737.720234 -1.021558761 1.40467056)
(1736.984697 0.1889870357 2.160144509)
(1737.083507 -0.9859147748 -0.3715667458)
(1736.1647 -0.9913743309 0.7845393273)
(1735.926858 -1.095470532 1.747272328)
(1736.276195 0.06164516541 1.916280801)
(1735.878503 0.9231879909 0.5400123222)
(1736.262042 0.652259234 -0.1760771085)
(1736.201511 1.415573368 -1.625606974)
(1736.058753 -1.223421615 -0.2530504998)
(1735.206591 -0.190739715 -0.03889952982)
(1736.756619 0.3125364821 0.7679166761)
(1737.892269 0.4205274144 1.385775716)
(1708.163012 -0.8972862436 -1.379773746)
(1743.931651 1.659914378 -0.03240397777)
(1736.162953 1.527504345 -0.4301424151)
(1738.212318 -0.7113367619 -0.1363492934)
(1738.823049 -1.591237174 0.4415882401)
(1737.092288 -1.614790873 0.423742471)
(1737.232035 -1.012874101 0.9031763487)
(1735.890932 -0.8433533779 -0.137023098)
(1736.041657 -0.9529669495 -0.5703304886)
(1737.162641 -2.018103408 -0.4157639115)
(1736.042692 -0.7762437569 -1.178737348)
(1737.012482 1.816576263 -1.891290907)
(1736.993721 1.283475169 -3.358822802)
(1736.513731 1.80409903 -3.061384598)
(1736.628784 0.9017563685 -1.022345264)
(1736.54249 1.574681283 -1.270778385)
(1735.625319 3.307095574 -2.14557334)
(1735.411322 4.033457981 -1.027078345)
(1737.205291 3.516661378 -0.8040383484)
(1737.512946 1.726243947 -1.902565907)
(1709.6249 1.508721257 -0.8854220366)
(1747.016717 0.1610102017 -1.312492834)
(1739.010212 2.07254356 -0.1374117912)
(1737.032784 0.6978943807 0.7757518005)
(1736.750791 -0.3575053794 -1.732558722)
(1734.157315 -2.364937966 -1.687857262)
(1735.049419 -1.683868745 -1.157966434)
(1735.807175 -0.5135096102 -1.717901996)
(1735.986845 0.7572414264 -1.402459697)
(1734.504336 1.792156284 -1.023249602)
(1735.623663 0.2813324171 -0.6341689631)
(1733.741862 -0.4755503152 0.5621550795)
(1734.013181 0.09328503385 -0.09093942605)
(1735.428943 -0.1209502872 0.108895037)
(1736.696513 0.3228230781 -1.050261562)
(1736.841409 0.8354500669 1.358594825)
(1736.803043 2.256531636 -0.1106550027)
(1737.115409 0.7998505679 -1.243999769)
(1736.817292 2.369525555 -0.6497823965)
(1736.291704 2.890237275 -0.2265604344)
(1708.908178 0.8076317085 1.289426044)
(1744.859093 1.23462512 0.3851871527)
(1736.348353 -0.4495786146 -2.021227244)
(1736.411454 0.9173170437 -2.896462204)
(1736.357309 0.3866096398 -2.485277033)
(1737.551402 1.351156844 -2.669465364)
(1737.417229 0.3234137327 -3.417366483)
(1738.358698 -1.179497403 -3.844629079)
(1738.918363 -1.633052127 -2.356314774)
(1737.799888 -0.6279171624 -2.869553749)
(1737.578717 -0.6357996965 -4.02905678)
(1739.040067 0.3686756981 -3.622286871)
(1738.359252 1.297932099 -2.103226827)
(1736.057435 -0.6670187803 -0.4177285913)
(1735.12147 -0.2512455082 -1.607605572)
(1736.009192 -1.354717978 -1.820121839)
(1734.559819 -0.4561527466 -1.819995081)
(1734.501304 -0.01173099229 0.1850703912)
(1735.117305 -0.7178444166 -1.069310561)
(1733.613227 0.188067886 -0.4936579271)
(1710.473054 0.7365086892 -4.793720247)
(1746.718969 -0.1896964737 -4.785271057)
(1736.673687 1.216981272 -4.380074243)
(1737.190054 1.674291262 -3.861916738)
(1737.725505 1.381769864 -3.684687733)
(1737.558162 -0.1417254444 -3.330080096)
(1737.235306 0.3964434825 -2.268752568)
(1735.809351 0.98093947 -1.596468653)
(1734.551982 0.07727224842 -1.45107218)
(1736.272428 -2.267193791 -0.3335615648)
(1734.502137 -0.1723624132 0.4239327079)
(1734.853153 -1.949521075 0.6366983296)
(1736.292908 -2.027283703 -1.172393746)
(1736.705779 0.499981145 -2.058950204)
(1737.025487 0.1359115593 -1.231342902)
(1736.426971 0.7325072408 -0.599473218)
(1736.725355 -0.2641705479 -1.664622492)
(1737.202627 -0.3876943282 -1.297503201)
(1736.466006 0.9633102406 -1.676045547)
(1736.721046 1.881469382 -1.002663958)
(1708.998013 0.6013366857 -4.648453109)
(1747.44705 -0.1074409837 -3.296020185)
(1738.486762 -0.8236336828 -2.839614399)
(1736.621964 -0.4882548733 -3.226852328)
(1736.506893 -1.479721986 -1.704182209)
(1734.743132 1.530056225 -1.797900547)
(1735.821075 1.444668973 -0.8507597466)
(1733.69368 1.514044231 -1.231817273)
(1735.62676 0.289044291 -2.335109019)
(1735.390734 0.1740912051 -1.34652162)
(1735.999151 -1.126233682 -2.831194208)
(1736.40316 -0.7553790621 -2.017559162)
(1735.535864 -0.6816764577 -3.611038185)
(1734.068651 0.07405238667 -1.42261102)
(1734.589869 1.129658106 -1.681585618)
(1735.007502 1.444099663 -2.461776173)
(1735.607918 -0.3710890393 -3.030730999)
(1737.011561 -0.147991358 -3.284086698)
(1738.371878 -1.153543483 -1.919031314)
(1737.44141 -1.39243656 -1.811923638)
(1706.793729 -1.12777589 -1.930372425)
(1742.722898 -0.3802278362 -2.246826936)
(1733.649295 -0.6014448665 -1.544769518)
(1735.182344 -0.2913789444 0.4448321077)
(1732.985916 -0.1262112944 0.4553068326)
(1732.554528 0.4261553728 0.2323412133)
(1733.200709 -2.486376696 0.3762812079)
(1733.246794 -2.607717489 1.189753867)
(1732.903147 0.03178458206 0.8408303127)
(1732.757995 3.552966212 1.234061378)
(1732.582712 3.643671152 0.9054011577)
(1733.307727 3.152685025 -0.0583452494)
(1734.484663 2.326986208 2.487589338)
(1735.52185 -1.676041313 2.095926284)
(1735.369412 -2.576623612 0.3349791654)
(1734.756626 -2.95371706 -0.1713701196)
(1735.538488 -2.323307383 0.5013382384)
(1732.952318 -1.551844375 -0.2604912254)
(1734.345747 -2.119561157 -2.003385544)
(1734.520028 -1.487419721 -2.678751876)
(1708.406822 1.750452706 -1.339096002)
(1745.559779 1.998522537 -1.236692015)
(1738.238446 1.906976558 -1.407202398)
(1737.661798 0.8913713607 -0.7109988679)
(1737.733153 0.2912335684 -0.9832404827)
(1738.671604 1.72124565 -1.502592914)
(1738.005987 2.20656418 -1.504365266)
(1738.946674 3.415959893 -1.118151698)
(1740.750598 1.007305948 -2.010940308)
(1738.371136 -1.575673156 -2.422605213)
(1739.172425 -1.550460776 -1.727592637)
(1736.660395 -1.102912905 -1.22136262)
(1737.44611 -0.4249537277 -3.429156739)
(1735.105739 1.901873681 -3.421897962)
(1734.68565 1.739564892 -2.631390136)
(1735.736671 -0.4194927577 -1.61510545)
(1735.850131 -1.348241233 0.7580035524)
(1735.033656 -2.376544128 -0.4806562096)
(1734.955283 -0.1241404055 -0.2179337725)
(1735.22169 -0.4854844668 0.3041495515)
(1707.338157 1.099988651 -0.3987106154)
(1746.615126 0.5257161193 -0.7107766336)
(1737.547731 0.4343728673 -1.694084943)
(1737.990052 0.7700682489 -1.994034262)
(1740.334485 1.715092647 -2.313527088)
(1738.883846 1.630958438 -1.960030679)
(1738.524413 1.248752932 -2.788488394)
(1739.159614 0.8053230921 -2.65633448)
(1735.866584 1.844294851 -1.444621526)
(1737.878547 1.046265739 -0.9579693027)
(1736.375513 0.5571762851 -0.8805287661)
(1736.637252 0.09029658566 -0.849796971)
(1736.402641 0.213280858 -1.474946193)
(1735.736443 0.3763879222 -0.8145680267)
(1736.43789 0.2891207467 -1.019584215)
(1735.021519 2.437880919 -1.224358575)
(1737.740549 5.207360302 -2.59435131)
(1737.09477 2.887724498 -0.4219317767)
(1736.314804 0.6108895055 -0.9373025377)
(1736.757264 0.2127252501 -2.086247107)
(1710.190673 5.230438647 -0.5204704594)
(1745.031389 5.067323897 -0.5027241602)
(1735.37663 6.363532344 1.016377779)
(1734.934039 6.038585748 -0.2525191599)
(1735.832932 6.150184981 -0.9351778177)
(1736.750512 6.270379512 -1.348286173)
(1735.092446 4.826101597 -0.9578071258)
(1733.974551 5.201735829 -0.4018925224)
(1735.151836 5.643551287 -2.052343342)
(1734.091565 7.187768387 -2.941042359)
(1733.696809 8.898546737 -3.63693634)
(1734.202638 9.465941482 -1.41528114)
(1734.502556 7.148856859 -0.3081103075)
(1735.589156 5.523182039 0.2900318753)
(1735.150722 6.384767152 -0.2142160569)
(1735.474314 6.304039993 0.6209441207)
(1733.851639 4.179914813 0.3653885821)
(1732.136994 6.392948193 -0.1927713097)
(1733.67165 6.475083379 0.3463088266)
(1734.638982 6.795656115 1.311427731)
(1734.686125 5.001364934 -0.74950224)
(1734.053307 3.528692225 -1.635058003)
(1734.575243 3.149168024 -2.300073207)
(1733.512882 3.445529725 -2.469828396)
(1732.413597 5.472906635 -2.15014642)
(1730.045319 10.54277882 -0.5865579374)
(1736.502842 1.958202819 -0.3466030713)
(1737.102051 2.546737026 -0.6262925386)
(1739.320641 1.953320504 -1.569382943)
(1738.20598 1.792186863 -2.193920043)
(1738.058641 -0.3803458908 -1.379610635)
(1737.154732 0.6552380001 1.012210898)
(1735.338649 0.7032558761 1.644856467)
(1733.160036 4.502881579 2.253244814)
(1732.71184 5.013093523 0.92655362)
(1732.941953 4.846067934 0.4317249249)
(1736.805408 0.7907232386 0.7012193434)
(1736.673742 -0.6109158165 1.256270011)
(1733.21762 0.3224370861 3.642352256)
(1732.869301 -1.161316477 2.949545868)
(1732.240537 -0.3585079449 2.144375674)
(1732.331556 2.550120816 1.855916268)
(1734.320213 2.346370768 1.389835911)
(1733.777935 2.889024037 2.606571354)
(1734.811309 2.338921264 2.111239192)
(1732.283522 4.938018679 2.305868873)
(1734.482419 -0.3070983569 -2.199024667)
(1733.552913 -0.1687647119 -1.0799979)
(1734.187137 -0.4559827546 -0.9652164886)
(1734.460724 -1.135146702 -0.01239744584)
(1735.555065 -2.993013452 0.1770445651)
(1735.019535 -1.540327833 -0.7527848295)
(1735.414517 -0.5313866978 -0.6571853181)
(1736.087363 0.507382769 -2.553597352)
(1735.905424 0.3087158767 -1.91114459)
(1733.786593 0.929455268 -1.498950785)
(1738.754499 -2.658183755 0.4589337107)
(1739.398804 -1.14486997 0.7677013538)
(1739.650399 0.9913215751 -0.3396390847)
(1738.056134 1.693791124 -1.584689793)
(1738.355942 1.93347965 -0.2242118193)
(1735.033241 2.03295428 -0.2357065189)
(1735.11214 -0.4620419658 0.9304760776)
(1733.774396 -1.56604426 1.799353942)
(1732.938543 0.2296057235 -0.3037959767)
(1732.345769 0.6739485607 -1.474500088)
(1733.872007 -0.2568383819 2.675835367)
(1733.812104 0.3054229851 2.632311778)
(1734.228454 -0.9283780055 2.51420144)
(1734.037495 1.058139642 1.340352559)
(1735.090947 1.042376778 -0.4704855055)
(1735.203758 -0.9344688217 -0.4747608414)
(1733.815625 1.666399189 -1.271444956)
(1734.526846 1.723194618 -1.604092818)
(1732.937942 1.042798272 0.6974126583)
(1733.082421 2.653284735 1.09760041)
(1735.669322 0.3754416111 -1.458061596)
(1736.635679 0.7766350716 -2.370643114)
(1736.897079 1.408796005 -3.265044308)
(1734.203905 -0.1817347404 -2.21703763)
(1733.16707 -0.5357814499 -2.054943506)
(1732.642241 1.032454316 -1.95922171)
(1733.142877 1.788537214 -2.223455951)
(1734.611445 1.844901281 -3.123176269)
(1734.620476 3.755823745 -3.196892293)
(1733.460154 3.257127186 -5.081571782)
(1732.381274 0.3881622174 -1.019109768)
(1730.438769 -1.391163162 -2.071320456)
(1731.059495 -4.375220771 -2.418654578)
(1732.838801 -2.720598022 -3.052461398)
(1732.97439 -1.1131292 -4.172711557)
(1734.114612 -1.881067884 -3.885412493)
(1735.871098 -0.7628173861 -3.226367741)
(1736.285584 0.02852502092 -3.181946935)
(1736.86791 0.5945918884 -2.368086127)
(1738.68852 1.062654902 -1.104643362)
(1735.047066 -0.344350699 -2.086447347)
(1735.314989 0.2854667163 -1.996485369)
(1736.943541 0.9402472229 0.5200945926)
(1736.126745 1.239829707 0.9596333553)
(1737.818065 1.317802712 0.7407801607)
(1736.756847 2.479753937 0.9137160147)
(1736.546501 1.286032148 -0.3323184735)
(1735.78932 2.948818993 -0.9535904325)
(1734.777768 0.006086883893 -2.568348619)
(1732.802964 -1.023488319 -2.736117857)
(1736.737765 1.098979746 -0.008899109697)
(1736.030642 2.331012799 -0.5384619504)
(1737.265767 4.443760096 -0.7189343784)
(1737.472987 4.735465061 -0.3610115246)
(1735.919601 4.09742287 0.01139014673)
(1735.511092 3.231878272 -1.07217845)
(1733.50913 -0.1887633347 0.5053618512)
(1733.819673 -0.9320321284 2.172274145)
(1734.824947 -0.9571759117 2.657806002)
(1735.795262 -0.1545459602 1.51615954)
(1739.338754 2.684149617 -1.38131289)
(1738.638463 3.102232231 0.01683546004)
(1735.805084 2.860711447 -2.250230799)
(1734.470716 1.657797753 -1.210157676)
(1734.465795 -0.08321517171 -1.658556875)
(1736.448369 -1.227687982 -0.8790728299)
(1735.805735 1.783809207 -1.733835918)
(1736.149917 2.173404344 -2.61177214)
(1735.358222 3.96103543 -1.190919006)
(1736.014802 3.733974381 1.008678825)
(1734.69348 2.29306616 -0.8948288065)
(1734.489595 -0.9848584294 -1.964273007)
(1736.219225 -1.792076382 -1.256725087)
(1737.283941 -0.2724029388 -0.5988153582)
(1738.074232 2.04772078 -0.7423520254)
(1737.150711 3.255687379 -1.362697488)
(1737.423683 2.122951179 -1.42426537)
(1737.268115 3.184510202 -0.2765544771)
(1736.628599 1.286974096 -1.482753673)
(1737.400321 2.916832781 -3.886582305)
(1735.180972 -0.2134881171 -0.6295858172)
(1736.408016 1.154381219 -0.4402248302)
(1735.193685 1.851379955 -0.5954027929)
(1735.870112 2.399422706 -0.5134741326)
(1736.183655 2.222371925 0.837616173)
(1736.785698 2.007317775 0.1766153299)
(1736.179378 0.2346595056 -0.5382508617)
(1735.747935 -0.4272497507 -0.8333190848)
(1736.312148 0.3167027696 -1.86924875)
(1736.17136 0.3785129164 -2.921589381)
(1736.356059 1.612186503 -1.505679377)
(1735.235096 1.50261889 -2.043407474)
(1735.510431 0.6054901015 -2.244504991)
(1734.807537 0.6228995216 -3.356492469)
(1736.313663 -1.325779315 -2.606348176)
(1736.540932 -1.735769001 -3.092389733)
(1736.088478 -0.2604728371 -2.095995647)
(1737.446401 -0.8606676614 -2.896778307)
(1738.902275 -0.6880409493 -2.571298068)
(1738.544189 -2.187918804 -1.87758732)
(1737.909098 -1.966423228 -0.7206595387)
(1736.464555 -0.748809863 -0.2722805476)
(1736.831704 -0.4844757099 0.1297862562)
(1735.474299 0.9614083961 -0.05889524251)
(1734.362693 2.056294803 0.8141554383)
(1734.233792 2.888972116 1.039305022)
(1735.127568 2.407999582 1.080069828)
(1735.266821 1.206140823 2.135316306)
(1734.225717 3.923068427 2.849524748)
(1735.197602 3.315926968 1.822071173)
(1736.669761 0.3971806275 -1.807425516)
(1735.71431 0.4510203091 -2.440419533)
(1735.548965 0.4881360943 -1.045422804)
(1737.043246 0.03610820194 -0.729823752)
(1737.331448 0.2915001761 0.3673573406)
(1737.738844 -0.1959588906 -0.7127556148)
(1736.18598 2.399605636 -1.857486937)
(1737.446773 3.612922581 -2.321880461)
(1734.788671 2.48427998 -2.509641417)
(1734.717897 1.025750184 -1.945110749)
(1734.519902 -1.182900028 -2.443633582)
(1734.096926 -1.666018031 -1.555927118)
(1735.583246 -0.1882114375 -2.594503279)
(1734.602893 -0.3827965191 -2.735800665)
(1736.333056 0.7456901939 -2.67608181)
(1735.387232 1.940434205 -0.8357483567)
(1734.428631 1.061935387 -0.5140498427)
(1731.908762 -0.9336425118 -2.23505952)
(1732.528542 -0.8823611491 -2.230695773)
(1733.150193 1.699493954 -0.9808563978)
(1734.830142 0.7156641152 -0.4851075653)
(1735.143745 0.2325124558 -0.2147569665)
(1733.599192 -1.361086472 -1.263073512)
(1733.912475 -1.401243549 -0.1281842288)
(1733.269255 -0.8352570521 -1.887933354)
(1733.033699 -1.160412302 -3.569643002)
(1733.525871 -0.1072749125 -1.447809074)
(1733.800414 -1.092838396 -0.1933891055)
(1733.576631 -2.790398066 0.4474459835)
(1733.901246 -2.25943686 -0.3936304225)
(1734.610651 6.084498685 1.001171109)
(1737.183683 7.462927532 -0.459642394)
(1736.982002 6.441193781 1.578507867)
(1737.606362 5.875733137 2.185817097)
(1737.456886 5.411971437 0.961239978)
(1737.533796 5.417245342 2.434224989)
(1738.051024 3.955043915 3.706498958)
(1737.799124 4.04083807 2.013337689)
(1737.634135 6.73451073 1.604945684)
(1737.419393 6.071230963 1.943912516)
)
;

boundaryField
{
    flow
    {
        type            calculated;
        value           nonuniform List<vector> 
48
(
(1709.890439 0.7832041782 0.1617941277)
(1710.236071 1.089792267 2.106336799)
(1708.307021 -0.05009288821 -2.902657667)
(1707.381548 0.4984320721 0.9314715803)
(1710.639199 -0.4180990712 -2.289063727)
(1708.04541 2.081186 -1.391906519)
(1708.43091 1.571524467 1.182048398)
(1710.097325 -2.017370199 1.52853571)
(1707.132618 -1.624414261 -0.2546734494)
(1708.163012 -0.8972862436 -1.379773746)
(1709.6249 1.508721257 -0.8854220366)
(1708.908178 0.8076317085 1.289426044)
(1710.473054 0.7365086892 -4.793720247)
(1708.998013 0.6013366857 -4.648453109)
(1706.793729 -1.12777589 -1.930372425)
(1708.406822 1.750452706 -1.339096002)
(1707.338157 1.099988651 -0.3987106154)
(1710.190673 5.230438647 -0.5204704594)
(1710.190673 5.230438647 -0.5204704594)
(1745.031389 5.067323897 -0.5027241602)
(1735.37663 6.363532344 1.016377779)
(1734.934039 6.038585748 -0.2525191599)
(1735.832932 6.150184981 -0.9351778177)
(1736.750512 6.270379512 -1.348286173)
(1735.092446 4.826101597 -0.9578071258)
(1733.974551 5.201735829 -0.4018925224)
(1735.151836 5.643551287 -2.052343342)
(1734.091565 7.187768387 -2.941042359)
(1733.696809 8.898546737 -3.63693634)
(1734.202638 9.465941482 -1.41528114)
(1734.502556 7.148856859 -0.3081103075)
(1735.589156 5.523182039 0.2900318753)
(1735.150722 6.384767152 -0.2142160569)
(1735.474314 6.304039993 0.6209441207)
(1733.851639 4.179914813 0.3653885821)
(1732.136994 6.392948193 -0.1927713097)
(1733.67165 6.475083379 0.3463088266)
(1734.638982 6.795656115 1.311427731)
(1734.610651 6.084498685 1.001171109)
(1737.183683 7.462927532 -0.459642394)
(1736.982002 6.441193781 1.578507867)
(1737.606362 5.875733137 2.185817097)
(1737.456886 5.411971437 0.961239978)
(1737.533796 5.417245342 2.434224989)
(1738.051024 3.955043915 3.706498958)
(1737.799124 4.04083807 2.013337689)
(1737.634135 6.73451073 1.604945684)
(1737.419393 6.071230963 1.943912516)
)
;
    }
    obstacle
    {
        type            calculated;
        value           nonuniform List<vector> 0();
    }
    frontAndBack
    {
        type            empty;
    }
    procBoundary2to0
    {
        type            processor;
        value           nonuniform List<vector> 
31
(
(1707.789393 4.018455722 1.694417382)
(1746.264354 2.728419512 0.9906807269)
(1737.349285 -0.7621386147 -0.3582801393)
(1738.663452 0.08758130172 0.2962420933)
(1738.246905 -0.1674509795 -0.677155339)
(1737.200341 1.027214076 -0.3886653995)
(1735.678159 1.005625234 -1.396356496)
(1736.76011 1.146128179 1.020343626)
(1735.407562 2.693005276 1.412654788)
(1734.780952 2.237884808 0.5169923734)
(1733.297158 1.238984314 2.581948262)
(1732.197127 -1.270982541 2.237607981)
(1731.122836 -1.442661608 2.025418023)
(1732.838505 -2.329705636 0.7202800846)
(1732.884851 -3.659333862 -1.620280707)
(1735.476424 -3.550839221 -0.6768991238)
(1736.352176 -1.256021066 0.3323096131)
(1736.778308 2.063512398 -0.8145291966)
(1737.812665 1.534459979 -0.9718759015)
(1737.653143 1.684685703 -1.022991463)
(1736.586894 3.773301401 -0.7351932016)
(1734.172897 6.762771737 -0.09362038417)
(1734.057277 7.10018621 0.03797521215)
(1730.876816 8.367789335 -0.9950570141)
(1726.83124 9.671957914 0.3957600489)
(1724.749744 11.314079 2.243680797)
(1737.781339 0.3782695324 -2.614256562)
(1738.218063 3.072046826 -3.24529248)
(1734.566426 1.901690603 -2.68574707)
(1735.298013 3.01143476 -1.28902605)
(1735.298013 3.01143476 -1.28902605)
)
;
    }
    procBoundary2to3
    {
        type            processor;
        value           nonuniform List<vector> 
19
(
(1726.719936 11.72052305 -0.8418992319)
(1730.968374 7.961867204 0.9025951641)
(1733.086562 7.550867512 0.8724669618)
(1733.745554 2.899524006 -0.3015301229)
(1731.409928 -0.02615736452 -0.5244530192)
(1733.181498 2.991546981 1.045810535)
(1733.895434 4.867930042 -4.85211699)
(1738.296488 0.6938673562 0.06950793184)
(1733.312549 -0.5784244951 -2.184591385)
(1735.106681 1.066136178 0.06713306941)
(1736.206519 2.509199354 2.188275029)
(1736.727311 3.058269732 -5.021541681)
(1735.959061 -1.199516314 -2.963720569)
(1735.803708 0.1425771043 -0.5140888716)
(1736.958627 1.217288942 0.6970953189)
(1733.949092 2.73371473 -1.645529201)
(1732.607636 0.998202221 -0.7326074195)
(1735.310872 -0.9218704546 0.6419063025)
(1734.321246 5.754240513 1.784657929)
)
;
    }
}


// ************************************************************************* //
