/*--------------------------------*- C++ -*----------------------------------*\
| =========                 |                                                 |
| \\      /  F ield         | OpenFOAM: The Open Source CFD Toolbox           |
|  \\    /   O peration     | Version:  2406                                  |
|   \\  /    A nd           | Website:  www.openfoam.com                      |
|    \\/     M anipulation  |                                                 |
\*---------------------------------------------------------------------------*/
FoamFile
{
    version     2.0;
    format      ascii;
    arch        "LSB;label=32;scalar=64";
    class       volScalarField;
    location    "0.01";
    object      dsmcRhoNMean;
}
// * * * * * * * * * * * * * * * * * * * * * * * * * * * * * * * * * * * * * //

dimensions      [0 -3 0 0 0 0 0];

internalField   nonuniform List<scalar> 
546
(
27.2388
27.2452
26.614
26.4656
25.9016
25.725
25.893
25.583
25.4894
24.93
24.5956
24.6534
24.0984
24.289
24.1714
23.5026
22.6098
22.8814
22.7068
22.2924
21.7522
21.9226
21.2588
20.8212
19.9688
19.3328
18.3048
17.568
15.964
13.1782
24.6308
24.3838
23.9294
23.8934
23.5648
23.6674
23.4052
23.1678
22.8332
22.5364
22.5136
22.568
22.3532
22.278
21.9298
21.5128
21.1266
21.1976
20.8362
20.3986
20.1382
19.8696
19.617
19.0234
18.4928
18.028
17.1096
16.0308
14.4338
12.145
23.0046
23.071
22.9646
22.7586
22.3774
22.1672
22.05
21.7798
21.9064
21.5576
21.456
21.5392
21.133
20.946
20.6966
20.128
20.2114
20.1424
19.6062
19.431
18.8806
18.6292
18.8854
18.008
17.4228
16.8714
16.2872
15.3664
14.0136
12.2428
21.4934
21.658
22.0374
21.9346
21.856
21.693
21.7478
21.4058
21.1198
21.01
20.82
20.6328
20.576
20.3082
19.9974
19.6852
19.5048
19.3538
19.189
18.9042
18.4884
18.2784
17.9456
17.5586
17.1446
16.6776
15.9706
14.8062
14.0808
12.8132
20.2028
20.3876
20.9458
21.3064
21.411
21.1618
21.0968
20.9338
20.9454
20.7422
20.4702
20.5088
20.3478
20.1482
19.926
19.5774
19.1474
19.0072
18.8218
18.5378
18.2532
17.833
17.5402
17.2012
16.7582
16.4494
16.073
14.9318
14.0612
12.898
18.758
19.3642
19.9644
20.2968
20.4792
20.4704
20.5698
20.6198
20.6104
20.5174
20.5334
20.3258
19.9662
19.9238
19.6992
19.5424
19.1122
19.1048
18.8982
18.5558
18.2008
17.735
17.4086
17.1948
16.7968
16.3096
15.732
15.1428
14.3592
13.1206
16.9582
17.8482
18.4036
18.975
19.5918
19.8846
20.0502
20.1966
20.1118
20.199
20.1964
20.2588
20.0272
19.8976
19.7284
19.486
19.2116
19.1278
18.8508
18.4992
18.285
17.9006
17.507
17.1616
16.9618
16.3136
15.8234
15.2412
14.4844
13.5796
15.2798
16.1908
16.9724
17.7124
18.2138
18.7878
19.3598
19.6286
19.749
19.8318
19.9236
20.0494
19.794
19.7794
19.8122
19.7142
19.5756
19.169
18.9078
18.8536
18.5868
18.0738
17.7622
17.3074
17.0478
16.5744
16.1656
15.4884
14.9438
14.1598
14.0222
14.6402
15.4822
16.2122
16.9226
17.5244
18.1592
18.5332
18.9278
19.1388
19.3222
19.7326
19.8362
19.749
19.6238
19.6504
19.498
19.26
19.0286
18.819
18.5712
18.3124
17.908
17.5826
17.2166
16.9504
16.388
15.7554
15.1728
14.497
12.6404
13.2188
13.8676
14.5714
15.41
16.0536
16.7714
17.3974
17.9366
18.4196
18.7804
19.1636
19.1926
19.3418
19.3888
19.4
19.3324
19.3322
18.984
18.8108
18.7274
18.4528
18.131
17.6854
17.4718
17.113
16.6288
16.1422
15.4682
14.7126
11.8198
12.351
12.8926
13.554
14.0736
14.7886
15.4818
16.164
16.8822
17.573
18.0526
18.2824
18.6616
18.9978
19.0728
19.0478
19.1798
19.2248
19.0826
18.878
18.7926
18.5904
18.271
18.066
17.4982
17.1752
16.8166
16.448
15.9264
15.2234
11.069
11.5352
11.9418
12.4422
13.0368
13.5972
14.2718
14.923
15.6456
16.226
16.8404
17.3292
17.8126
18.2868
18.5602
18.7338
18.7606
18.8986
19.002
18.8312
18.743
18.6468
18.3658
18.138
17.7908
17.4926
17.0846
16.5874
16.281
15.8642
10.4584
10.7332
11.1426
11.5136
11.9372
12.4868
13.0798
13.5812
14.1596
14.723
15.3368
16.2008
16.8288
17.3222
17.782
18.0414
18.3452
18.5854
18.6576
18.7742
18.6242
18.7054
18.5134
18.384
18.0712
17.8016
17.448
17.0878
16.5974
16.0888
9.9762
10.1922
10.4084
10.8376
11.2144
11.5936
11.992
12.4992
13.0464
13.7432
14.4456
14.8964
15.4654
16.1786
16.7732
17.2688
17.696
18.0842
18.2888
18.4378
18.4768
18.3842
18.591
18.5146
18.2376
17.9932
17.853
17.4256
16.9734
16.3694
9.7608
9.9078
10.088
10.1562
10.4744
10.8204
11.1534
11.5716
12.13
12.6486
13.21
13.7214
14.4426
15.0834
15.6944
16.3356
16.7904
17.1642
17.644
18.0454
18.274
18.485
18.518
18.447
18.4444
18.1146
18.0176
17.752
17.2752
16.7682
9.483
9.4814
9.6614
9.7452
9.944
10.1746
10.5314
10.9176
11.2734
11.6422
12.1784
12.7912
13.2698
13.904
14.5412
15.1178
15.7086
16.1844
16.5964
17.1324
17.4958
17.7854
17.9554
18.1086
18.1876
18.12
17.9518
17.6644
17.4132
9.3772
9.3804
9.4048
9.5868
9.67
9.8848
10.0888
10.3176
10.5762
10.9558
11.316
11.6664
12.1186
12.5804
13.2248
13.8282
14.5968
15.2608
15.9314
16.185
16.718
17.2652
17.5124
17.7694
17.709
9.2442
9.2902
9.358
9.386
9.4616
9.5272
9.5904
9.7192
9.9608
10.2362
10.5022
10.8788
11.3064
11.8174
12.3094
12.8446
13.3724
13.9874
14.524
9.1914
9.1858
9.2022
9.223
9.2478
9.3082
9.4196
9.482
9.6334
9.7528
10.0768
10.323
10.612
10.9688
9.1276
9.1008
9.0592
9.0484
9.1036
9.0768
9.1358
9.2288
9.0246
)
;

boundaryField
{
    flow
    {
        type            calculated;
        value           nonuniform List<scalar> 
15
(
13.1782
12.145
12.2428
12.8132
12.898
13.1206
13.5796
14.1598
14.497
14.7126
15.2234
15.8642
16.0888
16.3694
16.7682
)
;
    }
    obstacle
    {
        type            calculated;
        value           nonuniform List<scalar> 
30
(
27.2388
27.2452
26.614
26.4656
25.9016
25.725
25.893
25.583
25.4894
24.93
24.5956
24.6534
24.0984
24.289
24.1714
23.5026
22.6098
22.8814
22.7068
22.2924
21.7522
21.9226
21.2588
20.8212
19.9688
19.3328
18.3048
17.568
15.964
13.1782
)
;
    }
    frontAndBack
    {
        type            empty;
    }
    procBoundary1to0
    {
        type            processor;
        value           nonuniform List<scalar> 
21
(
27.6042
24.6044
23.019
21.3676
19.7192
17.7816
16.1838
14.5642
13.2378
12.0576
11.3558
10.744
10.2624
9.9046
9.6002
9.479
9.3536
9.2334
9.19
9.139
9.1408
)
;
    }
    procBoundary1to3
    {
        type            processor;
        value           nonuniform List<scalar> 
36
(
17.0464
17.7476
17.8952
17.7502
17.0464
17.5098
15.1496
15.633
16.2664
16.645
17.0774
17.7476
17.4678
11.3898
11.9648
12.3772
12.926
15.1496
13.5342
9.334
9.4464
9.509
9.7322
9.9614
11.3898
10.2612
9.024
8.987
8.951
8.971
9.023
9.013
9.334
9.0572
9.024
9.0812
)
;
    }
}


// ************************************************************************* //
