/*--------------------------------*- C++ -*----------------------------------*\
| =========                 |                                                 |
| \\      /  F ield         | OpenFOAM: The Open Source CFD Toolbox           |
|  \\    /   O peration     | Version:  2406                                  |
|   \\  /    A nd           | Website:  www.openfoam.com                      |
|    \\/     M anipulation  |                                                 |
\*---------------------------------------------------------------------------*/
FoamFile
{
    version     2.0;
    format      ascii;
    arch        "LSB;label=32;scalar=64";
    class       volVectorField;
    location    "0.01";
    object      fD;
}
// * * * * * * * * * * * * * * * * * * * * * * * * * * * * * * * * * * * * * //

dimensions      [1 -1 -2 0 0 0 0];

internalField   uniform (0 0 0);

boundaryField
{
    flow
    {
        type            zeroGradient;
    }
    obstacle
    {
        type            calculated;
        value           nonuniform List<vector> 
30
(
(5.689558952 -5.077919798 -1.140599772)
(2.771509907 -1.630669743 0.2981949008)
(0 0 0)
(0 0 0)
(0 0 0)
(6.4077582 -3.677433652 -2.917766097)
(3.961367222 -4.242080625 4.633015735)
(0 0 0)
(0 0 0)
(-0.1264373541 -1.792452882 -0.7632502084)
(1.413745337 -3.129064607 -3.697579801)
(2.128545744 -1.874189463 -0.6282348134)
(0 0 0)
(3.087232826 -3.676812654 -1.103901271)
(1.447659497 -6.249127605 -4.588990079)
(5.019125264 -7.896032741 1.336546285)
(0.7415463153 -4.299300634 -0.6455611497)
(0.5412264696 -1.812223451 1.111535282)
(2.984412712 -5.585342241 -0.9807756013)
(0 0 0)
(5.130279836 -7.081396786 0.1456579208)
(-0.958529596 -4.388477548 -1.2538227)
(1.832727319 -1.800708169 0.6277367608)
(0 0 0)
(0 0 0)
(2.032076785 -1.835561149 -1.543661169)
(2.007183079 -2.187208251 1.763729563)
(4.083726138 -1.421277928 0.7337027489)
(0 0 0)
(4.745877941 -2.407136675 1.646546717)
)
;
    }
    frontAndBack
    {
        type            empty;
    }
    procBoundary1to0
    {
        type            processor;
        value           uniform (0 0 0);
    }
    procBoundary1to3
    {
        type            processor;
        value           uniform (0 0 0);
    }
}


// ************************************************************************* //
