/*--------------------------------*- C++ -*----------------------------------*\
| =========                 |                                                 |
| \\      /  F ield         | OpenFOAM: The Open Source CFD Toolbox           |
|  \\    /   O peration     | Version:  2406                                  |
|   \\  /    A nd           | Website:  www.openfoam.com                      |
|    \\/     M anipulation  |                                                 |
\*---------------------------------------------------------------------------*/
FoamFile
{
    version     2.0;
    format      ascii;
    arch        "LSB;label=32;scalar=64";
    class       volVectorField;
    location    "0.01";
    object      fDMean;
}
// * * * * * * * * * * * * * * * * * * * * * * * * * * * * * * * * * * * * * //

dimensions      [1 -1 -2 0 0 0 0];

internalField   uniform (0 0 0);

boundaryField
{
    flow
    {
        type            calculated;
        value           uniform (0 0 0);
    }
    obstacle
    {
        type            calculated;
        value           nonuniform List<vector> 
30
(
(2.341522036 -2.728158734 0.01262428332)
(2.37930895 -2.792620043 -0.009874654153)
(2.216169034 -2.690374011 -0.01528880806)
(2.192029129 -2.701834458 0.003544822612)
(2.069049469 -2.614911368 0.004193247312)
(2.101122711 -2.634802064 -0.002982642732)
(2.034725614 -2.667416155 0.0025466786)
(2.024381173 -2.689547587 0.01517206348)
(1.969166749 -2.655471046 0.004671955026)
(1.889231414 -2.589969667 0.03691586029)
(1.839376898 -2.567388111 -0.01303320355)
(1.900067574 -2.616938367 -0.03161379114)
(1.825682382 -2.58363302 -0.04951316086)
(1.80587917 -2.607906771 -0.005689236782)
(1.855824468 -2.649874928 -0.02996456104)
(1.792080691 -2.559479432 0.002405415661)
(1.704969203 -2.4949606 -0.02503526265)
(1.661045076 -2.494791223 0.03896331457)
(1.677864785 -2.524744472 -0.009145509381)
(1.684764433 -2.473093139 0.002715039726)
(1.645005322 -2.453582228 0.01699093722)
(1.591861033 -2.438702749 0.01436104526)
(1.582690649 -2.382013703 -0.0131938348)
(1.62121931 -2.421980066 -0.004810239303)
(1.594540361 -2.316800621 -0.002551980655)
(1.552019482 -2.250510574 0.004108436787)
(1.542407508 -2.146972758 0.02090135488)
(1.534235792 -2.026321584 0.005908413314)
(1.497078395 -1.865478829 -0.009195550668)
(1.513132705 -1.655580966 0.01509759871)
)
;
    }
    frontAndBack
    {
        type            empty;
    }
    procBoundary1to0
    {
        type            processor;
        value           uniform (0 0 0);
    }
    procBoundary1to3
    {
        type            processor;
        value           uniform (0 0 0);
    }
}


// ************************************************************************* //
