/*--------------------------------*- C++ -*----------------------------------*\
| =========                 |                                                 |
| \\      /  F ield         | OpenFOAM: The Open Source CFD Toolbox           |
|  \\    /   O peration     | Version:  2406                                  |
|   \\  /    A nd           | Website:  www.openfoam.com                      |
|    \\/     M anipulation  |                                                 |
\*---------------------------------------------------------------------------*/
FoamFile
{
    version     2.0;
    format      ascii;
    arch        "LSB;label=32;scalar=64";
    class       volScalarField;
    location    "0.01";
    object      iDof;
}
// * * * * * * * * * * * * * * * * * * * * * * * * * * * * * * * * * * * * * //

dimensions      [0 -3 0 0 0 0 0];

internalField   nonuniform List<scalar> 
546
(
8.749221824e+20
7.005860551e+20
5.236562406e+20
5.963956684e+20
5.084530917e+20
6.753331249e+20
7.978402765e+20
6.621213391e+20
6.196141688e+20
6.004581869e+20
3.873327855e+20
5.368285957e+20
6.395324694e+20
6.19917076e+20
5.999812511e+20
8.821781629e+20
4.828732361e+20
8.969511648e+20
7.494633843e+20
4.430818658e+20
5.783248621e+20
6.098502178e+20
8.291551478e+20
5.936202624e+20
4.900091882e+20
5.218736389e+20
4.434521452e+20
5.593806061e+20
5.363124894e+20
3.703663331e+20
5.832814553e+20
4.745905535e+20
6.147268911e+20
5.505190785e+20
5.777876042e+20
6.986204746e+20
5.866472621e+20
4.965910043e+20
4.766262837e+20
5.76439859e+20
3.389161873e+20
5.612298956e+20
5.903376636e+20
6.447137585e+20
5.999812507e+20
6.553323496e+20
7.370170446e+20
5.125435223e+20
4.393406042e+20
4.691455054e+20
4.468873938e+20
5.303045376e+20
5.081918652e+20
5.666375232e+20
7.077910496e+20
3.021373702e+20
3.603048683e+20
3.635973943e+20
3.387236775e+20
4.843252048e+20
5.608475528e+20
5.875883043e+20
5.008885779e+20
4.817041937e+20
5.777876046e+20
5.356090301e+20
4.458519189e+20
5.675325763e+20
4.527949698e+20
4.56348222e+20
5.325825796e+20
5.612298956e+20
6.395324689e+20
6.199170755e+20
3.499890632e+20
5.797170784e+20
5.337019978e+20
5.637978745e+20
4.393406046e+20
4.691455054e+20
4.468873931e+20
5.037893103e+20
3.209632833e+20
3.507756096e+20
6.261228516e+20
4.120055044e+20
5.543151814e+20
5.593806061e+20
2.25815785e+20
3.988560514e+20
4.03810238e+20
4.745905531e+20
5.236562406e+20
5.04642489e+20
3.004495542e+20
4.890343318e+20
6.570449336e+20
5.438853857e+20
6.196141688e+20
4.323298946e+20
3.873327855e+20
4.63624696e+20
5.65740261e+20
4.215436117e+20
5.249835947e+20
4.284865362e+20
4.574588552e+20
5.637978745e+20
4.134970393e+20
4.17018227e+20
4.205999001e+20
4.50758857e+20
5.081918648e+20
4.047410877e+20
4.900091882e+20
6.042747398e+20
4.434521455e+20
3.635973946e+20
4.516315704e+20
2.848971785e+20
4.486780422e+20
4.067919027e+20
8.424035168e+20
5.73457373e+20
4.853415875e+20
5.356090305e+20
3.754542478e+20
8.512988645e+20
5.004575978e+20
8.166231335e+20
5.083742809e+20
5.124272963e+20
5.411428587e+20
5.207303438e+20
6.249804699e+20
7.56152711e+20
5.845307599e+20
4.100348185e+20
4.651841695e+20
6.2552734e+20
4.994623805e+20
3.977284026e+20
4.012041038e+20
3.507756096e+20
3.266727927e+20
3.021373694e+20
4.434521436e+20
3.915664257e+20
3.951776241e+20
4.273457701e+20
4.935458472e+20
3.163937025e+20
6.147268915e+20
2.064446546e+20
6.471221171e+20
6.520457763e+20
7.039767146e+20
4.965910043e+20
5.957828546e+20
2.882199295e+20
3.14707888e+20
4.63624696e+20
5.165454552e+20
4.21543611e+20
5.499828131e+20
6.553323496e+20
5.591163786e+20
4.35661994e+20
3.876534746e+20
6.25527341e+20
5.520373688e+20
3.71213177e+20
5.081918678e+20
5.39654784e+20
4.627864523e+20
4.944066053e+20
6.374624621e+20
3.91566425e+20
5.080855149e+20
5.128149195e+20
2.916407275e+20
4.51991003e+20
5.008885776e+20
3.899510137e+20
4.391185792e+20
3.958849356e+20
3.050565763e+20
3.547078602e+20
4.051323411e+20
5.04384877e+20
4.841659822e+20
7.076376949e+20
6.395324694e+20
6.943071251e+20
3.999875004e+20
4.788967166e+20
4.066300935e+20
5.381706984e+20
6.202455614e+20
6.77654624e+20
3.68024915e+20
7.159111295e+20
4.012041048e+20
4.85689309e+20
5.716773932e+20
3.845384742e+20
2.49441833e+20
4.475044857e+20
1.693618398e+20
3.418766192e+20
2.467729232e+20
3.841923528e+20
4.098179277e+20
2.752595395e+20
4.391185792e+20
4.191722844e+20
4.458519192e+20
5.675325763e+20
6.911081118e+20
4.083115671e+20
6.53624075e+20
4.63624696e+20
4.91948053e+20
4.959336608e+20
4.249867206e+20
4.032814469e+20
2.541438081e+20
4.100348158e+20
4.651841672e+20
6.255273379e+20
3.417374159e+20
3.712131719e+20
5.349388018e+20
4.317238265e+20
4.900091856e+20
4.669395676e+20
3.603048635e+20
2.796903011e+20
4.798585418e+20
4.55835484e+20
2.916407277e+20
3.615928026e+20
3.870502645e+20
4.358276038e+20
4.160070753e+20
5.123216813e+20
3.754542478e+20
4.492966229e+20
7.149394255e+20
5.524215315e+20
6.052074759e+20
4.880259965e+20
4.181558457e+20
5.703237108e+20
3.749882823e+20
5.545119845e+20
5.337019969e+20
5.381707002e+20
4.910277341e+20
5.212727816e+20
4.994623813e+20
3.181827242e+20
5.349388064e+20
5.396547831e+20
3.811182555e+20
3.845384708e+20
6.097467028e+20
3.91566425e+20
3.104967035e+20
4.843252062e+20
4.03810238e+20
3.389932522e+20
2.049089637e+20
3.89951014e+20
3.928955708e+20
2.794481896e+20
3.989201377e+20
4.492966236e+20
4.28963655e+20
5.04384875e+20
7.262489756e+20
4.392233962e+20
5.903376613e+20
5.703237099e+20
4.749851556e+20
5.54511989e+20
4.066300962e+20
5.12543524e+20
3.618099093e+20
3.388273108e+20
2.891624313e+20
5.568197626e+20
2.674694032e+20
5.666375222e+20
6.533455865e+20
5.768077062e+20
3.325891077e+20
4.475044857e+20
2.822697305e+20
5.413046372e+20
2.916407275e+20
2.033959509e+20
2.732119504e+20
2.752595387e+20
3.235610583e+20
4.191722854e+20
4.927837024e+20
2.128247171e+20
4.289636559e+20
4.083115661e+20
3.873327834e+20
4.148220964e+20
4.427532494e+20
3.967469286e+20
3.999875027e+20
3.528712657e+20
3.049725672e+20
4.612891678e+20
7.753069486e+20
4.430818643e+20
4.205999001e+20
5.037893133e+20
4.814449258e+20
5.396547831e+20
3.266727904e+20
3.570714372e+20
4.711679067e+20
4.195354554e+20
3.951776263e+20
5.128149288e+20
4.486780438e+20
2.711946032e+20
2.959796157e+20
2.523212449e+20
3.004495539e+20
2.095861414e+20
2.581247934e+20
3.31060666e+20
3.574697106e+20
2.882199313e+20
4.35749388e+20
4.392233996e+20
5.411428604e+20
4.463402947e+20
5.749820305e+20
5.293068986e+20
5.337020013e+20
5.637978764e+20
5.168712991e+20
6.255273379e+20
4.731748836e+20
5.833349845e+20
5.349387972e+20
4.856893048e+20
4.083409951e+20
4.12005508e+20
3.603048699e+20
3.635973946e+20
5.363124879e+20
5.128149195e+20
2.467729225e+20
4.293914503e+20
2.276766258e+20
9.175317996e+19
3.004495539e+20
2.794481907e+20
3.989201412e+20
3.074134802e+20
3.813010275e+20
4.56348221e+20
3.873327834e+20
3.172168948e+20
4.42753246e+20
4.463402947e+20
4.499859369e+20
4.788967139e+20
3.558013313e+20
3.84407643e+20
4.651841692e+20
5.212727859e+20
3.680249157e+20
4.507588593e+20
5.081918661e+20
3.50775609e+20
4.627864531e+20
4.944066009e+20
3.880206256e+20
5.873496375e+20
4.516315688e+20
4.273457662e+20
3.365085307e+20
2.259955018e+20
2.73211951e+20
2.981978327e+20
2.773380498e+20
3.260228867e+20
3.989201353e+20
2.837662873e+20
2.383131422e+20
4.323298936e+20
3.147078865e+20
2.196116981e+20
4.42753246e+20
4.959336569e+20
1.999937497e+20
4.788967178e+20
5.337019969e+20
5.381706958e+20
4.910277341e+20
5.473364207e+20
5.520373642e+20
5.303045358e+20
4.546979854e+20
2.698273915e+20
5.444546507e+20
4.669395717e+20
4.434521436e+20
3.635973914e+20
5.64539461e+20
6.837532322e+20
2.243390221e+20
1.807964028e+20
2.276766275e+20
4.587658998e+19
2.542265475e+20
2.328734922e+20
2.581247953e+20
2.837662895e+20
3.098070848e+20
4.323298936e+20
3.873327864e+20
2.684142998e+20
2.95168833e+20
1.487800982e+20
3.749882838e+20
4.788967178e+20
3.812157121e+20
6.40679405e+20
3.876534775e+20
5.994637038e+20
4.468873938e+20
4.507588593e+20
3.209632838e+20
4.587065656e+20
3.811182588e+20
4.12005508e+20
5.543151844e+20
5.314115768e+20
5.645394661e+20
3.703663341e+20
2.243390205e+20
1.355973001e+20
2.049089632e+20
2.064446549e+20
2.311150415e+20
2.328734922e+20
2.11193016e+20
3.31060671e+20
2.38313144e+20
2.882199313e+20
3.147078865e+20
2.684142956e+20
3.197662332e+20
3.719502456e+20
4.249867182e+20
5.54511989e+20
2.795581911e+20
3.84407643e+20
3.618099093e+20
5.994637038e+20
5.783248675e+20
6.893959024e+20
4.279510451e+20
4.587065656e+20
6.805683133e+20
4.120055008e+20
5.543151795e+20
3.91566425e+20
5.363124879e+20
1.794712164e+20
1.807964015e+20
2.959796157e+20
1.376297699e+20
1.155575207e+20
2.328734905e+20
3.05056574e+20
2.364719043e+20
1.429878842e+20
4.083115693e+20
2.90499592e+20
3.904207996e+20
3.443636385e+20
3.223568795e+20
3.49989062e+20
2.52050902e+20
3.812157121e+20
3.587804668e+20
4.134970393e+20
3.909545862e+20
5.257498707e+20
2.651522657e+20
6.151796221e+20
4.587065696e+20
5.716773932e+20
1.346034132e+20
2.711946022e+20
9.107064967e+19
1.146914741e+20
2.311150415e+20
3.493102383e+20
2.346589066e+20
3.31060671e+20
1.906505138e+20
1.921466194e+20
1.694580927e+20
2.684142977e+20
4.181558467e+20
2.975601965e+20
3.249898459e+20
2.016407249e+20
5.591163777e+20
2.306445839e+20
4.134970393e+20
1.570373155e+20
2.259955018e+20
2.049089647e+20
2.981978349e+20
2.773380498e+20
2.561608395e+20
1.642612322e+20
1.891775249e+20
2.859757706e+20
2.161649468e+20
3.147078889e+20
3.41618197e+20
2.951688306e+20
2.727635134e+20
1.570373143e+20
2.259955002e+20
2.276766258e+20
2.064446549e+20
9.244601728e+19
1.862987938e+20
1.642612334e+20
1.891775263e+20
4.26244142e+20
)
;

boundaryField
{
    flow
    {
        type            zeroGradient;
    }
    obstacle
    {
        type            calculated;
        value           nonuniform List<scalar> 
30
(
443.4177128
106.7184196
1e-300
1e-300
1e-300
552.6800891
187.5606958
1e-300
1e-300
850.0239652
62.66529839
266.8074351
1e-300
557.2491733
1002.713897
805.5885518
221.0991217
136.0688188
252.4138555
1e-300
272.6184563
283.1038915
113.6745083
1e-300
1e-300
93.68082894
98.68354282
282.3860104
1e-300
490.2810825
)
;
    }
    frontAndBack
    {
        type            empty;
    }
    procBoundary1to0
    {
        type            processor;
        value           nonuniform List<scalar> 
21
(
5.567666177e+20
4.676839589e+20
4.899546236e+20
5.122252883e+20
5.790372828e+20
3.340599708e+20
3.340599706e+20
2.004359824e+20
3.786013e+20
1.336239882e+20
2.672479765e+20
3.34059972e+20
1.781653177e+20
2.227066455e+20
1.113533235e+20
8.908265883e+19
1.55894653e+20
2.449773118e+20
1.558946541e+20
2.227066471e+20
1.781653177e+20
)
;
    }
    procBoundary1to3
    {
        type            processor;
        value           nonuniform List<scalar> 
36
(
5.982840782e+20
4.12005508e+20
3.880206291e+20
5.034425464e+20
5.982840782e+20
5.92766434e+20
3.648909471e+20
4.205999001e+20
3.977284053e+20
5.081918661e+20
4.856893048e+20
4.12005508e+20
3.266727904e+20
3.49989062e+20
2.772559923e+20
3.303869505e+20
3.587804668e+20
3.648909471e+20
2.842792145e+20
2.621444564e+20
2.161649468e+20
1.694580927e+20
2.684142977e+20
2.705714302e+20
3.49989062e+20
2.727635134e+20
2.033959531e+20
1.82141302e+20
1.835063599e+20
2.080035373e+20
1.630114445e+20
2.11193016e+20
2.621444564e+20
1.655303355e+20
2.033959531e+20
1.121695102e+20
)
;
    }
}


// ************************************************************************* //
