/*--------------------------------*- C++ -*----------------------------------*\
| =========                 |                                                 |
| \\      /  F ield         | OpenFOAM: The Open Source CFD Toolbox           |
|  \\    /   O peration     | Version:  2406                                  |
|   \\  /    A nd           | Website:  www.openfoam.com                      |
|    \\/     M anipulation  |                                                 |
\*---------------------------------------------------------------------------*/
FoamFile
{
    version     2.0;
    format      ascii;
    arch        "LSB;label=32;scalar=64";
    class       volScalarField;
    location    "0.01";
    object      iDofMean;
}
// * * * * * * * * * * * * * * * * * * * * * * * * * * * * * * * * * * * * * //

dimensions      [0 -3 0 0 0 0 0];

internalField   nonuniform List<scalar> 
546
(
6.110725728e+20
6.157292642e+20
6.059385733e+20
6.070757385e+20
5.986249363e+20
5.990670565e+20
6.076023023e+20
6.049660792e+20
6.074458997e+20
5.98776904e+20
5.954176411e+20
6.015750047e+20
5.927580485e+20
6.022866344e+20
6.042661172e+20
5.923851569e+20
5.746140681e+20
5.86385668e+20
5.868246612e+20
5.810210697e+20
5.718108212e+20
5.812827124e+20
5.686078534e+20
5.618130095e+20
5.436053043e+20
5.310146677e+20
5.073314267e+20
4.913599244e+20
4.50615399e+20
3.754432008e+20
5.525649565e+20
5.510629113e+20
5.448165062e+20
5.480738563e+20
5.446179734e+20
5.511510073e+20
5.4922386e+20
5.478533843e+20
5.44145163e+20
5.412866349e+20
5.450159624e+20
5.50688534e+20
5.498306609e+20
5.524205043e+20
5.482278679e+20
5.422320681e+20
5.369194584e+20
5.432346284e+20
5.384816881e+20
5.316617503e+20
5.293828067e+20
5.268469521e+20
5.246947274e+20
5.133034409e+20
5.034245508e+20
4.951756827e+20
4.742055518e+20
4.483659314e+20
4.074224847e+20
3.460076243e+20
5.160829445e+20
5.213942219e+20
5.228502653e+20
5.220434792e+20
5.171753737e+20
5.162153257e+20
5.174228848e+20
5.150310836e+20
5.220583014e+20
5.177774964e+20
5.194132649e+20
5.255844768e+20
5.198169102e+20
5.193913225e+20
5.173988318e+20
5.073280589e+20
5.13660217e+20
5.161928322e+20
5.066941036e+20
5.06442573e+20
4.963236538e+20
4.939574642e+20
5.051266659e+20
4.859051675e+20
4.742962269e+20
4.634073111e+20
4.514121112e+20
4.297833073e+20
3.955615106e+20
3.48793919e+20
4.821808316e+20
4.894610571e+20
5.017400885e+20
5.031423245e+20
5.051250351e+20
5.051724648e+20
5.103314931e+20
5.061870343e+20
5.033125893e+20
5.046250603e+20
5.040167871e+20
5.034671383e+20
5.061161569e+20
5.035759985e+20
4.99919378e+20
4.961672449e+20
4.957024155e+20
4.959832411e+20
4.959121679e+20
4.927122479e+20
4.860136995e+20
4.84655923e+20
4.79989891e+20
4.737791241e+20
4.667228626e+20
4.580842e+20
4.426373022e+20
4.141150573e+20
3.974583635e+20
3.650444528e+20
4.532276376e+20
4.607505886e+20
4.768869076e+20
4.887324869e+20
4.948404157e+20
4.928022253e+20
4.950551984e+20
4.950255603e+20
4.991564081e+20
4.981929518e+20
4.955487241e+20
5.004413779e+20
5.0050303e+20
4.996085292e+20
4.981344338e+20
4.934501362e+20
4.866193162e+20
4.871008627e+20
4.864224112e+20
4.831625301e+20
4.798308802e+20
4.728460402e+20
4.691466814e+20
4.641354935e+20
4.562039995e+20
4.518162222e+20
4.45475394e+20
4.176279682e+20
3.969051149e+20
3.674603829e+20
4.208151364e+20
4.376222096e+20
4.545427242e+20
4.655739851e+20
4.733051165e+20
4.767013521e+20
4.826886741e+20
4.876003424e+20
4.911729178e+20
4.927936318e+20
4.970786882e+20
4.959759392e+20
4.911166604e+20
4.940441528e+20
4.924646105e+20
4.92567958e+20
4.857247296e+20
4.896020742e+20
4.883968596e+20
4.836316764e+20
4.784534163e+20
4.702475496e+20
4.656267869e+20
4.63962804e+20
4.57254793e+20
4.479763316e+20
4.36024324e+20
4.235294329e+20
4.053167514e+20
3.738021907e+20
3.804385988e+20
4.03361291e+20
4.190069557e+20
4.352541461e+20
4.527959673e+20
4.630596229e+20
4.704957974e+20
4.775928513e+20
4.792906246e+20
4.851461967e+20
4.889204922e+20
4.943410529e+20
4.926171027e+20
4.933944805e+20
4.931945877e+20
4.911463905e+20
4.882509191e+20
4.901914993e+20
4.871718762e+20
4.821564777e+20
4.806668265e+20
4.746384727e+20
4.682586842e+20
4.630669803e+20
4.617465527e+20
4.480862037e+20
4.385575444e+20
4.262815855e+20
4.088507721e+20
3.868789782e+20
3.427855375e+20
3.659047968e+20
3.864218776e+20
4.062922556e+20
4.209483146e+20
4.375180581e+20
4.542949466e+20
4.64161247e+20
4.706446242e+20
4.763266668e+20
4.823164674e+20
4.8923142e+20
4.868809881e+20
4.904635125e+20
4.952895238e+20
4.968981937e+20
4.975017529e+20
4.912473365e+20
4.886449554e+20
4.913934257e+20
4.886003848e+20
4.792309019e+20
4.750844993e+20
4.670010596e+20
4.640876997e+20
4.552495981e+20
4.480418693e+20
4.331955259e+20
4.218182399e+20
4.034087054e+20
3.145726624e+20
3.308619343e+20
3.524935062e+20
3.718802252e+20
3.911067407e+20
4.080968215e+20
4.261217985e+20
4.382581143e+20
4.510743486e+20
4.596819655e+20
4.677575956e+20
4.815010889e+20
4.879189992e+20
4.897096941e+20
4.905796702e+20
4.952901046e+20
4.955295969e+20
4.935794136e+20
4.917668601e+20
4.904916238e+20
4.88190304e+20
4.855574432e+20
4.789842073e+20
4.744267095e+20
4.686828969e+20
4.655772068e+20
4.542058621e+20
4.406632609e+20
4.282822167e+20
4.13015442e+20
2.835734963e+20
2.987389335e+20
3.157328383e+20
3.342430709e+20
3.561482792e+20
3.738457881e+20
3.935558351e+20
4.113996358e+20
4.274527496e+20
4.424079831e+20
4.54641542e+20
4.676167486e+20
4.720881082e+20
4.79612484e+20
4.847048519e+20
4.889787539e+20
4.913209795e+20
4.954296957e+20
4.906142371e+20
4.902779061e+20
4.922964105e+20
4.892801769e+20
4.849487749e+20
4.77200535e+20
4.756301424e+20
4.700433465e+20
4.608798128e+20
4.514816818e+20
4.366204645e+20
4.191578214e+20
2.651642362e+20
2.791270433e+20
2.93534366e+20
3.109056489e+20
3.25262065e+20
3.443872922e+20
3.63294225e+20
3.822331919e+20
4.023250129e+20
4.220740678e+20
4.370227378e+20
4.461143232e+20
4.590268911e+20
4.710824251e+20
4.768051026e+20
4.801015211e+20
4.87442737e+20
4.92677333e+20
4.931624126e+20
4.920293785e+20
4.940103551e+20
4.929286763e+20
4.886933466e+20
4.874701656e+20
4.763488184e+20
4.71751796e+20
4.660848365e+20
4.600346113e+20
4.495540676e+20
4.337103771e+20
2.483208634e+20
2.606903322e+20
2.71886875e+20
2.854028539e+20
3.013000573e+20
3.166427425e+20
3.349004933e+20
3.528870228e+20
3.728552069e+20
3.897213837e+20
4.076774441e+20
4.228550076e+20
4.381436962e+20
4.534519834e+20
4.639904992e+20
4.721871227e+20
4.767890364e+20
4.843177521e+20
4.910794212e+20
4.908096002e+20
4.927064913e+20
4.944241268e+20
4.912289481e+20
4.894129228e+20
4.843141984e+20
4.804698367e+20
4.7351266e+20
4.639334941e+20
4.595633482e+20
4.519665803e+20
2.346227212e+20
2.425654903e+20
2.536909571e+20
2.641023532e+20
2.758866473e+20
2.907844723e+20
3.069291567e+20
3.211572275e+20
3.374418768e+20
3.536218346e+20
3.712778395e+20
3.953205745e+20
4.139447681e+20
4.29533103e+20
4.445361072e+20
4.547351144e+20
4.662318987e+20
4.762913205e+20
4.821788975e+20
4.893239769e+20
4.895835453e+20
4.959779274e+20
4.951768049e+20
4.960506766e+20
4.919474442e+20
4.889571415e+20
4.835845626e+20
4.779291969e+20
4.684943625e+20
4.583653709e+20
2.238050936e+20
2.303391354e+20
2.369749392e+20
2.48596064e+20
2.591816521e+20
2.699842099e+20
2.814029566e+20
2.955709649e+20
3.109128578e+20
3.300886774e+20
3.497034035e+20
3.634915222e+20
3.804086695e+20
4.01175613e+20
4.193168954e+20
4.352616652e+20
4.497328827e+20
4.63446976e+20
4.726477907e+20
4.805561646e+20
4.857087605e+20
4.874612324e+20
4.972523675e+20
4.995746223e+20
4.964773069e+20
4.942198295e+20
4.94809445e+20
4.87377131e+20
4.791077044e+20
4.6635959e+20
2.189728327e+20
2.239118249e+20
2.296801818e+20
2.329659116e+20
2.420791408e+20
2.519784335e+20
2.617244629e+20
2.736358329e+20
2.890738415e+20
3.037982162e+20
3.197916317e+20
3.348199975e+20
3.552504489e+20
3.74018289e+20
3.923477414e+20
4.117402749e+20
4.267176195e+20
4.398699777e+20
4.559838638e+20
4.703287966e+20
4.803776609e+20
4.901339714e+20
4.952998409e+20
4.977505892e+20
5.021069723e+20
4.975543317e+20
4.993714633e+20
4.965062269e+20
4.876266092e+20
4.777212895e+20
2.127406931e+20
2.142753735e+20
2.199674953e+20
2.235382723e+20
2.298207973e+20
2.369394634e+20
2.471286809e+20
2.581705702e+20
2.686599398e+20
2.796261736e+20
2.948183481e+20
3.121219034e+20
3.264026124e+20
3.44773081e+20
3.635186392e+20
3.810455158e+20
3.992243456e+20
4.147604705e+20
4.289101414e+20
4.465326939e+20
4.599207371e+20
4.715839186e+20
4.802520122e+20
4.886196303e+20
4.951161702e+20
4.977026449e+20
4.975477619e+20
4.940561398e+20
4.915219271e+20
2.103671863e+20
2.119928205e+20
2.141253146e+20
2.199048464e+20
2.234882451e+20
2.301907879e+20
2.367426742e+20
2.43982252e+20
2.520447435e+20
2.631399936e+20
2.739411153e+20
2.846753261e+20
2.980860849e+20
3.119521913e+20
3.306096677e+20
3.485410284e+20
3.709686337e+20
3.910912105e+20
4.117241707e+20
4.218399985e+20
4.394743169e+20
4.577906897e+20
4.684031137e+20
4.794670893e+20
4.820873788e+20
2.073834788e+20
2.099543411e+20
2.130597849e+20
2.152988352e+20
2.186718077e+20
2.218632335e+20
2.250472778e+20
2.298317767e+20
2.373789547e+20
2.458564031e+20
2.542403973e+20
2.654568601e+20
2.781080744e+20
2.930323222e+20
3.077253853e+20
3.237493069e+20
3.398512659e+20
3.584575614e+20
3.753519374e+20
2.061989688e+20
2.075949481e+20
2.095125861e+20
2.115598947e+20
2.137305681e+20
2.167633024e+20
2.210393004e+20
2.242226614e+20
2.295765824e+20
2.342459437e+20
2.439421889e+20
2.518946177e+20
2.610276359e+20
2.719898569e+20
2.047676843e+20
2.056739848e+20
2.062568089e+20
2.075548684e+20
2.103978907e+20
2.113746114e+20
2.143796823e+20
2.182351943e+20
2.024569939e+20
)
;

boundaryField
{
    flow
    {
        type            calculated;
        value           nonuniform List<scalar> 
15
(
3.754432008e+20
3.460076243e+20
3.48793919e+20
3.650444528e+20
3.674603829e+20
3.738021907e+20
3.868789782e+20
4.034087054e+20
4.13015442e+20
4.191578214e+20
4.337103771e+20
4.519665803e+20
4.583653709e+20
4.6635959e+20
4.777212895e+20
)
;
    }
    obstacle
    {
        type            calculated;
        value           nonuniform List<scalar> 
30
(
266.682613
274.070585
267.1893567
273.4957552
264.3087093
258.1571264
269.2808175
260.8113929
275.6742811
258.6774474
256.620269
270.4745826
254.1073275
258.4469019
267.4266547
252.079376
248.6563399
250.9357327
255.0119908
260.1972036
242.2586381
241.015111
246.5986795
247.5651425
234.4285739
220.3178305
216.4981197
218.8310606
196.1087185
173.3797036
)
;
    }
    frontAndBack
    {
        type            empty;
    }
    procBoundary1to0
    {
        type            processor;
        value           nonuniform List<scalar> 
21
(
6.147638827e+20
5.479563427e+20
5.126484309e+20
4.758706552e+20
4.391596918e+20
3.960080518e+20
3.604239835e+20
3.243544149e+20
2.948146053e+20
2.685307668e+20
2.529012143e+20
2.392760226e+20
2.285504695e+20
2.205820241e+20
2.138028353e+20
2.111036308e+20
2.083108894e+20
2.056339555e+20
2.046674101e+20
2.035316048e+20
2.03571692e+20
)
;
    }
    procBoundary1to3
    {
        type            processor;
        value           nonuniform List<scalar> 
36
(
4.856471291e+20
4.874739303e+20
4.959790544e+20
4.964558826e+20
4.856471291e+20
4.942486527e+20
3.948537066e+20
4.109523899e+20
4.313072888e+20
4.452028216e+20
4.607950296e+20
4.874739303e+20
4.755212474e+20
2.847361013e+20
3.015738633e+20
3.145588741e+20
3.312568796e+20
3.948537066e+20
3.497719768e+20
2.224414869e+20
2.268867281e+20
2.301967148e+20
2.374783298e+20
2.450245677e+20
2.847361013e+20
2.54443724e+20
2.039383423e+20
2.046129851e+20
2.053206784e+20
2.073333037e+20
2.10121752e+20
2.114980725e+20
2.224414869e+20
2.141773364e+20
2.039383423e+20
2.037267513e+20
)
;
    }
}


// ************************************************************************* //
