/*--------------------------------*- C++ -*----------------------------------*\
| =========                 |                                                 |
| \\      /  F ield         | OpenFOAM: The Open Source CFD Toolbox           |
|  \\    /   O peration     | Version:  2406                                  |
|   \\  /    A nd           | Website:  www.openfoam.com                      |
|    \\/     M anipulation  |                                                 |
\*---------------------------------------------------------------------------*/
FoamFile
{
    version     2.0;
    format      ascii;
    arch        "LSB;label=32;scalar=64";
    class       volScalarField;
    location    "0.01";
    object      internalEMean;
}
// * * * * * * * * * * * * * * * * * * * * * * * * * * * * * * * * * * * * * //

dimensions      [1 -1 -2 0 0 0 0];

internalField   nonuniform List<scalar> 
546
(
2.985416227
2.997704362
2.916075648
2.929137903
2.883119936
2.90143483
2.989425239
2.905677883
2.894539547
2.856782501
2.834704967
2.878831043
2.824865521
2.911574594
2.912456544
2.850537468
2.727580711
2.78191368
2.768382217
2.742598552
2.699863696
2.702055461
2.634426948
2.608357738
2.487397666
2.428800248
2.328431164
2.281931106
2.058549834
1.703689568
2.892863107
2.91698491
2.883330371
2.908254077
2.895653255
2.955241465
2.95553852
2.910542975
2.896282234
2.889483153
2.902906377
2.948763052
2.926433814
2.964176252
2.946018315
2.865256061
2.826216913
2.831057489
2.802329962
2.770409034
2.75622348
2.683216358
2.679605791
2.590284588
2.566526557
2.478117
2.354209606
2.258720075
2.023720574
1.745865986
2.749522115
2.8047679
2.854657787
2.878041667
2.882254028
2.874233864
2.858899333
2.877113542
2.895758712
2.893805198
2.917242707
2.909945489
2.889390355
2.921194789
2.885272413
2.836420675
2.889427541
2.845912938
2.771286696
2.777821434
2.708235608
2.670540173
2.706303621
2.622841098
2.554080342
2.467737385
2.356157694
2.261632438
2.082241389
1.848645316
2.431927256
2.51837409
2.677819769
2.695004576
2.744288436
2.786001493
2.828055477
2.805286104
2.83481073
2.8537155
2.870129993
2.88553147
2.890414961
2.889214411
2.823571208
2.82761921
2.825388404
2.77967303
2.804713065
2.776296135
2.754356366
2.719356747
2.686034548
2.624391161
2.619745375
2.552059797
2.492810843
2.237398393
2.100236238
1.912868983
2.151050231
2.2676452
2.418898702
2.528104739
2.5928578
2.626894974
2.661408507
2.695691709
2.775163097
2.783029111
2.778620476
2.817888713
2.833572421
2.836979697
2.849536975
2.787973878
2.77681942
2.765300799
2.774527215
2.767930634
2.738432732
2.703985813
2.675398734
2.650557581
2.595856332
2.533132488
2.505790579
2.306804749
2.159620205
1.976900814
1.886147531
2.021788085
2.173765262
2.30167667
2.370653302
2.464259819
2.540032013
2.597977857
2.628312524
2.683873081
2.740673063
2.74496701
2.731127603
2.774478373
2.79138636
2.78401657
2.762086042
2.782611377
2.786220229
2.745851302
2.709997554
2.670346253
2.692484686
2.68224026
2.601694957
2.519547838
2.445580715
2.357561996
2.229166453
2.045036848
1.578578998
1.723156955
1.873231061
2.006417414
2.178286457
2.271901565
2.352807762
2.414223514
2.47640984
2.529865538
2.592573357
2.674799992
2.688627075
2.724373808
2.731867598
2.732751114
2.741890285
2.779119791
2.76395749
2.749878911
2.726805597
2.669304083
2.664478323
2.645480284
2.615930886
2.540707559
2.442920416
2.391587123
2.303135148
2.135417293
1.309474759
1.454906863
1.59711006
1.740521473
1.869095758
2.010908052
2.1605142
2.214169736
2.305856776
2.385440372
2.434062614
2.499417068
2.542340487
2.615661479
2.679114275
2.684099402
2.730711598
2.723513953
2.727872917
2.75615933
2.747782951
2.681582977
2.639911777
2.6288478
2.616892696
2.573553852
2.517690816
2.430862606
2.366227736
2.236246916
1.094130245
1.217602318
1.349910317
1.475254149
1.615826126
1.735354947
1.865385098
1.977439908
2.083020844
2.19701236
2.282565581
2.380182114
2.445461684
2.506192997
2.549301953
2.593425075
2.656054881
2.656218281
2.657894701
2.702783046
2.707945922
2.7106757
2.677455042
2.645652395
2.596017083
2.587366332
2.554355789
2.462784815
2.366332762
2.278673041
0.9001740217
0.99353676
1.11272311
1.216248579
1.371126541
1.494267243
1.625201682
1.764609889
1.88208597
1.981859861
2.091034863
2.203259866
2.255620435
2.339015922
2.419345991
2.489569179
2.538592934
2.5951926
2.609743632
2.617729128
2.650765928
2.666630617
2.67810326
2.655529782
2.641469306
2.587761288
2.537925628
2.481606596
2.390085224
2.270650354
0.7892355482
0.8676483134
0.9471332996
1.045096915
1.127297746
1.242068672
1.362307873
1.507019954
1.635396194
1.786420232
1.907337567
1.99799441
2.107089944
2.201051087
2.279194565
2.325256998
2.413522999
2.482295382
2.509258897
2.53917551
2.581817471
2.616023627
2.61655767
2.653634953
2.589471892
2.562078988
2.515733521
2.489656961
2.445203588
2.341360944
0.6908787526
0.7501771688
0.8145997233
0.8901284126
0.9671346538
1.061315021
1.176895602
1.282449127
1.401256932
1.520489439
1.661386903
1.790722123
1.901001203
2.017320724
2.11505153
2.209519495
2.260034919
2.361534321
2.435218869
2.466817065
2.512202206
2.547154534
2.547611895
2.545131572
2.558964462
2.550152388
2.508188332
2.487375782
2.463126413
2.41880227
0.6035707317
0.6468011615
0.7135442901
0.7724900275
0.8357132328
0.9100633549
0.9867904109
1.090571328
1.195614697
1.302914344
1.402572474
1.572080505
1.697402332
1.822654198
1.945857584
2.025548954
2.125712038
2.213016609
2.27870181
2.358189224
2.390144895
2.46236019
2.498619772
2.534542036
2.511827017
2.514757309
2.513738535
2.46837232
2.436562775
2.408268198
0.5501603369
0.5844493242
0.6203593996
0.6847713799
0.7410637975
0.8053020268
0.8603684723
0.9350926404
1.017540655
1.12534636
1.243287439
1.336125207
1.453351083
1.593164761
1.720960276
1.8326195
1.944300998
2.05376252
2.138664689
2.219604894
2.259948697
2.324491001
2.408525645
2.459557686
2.486990988
2.495649148
2.515309481
2.49877992
2.469189079
2.40167223
0.51379368
0.5375249323
0.5703791641
0.5892117274
0.6364599919
0.6933131273
0.7476448053
0.8099144289
0.8956237362
0.9758781254
1.075749718
1.165360633
1.267455727
1.38716745
1.496304232
1.623504253
1.744393923
1.83940508
1.975659771
2.090440532
2.177203178
2.257428742
2.326329194
2.360714256
2.416668541
2.422682013
2.461263153
2.475756977
2.43414994
2.396446372
0.4905373904
0.504068596
0.5310093415
0.5571182012
0.5881889153
0.6251084312
0.6695783127
0.7256371293
0.7777375785
0.8412753262
0.9072124002
0.999613894
1.094668366
1.186420267
1.315390243
1.415591078
1.552265427
1.64543271
1.745751131
1.855740461
1.96771423
2.064858381
2.131464008
2.228611008
2.305163883
2.346645684
2.367823567
2.390247189
2.384039324
0.4728628825
0.4798223001
0.4935025455
0.5185236125
0.5420622128
0.5761589152
0.6119512676
0.6323531611
0.6682595511
0.7266026045
0.7842829388
0.8397832333
0.9262754758
1.009532307
1.111356009
1.224598095
1.342853628
1.467321289
1.588246611
1.674285952
1.77483699
1.901517854
2.012962709
2.08364465
2.136113398
0.4618915448
0.4716418583
0.4835628038
0.4990569722
0.5117049055
0.5248288479
0.5493412231
0.5819992185
0.6086772051
0.6512118206
0.704228996
0.7536955176
0.8147367505
0.8949160935
0.9660453413
1.047796153
1.149623343
1.26794179
1.365735541
0.447353738
0.4557684352
0.4677164807
0.4804732694
0.4909772999
0.503772464
0.5226894755
0.5372263721
0.5719123435
0.5929681131
0.6329649175
0.6779821003
0.721901677
0.7850753472
0.4430273522
0.4501285148
0.448833572
0.4574055798
0.471822842
0.4818431747
0.4923091178
0.5084448236
0.4299965783
)
;

boundaryField
{
    flow
    {
        type            calculated;
        value           nonuniform List<scalar> 
15
(
1.703689568
1.745865986
1.848645316
1.912868983
1.976900814
2.045036848
2.135417293
2.236246916
2.278673041
2.270650354
2.341360944
2.41880227
2.408268198
2.40167223
2.396446372
)
;
    }
    obstacle
    {
        type            calculated;
        value           nonuniform List<scalar> 
30
(
1.179124686e-18
1.169643348e-18
1.154347574e-18
1.194293571e-18
1.149295301e-18
1.128009689e-18
1.173060513e-18
1.158839189e-18
1.223289613e-18
1.103249216e-18
1.127918038e-18
1.14043195e-18
1.081680243e-18
1.10483119e-18
1.186227184e-18
1.091094993e-18
1.072326268e-18
1.099039223e-18
1.075897554e-18
1.025596896e-18
1.062686526e-18
9.889780684e-19
1.038776177e-18
1.093927291e-18
1.01648906e-18
9.353219515e-19
9.239856842e-19
9.256442552e-19
8.444440168e-19
7.310858924e-19
)
;
    }
    frontAndBack
    {
        type            empty;
    }
    procBoundary1to0
    {
        type            processor;
        value           nonuniform List<scalar> 
21
(
3.001000415
2.868131678
2.656018567
2.351351827
2.033044024
1.722113655
1.420852908
1.15772372
0.9704403745
0.8148580086
0.7188163609
0.630182666
0.5660652613
0.521840711
0.5006825855
0.4788493618
0.4609297524
0.4529289526
0.4431618017
0.4381166774
0.4322947762
)
;
    }
    procBoundary1to3
    {
        type            processor;
        value           nonuniform List<scalar> 
36
(
2.358687975
2.199898471
2.268615627
2.329362908
2.358687975
2.336246819
1.468003493
1.585025604
1.714614599
1.8115436
1.931500831
2.199898471
2.032155943
0.8497258843
0.9240190376
1.008655374
1.090446102
1.468003493
1.209479645
0.5304713966
0.5493508537
0.5706619654
0.6003452578
0.6378912094
0.8497258843
0.6845963335
0.4340474135
0.4407877412
0.4421776012
0.4522316029
0.4618086291
0.4703510226
0.5304713966
0.4827163787
0.4340474135
0.4272388983
)
;
    }
}


// ************************************************************************* //
