/*--------------------------------*- C++ -*----------------------------------*\
| =========                 |                                                 |
| \\      /  F ield         | OpenFOAM: The Open Source CFD Toolbox           |
|  \\    /   O peration     | Version:  2406                                  |
|   \\  /    A nd           | Website:  www.openfoam.com                      |
|    \\/     M anipulation  |                                                 |
\*---------------------------------------------------------------------------*/
FoamFile
{
    version     2.0;
    format      ascii;
    arch        "LSB;label=32;scalar=64";
    class       volScalarField;
    location    "0.01";
    object      internalE;
}
// * * * * * * * * * * * * * * * * * * * * * * * * * * * * * * * * * * * * * //

dimensions      [1 -1 -2 0 0 0 0];

internalField   nonuniform List<scalar> 
546
(
4.240630514
3.006230651
2.485455154
1.811920083
2.349538803
3.202882404
4.048632385
4.780350532
3.270720541
3.993147591
1.875910497
2.74105238
3.838359116
2.76456195
3.102089361
3.452099827
1.645877621
3.777555103
3.063605916
1.573524951
2.61137054
1.808114585
3.982311261
2.927550386
2.145288748
2.201987639
2.399794874
2.580151935
1.950691718
1.565058812
2.660775312
2.22294533
2.566459339
3.314193216
2.836873341
3.095700967
3.585407873
2.238967707
2.377768555
3.802997901
2.494437467
3.534839133
3.162348771
3.620092789
2.895737504
4.198658144
4.367923661
3.23160333
2.455033236
2.53791469
2.241720747
3.242023906
1.964563735
3.338234415
2.762815196
1.919248669
1.73047225
1.547537189
0.9234001133
2.426250072
1.652809897
2.629310117
2.763358561
2.316563094
3.652409834
3.055870501
2.069273222
3.787726486
3.223433862
1.952038913
3.207944158
2.235594685
4.37899116
4.709021592
1.484943609
2.951249149
3.170355907
2.947781137
2.99001154
2.183135459
2.316661143
1.621569362
2.411611302
1.702699193
3.821325613
2.031457991
2.903376077
2.365068508
0.9894958612
1.915484712
1.344632884
2.016252447
2.546230301
2.369788096
1.017976861
2.938814349
2.979492533
1.97623611
3.266147911
2.556182306
1.49150949
3.035030146
3.067227388
2.273891809
1.617969796
1.867529707
2.030677945
2.724954289
1.317689849
3.564559403
3.28492145
2.937129756
2.20633359
2.473064275
2.987697411
2.548069171
1.03974755
1.582165943
3.102134098
1.783104489
2.279316861
1.493861907
5.919645168
3.272214438
2.508425068
2.832569542
1.923545637
4.913995627
2.988028358
3.421660618
2.915036887
2.931857412
3.65134476
3.057285306
3.895499223
3.900171005
3.175704367
2.322528413
3.1325614
6.312676401
2.604800889
3.653899738
2.857649541
1.413350349
1.890240541
0.9311113059
1.756299586
2.126959354
1.629919019
2.310293262
1.821506726
0.6901764158
3.748979964
1.817017088
4.418040172
3.513230315
4.040508325
2.512706439
3.123787519
1.464882905
1.490304646
2.486078086
2.753587162
2.330115773
4.355097342
3.144877549
3.109497568
5.010711041
1.231057018
4.662882902
1.551932496
2.592528676
3.270053888
3.861096182
2.960279763
2.526960256
2.669540164
2.372183333
3.175287722
2.502646623
1.130227079
3.079573683
2.036743429
1.760939511
2.118372759
1.142964228
1.904117371
2.075787939
3.044175091
2.31077419
1.804666824
3.400979944
4.610619281
4.53923987
1.908928123
2.39274053
1.936962216
4.049071086
3.056697471
2.072530508
1.421881968
3.965173239
2.561587863
2.387596002
3.382287055
2.549092867
1.408383674
3.464969376
1.417025863
1.55304706
1.075113601
1.151777863
2.651636532
1.219406153
1.310613123
1.805900453
2.535939412
2.04106671
2.957784371
1.482681278
4.209249729
2.673816804
2.322898423
1.305902789
1.692558693
2.354599166
1.23121546
1.482153006
2.447165371
4.282157155
1.57831561
1.698881771
3.831195497
1.9148491
4.28417102
1.916931329
2.016580042
1.422607045
1.538662258
1.839740787
1.399100368
0.7744868847
1.234388118
1.387254222
2.622307473
1.76535159
1.62532992
2.237773609
3.24099871
3.301365852
3.419574782
2.756812817
3.160154124
2.208145691
2.216687447
3.247157569
3.232250292
2.410590315
3.293188597
3.389625907
2.394903459
1.427208479
3.624079177
3.674079107
1.562087877
2.700926288
3.875369243
1.780191414
1.914707977
2.193153898
0.8513268168
0.8884253404
0.3310261169
1.251435056
2.067621785
1.66180146
1.369023389
1.653057175
1.447780576
2.251821406
3.668670118
2.957673857
2.162774465
3.058063019
3.018371709
3.533344884
1.35627529
1.896459608
2.510628948
1.729403331
1.506491524
2.728266
1.670059008
3.923568319
2.836612635
2.908068945
1.217901077
2.663556486
0.9499440655
4.660302773
1.117027829
0.609620224
0.6941238616
0.5404443228
1.44191527
1.136949432
1.460164901
0.3419383874
1.445986866
1.656966107
2.102315381
2.268023928
2.378272732
1.528341434
2.358004648
1.519560768
2.568079222
3.259103067
3.763661294
1.584637159
2.492192849
2.444919118
2.757635958
2.770634624
1.412673781
1.758118885
2.363493316
1.534725333
2.044049389
2.81278728
0.6922392769
0.3239883174
1.03898262
1.020628759
0.8954231177
0.3786894999
0.9923673336
1.67428483
1.49831943
1.141835505
1.999543518
2.695836581
2.262097939
1.043533478
2.970711401
3.165580972
2.207147053
2.194021026
2.76512147
2.615096114
2.146591051
3.543946674
2.750717226
2.724868984
0.816066478
1.59821419
1.465575303
1.941858608
1.558682315
2.859650629
1.034826983
1.651049461
0.5530863515
0.06277795634
0.7011059823
0.5976815359
1.27320243
1.245565671
1.422550315
1.562174291
2.885581883
1.99284061
2.860280687
1.799783069
2.099141897
2.218935676
1.862161441
2.079775053
2.633366369
2.312828274
1.32727425
2.530035609
3.38189986
1.54259436
2.463434109
3.326584374
2.260493745
3.226206889
2.351008596
3.074154861
0.749122436
0.5418409898
1.111745726
0.7110353628
0.6355528411
1.165767702
0.920170551
0.7567675076
0.8706126475
1.460756979
0.9827044932
1.072108691
1.474283761
1.720544748
0.9470024815
1.932353594
2.438758993
1.957412287
1.832759039
1.877954874
1.239406444
3.526405039
1.411175713
2.230775008
2.538321906
2.490680826
2.680750951
1.719344256
1.897932183
2.369820773
0.7851656107
0.1334649076
1.114276052
0.08335430158
0.5637260347
0.2218878236
0.3721458222
0.3994889831
0.4536271978
1.880123678
0.8675415239
0.4952945244
1.838008992
0.3465080525
1.617123753
2.123376348
1.320382599
2.988378716
1.319275498
3.561807444
1.951245956
2.002672722
1.306215108
1.969406784
1.731557451
2.217875387
1.912312474
1.780735315
1.724681733
2.018789936
0.5153034934
0.39583215
0.6069780896
0.3332334762
0.6757508672
0.6631951765
0.4122300624
1.116337878
0.5605970191
0.7002498938
1.127515907
0.8112027367
1.257185968
1.256655699
2.101658796
2.981536788
0.8576021001
1.774421487
1.470648622
2.197666586
3.22446687
2.06079635
1.251127745
2.285048478
3.375408875
2.22754853
1.909840937
1.346388294
2.333931855
0.2304023427
0.4288823093
0.8073516744
0.3755799562
0.4865148338
0.7703078648
0.4389267078
0.5923717207
0.2243304056
0.9608769232
2.054026092
1.387689456
1.170156545
0.8006087802
0.8605442133
1.084989216
1.906720121
1.367915903
1.707085414
1.575856149
1.926443938
1.267818962
4.519141228
1.794583045
3.27945603
0.2144761065
0.5392607449
0.1292895204
0.2400639278
0.6154320915
0.6036933567
0.4076629615
0.832334295
0.2966361044
0.496745027
0.6064583404
0.8026609338
0.7392755162
1.049525089
0.6957433421
0.6866414852
2.321551397
1.286115754
1.741937592
0.3771805143
0.3813643488
0.2503116934
0.7003481173
0.6463151353
0.5072233552
0.4772212411
0.156803488
0.9856675209
0.5005992985
1.363408553
0.5211313951
0.6878753787
0.6751275688
0.1172234544
0.3366591209
0.7722126564
0.4631938435
0.1610077198
0.8718625739
0.3753631456
0.5144677449
0.846446856
)
;

boundaryField
{
    flow
    {
        type            zeroGradient;
    }
    obstacle
    {
        type            calculated;
        value           nonuniform List<scalar> 
30
(
2.029773489e-18
1.327550141e-19
0
0
0
8.793905477e-19
1.503566336e-18
0
0
3.248329001e-18
2.523368404e-19
3.633616546e-19
0
2.264589355e-18
7.480108078e-18
2.18432171e-18
7.815194037e-19
1.055199342e-18
2.233301772e-18
0
1.335191343e-18
1.431088133e-18
7.279375601e-19
0
0
7.89419818e-19
5.742914368e-19
2.356669452e-18
0
3.045084795e-18
)
;
    }
    frontAndBack
    {
        type            empty;
    }
    procBoundary1to0
    {
        type            processor;
        value           nonuniform List<scalar> 
21
(
2.981122133
1.277616054
2.342072182
2.262340548
3.229916524
1.642241417
2.410011417
0.6429305389
0.8263425003
0.2746329267
0.7129081072
0.4976413243
0.8251711822
0.5117096488
0.1595170178
0.09558246477
0.5846687477
0.4986264553
0.3242219735
0.5142824216
0.3932515723
)
;
    }
    procBoundary1to3
    {
        type            processor;
        value           nonuniform List<scalar> 
36
(
2.336897759
2.339818888
2.18974481
1.426847951
2.336897759
2.957380658
1.059441444
1.159122972
1.32099124
1.512087519
2.23157408
2.339818888
1.053036245
1.148911591
0.4852740162
1.824161616
0.6395451379
1.059441444
1.626166872
0.5077595217
0.7906187955
0.2229542796
0.3975082467
0.560368519
1.148911591
0.6905417981
0.2221549261
0.3552609632
0.4838522528
0.3802439453
0.4824087639
0.4874360207
0.5077595217
0.207303909
0.2221549261
0.3688613099
)
;
    }
}


// ************************************************************************* //
