/*--------------------------------*- C++ -*----------------------------------*\
| =========                 |                                                 |
| \\      /  F ield         | OpenFOAM: The Open Source CFD Toolbox           |
|  \\    /   O peration     | Version:  2406                                  |
|   \\  /    A nd           | Website:  www.openfoam.com                      |
|    \\/     M anipulation  |                                                 |
\*---------------------------------------------------------------------------*/
FoamFile
{
    version     2.0;
    format      ascii;
    arch        "LSB;label=32;scalar=64";
    class       volScalarField;
    location    "0.01";
    object      internalT;
}
// * * * * * * * * * * * * * * * * * * * * * * * * * * * * * * * * * * * * * //

dimensions      [1 2 -2 0 0 0 0];

internalField   nonuniform List<scalar> 
546
(
707.7151556
705.2537486
697.134514
698.9455436
697.6768358
701.590631
712.7130065
695.7654228
690.2688591
691.1280747
689.6560735
693.2227271
690.3458473
700.2789856
698.196407
697.0581096
687.6188195
687.2372661
683.3828768
683.7805751
683.9681329
673.3692037
671.1501707
672.5456403
662.8388196
662.5698654
664.8413706
672.7430109
661.7618921
657.3438723
758.3871097
766.7952229
766.6383635
768.6695155
770.1955127
776.7276486
779.5314229
769.5840636
771.0321826
773.2844219
771.5608906
775.6757968
771.0031464
777.2856178
778.4320932
765.4637696
762.505088
754.9316629
753.8669945
754.8399488
754.2077563
737.7642716
739.7936617
731.0039176
738.5123623
724.9514059
719.1589532
729.7535298
719.5350471
730.9230094
771.7632755
779.2505416
790.9028104
798.613781
807.3109
806.56172
800.3862677
809.2262438
803.5071839
809.6037657
813.5906047
802.0265075
805.1971215
814.7272196
807.8073082
809.8939563
814.8586414
798.6491591
792.2860419
794.5486908
790.4381065
783.1698529
776.1088242
781.9281725
780.0658815
771.4050143
756.0970532
762.2876423
762.5414333
767.7699116
730.6123969
745.3298196
773.1236163
775.9166181
787.0045812
798.8920007
802.7530294
802.8095723
815.8919964
819.1968209
824.9031536
830.2350892
827.2873684
831.1150531
818.1730535
825.542111
825.6643278
811.8449799
819.2756959
816.2417949
820.9524759
812.7913243
810.6360283
802.4150102
813.1045759
807.0341861
815.8075368
782.6519984
765.4607137
759.0770659
687.5124473
712.9443058
734.7653714
749.3250527
759.0317362
772.1762643
778.7612148
788.8401325
805.3752131
809.2199268
812.2491544
815.6747618
820.1135818
822.5698407
828.6557181
818.449383
826.6176846
822.3749611
826.2696699
829.8667303
826.7234975
828.3827575
826.0879117
827.2539711
824.2670945
812.1616593
814.830825
800.1430915
788.2011872
779.3288531
649.2780263
669.2412112
692.7624383
716.1467229
725.5598528
748.8356477
762.2869415
771.8232231
775.1557808
788.9387468
798.6904401
801.7203718
805.5708131
813.5082821
821.0910604
818.7514028
823.7461284
823.2954321
826.3974657
822.4484288
820.4944304
822.5975952
837.6482463
837.4539028
824.2225781
814.7304311
812.4893592
806.3543325
796.6991321
792.5117206
601.0742809
618.8380621
647.614429
667.7667188
696.8813459
710.7207502
724.3977522
732.2612562
748.462396
755.389957
768.1379318
783.8104212
790.6194251
799.8688943
802.3941312
806.0008906
813.4922162
821.2736515
821.8556564
826.1748363
821.7816228
814.6696014
824.2761793
827.5745252
820.6708395
821.3712656
806.9174939
812.7108024
816.0203687
799.5654538
553.3769172
575.9880696
598.7141708
620.5649461
643.2046498
665.7982184
688.914963
691.0165209
709.7176803
725.454314
731.0482709
740.066573
756.4100593
772.5404547
783.5712532
782.4878012
795.1107368
803.1114068
808.6807643
812.4962713
814.6574216
810.5742888
804.9426722
815.4436879
816.8310827
818.8985228
814.01085
812.8732813
812.6014333
803.0098773
503.842089
533.0955538
554.7536831
574.6589275
598.4746002
615.98694
634.1341622
653.6115639
668.9472669
692.3432031
706.8850784
716.0763197
726.0383004
741.348152
752.7627674
758.5085013
776.4506249
779.5664175
782.9335636
798.2262196
803.5210083
808.6923689
809.743352
807.8115348
802.3702891
805.0310113
814.6574851
809.5916527
800.3725276
799.2122337
459.8405184
481.768624
510.5211664
527.1161608
557.6902934
579.0048246
598.2012354
621.3427056
637.8194235
648.9278085
666.2520465
682.5305013
692.1326841
706.4624736
723.0478062
737.5315577
748.469584
758.8115946
770.5558079
773.4438336
779.9937251
789.4990992
799.9776432
806.1143511
804.4936071
797.503689
797.6963483
796.2312144
792.9680661
784.7278907
431.1596276
450.2857571
467.4105924
486.9387667
502.0553764
522.4501865
543.2042646
571.1326707
588.8332792
613.1141752
632.2224709
648.775588
664.9536042
676.8300294
692.4475846
701.5914318
717.2560768
729.856157
737.0584042
747.5634924
757.0697288
768.783363
775.6044342
788.5687028
787.4672616
786.7293475
781.8907245
783.9627046
787.9152228
782.0147682
403.02782
416.8552883
434.0126757
451.7943034
464.9798458
485.5357038
509.0595055
526.4423958
544.4073251
565.165406
590.3376707
613.4555775
628.5100442
644.4512088
660.3257954
677.8445324
686.6497834
706.3342608
718.3443221
728.0652344
738.6057887
746.2804029
751.2694254
753.32296
765.3911774
768.8584703
767.3172236
776.6620271
776.4039118
775.2476223
372.6528979
386.2675061
407.438765
423.7083368
438.8064431
453.363773
465.7288837
491.9067407
513.2614724
533.7319372
547.2335075
576.0653624
594.0032145
614.6870156
634.0892751
645.2539186
660.4635377
673.067165
684.5823471
698.1175439
707.2025453
719.1767355
730.9476556
740.1501825
739.6349371
745.0264372
752.9984337
748.158309
753.389623
761.0960176
356.0948635
367.5577014
379.2166042
399.022836
414.1882192
432.0826476
442.8964812
458.2888256
474.0885709
493.8578727
515.0128739
532.4750581
553.4348854
575.2711113
594.5315177
609.9135508
626.2608382
641.943151
655.4679561
669.0798014
674.0141936
690.7711412
701.6504592
713.1863832
725.639988
731.4923048
736.3763728
742.6928767
746.5649407
746.0006796
339.8951125
347.7506753
359.7381754
366.3746382
380.8554179
398.5771982
413.8065887
428.7583258
448.8106972
465.325403
487.2934171
504.1913059
516.8262469
537.2574531
552.4527577
571.184586
592.1754351
605.758419
627.6377845
643.8469548
656.5420621
667.1840325
680.3766192
687.0336968
697.2158236
705.3461527
713.9712558
722.3201172
723.1132652
726.6738251
334.0165185
340.7719025
349.6955051
361.0288065
370.7438088
382.1768305
392.486412
407.1544269
419.3499243
435.8195723
445.759767
463.9321136
485.819945
498.4844388
524.1726184
538.1549757
563.2424326
574.6840801
589.6067075
602.0192425
619.7626975
634.2751289
642.9174429
660.7082947
674.4365443
683.0051382
689.3836198
700.8303705
702.6141898
325.614417
327.8730145
333.8626079
341.5703272
351.3507191
362.5774125
374.4438381
375.4463242
384.0731334
399.9967742
414.7266526
427.3303821
450.1371544
468.7902595
486.9496427
508.9628338
524.3700575
543.4925075
558.8020262
574.9476127
585.0208845
601.6997762
622.5329665
629.5224915
641.8668414
322.635577
325.4122379
328.7742542
335.7800161
338.9793041
342.67211
353.602091
366.8248305
371.4421831
383.6958924
401.2506442
411.2902153
424.3753081
442.3980356
454.7582481
468.8288739
490.0191808
512.3986402
527.0773428
314.2758285
318.0342275
323.3843167
328.9896895
332.767705
336.6627487
342.5473852
347.0757087
360.8679246
366.6955664
375.8712616
389.8932697
400.624919
418.1239358
313.4119269
317.0323367
315.2270213
319.2382578
324.8508287
330.2168937
332.6600548
337.4935202
307.6653687
)
;

boundaryField
{
    flow
    {
        type            calculated;
        value           nonuniform List<scalar> 
15
(
657.3438723
730.9230094
767.7699116
759.0770659
779.3288531
792.5117206
799.5654538
803.0098773
799.2122337
784.7278907
782.0147682
775.2476223
761.0960176
746.0006796
726.6738251
)
;
    }
    obstacle
    {
        type            calculated;
        value           nonuniform List<scalar> 
30
(
640.4886355
618.2119944
625.8407516
632.5675399
629.8926714
632.9583163
631.0465509
643.6399812
642.8052807
617.8192829
636.6972658
610.7863393
616.6349083
619.2570991
642.5539222
627.0059267
624.7033094
634.4495328
611.1625255
570.9794415
635.4367103
594.4136674
610.207629
640.096364
628.1141274
614.975592
618.240586
612.7474934
623.7640767
610.8246373
)
;
    }
    frontAndBack
    {
        type            empty;
    }
    procBoundary1to0
    {
        type            processor;
        value           nonuniform List<scalar> 
21
(
707.1378912
758.2274906
750.5124009
715.7726343
670.6110571
629.9472618
571.0601256
517.0487782
476.8329522
439.5763158
411.730877
381.5168034
358.7821138
342.7001055
339.2309155
328.5864184
320.5303571
319.0668259
313.6606396
311.8202583
307.6160561
)
;
    }
    procBoundary1to3
    {
        type            processor;
        value           nonuniform List<scalar> 
36
(
703.5517791
653.7288348
662.5886336
679.6774994
703.5517791
684.7304278
538.5639359
558.7160793
575.8722059
589.4368473
607.2024453
653.7288348
619.0610831
432.2974881
443.8473365
464.5016526
476.8542926
538.5639359
500.9102871
345.455873
350.7414635
359.1089299
366.2043485
377.1233161
432.2974881
389.7527822
308.3079235
312.063313
311.9682862
315.9644626
318.3738789
322.1529238
345.455873
326.4862683
308.3079235
303.7869581
)
;
    }
}


// ************************************************************************* //
