/*--------------------------------*- C++ -*----------------------------------*\
| =========                 |                                                 |
| \\      /  F ield         | OpenFOAM: The Open Source CFD Toolbox           |
|  \\    /   O peration     | Version:  2406                                  |
|   \\  /    A nd           | Website:  www.openfoam.com                      |
|    \\/     M anipulation  |                                                 |
\*---------------------------------------------------------------------------*/
FoamFile
{
    version     2.0;
    format      ascii;
    arch        "LSB;label=32;scalar=64";
    class       volScalarField;
    location    "0.01";
    object      linearKE;
}
// * * * * * * * * * * * * * * * * * * * * * * * * * * * * * * * * * * * * * //

dimensions      [1 -1 -2 0 0 0 0];

internalField   nonuniform List<scalar> 
546
(
8.947324396
9.388545783
5.950060301
5.384417176
4.552795398
8.005724678
9.52909687
6.55231981
6.411615546
5.543037997
4.530503538
5.473476959
6.417853573
5.021301512
6.319764346
7.444952648
3.393183469
7.604738299
5.726135685
4.030815744
5.740440083
6.869954924
6.460372692
3.751082998
5.328264566
4.585340188
3.871362987
9.573445618
6.210708114
3.233876265
9.610488767
6.017393569
9.255950675
9.609340358
6.172110192
7.39157439
7.990260882
5.685680824
7.253477786
7.016401824
3.182378872
7.507748459
7.704977563
7.054767327
5.553393871
6.704127083
7.585286804
7.527177892
4.60127205
6.380649399
4.700229972
6.053032138
3.655921181
7.655788184
9.269540884
3.454210854
4.049497917
4.809683083
2.919176948
5.862338638
9.654723369
13.85487656
6.755490456
11.22945834
12.91940276
11.19853387
8.965837288
11.51439958
7.240553401
7.213684813
10.53406278
6.890276556
8.757894295
9.392563107
4.454427464
7.389606161
8.664803123
7.905912543
4.956790297
5.907334443
6.648653815
9.173938462
2.996212522
4.796148774
6.947527538
4.501243072
7.259797926
4.549011004
3.524636506
5.220676318
8.597514748
7.409575635
12.44722499
11.38370641
6.843510759
10.35511229
12.2715791
9.398284442
10.40187784
8.445537533
10.80106739
10.63866913
7.102558672
6.099299983
7.853745406
6.503304545
8.620034356
8.428827307
6.54955323
5.161525784
4.343895371
8.288039938
5.963237934
5.584295434
5.817708215
8.822308275
6.188627571
6.066570978
8.706760425
4.472118094
11.4043958
9.197479763
19.32802498
17.05368422
11.77894789
14.68447537
9.516043022
13.83503021
11.00729177
17.17237915
9.136844545
11.00403509
12.4007286
11.31403194
11.78242496
11.21530223
8.92494947
8.779925401
10.03697737
11.37704148
9.815085758
5.791865042
5.127568324
4.498352293
3.826637395
4.902771192
6.378599138
6.443182817
5.560922909
8.73636794
16.3710034
9.6729346
19.31216412
5.324603177
17.05876522
12.7058268
16.85855956
10.47878846
14.07357755
8.113547726
7.420934762
9.80764551
12.48998826
9.771397037
10.78574617
13.88875999
14.87836217
8.721918439
6.153758149
12.40421261
9.709252076
6.706116624
9.296549896
7.796663711
7.836428361
8.601700859
10.0480611
5.920882969
10.06720189
8.647451389
10.20492856
12.66693979
15.4623566
11.04974471
15.12030926
14.30940895
7.568061559
9.318137112
9.171643541
12.82091694
12.28464962
17.78895373
18.89703763
16.20448358
9.217011664
8.996120388
9.723115261
12.89221485
18.23783429
13.86559367
8.150249001
13.57119897
6.01557552
12.43582977
11.35007707
8.56472132
3.427004899
7.117764096
5.125860117
6.896156427
7.431392782
14.58854219
10.41750937
7.912333233
14.85852691
9.552353612
11.05665522
16.58205187
20.15020076
12.95924577
16.00119265
12.01585493
13.44488008
14.31364099
8.518686831
8.250959898
5.852866796
10.3436207
9.484216996
14.16157419
10.31207121
6.373632903
13.49277527
10.0535354
10.11363178
7.020200705
8.453974047
7.848730306
9.678437652
10.97483356
9.088483791
11.85719839
11.11028307
14.13560196
11.92640231
17.88955689
10.12190961
16.61346097
24.0077346
15.88256245
20.41864932
15.77720195
8.582495629
16.66263627
9.985180972
12.98873755
15.60396261
15.11408804
13.30744895
16.37163206
13.83572269
8.404018944
10.61586348
11.53624866
10.29543082
9.271403621
9.83942792
7.482443469
6.87594076
8.020772274
14.10218845
10.09332811
7.080060967
11.25541279
9.332145309
6.527982646
14.72612129
14.57793745
11.07323008
13.42749486
18.61824638
15.41763892
21.70198629
17.28809487
13.01514536
18.09690696
14.0610094
16.718791
9.142674735
8.12214117
8.511339381
16.07462275
8.928350462
16.15283257
14.85472542
13.82571567
6.525641159
10.94169862
7.472729
12.60921748
10.15013468
7.147123487
7.969854423
9.106333219
10.71222978
14.74795654
17.28772948
8.095861953
13.89600146
11.1218798
11.93837839
12.26576533
14.05313327
11.81015576
9.842402635
8.508756254
11.55517666
10.88517187
18.21080328
15.18672048
9.751521679
15.64795406
11.06331597
15.10742828
9.23525103
8.719456305
13.56838403
11.53167668
10.50576173
12.82019474
18.08399158
10.90289224
13.32818051
9.612884392
9.881222248
6.881107888
6.643414938
11.87222296
12.19910175
6.085015686
13.6030836
12.55533401
19.38904644
11.20405978
17.62246366
12.61811125
13.56551472
16.26602086
12.83965944
19.90638345
15.63740928
17.03348833
13.86862773
12.47881536
13.55385118
10.6380947
5.122925373
11.31666174
18.58580338
14.81166443
8.503032889
15.39892203
8.413774082
3.162871308
10.06889043
11.81614123
13.85698229
10.83508866
12.29910571
13.30802407
12.18652824
11.37624584
14.37187543
12.83853567
13.83678031
18.05286271
9.887408835
9.74114173
10.37316505
13.08474153
9.984053866
11.68002775
15.24468143
11.68928957
16.02380711
11.01661495
11.94541516
14.96131649
13.34366903
9.386319834
12.63675954
7.988137987
11.02950384
10.5458177
9.825105939
12.93058265
15.07346184
7.842558402
8.826808367
14.4928257
12.25511486
8.664639929
14.02700297
14.34119865
7.702733096
17.32120266
13.52091018
17.84305132
18.73249652
17.31556301
15.04609873
15.08401764
11.86196753
7.793357291
17.54612141
12.77697666
16.409334
8.587782239
13.3062274
15.46957794
8.899169286
5.736999843
7.415333493
1.215656429
11.67830382
8.96037261
10.75474478
10.13166916
10.96725212
14.77634297
13.96938314
10.20000427
9.343973247
5.743845679
10.82942718
17.12978424
13.70693097
18.82837023
11.91034578
24.66735675
13.25178074
12.49081187
9.186081348
17.42034325
12.31079604
14.61191525
20.47555008
17.24413737
16.57898702
10.66768704
8.161915851
4.079238182
7.826687363
8.695360438
8.716512402
10.74122571
7.126854998
11.60687799
8.541902305
9.893468854
9.827170596
9.107042994
9.187566682
13.10903061
14.73642108
20.54457166
10.16549439
10.82259583
11.19954116
15.20485764
18.66137285
25.66522162
12.33391793
12.07064673
21.9789217
14.00797306
17.09568534
11.37617146
17.36028171
7.253020764
6.982804525
12.60330574
4.583696686
5.830258673
8.512343793
12.00774505
8.570017883
5.087999369
15.7505813
9.097368417
14.90801226
11.30050441
9.646117425
12.78712404
7.958009544
13.2925394
13.90052619
12.80354072
11.35297254
16.99855236
8.223962891
20.84574798
12.88801181
22.00276218
4.216120731
11.86033767
3.100678245
3.505965633
6.982695881
14.38287774
8.089163257
11.17502342
9.238346267
7.328949083
6.659312631
9.639169056
15.21681763
13.28099733
14.48417738
5.441754833
15.64921621
7.598588408
14.31836082
5.739476351
7.952815793
9.029536542
12.33783142
10.03381792
8.377105725
7.121440909
6.070331241
10.69296926
7.140556914
11.82012422
12.91510342
12.56391051
9.650484109
6.204511574
8.401410834
8.04935167
9.098472154
3.708244408
8.266745664
5.584024932
7.138273504
16.41799475
)
;

boundaryField
{
    flow
    {
        type            zeroGradient;
    }
    obstacle
    {
        type            calculated;
        value           nonuniform List<scalar> 
30
(
4.542806855e-18
1.6867762e-18
0
0
0
3.415692566e-18
2.561407882e-18
0
0
3.374329316e-18
1.854014997e-18
8.060851751e-19
0
4.349068967e-18
8.750059987e-18
5.841730276e-18
1.416462851e-18
5.684636723e-19
1.938308402e-18
0
2.863666405e-18
1.271584668e-18
9.115813047e-19
0
0
9.97638889e-19
1.037158986e-18
2.361822507e-18
0
4.315247982e-18
)
;
    }
    frontAndBack
    {
        type            empty;
    }
    procBoundary1to0
    {
        type            processor;
        value           nonuniform List<scalar> 
21
(
4.908841962
7.020462619
9.926685479
14.66492251
14.75773847
9.410509073
11.25084894
6.132633352
13.03290834
6.478205704
9.419963161
11.70500143
7.226192488
8.865664285
4.425634761
3.51658986
6.171434811
7.957304795
6.611370448
10.18340682
7.939375419
)
;
    }
    procBoundary1to3
    {
        type            processor;
        value           nonuniform List<scalar> 
36
(
15.53108433
15.41743727
12.49677506
17.34138304
15.53108433
18.60262163
11.21918024
12.23720683
11.4370736
19.19101269
13.58867202
15.41743727
8.163952019
10.91683294
9.525366488
13.5859901
14.04902963
11.21918024
10.63958806
8.968762891
7.545566289
5.583797339
9.480197035
9.751787187
10.91683294
10.46148669
7.319488256
5.503054691
8.563121517
7.94906333
7.625812208
8.75808152
8.968762891
7.116355134
7.319488256
4.675264941
)
;
    }
}


// ************************************************************************* //
