/*--------------------------------*- C++ -*----------------------------------*\
| =========                 |                                                 |
| \\      /  F ield         | OpenFOAM: The Open Source CFD Toolbox           |
|  \\    /   O peration     | Version:  2406                                  |
|   \\  /    A nd           | Website:  www.openfoam.com                      |
|    \\/     M anipulation  |                                                 |
\*---------------------------------------------------------------------------*/
FoamFile
{
    version     2.0;
    format      ascii;
    arch        "LSB;label=32;scalar=64";
    class       volScalarField;
    location    "0.01";
    object      linearKEMean;
}
// * * * * * * * * * * * * * * * * * * * * * * * * * * * * * * * * * * * * * //

dimensions      [1 -1 -2 0 0 0 0];

internalField   nonuniform List<scalar> 
546
(
6.993232003
6.796536735
6.560831495
6.387639638
6.211863803
6.096632559
6.085241577
5.940218189
5.847574835
5.712903918
5.599089913
5.599043865
5.457067333
5.52664342
5.431589375
5.24855767
5.094497094
5.121147018
5.082277216
5.001029937
4.964016035
4.931301527
4.854274312
4.860421022
4.699709318
4.578333522
4.411539803
4.245492731
3.99318441
3.576041709
8.773707984
8.468051966
8.179805704
7.964711069
7.741479463
7.576725558
7.32776742
7.173378815
7.023785561
6.881146884
6.715986353
6.635241705
6.544539826
6.486596383
6.351274852
6.148934878
6.020274707
5.982045991
5.865722993
5.755230957
5.663315105
5.593972281
5.543382786
5.40178929
5.28942828
5.181296555
5.001882601
4.78934292
4.501863529
4.116982314
10.30742004
10.11666692
9.84219907
9.565939634
9.199898299
8.832985492
8.645859312
8.424165575
8.263863748
8.077765949
7.879273198
7.799154033
7.556315176
7.366331151
7.231609138
7.035268331
6.953940622
6.868481115
6.640882639
6.559748832
6.369876424
6.309584299
6.251992636
6.039570594
5.867718773
5.689502843
5.550708167
5.377425124
5.151290559
4.842496785
11.36332658
11.25183931
11.16053159
10.87599929
10.65548588
10.4473092
10.15645908
9.842925785
9.50831913
9.320923228
9.083879765
8.846445154
8.681416822
8.46780104
8.259039254
8.044041346
7.912595818
7.7523125
7.599978263
7.441594411
7.275301412
7.075769508
6.956104701
6.81647131
6.681037353
6.521958971
6.254421524
6.025249038
5.866553117
5.620073034
11.90730867
11.86206368
11.98600441
11.9462686
11.75765422
11.4975682
11.28701451
11.02339557
10.83038799
10.54736629
10.25944772
10.11430616
9.905972205
9.651938389
9.4050329
9.151280247
8.857008956
8.668039195
8.499436526
8.297623523
8.110848154
7.902948521
7.779516148
7.634948645
7.452323018
7.309142358
7.197384631
6.803233779
6.512887005
6.216400729
11.96862067
12.17296669
12.40745924
12.4831326
12.39327393
12.23459153
12.1572817
11.99842597
11.81252264
11.63222325
11.49889791
11.22857863
10.90959173
10.7146864
10.43579644
10.20955775
9.919571158
9.791440476
9.593376773
9.349189483
9.021316968
8.844249609
8.638219707
8.452584082
8.290838044
8.084562413
7.813854143
7.601408702
7.336837449
6.973595395
11.59697077
12.04828538
12.23839221
12.42041134
12.66960517
12.83977781
12.82495769
12.7614436
12.65814635
12.53394302
12.34109797
12.14140737
11.95997618
11.72804506
11.44714328
11.24212552
10.96503858
10.73773976
10.52967916
10.2418942
10.07508767
9.830498419
9.576795073
9.387794706
9.229780381
8.884197083
8.675920215
8.452029009
8.134435161
7.808066114
10.95144957
11.47002562
11.96077103
12.40780147
12.62077282
12.85642896
13.1399008
13.22872536
13.22356699
13.14956564
13.0451428
12.97721905
12.74934195
12.58808295
12.49439998
12.33465739
12.0801459
11.76360707
11.55333552
11.39721576
11.16828505
10.86915902
10.54901791
10.24443915
10.00933726
9.731181583
9.55396386
9.253676497
9.043044675
8.68544693
10.53726694
10.91687843
11.42675728
11.81754909
12.30880356
12.56354794
12.88784058
13.13229369
13.35784716
13.43096922
13.50460526
13.5967769
13.54318779
13.42431464
13.25964059
13.12725302
12.95533379
12.69778336
12.40295541
12.17848996
11.86926243
11.71082236
11.39018323
11.20164362
10.92735467
10.7498067
10.41177652
10.13336692
9.800138476
9.526338948
9.850521281
10.21096349
10.66243612
11.1171872
11.63945655
12.08913367
12.51918255
12.91692675
13.21567723
13.51107135
13.70245031
13.89258451
13.86616485
13.84237371
13.77737643
13.73796463
13.67386626
13.48581777
13.23761323
13.05299115
12.83383203
12.56249084
12.35381451
12.05705263
11.84000935
11.55136272
11.22952379
10.95571379
10.53923081
10.14432714
9.463519562
9.820266065
10.19300464
10.70241075
11.03728882
11.5244932
11.99977642
12.43021348
12.91560645
13.34412845
13.65389407
13.81057968
14.06166036
14.1751014
14.15723603
14.14138572
14.18886343
14.1399007
13.947652
13.78104032
13.58225249
13.41225094
13.16246947
12.89701619
12.53631614
12.32633712
11.99684534
11.71240452
11.43518121
11.01581448
9.060949038
9.387116809
9.694295322
10.06871673
10.55643629
10.93911341
11.40052008
11.83859526
12.39743533
12.77529235
13.25304618
13.52930859
13.86929585
14.21324654
14.43509795
14.48008426
14.46705068
14.49578613
14.5126499
14.33282829
14.2249355
14.08469021
13.84784492
13.61072485
13.33790105
13.13344406
12.85740805
12.4721758
12.18924767
11.97609364
8.757070365
8.997417153
9.318158472
9.541987498
9.880770201
10.2790845
10.70131941
11.11322903
11.56987029
11.96670761
12.44388538
13.03142179
13.47921691
13.85375926
14.16932052
14.41890869
14.57201582
14.71209164
14.79670172
14.8426568
14.77098269
14.74191453
14.57931145
14.45080522
14.1850013
13.90478593
13.65466669
13.36646916
13.059513
12.75626476
8.455453361
8.639755142
8.805439252
9.171346994
9.506717564
9.809875325
10.10547585
10.47676358
10.87107323
11.40091982
11.935836
12.32218222
12.75156262
13.24736014
13.6679439
14.13930434
14.50157629
14.77594874
15.00466504
15.08000163
15.11696582
15.00390383
15.08100269
14.91728903
14.78436426
14.61322431
14.4854967
14.17203046
13.8523266
13.45103372
8.37926098
8.530314359
8.681594177
8.750210127
9.02272054
9.275039214
9.54171463
9.891149879
10.32464021
10.70834388
11.1704823
11.58294713
12.14237886
12.67745568
13.17168687
13.69546742
14.08235162
14.40003247
14.76421096
15.06048774
15.25114026
15.43412167
15.48197768
15.44783322
15.38366301
15.16265448
15.04445895
14.84352316
14.52303848
14.18660083
8.145440524
8.177002785
8.365427809
8.447141928
8.640644736
8.840518655
9.140562534
9.465697374
9.775485301
10.1076648
10.55387037
11.07234973
11.48942757
12.02252015
12.48179596
12.92051167
13.39900936
13.80729587
14.19540833
14.64232039
14.98695903
15.20662227
15.37348706
15.43431418
15.59325888
15.53985594
15.37423552
15.2112515
15.0072093
8.136555207
8.18348716
8.243777113
8.404010699
8.518777914
8.717670305
8.925543791
9.150515375
9.379164549
9.699881751
9.992796151
10.29784546
10.6853262
11.10939165
11.62530686
12.15169535
12.78837626
13.31784787
13.90496787
14.1866722
14.64762077
15.04345272
15.31505776
15.56424759
15.61106643
8.029302239
8.099385032
8.196870024
8.272397958
8.35411227
8.46931053
8.576709798
8.71198697
8.94588823
9.211976518
9.458951105
9.771962885
10.17444125
10.622046
11.03395211
11.49451698
11.96841736
12.50617001
12.97957989
7.995055984
8.023409973
8.113907295
8.179211943
8.242895441
8.320837294
8.450198042
8.543771782
8.690102073
8.821840828
9.16030596
9.395487298
9.660472511
9.957304907
8.004336494
8.038611793
8.037417892
8.040720118
8.144423433
8.149096245
8.235696179
8.358347625
7.918499247
)
;

boundaryField
{
    flow
    {
        type            calculated;
        value           nonuniform List<scalar> 
15
(
3.576041709
4.116982314
4.842496785
5.620073034
6.216400729
6.973595395
7.808066114
8.68544693
9.526338948
10.14432714
11.01581448
11.97609364
12.75626476
13.45103372
14.18660083
)
;
    }
    obstacle
    {
        type            calculated;
        value           nonuniform List<scalar> 
30
(
2.326412883e-18
2.395270507e-18
2.266838704e-18
2.328520578e-18
2.166748564e-18
2.148579371e-18
2.172014057e-18
2.113007001e-18
2.128117428e-18
2.025594768e-18
2.028759433e-18
2.054272376e-18
1.977202698e-18
1.995889704e-18
2.029317691e-18
1.93375494e-18
1.882243253e-18
1.865735186e-18
1.878677598e-18
1.942126675e-18
1.829333946e-18
1.80310883e-18
1.78975652e-18
1.871512138e-18
1.772212008e-18
1.689379343e-18
1.668680016e-18
1.655867496e-18
1.520313897e-18
1.391964449e-18
)
;
    }
    frontAndBack
    {
        type            empty;
    }
    procBoundary1to0
    {
        type            processor;
        value           nonuniform List<scalar> 
21
(
7.216033343
9.085698335
10.52796857
11.57034253
11.74857148
11.59690018
11.19966113
10.5097342
10.01551963
9.50592845
9.134164362
8.836620512
8.572070403
8.407265466
8.22041539
8.102742478
8.099252215
7.970069817
7.968185031
7.951760701
7.951360695
)
;
    }
    procBoundary1to3
    {
        type            processor;
        value           nonuniform List<scalar> 
36
(
14.75464548
15.65029449
15.76908254
15.61988412
14.75464548
15.51524892
13.48873178
13.95506689
14.55147573
14.88398162
15.3008915
15.65029449
15.56039822
10.35593084
10.87317093
11.25324549
11.75535305
13.48873178
12.23372194
8.494807128
8.647907268
8.737646397
8.987894983
9.262893897
10.35593084
9.524197881
7.96982996
7.970207383
7.995473428
8.06844265
8.171582834
8.227426658
8.494807128
8.29193447
7.96982996
7.971639557
)
;
    }
}


// ************************************************************************* //
