/*--------------------------------*- C++ -*----------------------------------*\
| =========                 |                                                 |
| \\      /  F ield         | OpenFOAM: The Open Source CFD Toolbox           |
|  \\    /   O peration     | Version:  2406                                  |
|   \\  /    A nd           | Website:  www.openfoam.com                      |
|    \\/     M anipulation  |                                                 |
\*---------------------------------------------------------------------------*/
FoamFile
{
    version     2.0;
    format      ascii;
    arch        "LSB;label=32;scalar=64";
    class       volVectorField;
    location    "0.01";
    object      momentum;
}
// * * * * * * * * * * * * * * * * * * * * * * * * * * * * * * * * * * * * * //

dimensions      [1 -2 -1 0 0 0 0];

internalField   nonuniform List<vector> 
546
(
(0.007098394465 0.002616878406 -0.001608411994)
(0.007012072094 0.001362054375 -0.001763463409)
(0.004512199509 0.0003312068352 -0.000843308533)
(0.002655368792 0.00120446349 0.001035808007)
(0.004475158229 0.00229951588 -0.001626938329)
(0.005098022845 0.001722082791 -0.001273519806)
(0.006898491703 0.002290567978 -0.001066784237)
(0.006581083281 0.0008559787338 -0.0011698043)
(0.007229406286 8.435705225e-05 -0.002214346686)
(0.00483003384 -0.0001775973 0.00165309791)
(0.003248716027 0.001292377118 -0.000765548965)
(0.006012364568 0.001747503549 0.00103934749)
(0.003503065218 3.534005297e-05 0.0007166279324)
(0.001616301676 0.002097160827 0.0001414339668)
(0.004748102095 0.001746565933 -0.0005472168752)
(0.004276176783 0.00387074977 -0.0009078006841)
(0.003340643866 0.001539358404 0.0001329375039)
(0.00437846421 0.0006421188909 0.001761185064)
(0.002393815038 0.001710896786 -0.0008798668571)
(0.004118047799 0.0003904978412 0.0001367133596)
(0.004532466619 0.001108438284 0.001552519845)
(0.00470369063 -0.0005837364275 -0.0001747239913)
(0.0041265497 0.0007232108607 -0.00142480542)
(0.0008265687939 0.0009647533736 -0.0001520846471)
(0.003793411368 -0.0005129337592 0.001452134338)
(0.003367453454 0.001428116237 0.002229835438)
(0.00431628788 0.00040276731 -0.0018133693)
(0.004155986008 0.0005291044056 -0.0008295850537)
(0.00390444544 -0.0003620266319 0.002158421943)
(0.003871395797 0.0006185158753 -0.0009909951399)
(0.01126886169 0.003553727708 -0.0009714762683)
(0.004161926271 0.003814079982 -0.0005425260369)
(0.008658598986 0.0008601445139 0.000767010777)
(0.009082414772 0.003811596229 -2.420285723e-05)
(0.005726175656 0.001021687462 -0.0005099114961)
(0.007324506635 0.002854705463 -0.0002657222918)
(0.00681246116 -0.0002059526082 -0.002484745717)
(0.005899434176 0.002790459876 -0.001435618124)
(0.007265683309 0.001226296704 -0.001842852587)
(0.006743974193 0.002604467432 0.0001870022451)
(0.003522226556 0.0006735064127 -0.001383879706)
(0.007909551398 0.001504060568 -0.001746721943)
(0.007407390162 -0.0001342428738 0.0008626017845)
(0.00705207139 0.001503273327 0.001293213844)
(0.005345246243 0.001625356456 0.0008746976485)
(0.00904499042 0.0003820902093 0.0001037531308)
(0.007310677493 0.001139782671 -0.002829390888)
(0.007541817061 0.001832530848 -0.0005773508881)
(0.0044818001 0.001001953791 -0.002101155776)
(0.00644957446 0.003035785681 0.0007597513994)
(0.003712756261 0.001285630934 1.307383064e-05)
(0.008374818409 7.72037253e-05 -0.0005352476683)
(0.003578402512 0.004004840419 0.001452392256)
(0.007259748496 0.002238753462 0.0005290273179)
(0.007709973566 0.00147048275 -0.002911442345)
(0.003418894107 0.001867903569 0.0009350765462)
(0.003783418268 0.0003365606246 0.00116675333)
(0.004015223974 0.0003187916375 -0.002038145679)
(0.002491002491 0.001889786465 -0.0004245486408)
(0.007085505448 -9.952937976e-05 -1.68017744e-05)
(0.009531212029 0.005660263266 0.001292519048)
(0.01198361011 0.005015219198 -0.001745942477)
(0.007428716541 0.001611693913 0.0005154755872)
(0.01085801825 0.001181916448 -0.001608650153)
(0.01249704047 0.0008515034537 -0.00229801138)
(0.009115789795 0.003871011746 -0.002536246656)
(0.009932148182 0.003458389208 -4.813355608e-05)
(0.01236904837 -0.001555652206 -0.0006837872663)
(0.00746320277 0.003756117838 0.001348921094)
(0.006638716321 0.001440718921 0.0007293056333)
(0.01148772991 0.002638520591 -0.0006169951034)
(0.005637245066 0.00296041019 0.0005650830548)
(0.004508918337 0.003795386038 -0.001590832994)
(0.01014691956 0.002471634479 0.001674313975)
(0.005158062711 0.001257067808 -0.0004077465691)
(0.007872111821 0.002711459404 -0.0009179274631)
(0.0072864732 0.001853763967 -0.0002027275001)
(0.008771971574 0.002640781751 0.0002047645138)
(0.005934674019 0.001618512043 0.0007289948238)
(0.005703051778 0.0002998662132 0.001255641932)
(0.005019311919 0.0008284558513 0.0009841078564)
(0.008616671281 0.003592474258 0.001391827669)
(0.001416799857 0.0009308030897 0.001264293572)
(0.003015637181 0.002708936011 0.002984192612)
(0.008247377862 0.002535014991 -0.002378733901)
(0.00449986897 0.000909246073 -0.001666796761)
(0.005941073305 0.005929833992 -0.0008890309132)
(0.006336361223 0.002222533443 0.0005024777281)
(0.003927354605 0.001051264289 0.0001588736027)
(0.005758438197 0.002882733511 -0.001305958287)
(0.007993334433 0.005017837835 -0.0003535263527)
(0.009084370824 0.004423040448 0.0002761185386)
(0.01233973972 0.004206821356 0.001015858636)
(0.01138834681 0.004643552977 -0.000473574474)
(0.006795244589 0.001060702712 0.001382715209)
(0.01008326823 0.002571144943 -0.00102865132)
(0.01391569229 0.004159123924 0.00108648553)
(0.01042973394 0.0006745070401 0.0002221208554)
(0.01175923569 0.003190045873 -0.001282009085)
(0.009291025671 0.00267316877 -0.0004870891663)
(0.009879608858 0.004347420919 -0.00187710555)
(0.01109849504 0.001788799618 -0.002630211579)
(0.00715221326 0.003054971261 0.0007501875494)
(0.007443741933 0.001504601011 -0.002280763958)
(0.006661580748 0.003385896858 -9.739855698e-05)
(0.004905336784 0.004168888385 -0.001626352374)
(0.009707659414 -0.001171550888 3.006217588e-05)
(0.007586029648 0.003714348036 5.230117379e-05)
(0.0077378408 0.002946038181 0.0005800769932)
(0.006507397406 0.001904348171 0.001277529516)
(0.004511812789 0.002038099976 0.0008330649269)
(0.008277684544 0.0009568832595 -0.0002545856499)
(0.007693724293 0.0004927170282 0.001585705897)
(0.006624342339 0.001606950752 -0.0001488828702)
(0.005828945964 0.001964100784 -0.0007082410553)
(0.009293032426 0.003234105238 0.002011409582)
(0.006552324443 0.003091605285 -0.0002878987284)
(0.006669911782 -0.0002523754468 -0.002845669784)
(0.009631293631 0.001607744049 0.003033093853)
(0.005012772956 0.002053608573 -0.0001759695815)
(0.01275760818 0.002815749273 -0.001883396677)
(0.01000018939 0.003660685494 0.00186810395)
(0.02086799594 0.005032168536 0.0003236870573)
(0.01548983715 0.004974293142 -0.0008910811064)
(0.01214262599 0.002542564431 0.0006560956788)
(0.013760674 0.003816411956 0.0002520668681)
(0.01035544694 0.002637539826 -0.0009184789368)
(0.0148857287 0.005710400713 -0.001035337075)
(0.01288484392 0.004497057246 0.0006860842301)
(0.01813919367 0.006361980109 0.001149805359)
(0.01131741434 0.002268561187 -0.0001444091767)
(0.01208353788 0.00215956601 0.000137669056)
(0.01232189007 0.002449967664 -0.003724268814)
(0.01057009225 0.005516056393 0.002103553854)
(0.01191281834 0.006652106235 0.001045833892)
(0.01265325634 0.004090472105 0.001588843047)
(0.008579542955 0.003019027151 0.0004242635184)
(0.009220603628 0.0008005467135 -0.0002272674464)
(0.01143328837 0.003180432571 -0.001638631448)
(0.01209939217 0.0007017550532 -0.0004802464717)
(0.0110018858 0.003418004577 -0.0008869436042)
(0.006661090584 0.0006940518254 -0.0005170896789)
(0.005696782449 -0.001378461216 -0.0004155228508)
(0.005388173034 0.002030642643 -0.001233151021)
(0.00361552282 0.002389462236 0.0009796220333)
(0.006023331804 0.001334090059 -0.0005133222486)
(0.008185107589 0.001296462164 -0.001577637563)
(0.007882830683 0.001106535232 -0.002291789233)
(0.007148527695 0.000230364985 0.0007614428515)
(0.009945499848 0.002282988644 -0.001058476264)
(0.01497404367 0.005199844677 0.0009452155359)
(0.0094757354 0.003105419283 0.00041094941)
(0.01895891789 0.007074924886 0.0004334052387)
(0.006202341145 0.001627696309 0.0002007886198)
(0.01816257422 0.006460311398 0.001010241918)
(0.01531704623 0.002600716922 0.0007230672034)
(0.01853036722 0.002734162974 0.001124220491)
(0.01012773792 0.005545436948 0.0006125547425)
(0.01650861007 0.004983156476 0.0009579951706)
(0.008313479454 0.001974541705 -6.861484399e-05)
(0.007085110909 0.001444936979 0.001037671124)
(0.01159672498 0.003222334805 -0.002693291703)
(0.01212726063 0.003280646811 -0.001393556657)
(0.009440621914 0.0007304805115 -0.0005944457741)
(0.01095260479 0.00453951449 -9.601598478e-05)
(0.01322650379 0.002525281922 0.0003162247951)
(0.01506682254 0.00472554559 -0.0001144188092)
(0.009267746741 0.003578750767 -0.001401348463)
(0.008157362455 0.00307607392 0.001217510692)
(0.01327034124 0.0049999872 0.001296905888)
(0.009626255999 0.002991912434 -0.0007031439617)
(0.007895337479 0.001505335078 -0.0006835408245)
(0.008138275237 0.003843768412 -0.0006329750188)
(0.008509757693 0.003063467445 -0.001700800696)
(0.007787922262 0.002929108313 -0.002502302603)
(0.01027588233 0.0007614801189 -0.000529758057)
(0.01323293397 0.002725711443 0.001138984974)
(0.006449343388 0.003270737834 -0.0006002182285)
(0.0114413935 0.002046166345 0.001836304851)
(0.009557377408 0.001331064758 0.0008877620087)
(0.01096157904 0.001323284644 -0.0004052605956)
(0.01291894107 0.005246524933 0.0006626282865)
(0.0146929545 0.006345741508 0.002776762334)
(0.01113118045 0.003327123022 0.0007389103719)
(0.01245302868 0.005360440979 0.0002326705987)
(0.01280975942 0.005890803869 -0.001369307639)
(0.007234883273 0.00388736903 -0.0008235049622)
(0.009371895103 0.002585004008 0.0007123013562)
(0.01054277319 0.001667859008 0.0009087058551)
(0.01416433395 0.002877563358 0.000206809458)
(0.01187703324 0.006645241923 0.0009674167213)
(0.01886150954 0.004991722595 0.001264858001)
(0.0179663367 0.006161326192 0.002650339021)
(0.0177853242 0.007098982965 0.002394779237)
(0.01071794165 0.003192180957 0.0002148507216)
(0.00961765472 0.004237675124 0.0004803560251)
(0.01086453692 0.003478675136 0.001004225219)
(0.0143085708 0.001601391152 -0.00297391388)
(0.01583844738 0.009410679673 -0.0006227966486)
(0.01529634923 0.005074123653 0.0008995941416)
(0.008284594437 0.002198920018 -0.0008329524837)
(0.01663037471 0.003367686701 0.0005437912364)
(0.005701622723 0.003449687655 -0.0006976838324)
(0.01259248768 0.001105687239 -0.0002222631725)
(0.01269803919 0.002236105868 0.001615237704)
(0.009925592614 0.002080801507 0.0008622947076)
(0.004501092908 0.001498365376 -0.0004131561742)
(0.00895079037 0.00235210071 -0.00257931377)
(0.004943208585 0.001604758034 0.001271069053)
(0.008026285948 0.0002909702847 -0.001223636521)
(0.007953566864 0.0001737842746 0.0008983370748)
(0.01276767295 0.00391896628 -0.0008127117889)
(0.009755648244 0.004330215997 2.432500407e-05)
(0.008260007862 0.002823541995 -0.0001104722053)
(0.01382474914 0.004806080261 0.002354962833)
(0.01124901035 0.002425883018 -0.0005430232523)
(0.01109543135 0.004077594949 0.001924904829)
(0.01597190571 0.005389203225 0.0002971462608)
(0.01953476405 0.009009769852 0.0005918959668)
(0.01155860822 0.006027230997 -0.0005790585714)
(0.01869579777 0.004389335161 0.0005641486042)
(0.01229176856 0.002427252518 0.0004549201833)
(0.01283130629 0.005775606901 0.001525846866)
(0.01455530605 0.004642851268 -0.0004653496947)
(0.009820530056 0.002119317554 0.0002756475812)
(0.008817113194 0.003432820161 -0.0004127253124)
(0.00630161649 0.001915214946 0.001069525162)
(0.01073210339 0.003968426821 0.0008596010359)
(0.008140772859 0.002041624747 0.00211514805)
(0.01526433046 0.005536585276 -0.001094304311)
(0.01003014453 0.002010303255 0.001564910029)
(0.005947132011 0.00342376604 0.0006900049094)
(0.01340598091 0.002606824163 -0.0003064797473)
(0.01121228541 0.001317014292 0.000386572193)
(0.01074841152 0.003594176754 -0.0003402410594)
(0.00821992527 0.00301399189 -0.001171400401)
(0.008322997714 0.004229404511 0.0007241622635)
(0.007364943743 0.002555892048 0.0005025569297)
(0.01168823832 0.003164428087 0.0008294050549)
(0.01208267868 0.001299420546 0.001055688491)
(0.009605276947 0.00160093394 0.001322271826)
(0.01092155153 0.003738070823 -0.0009187194747)
(0.01232727721 0.003033463855 -0.001047156348)
(0.01316612059 0.006060955285 2.634021834e-05)
(0.01317842651 0.002377022044 -0.001566262289)
(0.01640058082 0.004277864782 0.0008729444058)
(0.01021223552 0.003611979684 -0.001080796372)
(0.01542979108 0.006177320514 0.0002243658383)
(0.02186164776 0.008480597468 -0.001989780746)
(0.01596028067 0.004107534494 -0.0005714001681)
(0.01850817474 0.007541860097 -0.0007156869292)
(0.01514702533 0.004395403838 -0.0006064398397)
(0.009681749279 0.004334173056 0.000893146126)
(0.01662545878 0.005215657628 -8.378783314e-05)
(0.01075531895 0.001980039276 -0.0004398333621)
(0.01570827664 0.003253179586 -0.002157383777)
(0.01664697376 0.005949780536 0.0004149273631)
(0.01499689225 0.006471381186 -0.003028874329)
(0.01354521163 0.005184851862 -0.0007203098253)
(0.01480625911 0.00663202768 -0.001948138474)
(0.01292146152 0.005428002602 -0.0002642920551)
(0.008153282603 0.00295503084 0.001021234539)
(0.01215382223 0.003364714518 0.0002929720731)
(0.01382365737 0.004622568741 -0.0008701224125)
(0.01036524987 0.003923946741 0.0004143747426)
(0.01052172631 0.002941787536 -0.001679672242)
(0.01137043313 0.006146111792 -0.0007765870651)
(0.00912024085 0.003407594163 0.0007719053061)
(0.008130851699 3.259304131e-05 0.0006921850912)
(0.01078960006 0.002924927729 0.001481779282)
(0.01429556228 0.002293549512 0.0009063909828)
(0.009980490574 0.002152054109 0.0003210284909)
(0.006965048311 0.001493670457 0.000147879103)
(0.01286457697 0.003919818398 0.0007476726608)
(0.01107826122 0.003509200239 -0.001349411545)
(0.004994194997 0.006009339161 0.0007733993749)
(0.01341676854 0.004703726473 0.001232462214)
(0.01575704216 0.003395725575 0.001255828785)
(0.01297615594 0.002565232978 -0.0001340133028)
(0.01482873095 0.004477131464 -0.0003459597765)
(0.02015015345 0.006953851183 -0.001715956613)
(0.01416689095 0.004390815388 0.0003299612817)
(0.02177296228 0.002976700974 -0.001114600439)
(0.01792275311 0.005045939475 0.002459163141)
(0.01394501502 0.003570298412 -0.0007328719101)
(0.01870618127 0.005216191918 -1.943181049e-05)
(0.0134978229 0.003529521309 0.0009355100879)
(0.0161678146 0.006741503645 0.00161947522)
(0.009310126635 0.004760045167 5.679872345e-05)
(0.00840454171 0.00298038497 0.002090968849)
(0.008054804871 0.003736767501 -0.001758790734)
(0.01614442676 0.005253610016 0.0006368231029)
(0.008854166682 0.002620118393 -8.395434205e-05)
(0.01584036455 0.00327204839 0.0004064164154)
(0.01482473118 0.005535485026 0.0002510537305)
(0.01640065269 0.006367848794 -0.0008064765641)
(0.008199192344 0.002944310876 -0.001030969059)
(0.01255034032 0.004949954789 0.002237916827)
(0.008272991369 0.000794419334 -0.0005921876752)
(0.01324719956 0.006352619955 -0.0005031177394)
(0.0106637283 0.0008276471715 -0.0001399734197)
(0.007855621592 0.0005161233937 -0.001214825755)
(0.008434128258 0.00174904046 0.0007193067826)
(0.009794217189 0.001087107485 -0.001075815426)
(0.01084830706 0.001474609097 -5.154576462e-05)
(0.01465192796 0.002055009589 8.179113201e-05)
(0.01554929175 0.005201119317 -0.0001775097798)
(0.00736814858 0.002240120246 -0.0008416856716)
(0.01339938559 0.005435330918 -0.0002232472644)
(0.01233313565 0.004495467209 -1.310381724e-05)
(0.01212473243 0.003109283268 -0.001179051706)
(0.01176476524 0.003798834497 -0.0005931471853)
(0.0145447553 0.003468589549 -0.002023612506)
(0.01237253878 0.0035274402 -0.0009414904558)
(0.01077575769 0.0043784996 0.0006466831567)
(0.00975753426 0.003425780454 -0.0007992581579)
(0.01136923498 0.002692842895 -3.252420404e-05)
(0.01174553228 0.006297469802 -0.001972502287)
(0.02041322196 0.006442284694 -0.001462895804)
(0.01477022866 0.004314328023 0.001762336545)
(0.01079562889 0.004730778196 0.0003635342589)
(0.01603154159 0.005202624173 -0.0003942566207)
(0.01125408025 0.004211073847 0.001724301909)
(0.01559154333 0.003122164531 0.0009637496597)
(0.01001684364 0.002584910924 -0.00020149174)
(0.01014166914 0.002722126758 -0.000784879976)
(0.01345928718 0.005667804914 -0.00145171094)
(0.01246391887 0.004154193324 0.0001424761666)
(0.01164452867 0.002601291948 0.0003114425221)
(0.01521476208 0.003239882982 0.003497597289)
(0.01837869203 0.002042641977 0.0002725025378)
(0.01124575581 0.0002279649348 0.0008605933445)
(0.01218014232 0.001492182802 0.0001720586638)
(0.009144268551 0.00146463364 0.001001860091)
(0.01025903577 0.002475313549 -0.0001418046581)
(0.007071190386 0.002262293776 -0.0007022863347)
(0.007135090824 0.002833942593 0.0006622838248)
(0.01090726047 0.003322970557 0.0002827841144)
(0.01063925836 0.004744352177 0.000515385693)
(0.007298672725 0.002419650292 0.0005027147513)
(0.01388607179 0.004772911523 0.001511500079)
(0.01365464741 0.003614844218 -0.0008578039839)
(0.01892083863 0.005663620646 0.0004216985309)
(0.0124675801 0.002485275062 6.941262948e-05)
(0.0181537757 0.005416481143 -0.0001384009395)
(0.0125221911 0.004883453405 -0.002176972643)
(0.01411317275 0.005698926566 0.0002553912252)
(0.01583613046 0.008582015801 0.001467520426)
(0.01505230817 0.003388415979 0.000466312659)
(0.02080533514 0.006587229193 -0.0003755704623)
(0.01552882908 0.004437260171 -0.0003227019219)
(0.01764121907 0.006161575254 -0.0001098059583)
(0.01565151646 0.005104827643 -0.0008088581313)
(0.01345136008 0.005393799889 0.0004600365491)
(0.01257677422 0.005043339689 0.0001755274177)
(0.01092659124 0.003811786173 0.0004873034495)
(0.006711040861 0.002582900505 5.10945439e-06)
(0.01094895647 0.004525370441 0.0003462944137)
(0.01728087869 0.006931145265 -6.717569356e-05)
(0.01573851647 0.003387734997 -0.001034541117)
(0.009441031359 0.0003738090503 0.0006647477105)
(0.01589603429 0.0007564780826 0.0004983195667)
(0.008595765388 0.001807227408 -0.0008541583706)
(0.003551984528 0.0007719485467 -0.0005926875233)
(0.01007895049 0.001778279612 -0.001172436778)
(0.01135003382 0.002110993485 -0.0001957287362)
(0.01398782729 0.002392100752 0.0004593881837)
(0.01040527393 0.003653493342 -0.001173908469)
(0.01187963271 0.0044639293 -0.00017478948)
(0.01404457661 0.003340224896 0.0002504027852)
(0.01212386018 0.003878632299 0.0005765173157)
(0.01023840252 0.004728944055 -0.0003691849951)
(0.01461534049 0.004780028267 -0.001215588624)
(0.01264530465 0.004151859003 -0.0009982876491)
(0.013526301 0.006304039077 0.001115595289)
(0.01669863776 0.006472313379 -0.0004841690953)
(0.0106135287 0.003712618911 0.0005870700809)
(0.01150664056 0.003329265696 0.0006410301692)
(0.0123833267 0.00365040115 8.163365747e-05)
(0.01381593568 0.00648673647 -0.001187517518)
(0.01074576421 0.003400981901 -0.001020263215)
(0.01240383212 0.004104246581 -0.001839240328)
(0.01500930269 0.004640986785 0.0007421796637)
(0.01034206775 0.003380972925 0.002385552636)
(0.01609049836 0.003805648253 -0.00187628517)
(0.01332303642 0.002797771686 -0.001280449789)
(0.01272549991 0.002325512952 -7.504754423e-05)
(0.01583659737 0.007099618089 -0.001074408838)
(0.01407468241 0.003608457365 0.001334821323)
(0.01191418521 0.005043006581 0.0008303999637)
(0.01326370951 0.001217059991 0.0006574542763)
(0.008306606049 0.0005125808042 -0.0003720797504)
(0.01106807442 0.001205079909 0.0001530548165)
(0.0116274471 0.001018071266 -0.0007036832661)
(0.01076769282 0.0006637858074 -0.0007272698492)
(0.01317126646 0.001980620236 -0.00052862601)
(0.01517099561 0.0003415871359 0.0005175596156)
(0.009259168545 0.002418605962 0.0004250432398)
(0.00898660892 0.0006683581552 -0.0005744980359)
(0.01436390292 0.005020471392 0.0002715126829)
(0.01242103532 0.001786300148 0.001133446515)
(0.007870693095 0.002003543498 0.0005773116659)
(0.01415689041 0.003469234704 0.0007397226127)
(0.01425880107 0.005718771253 -0.001834722388)
(0.006949065312 0.00288384696 -0.000154533389)
(0.01471990249 0.005383337647 -0.001917016615)
(0.01437117778 0.005472027608 -0.0006716702376)
(0.01781769963 0.005466586256 0.0009791465218)
(0.0185044816 0.004156713687 -0.0001377552539)
(0.0156750892 0.007001355641 0.0009245660148)
(0.01636144838 0.005034644311 -0.0005369527313)
(0.0154459254 0.006616074563 0.001544155964)
(0.01176948531 0.004422310117 -0.001458053367)
(0.008422363532 0.002331728823 6.998783112e-05)
(0.0167346514 0.004187653395 -0.0001063903015)
(0.01374994289 0.004923015749 0.001507285302)
(0.0149288155 0.006421505202 -0.001774099444)
(0.01003544041 0.003368088427 0.001278724852)
(0.0156830699 0.004398771621 -0.0007623730047)
(0.01900837868 0.004069121372 0.001469669093)
(0.009448071279 -0.0009088813521 -0.0005164325762)
(0.006770224969 -0.00018568823 -0.0004577647441)
(0.007948538171 0.0005487327407 -0.000119817386)
(0.001501090536 7.407964956e-05 6.840880487e-05)
(0.01103986109 0.0007727811875 -0.0006806789589)
(0.008327159076 0.0007306064046 -8.117979755e-05)
(0.01075063024 9.084054009e-05 -0.001263688627)
(0.01076356322 0.001777298585 -0.0003745772923)
(0.01149917025 0.001639225399 0.0002635171859)
(0.01617332829 0.001478971599 -0.0003613122799)
(0.01365582594 0.001879623898 0.0003052894254)
(0.0101573132 0.002375986392 -0.0006775574258)
(0.01016318932 0.002149146564 0.0006295825708)
(0.005232287894 0.002461112474 -0.0002314041778)
(0.01178561633 0.004349100567 -0.0004359358817)
(0.016571335 0.003893924918 -0.0003182675279)
(0.01277553281 0.004687723734 1.699434878e-05)
(0.018971307 0.006144554708 -0.0002352867827)
(0.01291471862 0.002512356334 -0.0003302664698)
(0.02296347264 0.00857690939 0.000181153107)
(0.01224196429 0.005790709807 0.0003150728823)
(0.01326648945 0.00375091475 0.0001046846739)
(0.008560483676 0.004624549609 0.0004396463119)
(0.01685963195 0.004024298254 -0.0001735517035)
(0.0121565269 0.004286821018 0.001029163886)
(0.01424702842 0.003256956245 -0.0001628992395)
(0.01961785944 0.006398992329 -0.001307454336)
(0.0177066755 0.003587834657 0.0002154246743)
(0.01717051284 0.004853081817 0.0002226648735)
(0.01133818953 0.003439151769 7.918656421e-06)
(0.008975593491 0.0003676113967 -1.669083217e-05)
(0.004894864692 -4.095856005e-05 -0.0001769414914)
(0.008337485578 0.0001955079404 0.0003183212682)
(0.009295393013 0.0003976892912 -0.0002918293966)
(0.009356143582 7.305248539e-05 -0.0001296057045)
(0.01020241826 0.0003026218237 -9.372443446e-05)
(0.008026833171 0.0007885052826 0.0001385605546)
(0.01241716167 -0.0002176258915 -0.0002102373447)
(0.008460876004 0.0007766073948 -0.0004795337549)
(0.01084375915 0.001016214102 -0.001869466535)
(0.01049030983 0.001997258376 -0.001084902367)
(0.009105072415 0.00267661653 0.0002823549267)
(0.00962262456 0.003141968629 -0.002136770172)
(0.01276181292 0.004227956338 -0.0001428073329)
(0.01267094539 0.007313742105 -0.001648373185)
(0.02033230354 0.005241886239 -0.0008398086509)
(0.01003034168 0.002019462984 0.0003974594913)
(0.01085156294 0.004053349041 0.0004724113812)
(0.01138536594 0.00247115771 0.0002311914227)
(0.01758375464 0.003857461349 -0.0008828612578)
(0.01981264333 0.00366912122 -0.0007416422812)
(0.02450918929 0.006769001206 -0.0004620521559)
(0.01376980284 0.004357729506 -0.0003524123141)
(0.01278327604 0.004522618568 -0.001243444985)
(0.02146577236 0.006997465202 -0.001350560419)
(0.01229506672 0.0054377806 -0.002095579108)
(0.01769995395 0.006145621802 -0.001451846406)
(0.01134294935 0.004241428802 0.001270239144)
(0.01786588697 0.004441442629 -0.0003908379412)
(0.007797580532 2.441506377e-05 0.0001185615981)
(0.007610708046 -0.0001187396312 -0.0002967801707)
(0.01253987213 0.00050675419 0.001368598531)
(0.005121075243 1.043502268e-05 0.0001321710842)
(0.005581839081 0.000311035123 -8.761811342e-05)
(0.00838064754 0.001566733711 -0.000294504993)
(0.01253615749 0.00088641193 0.0004942652094)
(0.008877530846 0.002266650236 0.0002966800813)
(0.005800666566 0.0001740604226 -0.0002216112611)
(0.01586606029 0.001226284203 -0.0003106101792)
(0.01078245454 0.001083532708 0.0003802598565)
(0.01456902961 0.002575255368 -0.001411429888)
(0.01094435312 0.003307082155 -0.0005486636724)
(0.01058250928 0.003700103052 0.0001169877696)
(0.01315308364 0.002707538304 -0.0008425097861)
(0.008386511575 0.00260857424 -0.0002229055629)
(0.0132573887 0.002313259223 0.0009932671636)
(0.01421325667 0.002677334775 0.0002573250156)
(0.013941784 0.002958911369 -0.001007651804)
(0.01133383304 0.004109816335 5.629938466e-05)
(0.01781588052 0.005035069623 0.001558968977)
(0.009122315514 0.002080124326 0.00115439472)
(0.02134278304 0.006898569167 0.0002411442056)
(0.01385994149 0.0008550425926 0.0005814203249)
(0.01981513392 0.006844445148 -0.001900276704)
(0.004985684304 -0.0001433299149 -6.530538153e-05)
(0.01175920711 0.0006180358018 -0.0008314609516)
(0.003261548642 0.0004884949856 0.0004653614645)
(0.003955494966 0.0002221119204 0.0004214512918)
(0.00810766499 -0.0006954225654 -0.0008697455623)
(0.01465179434 0.001003247809 0.0004216604514)
(0.008948389572 0.0001450976364 2.647595915e-05)
(0.01252335217 -0.0003997653441 -0.0006534237115)
(0.008998728499 0.0005106852507 5.077389652e-05)
(0.007536458357 0.0002195557926 -0.0004534808259)
(0.006816318171 0.0002779996756 0.0006695197225)
(0.009984867813 0.001713077339 0.001073338088)
(0.01617687746 0.0005435414751 -0.0008506303417)
(0.01160718533 0.003629453297 0.0006290662589)
(0.01382517683 0.002117318347 -0.0001181652333)
(0.006696208138 -0.000208653308 -0.0009805443434)
(0.01719847909 0.003547454701 0.002757897331)
(0.007541136129 0.003757826251 -0.001197539704)
(0.01462555247 0.002859360023 0.0004122329741)
(0.006327088516 0.0007133605229 -0.0002648555647)
(0.008785876164 -0.0007362801384 -0.001576052578)
(0.008613091954 9.8919827e-05 0.0009971730174)
(0.01304070962 0.0002894962369 0.0004733547916)
(0.01097822526 0.0005404007824 0.0001370069275)
(0.009740224183 -0.0003283589596 0.0001271205088)
(0.006808578232 8.843829441e-05 -0.0001130492674)
(0.006862525275 0.0008785910176 -0.0003510543386)
(0.01139961704 0.0006579672389 0.0002499983865)
(0.007595541516 0.001108291046 0.0001770067835)
(0.0123282511 0.001821202209 0.0001360142739)
(0.0134924613 0.001429740298 -0.0008345220245)
(0.01268584902 0.0009866381661 0.000702643548)
(0.009922191693 0.001145295037 0.0001309304464)
(0.006395803592 0.0002415084843 -0.0001572699427)
(0.009066907404 -0.0004012868505 0.0009062825158)
(0.009063736739 -0.0001459763432 0.0004808083251)
(0.008830750189 0.001349579688 0.0008387091759)
(0.003495275561 0.0002527673892 -4.718474425e-06)
(0.008383013259 -3.634002291e-06 -0.0009442712048)
(0.006197691229 0.0005849812228 -8.559983282e-05)
(0.007789394936 -0.0004179596912 4.117002162e-05)
(0.01714849025 0.000708024215 0.000127891675)
)
;

boundaryField
{
    flow
    {
        type            zeroGradient;
    }
    obstacle
    {
        type            calculated;
        value           nonuniform List<vector> 
30
(
(4.126898491e-21 1.10579912e-21 -4.855584375e-21)
(1.473760566e-21 3.948929543e-22 -1.440891402e-21)
(0 0 0)
(0 0 0)
(0 0 0)
(2.517435614e-21 6.74544841e-22 2.318232672e-21)
(-1.610178181e-21 -4.314459441e-22 1.993218578e-22)
(0 0 0)
(0 0 0)
(7.829841783e-21 2.097999786e-21 -7.066004059e-21)
(5.941290526e-22 1.591963994e-22 -8.029828542e-22)
(-6.634643661e-22 -1.777747414e-22 8.135638353e-22)
(0 0 0)
(5.333346352e-21 1.429065843e-21 -5.827302395e-22)
(1.424521943e-20 3.81699505e-21 -8.413909715e-21)
(3.280403397e-21 8.789814385e-22 -5.074331915e-21)
(-4.951797941e-22 -1.326830262e-22 1.223834139e-21)
(-2.451164979e-23 -6.567876777e-24 6.122387851e-22)
(4.517867221e-22 1.21055887e-22 -1.43737784e-21)
(0 0 0)
(-4.221663344e-22 -1.131191286e-22 7.870357809e-23)
(-7.384527958e-22 -1.978678297e-22 1.881221533e-22)
(7.544490682e-22 2.021540189e-22 -9.31486046e-22)
(0 0 0)
(0 0 0)
(7.488324509e-22 2.006490508e-22 -9.10188526e-24)
(7.49367565e-22 2.007924332e-22 1.081371859e-23)
(-1.451825409e-21 -3.890154465e-22 2.822044955e-21)
(0 0 0)
(2.072753725e-21 5.55392685e-22 -5.11754733e-22)
)
;
    }
    frontAndBack
    {
        type            empty;
    }
    procBoundary1to0
    {
        type            processor;
        value           nonuniform List<vector> 
21
(
(0.00385955348 0.001783654952 0.0004751030246)
(0.007326756937 0.003083358187 -0.0002888341569)
(0.009832096599 0.001579725584 -0.0008218158557)
(0.01493207439 0.005858219527 0.0006002449867)
(0.01531769822 0.005610429217 0.002236343221)
(0.009658519249 0.003489362232 0.00208149751)
(0.01029580786 0.003371557063 -0.0008761892401)
(0.006131565146 0.002024240724 0.0002127066959)
(0.01246698887 0.003036875393 -0.0006772802324)
(0.005254741904 0.0004271437666 -0.0009897698181)
(0.01005975318 0.001048774045 0.0004612746798)
(0.0130227956 0.001006722572 -0.0008880005273)
(0.007403485026 0.0008800240935 -0.0008828115763)
(0.00940892005 0.0003375401838 0.001215663146)
(0.004667202691 -0.0001878253127 -0.0004438766316)
(0.003845741251 2.626894639e-05 -0.0001276012076)
(0.006472164827 -6.689479893e-05 -0.0001065465835)
(0.009154022693 -0.0001502467982 0.0009739927357)
(0.006774933119 -3.481549133e-05 -0.0003099316589)
(0.009963605785 -0.0008844851226 -0.000935159445)
(0.007869831836 0.0004576836922 -6.685060712e-05)
)
;
    }
    procBoundary1to3
    {
        type            processor;
        value           nonuniform List<vector> 
36
(
(0.01697332494 0.006146096799 -9.459938957e-06)
(0.01447908862 0.004388962 -0.0007883920426)
(0.01387226274 0.003298661888 -0.002079101257)
(0.01625342787 0.007061243588 -0.0006625950338)
(0.01697332494 0.006146096799 -9.459938957e-06)
(0.01883624533 0.006239340225 0.0001101999665)
(0.01142070816 0.002997466055 0.0002800321006)
(0.01331708066 0.004509593514 -0.001653957352)
(0.01178097829 0.003257985008 -0.003186751036)
(0.0195059022 0.003904436475 0.001120024814)
(0.01504999471 0.004465334835 0.0008649310424)