/*--------------------------------*- C++ -*----------------------------------*\
| =========                 |                                                 |
| \\      /  F ield         | OpenFOAM: The Open Source CFD Toolbox           |
|  \\    /   O peration     | Version:  2406                                  |
|   \\  /    A nd           | Website:  www.openfoam.com                      |
|    \\/     M anipulation  |                                                 |
\*---------------------------------------------------------------------------*/
FoamFile
{
    version     2.0;
    format      ascii;
    arch        "LSB;label=32;scalar=64";
    class       volVectorField;
    location    "0.01";
    object      momentumMean;
}
// * * * * * * * * * * * * * * * * * * * * * * * * * * * * * * * * * * * * * //

dimensions      [1 -2 -1 0 0 0 0];

internalField   nonuniform List<vector> 
546
(
(0.00546557927 0.001517245161 -1.989752123e-05)
(0.005182520425 0.001512242064 3.179446921e-06)
(0.004983472997 0.001388369964 1.25744865e-05)
(0.00480192287 0.001329735047 9.521398052e-06)
(0.00465008837 0.001305216491 -9.406544585e-05)
(0.004471521391 0.001257898037 -8.255636877e-05)
(0.0044318908 0.001194629168 -2.989319704e-05)
(0.004320253182 0.001198011364 -3.726119479e-05)
(0.004150500325 0.001185667258 6.136407561e-05)
(0.003994857524 0.001093357401 4.007529372e-07)
(0.003895025843 0.001084934844 5.878091321e-05)
(0.003852828787 0.00103785836 -5.801538555e-05)
(0.003684207616 0.001047221304 -2.840033659e-06)
(0.003653797026 0.0009848552481 3.460838777e-05)
(0.003532905041 0.0009743857823 2.148244302e-05)
(0.003443368913 0.0009679736668 -6.80237092e-05)
(0.003331386849 0.000911462155 -7.876716685e-05)
(0.003328695278 0.0008874056461 3.466289507e-05)
(0.003231692042 0.0008982438631 -4.282108409e-06)
(0.003164200265 0.0008590539465 4.273478466e-05)
(0.003166886114 0.0008244693304 -3.380568606e-05)
(0.003182002223 0.0008688697489 5.142449472e-05)
(0.003090777195 0.0008570430059 0.0001017874976)
(0.003148020664 0.0007931081873 9.964681115e-05)
(0.003150619131 0.0008242040415 3.803566936e-05)
(0.003108728354 0.000858959241 6.587189389e-05)
(0.003078079668 0.0008097537122 4.78503121e-05)
(0.003159444422 0.0008023091714 7.750170585e-05)
(0.003276685984 0.000816014572 7.874878367e-05)
(0.003590020372 0.0006806885381 -6.436651686e-06)
(0.008422603911 0.002616539226 -8.998741897e-05)
(0.008128850225 0.00249172383 -5.574430411e-05)
(0.007823829533 0.002352366084 1.708783671e-05)
(0.007530558188 0.002280819103 2.94937354e-05)
(0.007333801853 0.002139583682 2.4706932e-05)
(0.00720187823 0.002050957276 -1.434874773e-05)
(0.006898689538 0.001978032504 1.767221349e-05)
(0.00670046995 0.001949836 -7.241245189e-05)
(0.006522890092 0.001953905884 -6.83779111e-05)
(0.006424689419 0.001828922303 -3.508062914e-05)
(0.006267872084 0.001812941657 -2.541545503e-05)
(0.00606107191 0.001776517884 -3.860016498e-05)
(0.005918150652 0.00171557839 -2.406842819e-05)
(0.005775013522 0.001621766649 7.763144033e-05)
(0.005606011896 0.001597599633 9.182788447e-05)
(0.005498589532 0.001596179738 4.124270454e-05)
(0.005367725569 0.001517575449 3.241136248e-07)
(0.005201054299 0.001449630074 8.926054975e-06)
(0.00512601388 0.00144884565 3.777782889e-05)
(0.00502720937 0.001384373978 7.654437597e-05)
(0.004949153778 0.001339288305 9.216807263e-05)
(0.004809657272 0.001327809685 0.0001228165469)
(0.004818287005 0.001297882397 2.98128152e-05)
(0.004729571592 0.001216596241 6.984546074e-05)
(0.004657473065 0.001282280048 1.266041894e-05)
(0.004641009941 0.001247134079 1.155531275e-05)
(0.004663267502 0.00122818426 0.0001185766764)
(0.004636862761 0.001119127444 9.282840998e-05)
(0.004737537253 0.001105283604 2.853390615e-05)
(0.004978939256 0.0007465503554 2.890318266e-05)
(0.01035536043 0.003326356928 -8.450616368e-05)
(0.01020579667 0.003240328838 -7.615676675e-05)
(0.009934203347 0.003196089783 -6.676650757e-05)
(0.00964948295 0.003016198225 -6.097023405e-05)
(0.009315985614 0.002826093467 -2.356459037e-08)
(0.008977894983 0.002768591029 -6.26894721e-05)
(0.008744818573 0.002703415305 -8.647380778e-05)
(0.008520283791 0.002555177741 -0.0001261396804)
(0.008412303998 0.002518021902 -3.526974281e-05)
(0.00816323006 0.002428265897 -1.423035968e-05)
(0.007954502261 0.002395247592 -4.301826333e-05)
(0.007796407945 0.002371052419 1.343572083e-05)
(0.007560235932 0.002243325328 8.864313195e-05)
(0.007309685122 0.002186924654 6.869297017e-05)
(0.00714571669 0.002154598975 5.248851487e-05)
(0.007023669032 0.002046091522 8.461149207e-05)
(0.006916198573 0.001989424094 -2.616970701e-06)
(0.006784135457 0.001964758281 5.382900236e-06)
(0.006574866106 0.001944772853 4.735166679e-05)
(0.006456057921 0.001811727831 4.304701131e-05)
(0.006282089717 0.001790855711 2.452445954e-05)
(0.00622935509 0.001691253518 3.613771712e-05)
(0.006146140312 0.001726348548 5.957693533e-05)
(0.005955252447 0.001647098866 3.051811683e-05)
(0.00585079456 0.001610401469 9.286106847e-06)
(0.005745582602 0.001562919605 5.102208275e-05)
(0.005739504973 0.001498596506 3.246906396e-05)
(0.005842302423 0.001398733014 4.699705364e-05)
(0.005871664061 0.00128853048 3.201061198e-05)
(0.005970211981 0.0008644158209 2.912982441e-05)
(0.01143568796 0.003662222451 8.702579461e-06)
(0.0113980334 0.003670267139 -1.421741527e-05)
(0.0113181722 0.003734796185 -3.070225294e-05)
(0.01110836685 0.003650382414 -4.35473256e-05)
(0.01092304446 0.003503851293 -2.914946476e-05)
(0.01075935317 0.003362837845 -2.242909992e-05)
(0.01052853727 0.003321344409 -4.059703341e-06)
(0.01024830128 0.003207180899 1.565891983e-05)
(0.009893355 0.003124680686 -1.868824396e-05)
(0.009664522562 0.003019244002 -5.123608991e-07)
(0.009451948616 0.002908514851 -4.607470439e-06)
(0.009162085077 0.00287922732 2.910160361e-06)
(0.009012269946 0.002788996681 -2.230265128e-05)
(0.008824877855 0.002739840312 -3.242526296e-05)
(0.008601687172 0.002609759687 2.404194001e-05)
(0.008418877637 0.002475918276 1.93665783e-05)
(0.008274829278 0.002466723356 9.108500414e-05)
(0.008059603481 0.002439029651 3.995809175e-05)
(0.007901855227 0.002377352735 8.628436517e-06)
(0.007725364841 0.002268224993 -1.235926578e-06)
(0.007604013823 0.002174412042 7.36359179e-05)
(0.007375859408 0.002088286384 7.084838018e-05)
(0.007230404527 0.002092114135 -8.72355742e-06)
(0.007134785347 0.002048303772 7.42778821e-05)
(0.007079082422 0.001960756724 9.365757823e-06)
(0.00699001927 0.001923643312 -5.361633076e-06)
(0.00683995502 0.001772383607 7.186189751e-06)
(0.006810849731 0.001584754555 5.815007942e-06)
(0.006881846515 0.001478356154 1.767092102e-05)
(0.006895388066 0.001157403323 3.356905719e-05)
(0.01192487589 0.00376296561 2.200136868e-05)
(0.01195514024 0.003810243138 3.384546854e-05)
(0.01209516366 0.003948876642 1.600242448e-05)
(0.01213731035 0.003957676299 6.064027447e-06)
(0.01204011819 0.003872520108 7.491253567e-06)
(0.01184508767 0.003811979837 -1.248411051e-05)
(0.01165752303 0.003836015109 6.303244379e-05)
(0.01146227018 0.003725731729 1.098160726e-05)
(0.01127889376 0.003646946172 -5.252699906e-05)
(0.01103714677 0.003525632292 -1.54680324e-05)
(0.0107360726 0.003466411082 -3.514506734e-05)
(0.01059684876 0.003360851774 2.027844642e-05)
(0.01042210445 0.003283056806 1.268206569e-05)
(0.01016297733 0.003203354953 1.45514878e-05)
(0.009967754605 0.003136376667 2.12009463e-06)
(0.009672069817 0.003002396539 -3.711863093e-06)
(0.009363610152 0.002884551092 5.042478827e-05)
(0.009145229175 0.002853895937 8.336875954e-05)
(0.008991250623 0.002730116681 1.28074568e-05)
(0.008811830981 0.002676907725 3.506053725e-05)
(0.008698949578 0.002566462828 3.057692909e-05)
(0.008438160056 0.002508534232 -2.102027445e-05)
(0.008318350524 0.002421644308 5.648538403e-06)
(0.00821564519 0.002388519156 2.610548648e-05)
(0.008064257666 0.002268488868 0.0001029157493)
(0.007999223683 0.002223167995 2.372959729e-05)
(0.007997135969 0.002117916213 1.246916821e-06)
(0.007795400922 0.001891281581 8.910497422e-06)
(0.007652807359 0.001635469377 1.925205754e-05)
(0.007559799601 0.00141076849 -7.558364842e-06)
(0.01195284352 0.003545982589 1.930457292e-06)
(0.01220487134 0.003746362658 1.022631736e-05)
(0.01249042647 0.00387802514 3.759988747e-05)
(0.01257415864 0.004045736948 2.649516731e-05)
(0.01256409374 0.004111162233 1.12309375e-05)
(0.01250213806 0.004126592097 4.120026723e-05)
(0.01245666064 0.004084172877 3.205184281e-05)
(0.01236960677 0.004014902453 2.269012381e-05)
(0.01223888821 0.003971588873 4.05602307e-07)
(0.01211227375 0.003989674892 3.151694596e-05)
(0.01200237636 0.003929209847 -1.63587828e-05)
(0.01172739933 0.003823057517 6.716972953e-06)
(0.01143386708 0.003709278458 2.972376717e-05)
(0.01124488044 0.00366272511 2.554430239e-05)
(0.01104117778 0.003546800576 -9.775346083e-07)
(0.01080941295 0.003465417742 1.469614951e-05)
(0.01057346118 0.003372153468 3.055630857e-05)
(0.01042713266 0.003280603968 5.729376676e-05)
(0.01024341166 0.003207540302 2.607792431e-05)
(0.00999924537 0.003080435236 -5.837252473e-06)
(0.009686508226 0.002994973146 -4.572098949e-05)
(0.009537190382 0.002878674616 -2.084817114e-05)
(0.009368423376 0.00275771554 -6.138901117e-05)
(0.009206271226 0.00272036796 1.492149165e-05)
(0.009050784397 0.002601404972 3.807294809e-05)
(0.008934004723 0.002483601404 6.472460041e-05)
(0.008758871111 0.002391963659 -4.962686574e-05)
(0.008673123806 0.002194723591 -3.999173879e-05)
(0.008530136139 0.001955662575 3.663125891e-05)
(0.008293774179 0.001724670018 -4.263548064e-05)
(0.0115596914 0.003061566541 -2.263664408e-05)
(0.01200782192 0.003400769232 -1.154169199e-05)
(0.01223197947 0.003653447009 -4.302572214e-05)
(0.01247894504 0.003883175042 -2.545468279e-05)
(0.01277502941 0.004075472275 -1.63061179e-05)
(0.0129836582 0.00419819 -3.202782658e-05)
(0.01300762677 0.004259458756 1.029816026e-05)
(0.01300362318 0.004286137201 -8.274191295e-07)
(0.01295723166 0.004218207797 3.00058766e-05)
(0.01288237731 0.004191181377 5.236971264e-05)
(0.01273068599 0.00425210541 5.212896927e-05)
(0.01258153887 0.00418955218 -7.69621723e-06)
(0.01246068802 0.004102042261 -8.882996415e-07)
(0.0122791548 0.004054117203 4.893279166e-05)
(0.01198569674 0.003991119266 -3.86024268e-06)
(0.01183100361 0.003892474834 1.726559993e-05)
(0.01157490619 0.003725716665 -1.455194926e-05)
(0.01138815622 0.003636046714 -4.58873969e-05)
(0.01118954578 0.003560144884 -5.758579821e-06)
(0.01090591199 0.003504773876 -5.538661557e-05)
(0.01078927736 0.003358444273 2.06638687e-05)
(0.01060209275 0.003273554337 1.886051919e-05)
(0.01036494486 0.003144415376 2.998505462e-05)
(0.01024037196 0.00301566507 3.2487227e-05)
(0.01011137591 0.003001060928 2.229116278e-05)
(0.00985530325 0.002818815339 6.39564991e-05)
(0.009679005252 0.00271205486 5.954461528e-05)
(0.009516153689 0.002492495355 6.613765941e-05)
(0.009304615712 0.002306311104 4.20469235e-05)
(0.009121437371 0.002026619006 3.321843228e-05)
(0.01098736223 0.002545520571 -2.379285786e-05)
(0.01146518631 0.002915691609 -1.5223243e-05)
(0.01195385113 0.00325995897 -4.545911954e-06)
(0.01240040731 0.00355520354 -2.543401094e-05)
(0.0126623592 0.003750591283 -4.678343056e-05)
(0.01291217343 0.00402662758 -1.407172046e-05)
(0.01322117219 0.00420573023 -2.24572056e-05)
(0.01339104783 0.004290703401 2.222329991e-05)
(0.01341793909 0.004396143433 2.830082839e-05)
(0.01339767406 0.004401594461 -1.85677066e-05)
(0.01336292984 0.004411472823 4.844269519e-06)
(0.01332296088 0.004475002296 3.338386411e-05)
(0.01315817134 0.00437984544 1.900807409e-05)
(0.01303867905 0.004361669732 1.889563444e-05)
(0.01300254888 0.004298426767 1.285395109e-06)
(0.01286366544 0.004267179079 1.776812347e-05)
(0.0126510537 0.004153404794 5.163650781e-05)
(0.01238816932 0.004043021191 4.38126542e-05)
(0.01219480909 0.003955600959 3.170991698e-05)
(0.0120661009 0.003884325156 -2.694119001e-05)
(0.01188494282 0.003781396919 -6.081514592e-06)
(0.01160859104 0.003656816178 1.220198117e-05)
(0.01134536591 0.003506916249 -1.585638723e-05)
(0.01111593775 0.003333943798 -3.532927897e-05)
(0.0108873862 0.003295957601 -1.909663719e-05)
(0.01066288143 0.003159799147 1.403840176e-05)
(0.01054212493 0.003031001885 -4.584025488e-05)
(0.01036761204 0.002773580706 -1.334763632e-05)
(0.01023299663 0.002654743411 -1.512498172e-05)
(0.009993891007 0.002336609035 -9.263485618e-06)
(0.01060730743 0.002075467119 1.02590073e-06)
(0.01095000884 0.002404027867 7.246602342e-06)
(0.01144562861 0.002749969247 1.838260724e-05)
(0.01183298169 0.003085872713 -8.039916193e-06)
(0.01230553173 0.003397786728 2.047250671e-05)
(0.01259104662 0.003625825084 -2.321233304e-05)
(0.01294777695 0.003913770414 -4.722920841e-05)
(0.01320590875 0.004109395276 -2.421283773e-05)
(0.01343928072 0.004324984167 -2.350362557e-05)
(0.01357154689 0.004385018145 1.469524741e-05)
(0.0136927389 0.004485357046 1.033160765e-05)
(0.01380919338 0.004579380584 8.131230019e-05)
(0.01384234196 0.004583667688 4.300083284e-05)
(0.01377948865 0.004577351882 -2.927276373e-05)
(0.01366188857 0.004526445647 -6.308995684e-06)
(0.01352894579 0.00451791978 7.01933489e-06)
(0.01340874361 0.004509664322 -4.911023967e-05)
(0.01322843004 0.004358467341 -1.913176256e-05)
(0.01303388018 0.004246041806 2.562477994e-05)
(0.0127947623 0.004196531583 2.975296578e-05)
(0.01256724649 0.004103531431 -1.613208294e-05)
(0.01243585919 0.004017624834 2.086216557e-05)
(0.01216349997 0.003868522261 -2.512070104e-05)
(0.01201351481 0.003739054207 -1.705344506e-05)
(0.01176095047 0.003613863948 -1.578171091e-05)
(0.01163305562 0.00348717265 -3.752789642e-05)
(0.01138134977 0.0033022582 -2.24047342e-05)
(0.0111432518 0.003124955593 -3.687087578e-05)
(0.01089652531 0.002930332273 -3.552794757e-05)
(0.01074414621 0.002685023793 -6.703464634e-06)
(0.009988194764 0.001604659655 1.749694215e-05)
(0.01031877049 0.001874534274 3.081708245e-05)
(0.01070784019 0.002221250918 1.931392606e-05)
(0.0111377841 0.002515420822 2.700684305e-05)
(0.01164802955 0.002898588133 2.768746959e-05)
(0.01209172831 0.003218688133 6.490914565e-06)
(0.01256209336 0.003484084484 1.83268209e-05)
(0.01293416671 0.003796647841 -7.332422007e-06)
(0.01327030166 0.003995861924 -3.928116942e-05)
(0.01357128609 0.004220316602 -5.334169296e-05)
(0.01381154255 0.004343079741 1.335695176e-06)
(0.01400533724 0.004527078313 -1.082244202e-05)
(0.0140516037 0.004592803474 2.432027203e-05)
(0.01405024525 0.004685629507 1.662245898e-05)
(0.01405099535 0.004680521292 7.049371152e-06)
(0.01405973125 0.004693936843 -5.719709545e-06)
(0.01402394862 0.004695089593 -2.331477602e-05)
(0.01391143374 0.004683749471 -4.894089964e-05)
(0.01372230091 0.004554690892 -8.76540493e-05)
(0.01359860123 0.004490100599 -4.394756988e-05)
(0.01341481495 0.004426441352 -7.220182796e-05)
(0.01320366457 0.004301952363 1.144439776e-05)
(0.01303894752 0.00421469631 3.02488357e-05)
(0.01277352763 0.004044631808 1.194357881e-05)
(0.01259241982 0.003905393852 1.703268233e-05)
(0.01236215071 0.003811269022 -9.102784296e-06)
(0.01211198017 0.003674324668 1.525094417e-05)
(0.01191986976 0.003474138078 5.325284755e-05)
(0.01158379665 0.003214164251 4.197996506e-05)
(0.01123905148 0.002979075892 1.547921918e-05)
(0.009687371379 0.00124143482 -1.94287263e-05)
(0.009999372016 0.001516513938 -4.257236285e-06)
(0.0103335567 0.001754722454 -1.399337892e-05)
(0.01078037009 0.00208264547 -2.153941106e-05)
(0.01111067216 0.002333476841 1.319922154e-05)
(0.01155747905 0.00268296811 5.012860908e-05)
(0.01203847112 0.00301426187 2.877180677e-05)
(0.01247313265 0.003316011141 4.077356421e-05)
(0.01295202376 0.003626351441 4.901363729e-06)
(0.01339556758 0.003919348387 -3.662463443e-05)
(0.0137022159 0.004153780973 -4.709527031e-05)
(0.01387409479 0.004351665433 -6.770220466e-05)
(0.01414248095 0.004537988226 -3.76031691e-05)
(0.01428202613 0.004679625717 -7.407488823e-06)
(0.01434198559 0.004713166576 -7.421929876e-06)
(0.01437280618 0.004705619273 2.655665579e-05)
(0.01444195568 0.004822150165 5.984602075e-05)
(0.01441951007 0.004823067312 4.383563218e-05)
(0.01429540673 0.004802832863 -5.276122367e-06)
(0.01420654719 0.004711167031 3.226530366e-05)
(0.0140325639 0.004666320738 4.559064298e-06)
(0.01391636809 0.004616622557 -4.904152252e-05)
(0.01369345649 0.004485484994 -2.33762069e-05)
(0.01351151499 0.004367845935 9.446384217e-06)
(0.01319492628 0.004235083675 2.074419736e-05)
(0.01302341686 0.004079451696 3.248015661e-05)
(0.0127747578 0.003942372156 2.696556709e-05)
(0.01261418249 0.003775980616 4.802564116e-05)
(0.01239886384 0.003614738706 -2.475372023e-06)
(0.01206289183 0.003349845988 -1.380299364e-05)
(0.009321901837 0.0009266680138 1.845184406e-05)
(0.009611787541 0.001151917625 5.350373634e-06)
(0.009894859624 0.001367418874 1.424307206e-05)
(0.01023940669 0.00160872291 1.85241957e-05)
(0.01067956109 0.0019157384 -2.162454484e-05)
(0.0110328848 0.002209299648 -2.601975079e-05)
(0.0114654366 0.002510035783 1.777420351e-05)
(0.01191525054 0.002765846568 2.694495176e-05)
(0.01243050418 0.003136767965 3.795288162e-05)
(0.01280853722 0.003450534848 -7.184679893e-07)
(0.01326942936 0.003793647574 -5.375994817e-05)
(0.01356478052 0.004028998822 -4.42065899e-05)
(0.01390433614 0.004273216667 -3.343896207e-05)
(0.01425516646 0.004482223421 -3.469808593e-06)
(0.01446724069 0.004667231333 4.655718988e-05)
(0.01460201207 0.004733472495 3.408073924e-05)
(0.0146237053 0.004808260008 2.58928171e-05)
(0.01468427268 0.004875976936 4.701292484e-05)
(0.01473316607 0.004923665514 2.236530596e-05)
(0.01462479063 0.00489186233 -2.102971565e-05)
(0.01455356356 0.004874487766 3.829644376e-05)
(0.01445701764 0.004843975249 4.50654554e-05)
(0.01426506312 0.004748729857 3.140890636e-05)
(0.01411205745 0.004625548092 2.321223778e-05)
(0.01391558283 0.004491897927 5.201676548e-05)
(0.01373896655 0.004407141983 2.437005242e-05)
(0.01351751964 0.004244686504 -3.985367862e-06)
(0.01322583249 0.004053051395 -4.763963148e-06)
(0.01306050807 0.003892621692 4.822373974e-05)
(0.01293798685 0.003694586827 3.908560593e-05)
(0.009054103547 0.0006663438682 -1.953624817e-05)
(0.009260442459 0.0008273290257 -3.272096598e-05)
(0.009544539249 0.001049433239 -2.992669093e-05)
(0.009762519393 0.001246411113 -9.103760551e-06)
(0.0100722502 0.001476909315 -1.461062513e-05)
(0.01042957296 0.001752093598 -2.788289049e-05)
(0.0108413095 0.002014110394 -4.486469267e-05)
(0.01122304736 0.002291652894 -3.186442848e-05)
(0.01162912655 0.002632012346 -2.571159152e-05)
(0.01199980948 0.002921832984 7.197692693e-06)
(0.01245871999 0.003227538115 3.120166698e-05)
(0.01305679333 0.00358736296 -1.585907512e-05)
(0.01352688287 0.003877455298 -2.517856888e-05)
(0.01388058514 0.004165684304 -2.237172767e-05)
(0.01419155567 0.004406081694 1.571001919e-05)
(0.014451508 0.00457388412 3.441118057e-05)
(0.01465838133 0.004717324332 3.526425378e-06)
(0.01481387092 0.004847563459 1.139482587e-05)
(0.01493326381 0.004936080032 4.053410529e-05)
(0.0150326548 0.004986877955 5.199863694e-05)
(0.01497982557 0.00495213737 1.89227382e-05)
(0.01499061744 0.005005338994 1.386236656e-05)
(0.01488814208 0.004947993739 -1.586536952e-05)
(0.01479193029 0.004894549323 4.531765029e-05)
(0.01462220805 0.004776151799 2.967854363e-05)
(0.01442075285 0.004687347975 -1.289641872e-05)
(0.01421667584 0.004585608078 3.437051278e-05)
(0.01400090662 0.004369674612 5.012768142e-05)
(0.01378301878 0.004131088596 5.257830188e-05)
(0.01356416757 0.003965822425 8.172958511e-05)
(0.008793949469 0.0005185910552 -1.240261909e-05)
(0.008958049563 0.0006243689403 -1.125733305e-05)
(0.009108476862 0.0007431599649 1.813877429e-05)
(0.009447227072 0.0009191758991 -1.546361188e-05)
(0.009718720108 0.00113944372 -1.474798982e-05)
(0.009992793995 0.001339854779 -7.051698064e-06)
(0.01028489725 0.001585104606 -1.455937416e-05)
(0.01062831324 0.001884164249 -3.069830899e-05)
(0.01101013551 0.002134167327 -1.431783857e-05)
(0.01151195596 0.002453262219 -9.440137744e-06)
(0.01202230883 0.002758588033 -1.9716321e-05)
(0.01237239873 0.003049060616 1.250057062e-05)
(0.0127868985 0.003369106198 -1.300020966e-06)
(0.01328284495 0.003697892557 -4.91457521e-05)
(0.01369228887 0.004031195706 -4.810492856e-05)
(0.01416610211 0.004272231193 -1.338672701e-05)
(0.01451332418 0.004478363816 -2.550120372e-05)
(0.01484956403 0.004665638501 -7.334759972e-06)
(0.01505777439 0.004870946487 -8.281046155e-07)
(0.01518791782 0.004962478819 2.56102298e-05)
(0.0152659737 0.005005438269 2.587000485e-05)
(0.01517263563 0.005018169458 3.977620374e-05)
(0.01531577916 0.005093084836 3.764534261e-05)
(0.01523940349 0.005050236042 -2.634160382e-05)
(0.01512781247 0.004992555458 3.334493851e-05)
(0.01503334675 0.004889618694 1.34975061e-05)
(0.01494305799 0.004817841459 -2.573467633e-05)
(0.01469126867 0.004660492139 -1.500492367e-05)
(0.01447326015 0.00445866098 -1.376459438e-05)
(0.01416537266 0.004190750969 -3.255273659e-06)
(0.008752305964 0.0003629006685 -8.989883666e-06)
(0.008884907478 0.0004590359024 -8.486891916e-06)
(0.009020891218 0.0005539324413 -1.833687876e-05)
(0.009075306831 0.0006668299843 -2.519797814e-06)
(0.009308357527 0.0008627891486 9.326020032e-06)
(0.009547376155 0.001049382043 -7.340634347e-06)
(0.00979974495 0.001228089559 -7.769049422e-08)
(0.01009959259 0.001463754836 -1.116813225e-05)
(0.01052389193 0.001699474392 -6.344700182e-06)
(0.01089446029 0.001945664308 -1.173070059e-05)
(0.01130853068 0.002281533462 -2.921991911e-07)
(0.01168062008 0.002571260502 1.094069574e-05)
(0.0122345557 0.002887876255 -1.255926719e-05)
(0.01275332568 0.003221255293 -8.824615845e-06)
(0.01324702082 0.003503012325 -1.964192686e-05)
(0.01375356133 0.003846454025 -3.911342925e-05)
(0.01412666944 0.004131061703 -1.102802218e-05)
(0.01444741255 0.004367267472 -1.768005361e-05)
(0.01483908318 0.004594456757 -4.726716477e-05)
(0.01515340805 0.004789919599 -2.001950474e-05)
(0.01537981267 0.004927333739 -1.389270308e-05)
(0.01558859846 0.005045189813 1.683957516e-05)
(0.01564824543 0.005116449203 2.201415012e-05)
(0.01564485948 0.005138325694 3.819067559e-05)
(0.01563686894 0.005155434412 7.511240193e-06)
(0.01550434083 0.005036008418 1.959544114e-05)
(0.01543676216 0.00501518949 3.097302294e-05)
(0.01527161402 0.00490398214 3.621233996e-05)
(0.01501034069 0.004744359486 1.167698257e-05)
(0.01476943593 0.004556582524 -1.60536393e-05)
(0.008562843609 0.0002704013151 1.115416632e-05)
(0.008573406499 0.0003270984465 2.707045423e-06)
(0.008741943228 0.0004318084817 9.465474136e-06)
(0.008814805966 0.0005315283496 -6.419641366e-06)
(0.00898337235 0.0006230771093 -5.569394204e-06)
(0.009161807731 0.0007702027304 1.237686671e-05)
(0.009446666035 0.0009209405543 1.380833913e-05)
(0.009749575553 0.001099244838 1.810546632e-05)
(0.01002719482 0.001317646692 -1.561002027e-06)
(0.01034142782 0.00152199985 1.075844242e-05)
(0.01075981213 0.001796359054 2.032176513e-05)
(0.01123548129 0.002098693657 -2.644039034e-05)
(0.01163333017 0.00237661251 -1.169759421e-05)
(0.01213764439 0.002699450487 1.856557185e-05)
(0.01256974779 0.003043522237 -3.577977367e-06)
(0.01301111888 0.003355965608 3.391388879e-06)
(0.01346159669 0.003669329728 1.74549758e-05)
(0.01387599042 0.003955872201 2.013320958e-07)
(0.01424204736 0.004179718113 -1.013183098e-05)
(0.01470259567 0.004461161733 -4.390901983e-05)
(0.01504967356 0.004710322012 -4.159393088e-05)
(0.01528611357 0.004899061524 -4.043415483e-05)
(0.01547689961 0.005001480998 -2.594402082e-05)
(0.01559511582 0.005112782846 -1.306231205e-05)
(0.01576929419 0.005123296409 3.61503273e-05)
(0.01577325348 0.005161866012 2.915447092e-05)
(0.01568047177 0.005130137859 4.132421272e-05)
(0.01555259112 0.005046980052 3.863667302e-06)
(0.01541854669 0.00498667746 2.015806094e-05)
(0.008552806863 0.0002206321583 1.680034299e-05)
(0.008593276623 0.0002701089473 6.297364824e-06)
(0.008639610873 0.0003160743052 6.603711006e-06)
(0.008797110725 0.0003833874679 8.396953243e-06)
(0.008882209078 0.0004747216817 5.426724282e-06)
(0.009069256795 0.0005788499452 4.533087432e-06)
(0.009253751922 0.0007081011093 1.19507852e-06)
(0.009451497318 0.000833114374 -8.808859689e-06)
(0.009656062494 0.001012209907 -1.484435067e-05)
(0.009952261828 0.001207491419 -1.004637412e-05)
(0.01022651262 0.001408623479 -1.802757545e-05)
(0.01050031875 0.001628183554 -1.975151117e-05)
(0.01086763945 0.00191607973 -5.040065203e-05)
(0.01126370586 0.00216601465 -2.581760522e-05)
(0.01173846618 0.002528465823 -1.626536029e-05)
(0.01224739082 0.002822454174 -4.241391434e-05)
(0.01286468498 0.003170025273 -5.561390318e-05)
(0.01339014736 0.003503738018 -2.499061307e-05)
(0.01396520672 0.003827662335 -6.828081248e-06)
(0.01423631852 0.004057820879 -7.636276257e-06)
(0.01469550389 0.004352890712 -3.476559904e-05)
(0.01511439986 0.00461166876 -2.887457273e-05)
(0.01540159383 0.004804826427 -6.228611779e-06)
(0.01563985767 0.004994670908 -8.374770983e-07)
(0.01570574283 0.00506463951 -3.242875759e-05)
(0.008467362849 0.0001693466647 -9.844797335e-06)
(0.008541734288 0.0001947464293 -1.171700036e-05)
(0.008626663799 0.0002415298763 -7.245661256e-06)
(0.008684536074 0.000292781941 -5.708396374e-06)
(0.008762667127 0.0003523815856 -5.944880439e-08)
(0.008851319586 0.000420373144 -9.776519018e-06)
(0.008936944454 0.0004977725708 -6.09758418e-06)
(0.009045162299 0.0006310903532 -5.906625936e-06)
(0.009270493107 0.000734077441 -9.090549098e-07)
(0.00949005133 0.0009315889199 -1.701106977e-05)
(0.009720745561 0.001102104605 -6.025137424e-06)
(0.01002985041 0.001284925865 1.71231462e-06)
(0.01040000219 0.00152016137 -3.043968462e-06)
(0.01081564495 0.001778538775 -2.823458186e-05)
(0.01120215027 0.002033610205 -4.887297864e-05)
(0.01163186725 0.002334283603 -2.267625229e-05)
(0.01207883758 0.002615133639 -2.737147773e-05)
(0.01258638609 0.00297491735 -1.684894422e-05)
(0.01303720524 0.003300143155 4.923115531e-05)
(0.008449100996 0.0001196908758 -6.53128079e-06)
(0.008475168545 0.0001392477662 -2.513994897e-06)
(0.008554634151 0.0001648582395 -9.861932378e-06)
(0.008605218234 0.0002131153217 -1.006852131e-05)
(0.008650786007 0.0002762679322 -1.273427717e-05)
(0.008725268334 0.0003183989742 -1.118792333e-05)
(0.00885029317 0.0004037967325 -7.405977575e-06)
(0.008929920928 0.000481795054 -1.612551736e-05)
(0.009059357566 0.0005812498406 -5.42242213e-06)
(0.009177549783 0.0006809182943 -8.353438496e-07)
(0.009477928488 0.0008379526265 6.731210732e-06)
(0.009695014511 0.001010552154 4.582577035e-06)
(0.009948276285 0.001157229732 1.080340231e-05)
(0.01023473703 0.001367917734 1.257997972e-05)
(0.00844749037 7.675358334e-05 -1.785958021e-05)
(0.00847899099 9.608873989e-05 -1.656481137e-05)
(0.008480049079 0.0001349844445 -9.095650506e-06)
(0.008489680016 0.0001621638088 -1.451017878e-05)
(0.008573214031 0.0002168613954 -1.903993856e-06)
(0.008564044138 0.0002660326951 4.202845443e-06)
(0.008659886312 0.0002997573318 -8.938907279e-07)
(0.008778418231 0.0003534431331 3.562438131e-06)
(0.008370955726 6.794299104e-05 1.154370322e-05)
)
;

boundaryField
{
    flow
    {
        type            calculated;
        value           nonuniform List<vector> 
15
(
(0.003590020372 0.0006806885381 -6.436651686e-06)
(0.004978939256 0.0007465503554 2.890318266e-05)
(0.005970211981 0.0008644158209 2.912982441e-05)
(0.006895388066 0.001157403323 3.356905719e-05)
(0.007559799601 0.00141076849 -7.558364842e-06)
(0.008293774179 0.001724670018 -4.263548064e-05)
(0.009121437371 0.002026619006 3.321843228e-05)
(0.009993891007 0.002336609035 -9.263485618e-06)
(0.01074414621 0.002685023793 -6.703464634e-06)
(0.01123905148 0.002979075892 1.547921918e-05)
(0.01206289183 0.003349845988 -1.380299364e-05)
(0.01293798685 0.003694586827 3.908560593e-05)
(0.01356416757 0.003965822425 8.172958511e-05)
(0.01416537266 0.004190750969 -3.255273659e-06)
(0.01476943593 0.004556582524 -1.60536393e-05)
)
;
    }
    obstacle
    {
        type            calculated;
        value           nonuniform List<vector> 
30
(
(1.268386827e-21 3.398632266e-22 -2.614700789e-23)
(1.131187598e-21 3.031008038e-22 -5.226559154e-24)
(1.187055148e-21 3.180704672e-22 3.323788553e-23)
(1.207665854e-21 3.23593091e-22 -1.224733385e-23)
(1.031423406e-21 2.763690679e-22 -4.422455131e-23)
(1.042387631e-21 2.793069244e-22 -7.598056301e-24)
(1.020754063e-21 2.735102275e-22 1.132960554e-23)
(9.77548816e-22 2.61933415e-22 -4.74866231e-23)
(1.120981418e-21 3.003660661e-22 3.723936806e-23)
(9.495439886e-22 2.544295454e-22 -1.05577297e-22)
(1.003614707e-21 2.689177495e-22 8.004751728e-24)
(8.809901896e-22 2.360606103e-22 6.34637949e-23)
(9.27047984e-22 2.484017591e-22 1.528847673e-23)
(9.044143034e-22 2.423370815e-22 -2.247107226e-23)
(7.674606848e-22 2.056404711e-22 8.044980858e-23)
(8.324939685e-22 2.230660859e-22 -7.867222435e-23)
(7.412256007e-22 1.986108015e-22 1.239929558e-23)
(8.168795923e-22 2.188822275e-22 -2.860385187e-23)
(8.204458897e-22 2.198378129e-22 -7.098209633e-23)
(9.15600158e-22 2.453343234e-22 1.24995183e-22)
(7.682113838e-22 2.058416203e-22 -1.550718624e-23)
(7.658907464e-22 2.052198064e-22 1.000543534e-23)
(7.739332112e-22 2.073747793e-22 -8.564966836e-24)
(8.018631843e-22 2.14858593e-22 2.494288671e-24)
(8.068697642e-22 2.16200101e-22 4.244320872e-23)
(7.489265333e-22 2.006742602e-22 1.838605756e-23)
(7.460110055e-22 1.998930459e-22 3.692727714e-23)
(8.706812856e-22 2.332983478e-22 -2.306403348e-24)
(8.632911592e-22 2.313181693e-22 3.810987086e-23)
(8.835490778e-22 2.367462611e-22 3.269310062e-23)
)
;
    }
    frontAndBack
    {
        type            empty;
    }
    procBoundary1to0
    {
        type            processor;
        value           nonuniform List<vector> 
21
(
(0.005704426343 0.001661080584 -6.071749726e-05)
(0.008740621718 0.002646849487 2.659734406e-05)
(0.01051274655 0.003409412899 -2.714646718e-05)
(0.01151809844 0.003709328558 -1.953379876e-05)
(0.01170704876 0.003621861452 8.518809014e-06)
(0.01153235829 0.003207780077 -6.286222616e-06)
(0.01117124123 0.002729647479 -8.330827753e-06)
(0.01055853669 0.002231812765 1.266680218e-06)