/*--------------------------------*- C++ -*----------------------------------*\
| =========                 |                                                 |
| \\      /  F ield         | OpenFOAM: The Open Source CFD Toolbox           |
|  \\    /   O peration     | Version:  2406                                  |
|   \\  /    A nd           | Website:  www.openfoam.com                      |
|    \\/     M anipulation  |                                                 |
\*---------------------------------------------------------------------------*/
FoamFile
{
    version     2.0;
    format      ascii;
    arch        "LSB;label=32;scalar=64";
    class       volScalarField;
    location    "0.01";
    object      overallT;
}
// * * * * * * * * * * * * * * * * * * * * * * * * * * * * * * * * * * * * * //

dimensions      [1 2 -2 0 0 0 0];

internalField   nonuniform List<scalar> 
546
(
842.2393121
828.8072718
818.1895907
807.9410824
801.7319628
797.6598162
796.5309841
780.9530456
772.9630829
771.6082133
765.1354412
763.5227748
759.1729285
764.1356055
755.7090064
748.218641
745.1257583
739.2590147
735.771035
733.8296197
737.0624746
721.9859613
724.6761414
730.0076084
722.8070539
720.1058929
722.3112003
716.5641308
710.421872
700.6343227
915.8336439
909.9463251
905.2465442
900.6191205
894.1232375
884.4256965
878.7802719
870.5944973
867.4528993
862.1180395
849.7027784
849.7235406
846.5797361
848.9309717
846.1385394
828.5518479
824.3651707
820.7729833
814.5334817
813.004873
808.2345177
802.0632092
798.8988376
792.8391009
793.1110752
782.6144156
773.9683673
774.2115639
756.0497907
726.1789742
929.8580433
927.2242334
926.1942115
928.3374596
925.6002819
914.1163782
910.6436072
911.4456687
897.4487962
901.5503053
895.7323912
890.6513215
886.5958994
887.1605481
881.8133399
876.5371667
873.4051029
864.3945584
855.2569131
856.6246413
850.5669878
847.2936318
834.7768793
837.7380676
831.2328509
820.7099319
806.4937992
794.1269935
780.8792717
750.3975098
908.9458253
907.7937812
917.1041228
911.0703203
915.0186708
916.9197657
909.3858478
904.9953424
908.1894196
912.0216228
909.5797058
910.9992432
905.3925871
900.5182719
894.2942204
892.1764835
889.1734148
882.3950887
881.3248468
879.5687438
876.2636415
869.1078011
867.1991739
858.3186642
855.6583047
845.5932178
837.3936937
811.8499351
782.8496735
752.8799017
878.3421548
882.111831
891.5021815
892.5162642
891.6972018
890.9364743
890.5447296
890.2127094
898.8527352
897.7452814
899.1904192
901.9843692
899.764705
899.5850732
894.5293497
893.7216448
896.1493944
893.1474054
892.7566561
888.5588092
878.88823
881.4917973
879.5647667
873.8951204
869.2581941
854.777449
846.1078373
818.9788252
797.3552857
763.6894564
847.1935109
851.4898284
859.0915651
868.3130833
865.3105824
865.5700847
873.9510186
875.7268034
874.6723715
874.7115679
880.2699856
886.0236735
886.5671981
890.7191372
887.3250427
887.6704018
882.7579125
886.3599149
885.5288822
884.3524425
878.3803829
877.2171914
879.5751603
874.3226955
868.4799846
854.6853385
840.6379399
824.55206
805.1932972
778.2632521
813.2933291
821.7595845
830.0974003
831.4227446
840.8853357
842.8246861
847.6023603
848.8838114
853.8049091
857.2647024
859.8173806
867.7323642
866.6932216
868.01107
873.6492675
872.6619273
878.064859
879.7435726
879.9302444
880.1839293
876.1183527
866.3018398
868.7969238
864.3478177
856.9503739
845.7404064
834.6921042
831.2721271
815.6289985
785.0945266
764.7591915
783.493454
790.9712312
800.6016564
805.872463
814.7428514
825.2249134
819.713807
825.5065192
831.5650864
831.79906
836.3764267
839.851975
847.6186966
852.022975
852.9293799
860.3083079
859.7200399
862.5200282
865.6555842
863.8656333
860.0093312
854.0651259
851.6372701
851.1992564
846.0068302
837.9215946
822.0381341
809.6736556
787.9150385
715.7901173
738.134766
752.408212
764.2224173
776.0768339
784.6615348
789.1595647
794.862044
800.1959794
807.2244489
809.5719305
820.4180623
820.3853687
823.2854331
828.2372837
837.9729957
841.691346
841.209444
836.6185125
848.1242055
844.744629
846.5798158
845.0109008
842.2607904
839.6685075
837.918366
832.1853262
823.6767125
808.1742099
788.8205727
660.2055591
683.8543413
711.7531249
727.4739646
743.8839061
751.784551
756.6532693
771.5449866
777.0785569
782.8321888
788.6216057
797.6395822
794.6743063
803.7857358
809.2471322
813.5605288
817.9376203
820.6170088
823.1886608
822.2988116
828.7483682
831.327614
832.1346676
835.1771313
836.7855969
828.4246655
820.1916385
811.8232545
801.3268181
788.0297138
601.0503316
632.2624883
657.8745458
681.8925643
694.7932378
713.8994796
720.8986594
735.2419776
745.4523512
756.494301
766.9673253
770.1387133
776.8265734
784.6625968
786.7408852
789.0128422
795.1202692
804.5641719
804.1660052
804.1325616
813.8077847
816.0170241
821.1756755
824.0685288
817.9946013
818.4516298
810.7581653
800.31615
792.9218091
779.1974656
554.7657651
586.4895501
607.9622921
630.6388351
648.698943
669.6354992
691.4843604
702.1275119
715.8897512
725.4548832
735.1316904
746.2026787
753.2141463
762.1224183
769.9873774
771.081073
773.4278342
784.3999075
791.4593122
790.7950009
796.6243721
800.9502006
803.0235251
801.2952439
801.8128444
803.1228016
799.5442091
795.2238969
786.3006951
775.8981799
502.4324091
529.3830601
561.1365129
586.0297692
606.8564767
632.4441956
647.8539077
665.2074024
683.8871734
700.6388087
708.9304749
722.7595501
727.9367596
738.9823923
750.8595843
753.0137106
757.4217707
765.0806403
766.9463064
772.1338956
777.1289423
783.8161567
786.4325463
793.2093827
786.495618
784.8412429
784.7838175
782.0760391
776.9390907
768.9445582
459.5513001
484.1328051
506.9671362
534.5816425
568.0274727
592.8858466
606.3185026
626.0287463
643.3141508
662.4564743
680.416557
692.2226153
703.4175232
716.2820048
726.0002963
729.7803926
740.7494146
741.9799613
747.7357148
750.9067612
752.2935041
762.2043731
765.2415937
768.5455142
772.3077061
770.2663467
774.9480958
774.2873485
767.9279385
758.0619889
419.8184201
438.383276
463.6918723
480.43095
511.5266951
537.2404075
557.1149485
585.2060256
606.5124285
624.7710773
646.3873143
663.7638216
673.7895953
683.8554986
692.0933962
702.5670999
711.7963185
716.7480078
724.9659064
733.4238229
736.6592057
741.2374381
748.4244495
751.145496
755.6749699
752.0185792
755.5779522
760.760127
755.7803915
746.8928245
394.7832754
412.2358667
432.2989336
449.0893922
471.6055349
496.1479596
518.3785524
542.7092083
563.9448704
580.8418464
598.6270455
621.3312951
635.3532932
648.5180647
670.1733114
677.5479508
693.9620848
696.7657673
706.1717953
710.2864962
715.6964622
722.7711716
726.8005052
731.472241
739.5167945
739.0998702
738.4026834
741.6986261
737.6337286
374.2859424
381.7941467
395.5558827
414.2474724
436.2087004
457.1063768
477.6800746
495.2743094
517.0693263
542.7809703
564.5946555
584.0905818
601.9737447
618.4102261
639.5933582
653.6723846
666.2113274
677.3998187
686.4033674
691.2081127
695.9450277
705.2389028
710.249702
716.6260444
717.9915697
358.4394078
365.1073445
379.098676
392.4937752
405.1065153
420.6836394
438.2626125
463.5438457
478.9112217
507.4015819
528.0097115
544.790907
564.7862036
587.3814823
605.6051951
621.8358252
638.9682658
654.259878
663.7423598
342.558135
351.8215637
357.6830452
371.4866317
386.7124184
399.7192756
412.1071576
425.6705762
449.3719245
464.7264732
487.9559068
508.0729298
525.5592663
546.6826168
334.9918163
338.2767043
341.8229241
351.3116144
366.7597072
381.2015559
385.2046135
396.8199335
323.5983758
)
;

boundaryField
{
    flow
    {
        type            calculated;
        value           nonuniform List<scalar> 
15
(
700.6343227
726.1789742
750.3975098
752.8799017
763.6894564
778.2632521
785.0945266
787.9150385
788.8205727
788.0297138
779.1974656
775.8981799
768.9445582
758.0619889
746.8928245
)
;
    }
    obstacle
    {
        type            calculated;
        value           nonuniform List<scalar> 
30
(
732.3729217
731.6453988
716.3273462
721.1217515
707.2051693
714.3114471
701.2351268
708.6900036
683.0008288
683.2646452
692.9973802
670.6313298
680.2743224
679.3292335
685.9420695
681.0641273
677.0043154
670.8552914
657.8781703
644.5720488
678.7029954
658.1797159
651.8595449
680.5049461
673.96386
675.3648495
678.5213318
663.0122309
673.6110852
675.9479755
)
;
    }
    frontAndBack
    {
        type            empty;
    }
    procBoundary1to0
    {
        type            processor;
        value           nonuniform List<scalar> 
21
(
850.2880345
928.8018655
929.113454
914.4120536
877.9338556
844.7464557
799.0895227
746.9463177
691.9513995
634.975876
574.8904421
519.9293283
478.0859806
433.8971506
407.7619781
382.3437192
360.3663378
347.5257807
335.5378248
325.4499795
322.2729145
)
;
    }
    procBoundary1to3
    {
        type            processor;
        value           nonuniform List<scalar> 
36
(
733.5977372
724.1039173
725.3295352
728.9661275
733.5977372
724.822242
669.4986258
681.8997925
693.055633
694.317259
702.9274842
724.1039173
707.6633724
567.5541521
591.5618038
608.6307027
625.9064918
669.4986258
640.0456914
416.8850837
432.6025756
450.6286468
473.0553758
490.5374241
567.5541521
510.3682052
326.3550547
333.1664001
337.621755
348.3997527
360.5605766
367.5423747
416.8850837
376.7872294
326.3550547
317.9705864
)
;
    }
}


// ************************************************************************* //
