/*--------------------------------*- C++ -*----------------------------------*\
| =========                 |                                                 |
| \\      /  F ield         | OpenFOAM: The Open Source CFD Toolbox           |
|  \\    /   O peration     | Version:  2406                                  |
|   \\  /    A nd           | Website:  www.openfoam.com                      |
|    \\/     M anipulation  |                                                 |
\*---------------------------------------------------------------------------*/
FoamFile
{
    version     2.0;
    format      ascii;
    arch        "LSB;label=32;scalar=64";
    class       volScalarField;
    location    "0.01";
    object      p;
}
// * * * * * * * * * * * * * * * * * * * * * * * * * * * * * * * * * * * * * //

dimensions      [1 -1 -2 0 0 0 0];

internalField   nonuniform List<scalar> 
546
(
3.931207756
3.872984917
3.760020286
3.690434609
3.599792269
3.563593236
3.575373055
3.498616689
3.47248271
3.411224483
3.351778493
3.365403761
3.294261282
3.354072789
3.312303313
3.199229133
3.107769105
3.132884204
3.122089367
3.077170884
3.049167216
3.027199464
2.98459761
2.979785738
2.862463322
2.780319198
2.663885976
2.529665072
2.310828372
1.890688316
3.893827883
3.824592731
3.7521737
3.740304282
3.672191407
3.638178694
3.582696895
3.547240169
3.499935395
3.442714785
3.392905691
3.417922228
3.404533652
3.419541804
3.373082821
3.258837717
3.208356465
3.242575008
3.178186525
3.126203292
3.085288045
3.072970393
3.036413776
2.955468956
2.882768265
2.806634846
2.653246067
2.488062928
2.194885825
1.726980162
3.688249213
3.692441031
3.668518114
3.657204597
3.586113485
3.513030278
3.515279565
3.482829792
3.460018845
3.441553338
3.408127448
3.445865802
3.376212851
3.354042857
3.325822115
3.225418474
3.2354298
3.236375759
3.13838967
3.139527619
3.0515962
3.034967564
3.047264332
2.934848628
2.833297251
2.730616128
2.617902489
2.419072809
2.165698725
1.778929531
3.421266079
3.433282319
3.508980182
3.477390718
3.488264592
3.472004793
3.454158224
3.400405069
3.369288591
3.39264902
3.361162811
3.353365844
3.345227684
3.291326368
3.26140347
3.208008915
3.187597419
3.182266792
3.158745424
3.135287723
3.063644795
3.033386901
2.998403597
2.929123446
2.848252132
2.75528323
2.602743239
2.376513898
2.179754631
1.886840964
3.146145636
3.16442382
3.278879501
3.333279074
3.348168087
3.300252888
3.298106876
3.27305672
3.312004736
3.29044914
3.274315623
3.314841011
3.292243087
3.279678987
3.227074845
3.21532081
3.166110636
3.161930694
3.146621136
3.094199092
3.026416182
2.992914429
2.964052255
2.899624688
2.832006385
2.754663592
2.666097153
2.397310144
2.201422933
1.91078081
2.844385726
2.939414586
3.043617268
3.116774448
3.131676042
3.104507078
3.160162297
3.18088163
3.190695614
3.170187484
3.207234432
3.2260362
3.188797822
3.213359067
3.166668802
3.174594293
3.091871356
3.137858393
3.118492039
3.090309003
3.028648487
2.965859789
2.917096816
2.879049023
2.834529053
2.725481598
2.586792054
2.446237385
2.268777617
1.983757748
2.507483969
2.664883216
2.752954023
2.825970838
2.928490545
2.975710899
3.019745129
3.055053346
3.057314633
3.098510923
3.108291708
3.152114417
3.119795478
3.111197116
3.136198402
3.109442224
3.10462906
3.108881811
3.089472259
3.049489557
3.027302499
2.951263265
2.904334336
2.841400243
2.80866905
2.666340678
2.583065192
2.482622017
2.301294143
2.071004246
2.143143289
2.328481114
2.451874321
2.582114182
2.656926194
2.76066965
2.872986226
2.901460675
2.932848996
2.966963139
2.993154124
3.041527064
3.009762793
3.039327027
3.069187256
3.08681537
3.10390021
3.043466248
3.030560694
3.056705399
3.024409424
2.954155502
2.908417326
2.823317429
2.800402327
2.715542729
2.640948514
2.476541103
2.352018661
2.166185954
1.86123153
1.998125992
2.151514992
2.2863275
2.415008829
2.527336816
2.625429511
2.689673166
2.764175193
2.804600032
2.835200141
2.958221871
2.975098896
2.967853373
2.97530454
3.046255007
3.02801014
3.006278969
2.96164321
2.984372874
2.939492109
2.922335464
2.87181143
2.833692864
2.797143698
2.763532701
2.645953266
2.534196271
2.404776062
2.229292754
1.553891261
1.688128793
1.843725942
1.986745711
2.134079883
2.237436311
2.342676273
2.475565984
2.56696545
2.663444965
2.731130494
2.822561171
2.812582474
2.876059451
2.900056469
2.917300895
2.931285502
2.947491192
2.906841414
2.893312809
2.926915899
2.9020989
2.857524591
2.815095808
2.818181504
2.754983307
2.657209476
2.562599212
2.432075418
2.286573677
1.307542359
1.452061661
1.590374865
1.742465957
1.848575939
2.000651899
2.105044044
2.228732009
2.360372864
2.482693911
2.584852036
2.620918706
2.697924168
2.785503557
2.796472655
2.808152591
2.850203438
2.905774627
2.890030045
2.85941318
2.904304948
2.883902242
2.872787469
2.852737409
2.756779775
2.734258051
2.67053518
2.576213947
2.471099189
2.327302551
1.124399373
1.258969843
1.358744005
1.477396401
1.604012098
1.732010217
1.879809529
1.995750416
2.136891591
2.239212533
2.340543087
2.436553105
2.529637797
2.631229546
2.70046936
2.716046544
2.7360695
2.796537771
2.848323927
2.821050109
2.841097573
2.858146717
2.840115391
2.815258686
2.76191461
2.739565806
2.683759674
2.586454368
2.515455336
2.422185212
0.9539017188
1.046210487
1.162160376
1.265721168
1.369136108
1.509194193
1.62993722
1.730925543
1.858053521
1.981986058
2.093294419
2.239293776
2.335275176
2.436916645
2.543087871
2.589339237
2.64581464
2.717244022
2.735629803
2.774892123
2.784030688
2.831220698
2.81472915
2.837365203
2.777061298
2.738741696
2.690587385
2.654878272
2.563499654
2.449658926
0.8165576458
0.8933905701
0.9686706396
1.072496854
1.199811359
1.304801921
1.389473131
1.505520271
1.622891349
1.765651439
1.908786407
2.004208887
2.109789129
2.244027697
2.355220302
2.432896679
2.53670659
2.587173854
2.640417662
2.672026065
2.697395533
2.725120324
2.77233661
2.777751685
2.753565313
2.716126301
2.73489787
2.675945192
2.586949053
2.466389132
0.7151503573
0.7710125332
0.8450836891
0.8949248305
1.000408427
1.095313976
1.17918196
1.302457826
1.420126289
1.533192586
1.661109617
1.780072832
1.909012717
2.018013475
2.126659423
2.245895203
2.331680307
2.401110889
2.486270773
2.575170416
2.620006236
2.675030378
2.714108672
2.727871498
2.754384102
2.689861581
2.70031346
2.695345956
2.617423864
2.507577725
0.6392743776
0.6802506689
0.7400635592
0.7836013067
0.8548858808
0.9358036732
1.027529757
1.128283627
1.224686998
1.307843254
1.425739422
1.564848922
1.656225612
1.781567346
1.92602842
2.026702068
2.152692481
2.228005548
2.320975348
2.411968316
2.475355394
2.545017508
2.594959827
2.626429811
2.675894689
2.667859619
2.648432917
2.622555503
2.58208058
0.5906655995
0.6113394859
0.6454901567
0.7024038311
0.760259694
0.8265132928
0.893148514
0.9687243914
1.053932523
1.158886794
1.25663791
1.353221207
1.447014946
1.546539305
1.691982477
1.804899277
1.94825326
2.069859642
2.192701582
2.238549889
2.335706632
2.446865954
2.485683371
2.564148667
2.558348047
0.5473206785
0.5675298411
0.6069251525
0.6395427841
0.6780750346
0.7239633359
0.7685495536
0.837754312
0.9021906015
1.001135675
1.07501723
1.161432233
1.264016411
1.383721834
1.500120281
1.617727259
1.732033691
1.853006418
1.95593441
0.5144508247
0.5364683515
0.550394581
0.5839144278
0.6236305458
0.6610324223
0.6995903585
0.7399834578
0.8056845287
0.8571709339
0.9475480183
1.020484781
1.097108471
1.187381308
0.4938682234
0.5004004407
0.5119475251
0.5339969234
0.5732723094
0.6058354755
0.6219117206
0.6574067341
0.4671101614
)
;

boundaryField
{
    flow
    {
        type            calculated;
        value           nonuniform List<scalar> 
15
(
1.890688316
1.726980162
1.778929531
1.886840964
1.91078081
1.983757748
2.071004246
2.166185954
2.229292754
2.286573677
2.327302551
2.422185212
2.449658926
2.466389132
2.507577725
)
;
    }
    obstacle
    {
        type            calculated;
        value           nonuniform List<scalar> 
30
(
3.241229478
3.313274293
3.172288492
3.177110568
3.061319831
3.088833935
3.103151894
3.121851876
3.074645923
2.990687662
2.955972254
3.019542031
2.968119231
2.986440424
3.039905347
2.936091897
2.851225381
2.839693374
2.872979251
2.824873656
2.795737148
2.76760992
2.710479037
2.759055531
2.650554966
2.575518487
2.473020873
2.354365793
2.18938658
1.990795973
)
;
    }
    frontAndBack
    {
        type            empty;
    }
    procBoundary1to0
    {
        type            processor;
        value           nonuniform List<scalar> 
21
(
4.013517787
3.943512032
3.709449335
3.438920559
3.080587087
2.700789827
2.366451621
2.015662874
1.700114591
1.418556353
1.19356727
1.011228242
0.8797829372
0.7532886061
0.6692615093
0.6094169878
0.5564047899
0.5202601174
0.4946778435
0.4700336124
0.4666237349
)
;
    }
    procBoundary1to3
    {
        type            processor;
        value           nonuniform List<scalar> 
36
(
2.526571946
2.594603503
2.626643174
2.61089619
2.526571946
2.564230391
2.062834083
2.167460186
2.29612213
2.348766656
2.439000413
2.594603503
2.516905278
1.292827728
1.436548792
1.530277274
1.658521061
2.062834083
1.769398403
0.7132788893
0.7630432571
0.8130527702
0.8922929449
0.9576180265
1.292827728
1.0376957
0.476393123
0.4904677352
0.5027787895
0.529604562
0.5637965868
0.5808005074
0.7132788893
0.6066679815
0.476393123
0.4604847722
)
;
    }
}


// ************************************************************************* //
