/*--------------------------------*- C++ -*----------------------------------*\
| =========                 |                                                 |
| \\      /  F ield         | OpenFOAM: The Open Source CFD Toolbox           |
|  \\    /   O peration     | Version:  2406                                  |
|   \\  /    A nd           | Website:  www.openfoam.com                      |
|    \\/     M anipulation  |                                                 |
\*---------------------------------------------------------------------------*/
FoamFile
{
    version     2.0;
    format      ascii;
    arch        "LSB;label=32;scalar=64";
    class       volScalarField;
    location    "0.01";
    object      rhoM;
}
// * * * * * * * * * * * * * * * * * * * * * * * * * * * * * * * * * * * * * //

dimensions      [1 -3 0 0 0 0 0];

internalField   nonuniform List<scalar> 
546
(
2.101024668e-05
1.718627991e-05
1.27778953e-05
1.409397656e-05
1.220402977e-05
1.624106303e-05
1.901581901e-05
1.555086554e-05
1.503708262e-05
1.411965417e-05
9.326005142e-06
1.280433806e-05
1.560188654e-05
1.465930308e-05
1.452879599e-05
2.134493078e-05
1.173153234e-05
2.144789625e-05
1.793827688e-05
1.107808919e-05
1.379409946e-05
1.479337537e-05
1.972051905e-05
1.415892257e-05
1.175314261e-05
1.240630975e-05
1.040200154e-05
1.337590905e-05
1.274955922e-05
8.98822111e-06
1.38583187e-05
1.155786195e-05
1.4744566e-05
1.355882614e-05
1.381605719e-05
1.685957504e-05
1.402790933e-05
1.217191846e-05
1.116044274e-05
1.356122805e-05
8.200319234e-06
1.369474149e-05
1.43766899e-05
1.539997999e-05
1.452879598e-05
1.565362137e-05
1.780861909e-05
1.268007047e-05
1.055683785e-05
1.108017429e-05
1.091220153e-05
1.25928767e-05
1.216959036e-05
1.397813822e-05
1.699678537e-05
7.115609738e-06
8.652305675e-06
8.546216908e-06
8.249050626e-06
1.163776488e-05
1.34852429e-05
1.403545063e-05
1.187174233e-05
1.127554826e-05
1.404555444e-05
1.276123445e-05
1.07544176e-05
1.358649341e-05
1.0764128e-05
1.084859815e-05
1.294345127e-05
1.337166828e-05
1.543905172e-05
1.490553413e-05
8.633730204e-06
1.381213747e-05
1.257681465e-05
1.344760439e-05
1.030021126e-05
1.133898623e-05
1.082518991e-05
1.215192847e-05
7.639461081e-06
8.334158657e-06
1.500789252e-05
1.003370738e-05
1.371348043e-05
1.328333156e-05
5.437079563e-06
9.744908027e-06
9.537100466e-06
1.148305743e-05
1.255181241e-05
1.20366409e-05
7.214949371e-06
1.160129159e-05
1.589767149e-05
1.319324062e-05
1.472155602e-05
1.052867403e-05
9.326005142e-06
1.086004248e-05
1.388621769e-05
1.004712003e-05
1.237136341e-05
1.046288506e-05
1.097240479e-05
1.353243035e-05
1.012705936e-05
9.954485715e-06
9.952970885e-06
1.065567423e-05
1.19925256e-05
9.767481755e-06
1.166303536e-05
1.468579887e-05
1.067721903e-05
8.546216916e-06
1.078072786e-05
6.718160367e-06
1.080304556e-05
9.831934292e-06
2.003804755e-05
1.363658695e-05
1.151368915e-05
1.276123446e-05
8.962327553e-06
2.034060401e-05
1.21878107e-05
1.994049582e-05
1.222034938e-05
1.207547124e-05
1.290724108e-05
1.243528858e-05
1.486178558e-05
1.808112363e-05
1.409506977e-05
9.957439296e-06
1.115770074e-05
1.488859324e-05
1.178652355e-05
9.422716161e-06
9.770657274e-06
8.423471524e-06
8.045678656e-06
7.115609719e-06
1.076895815e-05
9.381651869e-06
9.468173604e-06
1.031299302e-05
1.199473446e-05
7.655371629e-06
1.474456601e-05
5.027615488e-06
1.535158554e-05
1.57767133e-05
1.67558191e-05
1.178055745e-05
1.432524127e-05
6.860114688e-06
7.637476275e-06
1.102157909e-05
1.241676885e-05
1.045750512e-05
1.311809006e-05
1.565362137e-05
1.3167699e-05
1.038361922e-05
9.526196485e-06
1.506113455e-05
1.344395006e-05
8.981767969e-06
1.252371991e-05
1.308285093e-05
1.09399995e-05
1.167678534e-05
1.555491555e-05
9.381651853e-06
1.228014463e-05
1.220584978e-05
7.077671777e-06
1.080800886e-05
1.187174232e-05
9.21821258e-06
1.036250512e-05
9.820973758e-06
7.403253789e-06
8.560046555e-06
9.73485353e-06
1.204495105e-05
1.197802432e-05
1.685641792e-05
1.503196472e-05
1.679925683e-05
9.465204213e-06
1.163492176e-05
9.790636077e-06
1.285177255e-05
1.47628781e-05
1.635936453e-05
8.81761409e-06
1.725929157e-05
9.505060182e-06
1.16495279e-05
1.347171388e-05
9.304183053e-06
5.799522617e-06
1.086736675e-05
4.031094058e-06
8.420136234e-06
5.811726681e-06
9.306494758e-06
9.905071636e-06
6.627561562e-06
1.051550328e-05
9.899917864e-06
1.059907341e-05
1.374303781e-05
1.693596175e-05
9.652245263e-06
1.58377955e-05
1.094081079e-05
1.192629665e-05
1.202291974e-05
1.01291835e-05
9.626580187e-06
5.992965138e-06
9.872613278e-06
1.115770069e-05
1.480232254e-05
8.206429731e-06
8.806237047e-06
1.2879989e-05
1.02162047e-05
1.193335703e-05
1.112909259e-05
8.468827237e-06
6.5027995e-06
1.153043622e-05
1.125828176e-05
6.92915935e-06
8.631446195e-06
9.300362502e-06
1.036076906e-05
1.013115897e-05
1.221980359e-05
9.117671748e-06
1.068096309e-05
1.717451319e-05
1.30823026e-05
1.431146222e-05
1.175044593e-05
1.021062783e-05
1.358833436e-05
9.04946722e-06
1.314269019e-05
1.299742263e-05
1.268212069e-05
1.167302142e-05
1.246467475e-05
1.187353518e-05
7.573279141e-06
1.279145674e-05
1.299353804e-05
9.311535663e-06
9.395098852e-06
1.445182833e-05
9.474229343e-06
7.59277348e-06
1.135486201e-05
9.685612898e-06
8.180811158e-06
4.764133406e-06
9.3700641e-06
9.593816494e-06
6.728413785e-06
9.58558159e-06
1.091577971e-05
1.028893158e-05
1.2044951e-05
1.768658339e-05
1.037348057e-05
1.421385504e-05
1.358833434e-05
1.153988935e-05
1.355983454e-05
9.790636141e-06
1.242559265e-05
8.668706992e-06
8.309088208e-06
6.810038132e-06
1.320935568e-05
6.572793114e-06
1.371019959e-05
1.555071387e-05
1.42290221e-05
8.00791424e-06
1.077478925e-05
6.936496357e-06
1.315113861e-05
7.151927993e-06
4.953369391e-06
6.42753881e-06
6.551635786e-06
7.752291842e-06
1.020824239e-05
1.153489318e-05
5.104719076e-06
1.036781325e-05
9.811246568e-06
9.326005092e-06
1.020999186e-05
1.078251747e-05
9.470597153e-06
9.71344651e-06
8.621401174e-06
7.427098586e-06
1.08097991e-05
1.853913975e-05
1.038792399e-05
1.012699409e-05
1.232745934e-05
1.145919164e-05
1.344010237e-05
7.865464111e-06
8.938322083e-06
1.122987132e-05
1.021708679e-05
9.561604937e-06
1.220585e-05
1.065453317e-05
6.754101592e-06
7.032247993e-06
5.9423947e-06
7.138450286e-06
4.949958914e-06
6.15674564e-06
8.010249286e-06
8.547815719e-06
6.939615395e-06
1.069207957e-05
1.061578556e-05
1.290724112e-05
1.070571994e-05
1.386481669e-05
1.247324309e-05
1.282917953e-05
1.344760444e-05
1.25305109e-05
1.514740512e-05
1.117533925e-05
1.400136539e-05
1.287998889e-05
1.13815892e-05
9.854357122e-06
9.851875708e-06
8.744044876e-06
8.916526878e-06
1.284299047e-05
1.258305364e-05
5.88598288e-06
1.020776475e-05
5.51956444e-06
2.20918719e-06
7.367947523e-06
6.805494936e-06
9.507909578e-06
7.303907819e-06
9.18077549e-06
1.092809879e-05
9.085616683e-06
7.536829407e-06
1.078251738e-05
1.070571994e-05
1.095865752e-05
1.163492169e-05
8.524745754e-06
9.361607466e-06
1.107215853e-05
1.229213356e-05
8.904625709e-06
1.065567428e-05
1.216959038e-05
8.334158643e-06
1.093999952e-05
1.204044875e-05
9.388436195e-06
1.384103405e-05
1.078072782e-05
1.050159486e-05
8.120848202e-06
5.478808951e-06
6.352177861e-06
7.160876877e-06
6.601107815e-06
7.734194366e-06
9.274893145e-06
6.832382783e-06
5.619662206e-06
1.052867401e-05
7.637476239e-06
5.105971981e-06
1.037543037e-05
1.18587656e-05
4.732602095e-06
1.130120639e-05
1.282917943e-05
1.310625034e-05
1.175856362e-05
1.307065436e-05
1.309590353e-05
1.250511126e-05
1.092585765e-05
6.720051186e-06
1.310910685e-05
1.131092445e-05
1.095243647e-05
8.638794329e-06
1.340583631e-05
1.665167038e-05
5.29013848e-06
4.278320876e-06
5.368842553e-06
1.066630717e-06
6.293262626e-06
5.414308694e-06
6.156745687e-06
6.832382835e-06
7.597422973e-06
1.052867401e-05
9.165746223e-06
6.402169075e-06
7.025510173e-06
3.705368347e-06
8.883972427e-06
1.146806408e-05
8.947386906e-06
1.540475189e-05
9.355112155e-06
1.454142564e-05
1.056415512e-05
1.065567428e-05
7.905058212e-06
1.102217912e-05
9.131321253e-06
9.851875708e-06
1.325478469e-05
1.281820661e-05
1.368613028e-05
8.893920168e-06
5.290138442e-06
3.152637228e-06
4.914855322e-06
5.179467009e-06
5.602921951e-06
5.568470946e-06
5.143253915e-06
8.088521609e-06
5.856307201e-06
6.86011473e-06
7.39708783e-06
6.402168975e-06
7.434564922e-06
8.894074273e-06
1.029467827e-05
1.330954799e-05
6.583849545e-06
9.191955559e-06
8.839791392e-06
1.436888434e-05
1.379409959e-05
1.664281254e-05
1.056958841e-05
1.093286625e-05
1.627374951e-05
1.012462318e-05
1.307130625e-05
9.474229343e-06
1.302985303e-05
4.469730644e-06
4.427929867e-06
7.107608957e-06
3.199892151e-06
2.839710515e-06
5.568470904e-06
7.325581637e-06
5.576243975e-06
3.482231607e-06
9.970247972e-06
7.074633398e-06
9.319588501e-06
8.332124207e-06
7.658951491e-06
8.468235348e-06
6.02704117e-06
9.115630107e-06
8.596123713e-06
9.955974963e-06
9.521047355e-06
1.291977732e-05
6.428086377e-06
1.46570557e-05
1.111149208e-05
1.347171388e-05
3.129529358e-06
6.305274501e-06
2.117392605e-06
2.666576773e-06
5.602921951e-06
8.506868671e-06
5.611163775e-06
7.853705005e-06
4.748151045e-06
4.785411555e-06
4.100159595e-06
6.56370563e-06
9.966375645e-06
7.08242861e-06
7.721508747e-06
4.938433403e-06
1.308357738e-05
5.701790386e-06
9.784890563e-06
3.725373801e-06
5.404004439e-06
4.76413343e-06
7.312728443e-06
6.601107815e-06
6.032820644e-06
3.819073648e-06
4.476649654e-06
6.806699967e-06
5.18483634e-06
7.557346828e-06
8.184927988e-06
7.10692752e-06
6.505905729e-06
3.725373774e-06
5.254395379e-06
5.444203477e-06
5.103541252e-06
2.225868981e-06
4.716852585e-06
3.974417872e-06
4.476649688e-06
1.005868873e-05
)
;

boundaryField
{
    flow
    {
        type            zeroGradient;
    }
    obstacle
    {
        type            calculated;
        value           nonuniform List<scalar> 
30
(
1.030946182e-23
2.834441226e-24
1e-300
1e-300
1e-300
1.284981207e-23
4.360786178e-24
1e-300
1e-300
1.976305719e-23
1.456968188e-24
6.203272867e-24
1e-300
1.370211238e-23
2.331309812e-23
1.914366922e-23
5.140554579e-24
3.163600038e-24
6.119420269e-24
1e-300
6.338379109e-24
7.519239359e-24
2.642932319e-24
1e-300
1e-300
2.178079273e-24
2.294392371e-24
6.565474742e-24
1e-300
1.17999512e-23
)
;
    }
    frontAndBack
    {
        type            empty;
    }
    procBoundary1to0
    {
        type            processor;
        value           nonuniform List<scalar> 
21
(
1.346083516e-05
1.138966334e-05
1.16863086e-05
1.213038565e-05
1.412605993e-05
7.914326123e-06
7.988042017e-06
4.73385249e-06
9.097343826e-06
3.180473627e-06
6.434663154e-06
7.914326151e-06
4.289775436e-06
5.546509006e-06
2.736396573e-06
2.218603618e-06
3.624550681e-06
5.695722499e-06
3.845698409e-06
5.251645445e-06
4.216059536e-06
)
;
    }
    procBoundary1to3
    {
        type            processor;
        value           nonuniform List<scalar> 
36
(
1.438160965e-05
9.94279159e-06
9.388436278e-06
1.226050415e-05
1.438160965e-05
1.415554471e-05
8.742526456e-06
1.012699409e-05
9.510481626e-06
1.243518749e-05
1.147090207e-05
9.94279159e-06
7.865464111e-06
8.219993106e-06
6.779917214e-06
8.017983e-06
8.765775619e-06
8.742526456e-06
6.866118337e-06
6.173740262e-06
5.343837668e-06
4.020030125e-06
6.402169025e-06
6.616455365e-06
8.219993106e-06
6.670059771e-06
4.878564933e-06
4.310146235e-06
4.342448624e-06
4.912581322e-06
3.867097212e-06
5.065581817e-06
6.173740262e-06
3.926852502e-06
4.878564933e-06
2.83070976e-06
)
;
    }
}


// ************************************************************************* //
