/*--------------------------------*- C++ -*----------------------------------*\
| =========                 |                                                 |
| \\      /  F ield         | OpenFOAM: The Open Source CFD Toolbox           |
|  \\    /   O peration     | Version:  2406                                  |
|   \\  /    A nd           | Website:  www.openfoam.com                      |
|    \\/     M anipulation  |                                                 |
\*---------------------------------------------------------------------------*/
FoamFile
{
    version     2.0;
    format      ascii;
    arch        "LSB;label=32;scalar=64";
    class       volScalarField;
    location    "0.01";
    object      rhoMMean;
}
// * * * * * * * * * * * * * * * * * * * * * * * * * * * * * * * * * * * * * //

dimensions      [1 -3 0 0 0 0 0];

internalField   nonuniform List<scalar> 
546
(
1.467274162e-05
1.476375449e-05
1.453230964e-05
1.456989842e-05
1.436620727e-05
1.436528196e-05
1.458751995e-05
1.451784336e-05
1.458574227e-05
1.438958343e-05
1.430795467e-05
1.445244197e-05
1.422412821e-05
1.445043477e-05
1.450044197e-05
1.422947756e-05
1.378686245e-05
1.406865785e-05
1.409355691e-05
1.39536721e-05
1.372151533e-05
1.393425391e-05
1.364386623e-05
1.349864231e-05
1.306254363e-05
1.275741265e-05
1.218703511e-05
1.178704052e-05
1.082543751e-05
9.021255394e-06
1.326210868e-05
1.323428966e-05
1.307956997e-05
1.314902625e-05
1.306718571e-05
1.322830989e-05
1.318121007e-05
1.314518584e-05
1.307034704e-05
1.299384978e-05
1.308646742e-05
1.322434358e-05
1.320416517e-05
1.325696886e-05
1.31568575e-05
1.300251518e-05
1.288171001e-05
1.303563924e-05
1.291673481e-05
1.275660034e-05
1.269883236e-05
1.265136781e-05
1.259214761e-05
1.231374178e-05
1.208797307e-05
1.188788082e-05
1.138368564e-05
1.076452651e-05
9.783399955e-06
8.302590407e-06
1.238786767e-05
1.252333792e-05
1.254865813e-05
1.252578002e-05
1.240266128e-05
1.238573158e-05
1.242058631e-05
1.236594328e-05
1.254272346e-05
1.243982104e-05
1.247038706e-05
1.26230183e-05
1.247946144e-05
1.246513956e-05
1.241850188e-05
1.218073522e-05
1.232666563e-05
1.238501541e-05
1.215881998e-05
1.214967029e-05
1.190316385e-05
1.18563906e-05
1.212270629e-05
1.165911943e-05
1.138147271e-05
1.112497345e-05
1.083494996e-05
1.0318742e-05
9.496233691e-06
8.36931436e-06
1.156933216e-05
1.174927945e-05
1.204419111e-05
1.207818894e-05
1.213245109e-05
1.212688846e-05
1.224884524e-05
1.215797097e-05
1.208274787e-05
1.211248222e-05
1.209741872e-05
1.208388123e-05
1.214660575e-05
1.209158939e-05
1.199911324e-05
1.19132705e-05
1.190690911e-05
1.19016042e-05
1.189631804e-05
1.183535765e-05
1.167134066e-05
1.163430215e-05
1.152242897e-05
1.137249106e-05
1.120085058e-05
1.100042924e-05
1.0621248e-05
9.936921012e-06
9.539307778e-06
8.761718199e-06
1.087653705e-05
1.106359852e-05
1.145260882e-05
1.173116394e-05
1.187463731e-05
1.182472747e-05
1.187857193e-05
1.188005708e-05
1.198458636e-05
1.196153649e-05
1.189987919e-05
1.201748995e-05
1.201774518e-05
1.199680134e-05
1.196132037e-05
1.184799531e-05
1.168500996e-05
1.169217089e-05
1.168093349e-05
1.159845366e-05
1.15169747e-05
1.135110381e-05
1.125854955e-05
1.114020277e-05
1.095225021e-05
1.084788007e-05
1.069960007e-05
1.003116822e-05
9.536796932e-06
8.826394522e-06
1.009112019e-05
1.049700413e-05
1.090605197e-05
1.117307919e-05
1.135418955e-05
1.143690839e-05
1.15848054e-05
1.170089286e-05
1.178142693e-05
1.18239818e-05
1.192396029e-05
1.190602782e-05
1.179265674e-05
1.18636048e-05
1.182661737e-05
1.182641678e-05
1.165997109e-05
1.175013744e-05
1.171938013e-05
1.161226e-05
1.147750047e-05
1.128951284e-05
1.118761919e-05
1.11460836e-05
1.097851934e-05
1.075845715e-05
1.047900035e-05
1.017807939e-05
9.735076988e-06
8.974954303e-06
9.124861182e-06
9.672954593e-06
1.004881171e-05
1.043847115e-05
1.086226621e-05
1.111488208e-05
1.12919693e-05
1.146034451e-05
1.150148773e-05
1.163582795e-05
1.173078859e-05
1.186037603e-05
1.18192863e-05
1.184039071e-05
1.183372585e-05
1.179121287e-05
1.171983222e-05
1.176351923e-05
1.169377349e-05
1.157668483e-05
1.153641045e-05
1.139247946e-05
1.123694746e-05
1.111659236e-05
1.108747615e-05
1.075573856e-05
1.052230207e-05
1.023393863e-05
9.812795643e-06
9.28510032e-06
8.2206755e-06
8.771885043e-06
9.267334287e-06
9.749117229e-06
1.009824657e-05
1.049507977e-05
1.089914372e-05
1.113783736e-05
1.129653991e-05
1.143058308e-05
1.157331867e-05
1.173676327e-05
1.16774705e-05
1.177167117e-05
1.188390602e-05
1.1920604e-05
1.194070167e-05
1.179529462e-05
1.172752643e-05
1.179358338e-05
1.172787881e-05
1.150462468e-05
1.139727666e-05
1.120570184e-05
1.113830352e-05
1.093005169e-05
1.075767436e-05
1.039746507e-05
1.013252705e-05
9.688597288e-06
7.541394852e-06
7.934786902e-06
8.449621331e-06
8.913990193e-06
9.380960056e-06
9.785167595e-06
1.022184167e-05
1.051265577e-05
1.08190024e-05
1.102634213e-05
1.121995287e-05
1.155480387e-05
1.17075803e-05
1.174848158e-05
1.17735248e-05
1.188636953e-05
1.189387324e-05
1.184534197e-05
1.180276252e-05
1.177092558e-05
1.171409827e-05
1.165449016e-05
1.15014195e-05
1.138706513e-05
1.124393442e-05
1.116584099e-05
1.089895059e-05
1.05762187e-05
1.027958179e-05
9.918969909e-06
6.804758557e-06
7.162074694e-06
7.572146648e-06
8.011380491e-06
8.5371784e-06
8.964288438e-06
9.43599095e-06
9.871555472e-06
1.025438675e-05
1.061348064e-05
1.091122252e-05
1.121491854e-05
1.132659928e-05
1.151124271e-05
1.163312889e-05
1.173407427e-05
1.178813228e-05
1.188515461e-05
1.177459536e-05
1.176887259e-05
1.181718746e-05
1.174537932e-05
1.163793551e-05
1.145729046e-05
1.1416487e-05
1.127855213e-05
1.105793629e-05
1.083800458e-05
1.048574161e-05
1.006717424e-05
6.357243578e-06
6.692289333e-06
7.035699778e-06
7.452005837e-06
7.798021374e-06
8.258104019e-06
8.70887387e-06
9.16553944e-06
9.648237776e-06
1.012484878e-05
1.048454979e-05
1.070086885e-05
1.101395379e-05
1.129732421e-05
1.143818952e-05
1.151765046e-05
1.169241111e-05
1.1817837e-05
1.182956333e-05
1.180067394e-05
1.18519552e-05
1.182982077e-05
1.172620084e-05
1.169884594e-05
1.142953786e-05
1.132240116e-05
1.118361344e-05
1.104587724e-05
1.079106339e-05
1.041447976e-05
5.950145314e-06
6.248674899e-06
6.516193007e-06
6.840631081e-06
7.221932922e-06
7.58930225e-06
8.027033557e-06
8.458131282e-06
8.940189106e-06
9.343456232e-06
9.775604628e-06
1.013917078e-05
1.050101441e-05
1.087528546e-05
1.112661322e-05
1.132161026e-05
1.1433659e-05
1.162050784e-05
1.178248535e-05
1.177157217e-05
1.182181438e-05
1.186385276e-05
1.178823449e-05
1.174639076e-05
1.162711369e-05
1.153482361e-05
1.13646953e-05
1.113471174e-05
1.103435558e-05
1.085023374e-05
5.625084406e-06
5.818535155e-06
6.085903262e-06
6.336207423e-06
6.620085873e-06
6.977074868e-06
7.363526796e-06
7.702943191e-06
8.09336978e-06
8.479941711e-06
8.901476838e-06
9.477882367e-06
9.924108718e-06
1.029692861e-05
1.066251537e-05
1.090507206e-05
1.118149264e-05
1.142086404e-05
1.156658335e-05
1.174367427e-05
1.174708281e-05
1.189948714e-05
1.188251878e-05
1.190611304e-05
1.18081549e-05
1.173508093e-05
1.159932572e-05
1.14619819e-05
1.123477008e-05
1.099570508e-05
5.366252902e-06
5.523306064e-06
5.67954602e-06
5.956628832e-06
6.212019171e-06
6.472394787e-06
6.750298393e-06
7.08841626e-06
7.454183477e-06
7.914574253e-06
8.384870963e-06
8.714870243e-06
9.11952955e-06
9.619707765e-06
1.005078179e-05
1.043524482e-05
1.07835562e-05
1.111856854e-05
1.13392709e-05
1.152910781e-05
1.165694185e-05
1.169784049e-05
1.192556991e-05
1.198740172e-05
1.1909942e-05
1.185640199e-05
1.187054233e-05
1.169281121e-05
1.150006705e-05
1.118911476e-05
5.251095952e-06
5.367138691e-06
5.50876728e-06
5.589082244e-06
5.808877852e-06
6.043817022e-06
6.274536009e-06
6.560312256e-06
6.933994599e-06
7.282762159e-06
7.66741872e-06
8.024850644e-06
8.515288717e-06
8.964563308e-06
9.404965299e-06
9.87530754e-06
1.023297295e-05
1.054794142e-05
1.093402472e-05
1.1277708e-05
1.151905453e-05
1.175225832e-05
1.18767209e-05
1.193927693e-05
1.204622014e-05
1.194058422e-05
1.198139805e-05
1.191021e-05
1.169301155e-05
1.145772528e-05
5.106466029e-06
5.142806937e-06
5.279435496e-06
5.362084464e-06
5.510040329e-06
5.683354193e-06
5.927401334e-06
6.191915793e-06
6.44211208e-06
6.706547452e-06
7.070539616e-06
7.486539304e-06
7.827951082e-06
8.267753602e-06
8.718122639e-06
9.13680928e-06
9.571260221e-06
9.94678999e-06
1.028127608e-05
1.070674588e-05
1.102905674e-05
1.131203507e-05
1.15211574e-05
1.171622886e-05
1.187106897e-05
1.193619554e-05
1.193681359e-05
1.185356024e-05
1.179256578e-05
5.047851357e-06
5.086191847e-06
5.136581156e-06
5.274281763e-06
5.361538607e-06
5.522038445e-06
5.677258468e-06
5.847729234e-06
6.043929188e-06
6.311938771e-06
6.571794388e-06
6.828004311e-06
7.151044936e-06
7.48405017e-06
7.933295166e-06
8.363025943e-06
8.89683445e-06
9.378818933e-06
9.875645875e-06
1.011828527e-05
1.053954678e-05
1.097819524e-05
1.123267395e-05
1.150159244e-05
1.156499582e-05
4.975153481e-06
5.035760137e-06
5.110677173e-06
5.162454234e-06
5.241141537e-06
5.317538953e-06
5.395880044e-06
5.513705611e-06
5.69507721e-06
5.89662788e-06
6.098800534e-06
6.366830526e-06
6.672226729e-06
7.028765563e-06
7.378728307e-06
7.760855593e-06
8.150053964e-06
8.598405076e-06
9.001984934e-06
4.942400836e-06
4.976505744e-06
5.022356793e-06
5.07269943e-06
5.125768123e-06
5.20049176e-06
5.30284991e-06
5.379207869e-06
5.507519286e-06
5.619036733e-06
5.849174719e-06
6.040523901e-06
6.257634357e-06
6.5201909e-06
4.912643217e-06
4.932950454e-06
4.947353291e-06
4.979552198e-06
5.048176277e-06
5.069762768e-06
5.140712615e-06
5.23488026e-06
4.854479143e-06
)
;

boundaryField
{
    flow
    {
        type            calculated;
        value           nonuniform List<scalar> 
15
(
9.021255394e-06
8.302590407e-06
8.36931436e-06
8.761718199e-06
8.826394522e-06
8.974954303e-06
9.28510032e-06
9.688597288e-06
9.918969909e-06
1.006717424e-05
1.041447976e-05
1.085023374e-05
1.099570508e-05
1.118911476e-05
1.145772528e-05
)
;
    }
    obstacle
    {
        type            calculated;
        value           nonuniform List<scalar> 
30
(
6.396750026e-24
6.576480672e-24
6.400506825e-24
6.562930748e-24
6.335057954e-24
6.187559403e-24
6.475600425e-24
6.262714777e-24
6.612235203e-24
6.221927173e-24
6.166366187e-24
6.502500287e-24
6.093858222e-24
6.203427638e-24
6.412399033e-24
6.046445915e-24
5.972292471e-24
6.015492393e-24
6.132407603e-24
6.238768969e-24
5.814648526e-24
5.778509711e-24
5.908937072e-24
5.943540622e-24
5.643645881e-24
5.296752638e-24
5.20130866e-24
5.237288423e-24
4.710449104e-24
4.169162947e-24
)
;
    }
    frontAndBack
    {
        type            empty;
    }
    procBoundary1to0
    {
        type            processor;
        value           nonuniform List<scalar> 
21
(
1.476193122e-05
1.31535754e-05
1.230335701e-05
1.141819763e-05
1.05344737e-05
9.494472812e-06
8.643657337e-06
7.778516887e-06
7.063601068e-06
6.444230899e-06
6.062178937e-06
5.735338384e-06
5.479718164e-06
5.290161542e-06
5.125910973e-06
5.066397967e-06
5.000950719e-06
4.933139084e-06
4.906273437e-06
4.882357558e-06
4.880060829e-06
)
;
    }
    procBoundary1to3
    {
        type            processor;
        value           nonuniform List<scalar> 
36
(
1.164935652e-05
1.169177744e-05
1.189988245e-05
1.190946535e-05
1.164935652e-05
1.186242759e-05
9.468682429e-06
9.854432846e-06
1.034135737e-05
1.067593253e-05
1.105078341e-05
1.169177744e-05
1.14080802e-05
6.826469857e-06
7.230409505e-06
7.541059576e-06
7.941745967e-06
9.468682429e-06
8.389560723e-06
5.335238902e-06
5.442322225e-06
5.524079539e-06
5.69547532e-06
5.87600462e-06
6.826469857e-06
6.101852359e-06
4.890412476e-06
4.907220222e-06
4.925800249e-06
4.974905052e-06
5.04413327e-06
5.076961882e-06
5.335238902e-06
5.139298363e-06
4.890412476e-06
4.888693994e-06
)
;
    }
}


// ************************************************************************* //
