/*--------------------------------*- C++ -*----------------------------------*\
| =========                 |                                                 |
| \\      /  F ield         | OpenFOAM: The Open Source CFD Toolbox           |
|  \\    /   O peration     | Version:  2406                                  |
|   \\  /    A nd           | Website:  www.openfoam.com                      |
|    \\/     M anipulation  |                                                 |
\*---------------------------------------------------------------------------*/
FoamFile
{
    version     2.0;
    format      ascii;
    arch        "LSB;label=32;scalar=64";
    class       volScalarField;
    location    "0.01";
    object      rhoNMean;
}
// * * * * * * * * * * * * * * * * * * * * * * * * * * * * * * * * * * * * * //

dimensions      [0 -3 0 0 0 0 0];

internalField   nonuniform List<scalar> 
546
(
3.055362864e+20
3.078646321e+20
3.029692867e+20
3.035378693e+20
2.993124682e+20
2.995335282e+20
3.038011512e+20
3.024830396e+20
3.037229499e+20
2.99388452e+20
2.977088206e+20
3.007875023e+20
2.963790242e+20
3.011433172e+20
3.021330586e+20
2.961925784e+20
2.87307034e+20
2.93192834e+20
2.934123306e+20
2.905105349e+20
2.859054106e+20
2.906413562e+20
2.843039267e+20
2.809065047e+20
2.718026521e+20
2.655073339e+20
2.536657133e+20
2.456799622e+20
2.253076995e+20
1.877216004e+20
2.762824783e+20
2.755314557e+20
2.724082531e+20
2.740369281e+20
2.723089867e+20
2.755755037e+20
2.7461193e+20
2.739266921e+20
2.720725815e+20
2.706433174e+20
2.725079812e+20
2.75344267e+20
2.749153305e+20
2.762102522e+20
2.74113934e+20
2.71116034e+20
2.684597292e+20
2.716173142e+20
2.69240844e+20
2.658308752e+20
2.646914034e+20
2.63423476e+20
2.623473637e+20
2.566517205e+20
2.517122754e+20
2.475878413e+20
2.371027759e+20
2.241829657e+20
2.037112424e+20
1.730038121e+20
2.580414723e+20
2.606971109e+20
2.614251326e+20
2.610217396e+20
2.585876869e+20
2.581076629e+20
2.587114424e+20
2.575155418e+20
2.610291507e+20
2.588887482e+20
2.597066325e+20
2.627922384e+20
2.599084551e+20
2.596956613e+20
2.586994159e+20
2.536640295e+20
2.568301085e+20
2.580964161e+20
2.533470518e+20
2.532212865e+20
2.481618269e+20
2.469787321e+20
2.525633329e+20
2.429525838e+20
2.371481134e+20
2.317036556e+20
2.257060556e+20
2.148916537e+20
1.977807553e+20
1.743969595e+20
2.410904158e+20
2.447305286e+20
2.508700443e+20
2.515711623e+20
2.525625175e+20
2.525862324e+20
2.551657465e+20
2.530935171e+20
2.516562946e+20
2.523125301e+20
2.520083935e+20
2.517335691e+20
2.530580785e+20
2.517879993e+20
2.49959689e+20
2.480836224e+20
2.478512078e+20
2.479916205e+20
2.479560839e+20
2.46356124e+20
2.430068498e+20
2.423279615e+20
2.399949455e+20
2.368895621e+20
2.333614313e+20
2.290421e+20
2.213186511e+20
2.070575286e+20
1.987291818e+20
1.825222264e+20
2.266138188e+20
2.303752943e+20
2.384434538e+20
2.443662435e+20
2.474202079e+20
2.464011126e+20
2.475275992e+20
2.475127801e+20
2.49578204e+20
2.490964759e+20
2.47774362e+20
2.502206889e+20
2.50251515e+20
2.498042646e+20
2.490672169e+20
2.467250681e+20
2.433096581e+20
2.435504313e+20
2.432112056e+20
2.415812651e+20
2.399154401e+20
2.364230201e+20
2.345733407e+20
2.320677468e+20
2.281019998e+20
2.259081111e+20
2.22737697e+20
2.088139841e+20
1.984525574e+20
1.837301914e+20
2.104075682e+20
2.188111048e+20
2.272713621e+20
2.327869925e+20
2.366525582e+20
2.38350676e+20
2.413443371e+20
2.438001712e+20
2.455864589e+20
2.463968159e+20
2.485393441e+20
2.479879696e+20
2.455583302e+20
2.470220764e+20
2.462323053e+20
2.46283979e+20
2.428623648e+20
2.448010371e+20
2.441984298e+20
2.418158382e+20
2.392267082e+20
2.351237748e+20
2.328133934e+20
2.31981402e+20
2.286273965e+20
2.239881658e+20
2.18012162e+20
2.117647164e+20
2.026583757e+20
1.869010954e+20
1.902192994e+20
2.016806455e+20
2.095034779e+20
2.176270731e+20
2.263979837e+20
2.315298115e+20
2.352478987e+20
2.387964257e+20
2.396453123e+20
2.425730983e+20
2.444602461e+20
2.471705265e+20
2.463085514e+20
2.466972402e+20
2.465972939e+20
2.455731953e+20
2.441254595e+20
2.450957496e+20
2.435859381e+20
2.410782388e+20
2.403334133e+20
2.373192364e+20
2.341293421e+20
2.315334901e+20
2.308732764e+20
2.240431019e+20
2.192787722e+20
2.131407927e+20
2.044253861e+20
1.934394891e+20
1.713927687e+20
1.829523984e+20
1.932109388e+20
2.031461278e+20
2.104741573e+20
2.18759029e+20
2.271474733e+20
2.320806235e+20
2.353223121e+20
2.381633334e+20
2.411582337e+20
2.4461571e+20
2.43440494e+20
2.452317563e+20
2.476447619e+20
2.484490969e+20
2.487508764e+20
2.456236683e+20
2.443224777e+20
2.456967129e+20
2.443001924e+20
2.39615451e+20
2.375422496e+20
2.335005298e+20
2.320438498e+20
2.276247991e+20
2.240209346e+20
2.165977629e+20
2.109091199e+20
2.017043527e+20
1.572863312e+20
1.654309672e+20
1.762467531e+20
1.859401126e+20
1.955533703e+20
2.040484107e+20
2.130608993e+20
2.191290572e+20
2.255371743e+20
2.298409828e+20
2.338787978e+20
2.407505445e+20
2.439594996e+20
2.448548471e+20
2.452898351e+20
2.476450523e+20
2.477647985e+20
2.467897068e+20
2.4588343e+20
2.452458119e+20
2.44095152e+20
2.427787216e+20
2.394921036e+20
2.372133547e+20
2.343414485e+20
2.327886034e+20
2.27102931e+20
2.203316304e+20
2.141411083e+20
2.06507721e+20
1.417867481e+20
1.493694668e+20
1.578664192e+20
1.671215354e+20
1.780741396e+20
1.86922894e+20
1.967779175e+20
2.056998179e+20
2.137263748e+20
2.212039915e+20
2.27320771e+20
2.338083743e+20
2.360440541e+20
2.39806242e+20
2.423524259e+20
2.44489377e+20
2.456604897e+20
2.477148479e+20
2.453071185e+20
2.45138953e+20
2.461482053e+20
2.446400885e+20
2.424743875e+20
2.386002675e+20
2.378150712e+20
2.350216732e+20
2.304399064e+20
2.257408409e+20
2.183102323e+20
2.095789107e+20
1.325821181e+20
1.395635216e+20
1.46767183e+20
1.554528245e+20
1.626310325e+20
1.721936461e+20
1.816471125e+20
1.91116596e+20
2.011625065e+20
2.110370339e+20
2.185113689e+20
2.230571616e+20
2.295134456e+20
2.355412125e+20
2.384025513e+20
2.400507605e+20
2.437213685e+20
2.463386665e+20
2.465812063e+20
2.460146893e+20
2.470051776e+20
2.464643382e+20
2.443466733e+20
2.437350828e+20
2.381744092e+20
2.35875898e+20
2.330424182e+20
2.300173057e+20
2.247770338e+20
2.168551885e+20
1.241604317e+20
1.303451661e+20
1.359434375e+20
1.42701427e+20
1.506500286e+20
1.583213712e+20
1.674502467e+20
1.764435114e+20
1.864276035e+20
1.948606919e+20
2.038387221e+20
2.114275038e+20
2.190718481e+20
2.267259917e+20
2.319952496e+20
2.360935613e+20
2.383945182e+20
2.421588761e+20
2.455397106e+20
2.454048001e+20
2.463532457e+20
2.472120634e+20
2.456144741e+20
2.447064614e+20
2.421570992e+20
2.402349183e+20
2.3675633e+20
2.319667471e+20
2.297816741e+20
2.259832902e+20
1.173113606e+20
1.212827451e+20
1.268454785e+20
1.320511766e+20
1.379433237e+20
1.453922361e+20
1.534645783e+20
1.605786138e+20
1.687209384e+20
1.768109173e+20
1.856389197e+20
1.976602873e+20
2.06972384e+20
2.147665515e+20
2.222680536e+20
2.273675572e+20
2.331159494e+20
2.381456603e+20
2.410894487e+20
2.446619884e+20
2.447917727e+20
2.479889637e+20
2.475884025e+20
2.480253383e+20
2.459737221e+20
2.444785708e+20
2.417922813e+20
2.389645985e+20
2.342471812e+20
2.291826855e+20
1.119025468e+20
1.151695677e+20
1.184874696e+20
1.24298032e+20
1.295908261e+20
1.34992105e+20
1.407014783e+20
1.477854824e+20
1.554564289e+20
1.650443387e+20
1.748517017e+20
1.817457611e+20
1.902043347e+20
2.005878065e+20
2.096584477e+20
2.176308326e+20
2.248664414e+20
2.31723488e+20
2.363238954e+20
2.402780823e+20
2.428543803e+20
2.437306162e+20
2.486261837e+20
2.497873112e+20
2.482386534e+20
2.471099147e+20
2.474047225e+20
2.436885655e+20
2.395538522e+20
2.33179795e+20
1.094864163e+20
1.119559125e+20
1.148400909e+20
1.164829558e+20
1.210395704e+20
1.259892168e+20
1.308622315e+20
1.368179165e+20
1.445369207e+20
1.518991081e+20
1.598958159e+20
1.674099988e+20
1.776252245e+20
1.870091445e+20
1.961738707e+20
2.058701374e+20
2.133588097e+20
2.199349889e+20
2.279919319e+20
2.351643983e+20
2.401888304e+20
2.450669857e+20
2.476499204e+20
2.488752946e+20
2.510534862e+20
2.487771659e+20
2.496857317e+20
2.482531134e+20
2.438133046e+20
2.388606448e+20
1.063703466e+20
1.071376868e+20
1.099837476e+20
1.117691362e+20
1.149103986e+20
1.184697317e+20
1.235643405e+20
1.290852851e+20
1.343299699e+20
1.398130868e+20
1.47409174e+20
1.560609517e+20
1.632013062e+20
1.723865405e+20
1.817593196e+20
1.905227579e+20
1.996121728e+20
2.073802352e+20
2.144550707e+20
2.232663469e+20
2.299603686e+20
2.357919593e+20
2.401260061e+20
2.443098151e+20
2.475580851e+20
2.488513225e+20
2.48773881e+20
2.470280699e+20
2.457609635e+20
1.051835931e+20
1.059964103e+20
1.070626573e+20
1.099524232e+20
1.117441226e+20
1.150953939e+20
1.183713371e+20
1.21991126e+20
1.260223718e+20
1.315699968e+20
1.369705576e+20
1.42337663e+20
1.490430425e+20
1.559760957e+20
1.653048338e+20
1.742705142e+20
1.854843169e+20
1.955456053e+20
2.058620853e+20
2.109199992e+20
2.197371584e+20
2.288953449e+20
2.342015568e+20
2.397335446e+20
2.410436894e+20
1.036917394e+20
1.049771705e+20
1.065298924e+20
1.076494176e+20
1.093359038e+20
1.109316168e+20
1.125236389e+20
1.149158884e+20
1.186894773e+20
1.229282016e+20
1.271201987e+20
1.327284301e+20
1.390540372e+20
1.465161611e+20
1.538626927e+20
1.618746534e+20
1.699256329e+20
1.792287807e+20
1.876759687e+20
1.030994844e+20
1.03797474e+20
1.047562931e+20
1.057799473e+20
1.06865284e+20
1.083816512e+20
1.105196502e+20
1.121113307e+20
1.147882912e+20
1.171229718e+20
1.219710944e+20
1.259473089e+20
1.305138179e+20
1.359949285e+20
1.023838422e+20
1.028369924e+20
1.031284044e+20
1.037774342e+20
1.051989454e+20
1.056873057e+20
1.071898411e+20
1.091175972e+20
1.012284969e+20
)
;

boundaryField
{
    flow
    {
        type            calculated;
        value           nonuniform List<scalar> 
15
(
1.877216004e+20
1.730038121e+20
1.743969595e+20
1.825222264e+20
1.837301914e+20
1.869010954e+20
1.934394891e+20
2.017043527e+20
2.06507721e+20
2.095789107e+20
2.168551885e+20
2.259832902e+20
2.291826855e+20
2.33179795e+20
2.388606448e+20
)
;
    }
    obstacle
    {
        type            calculated;
        value           nonuniform List<scalar> 
30
(
133.3413065
137.0352925
133.5946783
136.7478776
132.1543546
129.0785632
134.6404087
130.4056965
137.8371406
129.3387237
128.3101345
135.2372913
127.0536638
129.2234509
133.7133274
126.039688
124.3281699
125.4678664
127.5059954
130.0986018
121.1293191
120.5075555
123.2993397
123.7825712
117.2142869
110.1589152
108.2490599
109.4155303
98.05435924
86.68985179
)
;
    }
    frontAndBack
    {
        type            empty;
    }
    procBoundary1to0
    {
        type            processor;
        value           nonuniform List<scalar> 
21
(
3.073819414e+20
2.739781714e+20
2.563242154e+20
2.379353276e+20
2.195798459e+20
1.980040259e+20
1.802119917e+20
1.621772075e+20
1.474073026e+20
1.342653834e+20
1.264506071e+20
1.196380113e+20
1.142752347e+20
1.10291012e+20
1.069014177e+20
1.055518154e+20
1.041554447e+20
1.028169778e+20
1.023337051e+20
1.017658024e+20
1.01785846e+20
)
;
    }
    procBoundary1to3
    {
        type            processor;
        value           nonuniform List<scalar> 
36
(
2.428235645e+20
2.437369651e+20
2.479895272e+20
2.482279413e+20
2.428235645e+20
2.471243263e+20
1.974268533e+20
2.054761949e+20
2.156536444e+20
2.226014108e+20
2.303975148e+20
2.437369651e+20
2.377606237e+20
1.423680507e+20
1.507869316e+20
1.572794371e+20
1.656284398e+20
1.974268533e+20
1.748859884e+20
1.112207435e+20
1.134433641e+20
1.150983574e+20
1.187391649e+20
1.225122839e+20
1.423680507e+20
1.27221862e+20
1.019691712e+20
1.023064926e+20
1.026603392e+20
1.036666519e+20
1.05060876e+20
1.057490363e+20
1.112207435e+20
1.070886682e+20
1.019691712e+20
1.018633756e+20
)
;
    }
}


// ************************************************************************* //
