/*--------------------------------*- C++ -*----------------------------------*\
| =========                 |                                                 |
| \\      /  F ield         | OpenFOAM: The Open Source CFD Toolbox           |
|  \\    /   O peration     | Version:  2406                                  |
|   \\  /    A nd           | Website:  www.openfoam.com                      |
|    \\/     M anipulation  |                                                 |
\*---------------------------------------------------------------------------*/
FoamFile
{
    version     2.0;
    format      ascii;
    arch        "LSB;label=32;scalar=64";
    class       volScalarField;
    location    "0.01";
    object      rhoN;
}
// * * * * * * * * * * * * * * * * * * * * * * * * * * * * * * * * * * * * * //

dimensions      [0 -3 0 0 0 0 0];

internalField   nonuniform List<scalar> 
546
(
4.374610912e+20
3.502930276e+20
2.618281203e+20
2.981978342e+20
2.542265458e+20
3.376665624e+20
3.989201383e+20
3.310606695e+20
3.098070844e+20
3.002290934e+20
1.936663927e+20
2.684142979e+20
3.197662347e+20
3.09958538e+20
2.999906256e+20
4.410890814e+20
2.41436618e+20
4.484755824e+20
3.747316921e+20
2.215409329e+20
2.891624311e+20
3.049251089e+20
4.145775739e+20
2.968101312e+20
2.450045941e+20
2.609368195e+20
2.217260726e+20
2.796903031e+20
2.681562447e+20
1.851831666e+20
2.916407277e+20
2.372952767e+20
3.073634455e+20
2.752595393e+20
2.888938021e+20
3.493102373e+20
2.933236311e+20
2.482955022e+20
2.383131418e+20
2.882199295e+20
1.694580936e+20
2.806149478e+20
2.951688318e+20
3.223568793e+20
2.999906253e+20
3.276661748e+20
3.685085223e+20
2.562717612e+20
2.196703021e+20
2.345727527e+20
2.234436969e+20
2.651522688e+20
2.540959326e+20
2.833187616e+20
3.538955248e+20
1.510686851e+20
1.801524341e+20
1.817986972e+20
1.693618388e+20
2.421626024e+20
2.804237764e+20
2.937941522e+20
2.50444289e+20
2.408520969e+20
2.888938023e+20
2.67804515e+20
2.229259594e+20
2.837662882e+20
2.263974849e+20
2.28174111e+20
2.662912898e+20
2.806149478e+20
3.197662345e+20
3.099585378e+20
1.749945316e+20
2.898585392e+20
2.668509989e+20
2.818989373e+20
2.196703023e+20
2.345727527e+20
2.234436965e+20
2.518946552e+20
1.604816416e+20
1.753878048e+20
3.130614258e+20
2.060027522e+20
2.771575907e+20
2.796903031e+20
1.129078925e+20
1.994280257e+20
2.01905119e+20
2.372952766e+20
2.618281203e+20
2.523212445e+20
1.502247771e+20
2.445171659e+20
3.285224668e+20
2.719426928e+20
3.098070844e+20
2.161649473e+20
1.936663927e+20
2.31812348e+20
2.828701305e+20
2.107718058e+20
2.624917974e+20
2.142432681e+20
2.287294276e+20
2.818989373e+20
2.067485196e+20
2.085091135e+20
2.1029995e+20
2.253794285e+20
2.540959324e+20
2.023705438e+20
2.450045941e+20
3.021373699e+20
2.217260728e+20
1.817986973e+20
2.258157852e+20
1.424485893e+20
2.243390211e+20
2.033959513e+20
4.212017584e+20
2.867286865e+20
2.426707937e+20
2.678045152e+20
1.877271239e+20
4.256494323e+20
2.502287989e+20
4.083115668e+20
2.541871405e+20
2.562136482e+20
2.705714294e+20
2.603651719e+20
3.12490235e+20
3.780763555e+20
2.9226538e+20
2.050174093e+20
2.325920848e+20
3.1276367e+20
2.497311902e+20
1.988642013e+20
2.006020519e+20
1.753878048e+20
1.633363963e+20
1.510686847e+20
2.217260718e+20
1.957832128e+20
1.975888121e+20
2.136728851e+20
2.467729236e+20
1.581968513e+20
3.073634458e+20
1.032223273e+20
3.235610586e+20
3.260228881e+20
3.519883573e+20
2.482955022e+20
2.978914273e+20
1.441099647e+20
1.57353944e+20
2.31812348e+20
2.582727276e+20
2.107718055e+20
2.749914066e+20
3.276661748e+20
2.795581893e+20
2.17830997e+20
1.938267373e+20
3.127636705e+20
2.760186844e+20
1.856065885e+20
2.540959339e+20
2.69827392e+20
2.313932261e+20
2.472033026e+20
3.18731231e+20
1.957832125e+20
2.540427574e+20
2.564074597e+20
1.458203637e+20
2.259955015e+20
2.504442888e+20
1.949755068e+20
2.195592896e+20
1.979424678e+20
1.525282882e+20
1.773539301e+20
2.025661706e+20
2.521924385e+20
2.420829911e+20
3.538188475e+20
3.197662347e+20
3.471535626e+20
1.999937502e+20
2.394483583e+20
2.033150468e+20
2.690853492e+20
3.101227807e+20
3.38827312e+20
1.840124575e+20
3.579555647e+20
2.006020524e+20
2.428446545e+20
2.858386966e+20
1.922692371e+20
1.247209165e+20
2.237522429e+20
8.468091991e+19
1.709383096e+20
1.233864616e+20
1.920961764e+20
2.049089638e+20
1.376297697e+20
2.195592896e+20
2.095861422e+20
2.229259596e+20
2.837662882e+20
3.455540559e+20
2.041557835e+20
3.268120375e+20
2.31812348e+20
2.459740265e+20
2.479668304e+20
2.124933603e+20
2.016407234e+20
1.27071904e+20
2.050174079e+20
2.325920836e+20
3.127636689e+20
1.70868708e+20
1.85606586e+20
2.674694009e+20
2.158619132e+20
2.450045928e+20
2.334697838e+20
1.801524317e+20
1.398451505e+20
2.399292709e+20
2.27917742e+20
1.458203638e+20
1.807964013e+20
1.935251322e+20
2.179138019e+20
2.080035376e+20
2.561608407e+20
1.877271239e+20
2.246483115e+20
3.574697127e+20
2.762107658e+20
3.026037379e+20
2.440129983e+20
2.090779229e+20
2.851618554e+20
1.874941411e+20
2.772559923e+20
2.668509985e+20
2.690853501e+20
2.455138671e+20
2.606363908e+20
2.497311907e+20
1.590913621e+20
2.674694032e+20
2.698273915e+20
1.905591277e+20
1.922692354e+20
3.048733514e+20
1.957832125e+20
1.552483518e+20
2.421626031e+20
2.01905119e+20
1.694966261e+20
1.024544818e+20
1.94975507e+20
1.964477854e+20
1.397240948e+20
1.994600688e+20
2.246483118e+20
2.144818275e+20
2.521924375e+20
3.631244878e+20
2.196116981e+20
2.951688306e+20
2.85161855e+20
2.374925778e+20
2.772559945e+20
2.033150481e+20
2.56271762e+20
1.809049547e+20
1.694136554e+20
1.445812157e+20
2.784098813e+20
1.337347016e+20
2.833187611e+20
3.266727933e+20
2.884038531e+20
1.662945538e+20
2.237522429e+20
1.411348652e+20
2.706523186e+20
1.458203637e+20
1.016979755e+20
1.366059752e+20
1.376297693e+20
1.617805292e+20
2.095861427e+20
2.463918512e+20
1.064123585e+20
2.14481828e+20
2.041557831e+20
1.936663917e+20
2.074110482e+20
2.213766247e+20
1.983734643e+20
1.999937513e+20
1.764356329e+20
1.524862836e+20
2.306445839e+20
3.876534743e+20
2.215409322e+20
2.1029995e+20
2.518946567e+20
2.407224629e+20
2.698273915e+20
1.633363952e+20
1.785357186e+20
2.355839534e+20
2.097677277e+20
1.975888131e+20
2.564074644e+20
2.243390219e+20
1.355973016e+20
1.479898079e+20
1.261606224e+20
1.50224777e+20
1.047930707e+20
1.290623967e+20
1.65530333e+20
1.787348553e+20
1.441099656e+20
2.17874694e+20
2.196116998e+20
2.705714302e+20
2.231701474e+20
2.874910152e+20
2.646534493e+20
2.668510006e+20
2.818989382e+20
2.584356495e+20
3.127636689e+20
2.365874418e+20
2.916674922e+20
2.674693986e+20
2.428446524e+20
2.041704976e+20
2.06002754e+20
1.801524349e+20
1.817986973e+20
2.68156244e+20
2.564074597e+20
1.233864613e+20
2.146957252e+20
1.138383129e+20
4.587658998e+19
1.50224777e+20
1.397240953e+20
1.994600706e+20
1.537067401e+20
1.906505138e+20
2.281741105e+20
1.936663917e+20
1.586084474e+20
2.21376623e+20
2.231701474e+20
2.249929685e+20
2.394483569e+20
1.779006656e+20
1.922038215e+20
2.325920846e+20
2.60636393e+20
1.840124578e+20
2.253794296e+20
2.54095933e+20
1.753878045e+20
2.313932265e+20
2.472033005e+20
1.940103128e+20
2.936748187e+20
2.258157844e+20
2.136728831e+20
1.682542654e+20
1.129977509e+20
1.366059755e+20
1.490989163e+20
1.386690249e+20
1.630114433e+20
1.994600676e+20
1.418831437e+20
1.191565711e+20
2.161649468e+20
1.573539432e+20
1.09805849e+20
2.21376623e+20
2.479668284e+20
9.999687487e+19
2.394483589e+20
2.668509985e+20
2.690853479e+20
2.455138671e+20
2.736682103e+20
2.760186821e+20
2.651522679e+20
2.273489927e+20
1.349136958e+20
2.722273253e+20
2.334697858e+20
2.217260718e+20
1.817986957e+20
2.822697305e+20
3.418766161e+20
1.12169511e+20
9.039820138e+19
1.138383137e+20
2.293829499e+19
1.271132738e+20
1.164367461e+20
1.290623977e+20
1.418831447e+20
1.549035424e+20
2.161649468e+20
1.936663932e+20
1.342071499e+20
1.475844165e+20
7.439004912e+19
1.874941419e+20
2.394483589e+20
1.90607856e+20
3.203397025e+20
1.938267388e+20
2.997318519e+20
2.234436969e+20
2.253794296e+20
1.604816419e+20
2.293532828e+20
1.905591294e+20
2.06002754e+20
2.771575922e+20
2.657057884e+20
2.82269733e+20
1.851831671e+20
1.121695102e+20
6.779865006e+19
1.024544816e+20
1.032223275e+20
1.155575207e+20
1.164367461e+20
1.05596508e+20
1.655303355e+20
1.19156572e+20
1.441099656e+20
1.573539432e+20
1.342071478e+20
1.598831166e+20
1.859751228e+20
2.124933591e+20
2.772559945e+20
1.397790956e+20
1.922038215e+20
1.809049547e+20
2.997318519e+20
2.891624337e+20
3.446979512e+20
2.139755226e+20
2.293532828e+20
3.402841567e+20
2.060027504e+20
2.771575897e+20
1.957832125e+20
2.68156244e+20
8.973560819e+19
9.039820073e+19
1.479898079e+20
6.881488497e+19
5.777876037e+19
1.164367452e+20
1.52528287e+20
1.182359522e+20
7.149394211e+19
2.041557846e+20
1.45249796e+20
1.952103998e+20
1.721818192e+20
1.611784398e+20
1.74994531e+20
1.26025451e+20
1.90607856e+20
1.793902334e+20
2.067485196e+20
1.954772931e+20
2.628749353e+20
1.325761328e+20
3.075898111e+20
2.293532848e+20
2.858386966e+20
6.730170662e+19
1.355973011e+20
4.553532483e+19
5.734573705e+19
1.155575207e+20
1.746551192e+20
1.173294533e+20
1.655303355e+20
9.532525688e+19
9.607330968e+19
8.472904636e+19
1.342071488e+20
2.090779234e+20
1.487800982e+20
1.62494923e+20
1.008203624e+20
2.795581889e+20
1.15322292e+20
2.067485196e+20
7.851865773e+19
1.129977509e+20
1.024544824e+20
1.490989174e+20
1.386690249e+20
1.280804198e+20
8.213061608e+19
9.458876244e+19
1.429878853e+20
1.080824734e+20
1.573539445e+20
1.708090985e+20
1.475844153e+20
1.363817567e+20
7.851865717e+19
1.129977501e+20
1.138383129e+20
1.032223275e+20
4.622300864e+19
9.314939689e+19
8.21306167e+19
9.458876315e+19
2.13122071e+20
)
;

boundaryField
{
    flow
    {
        type            zeroGradient;
    }
    obstacle
    {
        type            calculated;
        value           nonuniform List<scalar> 
30
(
221.7088564
53.35920982
1e-300
1e-300
1e-300
276.3400445
93.78034791
1e-300
1e-300
425.0119826
31.33264919
133.4037176
1e-300
278.6245867
501.3569487
402.7942759
110.5495608
68.03440942
126.2069278
1e-300
136.3092282
141.5519458
56.83725417
1e-300
1e-300
46.84041447
49.34177141
141.1930052
1e-300
245.1405413
)
;
    }
    frontAndBack
    {
        type            empty;
    }
    procBoundary1to0
    {
        type            processor;
        value           nonuniform List<scalar> 
21
(
2.783833088e+20
2.338419794e+20
2.449773118e+20
2.561126441e+20
2.895186414e+20
1.670299854e+20
1.670299853e+20
1.002179912e+20
1.8930065e+20
6.681199412e+19
1.336239882e+20
1.67029986e+20
8.908265883e+19
1.113533227e+20
5.567666177e+19
4.454132941e+19
7.794732648e+19
1.224886559e+20
7.794732703e+19
1.113533235e+20
8.908265883e+19
)
;
    }
    procBoundary1to3
    {
        type            processor;
        value           nonuniform List<scalar> 
36
(
2.991420391e+20
2.06002754e+20
1.940103145e+20
2.517212732e+20
2.991420391e+20
2.96383217e+20
1.824454736e+20
2.1029995e+20
1.988642026e+20
2.54095933e+20
2.428446524e+20
2.06002754e+20
1.633363952e+20
1.74994531e+20
1.386279961e+20
1.651934752e+20
1.793902334e+20
1.824454736e+20
1.421396072e+20
1.310722282e+20
1.080824734e+20
8.472904636e+19
1.342071488e+20
1.352857151e+20
1.74994531e+20
1.363817567e+20
1.016979766e+20
9.1070651e+19
9.175317996e+19
1.040017687e+20
8.150572227e+19
1.05596508e+20
1.310722282e+20
8.276516776e+19
1.016979766e+20
5.608475512e+19
)
;
    }
}


// ************************************************************************* //
