/*--------------------------------*- C++ -*----------------------------------*\
| =========                 |                                                 |
| \\      /  F ield         | OpenFOAM: The Open Source CFD Toolbox           |
|  \\    /   O peration     | Version:  2406                                  |
|   \\  /    A nd           | Website:  www.openfoam.com                      |
|    \\/     M anipulation  |                                                 |
\*---------------------------------------------------------------------------*/
FoamFile
{
    version     2.0;
    format      ascii;
    arch        "LSB;label=32;scalar=64";
    class       volScalarField;
    location    "0.01";
    object      translationalT;
}
// * * * * * * * * * * * * * * * * * * * * * * * * * * * * * * * * * * * * * //

dimensions      [1 2 -2 0 0 0 0];

internalField   nonuniform List<scalar> 
546
(
931.922083
911.1762872
898.8929752
880.6047749
871.1020475
861.7059397
852.4096358
837.7447941
828.0925654
825.261639
815.4550197
810.3894733
805.0576493
806.7066855
794.0507393
782.325662
783.4637174
773.9401804
770.6964739
767.1956494
772.4587023
754.397133
760.3601219
768.3155872
762.7858767
758.4632446
760.6244201
745.7782107
742.8618587
729.4946229
1020.798
1005.380393
997.6519979
988.5855239
976.7417207
956.2243951
944.9461713
937.9347864
931.7333771
921.3404513
901.7973703
899.0887031
896.9641293
896.6945409
891.2761701
870.6105667
865.6052258
864.6671968
854.9778065
851.7814892
844.2523586
844.9291676
838.3022882
834.0625564
829.5102171
821.0564221
810.5079767
803.8502533
780.3929532
723.016284
1035.254555
1025.873361
1016.388479
1014.819912
1004.45987
985.8194836
984.1485001
979.5919519
960.0765378
962.8479983
950.4935821
949.7345309
940.8617513
935.4494338
931.1506943
920.9659736
912.4360772
908.2248246
897.2374938
898.0086083
890.6529087
890.0428178
873.888916
874.9446644
865.3441638
853.579877
840.0916298
815.3532276
793.1044973
738.8159086
1027.834778
1016.103089
1013.091127
1001.172789
1000.361397
995.6049424
980.4743934
973.1191892
969.721035
973.9048241
966.0307406
964.8420125
957.4627329
946.7870845
945.041665
936.5993984
931.5128061
929.4284945
922.6909474
921.7867097
913.1377518
906.6521189
904.9079377
895.5877668
884.0274572
871.299239
851.784465
831.3152262
794.4423134
748.7484589
1005.56196
994.8901812
995.9933883
987.9770719
980.1408456
970.1099476
965.0670729
957.7944273
961.1710833
956.7621845
957.1512624
959.5241074
952.8654537
950.9285616
938.4451041
943.9031527
942.5038675
940.3290348
937.0813136
927.6868618
913.6647183
916.8978239
915.2160034
904.98922
899.2522605
883.1879756
866.9591789
831.5359811
803.458018
753.2631919
979.1371673
972.9889065
969.9776497
969.7573235
958.4777355
943.3930426
948.3937367
944.9958569
941.0167654
931.8934486
934.6563493
942.2258746
940.564788
942.1930405
931.4810309
933.6164012
922.0991019
928.4029035
924.9498266
925.6217851
916.9710179
913.6302556
907.5264363
898.9018907
897.9849223
881.3219434
859.4036604
836.6838783
810.8560739
768.7642731
954.7726945
957.0405994
951.7527146
940.5267619
936.8879956
930.8939767
929.7387657
926.6321815
924.0332511
925.1811993
920.9370132
923.6803262
917.409086
913.4391872
921.1526918
917.1026185
921.1132876
918.72352
918.6466363
916.1899914
912.3428392
900.723332
898.4774202
888.8633461
881.1367303
861.9865004
853.2085111
843.6463435
815.368085
775.4472418
905.6807076
921.830377
919.1426048
920.62613
914.3176717
914.0392735
916.0982137
905.5119978
902.6990784
902.3056013
898.9662527
900.5829958
895.4799189
897.6708579
897.6574562
899.8904324
903.7733553
897.4591287
898.4128708
901.0951261
896.6711079
892.9660262
886.8134284
875.7663249
874.1113721
864.0790351
853.862091
828.148036
807.7218037
777.8518126
857.0888028
874.8275741
884.1778979
890.5980772
894.4783231
897.1112647
892.5098331
889.0290308
887.695121
883.8119461
878.0298319
889.979224
883.2834143
877.9102871
878.5536279
890.9493252
885.1851601
882.304795
872.4084785
881.3895295
872.2270427
871.8381138
868.5225999
865.2269608
864.5339864
859.8432692
843.8705536
833.0667524
813.3753315
781.8927987
793.7822528
818.5781528
845.9077639
861.0458338
868.0129812
866.9710353
862.2879586
871.6798405
869.9179791
872.1017756
870.2013119
874.3789694
863.0353878
868.6679105
866.7133495
864.2465095
864.2496444
861.8206184
858.2772295
854.868797
861.2514635
859.2132905
853.5726839
854.5523181
858.3135901
849.0386498
835.1884987
822.2179479
806.8993195
790.2309292
714.3108009
753.5803092
784.8505147
811.8617627
823.2851454
841.5323417
839.3615893
844.6481822
849.8650659
852.0810514
856.7972283
851.0474634
851.4085528
856.550975
849.6030856
847.2937825
847.0297309
854.3695152
848.9044058
841.8452743
851.6331553
847.5061315
851.556503
847.7350794
838.3461612
839.5998181
830.0031259
811.218447
796.2595333
777.3192639
655.9243952
699.5790579
723.928703
749.8685229
771.1783411
792.3686961
813.1009304
819.2509226
830.2113687
832.3145346
831.6610369
834.7007462
836.3502143
840.5698913
843.0950987
833.2387668
831.279868
836.443672
840.2026389
832.6148452
835.3034277
837.3967324
837.5262582
833.2767666
826.0939557
825.9656892
821.0288661
807.5984767
792.8985506
776.3318851
588.9520832
624.7934294
663.6016783
694.2440574
718.8898324
751.8311441
769.2705905
780.7411769
797.6376407
811.9100563
816.7284531
820.5556753
817.2257896
821.8459768
828.7064572
824.8535719
822.0605927
826.4229572
821.8556126
821.47813
823.7465404
826.9091042
823.4224734
828.5821829
817.736072
811.3844467
805.9740733
804.6878592
792.6387358
774.1769187
528.5222578
561.8495408
592.1341576
624.9541801
670.586975
700.0879792
715.2665168
737.85536
756.131204
774.8555421
790.6856791
798.7209868
803.4059483
810.2892672
813.6461487
809.6916204
817.0751321
808.6711682
809.2475539
805.4580678
804.4797112
809.8265277
807.6356834
805.4516015
803.4195181
796.1157079
800.6625778
795.3503296
782.1699371
766.1028617
473.1006251
498.8050098
532.9943369
556.4684913
598.64088
629.682547
652.6538551
689.5044922
711.6469161
731.0681935
752.4499124
770.1454987
778.4318276
781.5875289
785.1871552
790.1554424
791.5435741
790.741067
789.851321
793.141735
790.0706348
790.6063751
793.7896697
793.8866955
794.6477341
783.1335302
783.3157497
786.3868001
777.5584756
760.3721574
435.2944467
459.8785095
487.3678859
507.7964494
538.8466856
572.1287123
602.3066461
633.0790625
660.3415012
677.5233624
700.5385645
726.2640827
735.042192
748.5404821
767.5071068
770.4766009
781.1085196
778.1535587
783.8818538
782.4646654
779.6523053
781.7685334
782.7225467
778.6482052
782.903628
776.4963582
771.0820591
768.9441299
760.9800878
406.733626
417.7415682
436.6847326
462.6989025
492.780688
520.1256862
546.5042322
575.1596328
605.7334549
637.9704343
664.5066574
688.5973816
703.1981382
718.1568705
741.3558352
750.1454185
760.772174
766.6713595
771.4709282
768.7151127
769.8944565
774.2649872
768.7275256
774.6950796
768.7413886
382.3086283
391.5707489
412.6482906
430.302948
449.1913227
472.6913257
494.7029601
528.0231892
550.5572474
589.8720415
612.5157564
633.7913681
658.3934672
684.0371134
706.1698265
723.8404594
738.2676559
748.8340365
754.8523712
361.413006
374.3464544
380.5488642
399.8179265
422.6755607
441.7569601
458.4803392
478.0671546
508.3745911
530.080411
562.6790036
586.8593698
608.8488312
632.3884041
349.3784092
352.4396161
359.5535259
372.6938521
394.6989595
415.1913306
420.2343193
436.3708757
334.2203805
)
;

boundaryField
{
    flow
    {
        type            calculated;
        value           nonuniform List<scalar> 
15
(
729.4946229
723.016284
738.8159086
748.7484589
753.2631919
768.7642731
775.4472418
777.8518126
781.8927987
790.2309292
777.3192639
776.3318851
774.1769187
766.1028617
760.3721574
)
;
    }
    obstacle
    {
        type            calculated;
        value           nonuniform List<scalar> 
30
(
793.6291125
807.2676684
776.6517426
780.1578925
758.7468346
768.5468676
748.0275107
752.0566852
709.7978609
726.8948868
730.5307898
710.5279902
722.7005985
719.3773231
714.867501
717.1029276
711.8716527
695.1257972
689.0219336
693.633787
707.5471855
700.690415
679.6274889
707.4440007
704.5303483
715.6243545
718.7084956
696.5220559
706.8424242
719.3635342
)
;
    }
    frontAndBack
    {
        type            empty;
    }
    procBoundary1to0
    {
        type            processor;
        value           nonuniform List<scalar> 
21
(
945.7214634
1042.518115
1048.180823
1046.838333
1016.149055
987.9459183
951.1091209
900.2113441
835.3636976
765.2422495
683.6634855
612.2043449
557.6218919
494.6951806
453.4493531
418.1819197
386.9236582
366.4984173
350.1226149
334.5364603
332.0441535
)
;
    }
    procBoundary1to3
    {
        type            processor;
        value           nonuniform List<scalar> 
36
(
753.6283759
771.0206389
767.1568029
761.8252129
753.6283759
751.5501181
756.7884191
764.022268
771.1779177
764.2375335
766.7441769
771.0206389
766.7315653
657.7252614
690.0381153
704.716736
725.2746245
756.7884191
732.8026276
464.5045576
487.1766503
511.6417914
544.289394
566.1468295
657.7252614
590.7784871
338.3864756
347.2351249
354.7240676
370.0232795
388.6850417
397.8020086
464.5045576
410.3212034
338.3864756
327.4263386
)
;
    }
}


// ************************************************************************* //
