/*--------------------------------*- C++ -*----------------------------------*\
| =========                 |                                                 |
| \\      /  F ield         | OpenFOAM: The Open Source CFD Toolbox           |
|  \\    /   O peration     | Version:  2406                                  |
|   \\  /    A nd           | Website:  www.openfoam.com                      |
|    \\/     M anipulation  |                                                 |
\*---------------------------------------------------------------------------*/
FoamFile
{
    version     2.0;
    format      ascii;
    arch        "LSB;label=32;scalar=64";
    class       volVectorField;
    location    "0.01";
    object      UMean;
}
// * * * * * * * * * * * * * * * * * * * * * * * * * * * * * * * * * * * * * //

dimensions      [0 1 -1 0 0 0 0];

internalField   nonuniform List<vector> 
546
(
(372.4988425 103.4057029 -1.356087481)
(351.0299787 102.4293695 0.2153549033)
(342.9236729 95.53677279 0.8652779091)
(329.5783355 91.26591063 0.6534979021)
(323.6823945 90.85324098 -6.547688201)
(311.2727896 87.56514772 -5.746936884)
(303.8138639 81.89391842 -2.049230928)
(297.5822976 82.51992633 -2.5665792)
(284.558732 81.28946995 4.207127377)
(277.6214853 75.98256102 0.02785021118)
(272.2279972 75.82738895 4.108268063)
(266.5866983 71.81197217 -4.014227193)
(259.0111367 73.62288136 -0.1996631088)
(252.850318 68.15402194 2.394972077)
(243.6411971 67.19697124 1.481502637)
(241.9884285 68.02594563 -4.780478336)
(241.6348797 66.11091961 -5.713204665)
(236.603613 63.07678071 2.463838089)
(229.3027986 63.73436236 -0.3038344711)
(226.7646998 61.5647222 3.062619242)
(230.7971123 60.08588051 -2.46369918)
(228.3582776 62.35495308 3.690509377)
(226.5323584 62.81526008 7.460311897)
(233.2101697 58.75466354 7.381987673)
(241.1949173 63.09674935 2.911811852)
(243.6801597 67.33020748 5.163421116)
(252.5700172 66.44386472 3.926329223)
(268.0439094 68.06705805 6.575162418)
(302.6839314 75.37936193 7.274420421)
(397.9513067 75.45385962 -0.7134984439)
(635.0878368 197.2943587 -6.785302486)
(614.2264098 188.2778671 -4.212111533)
(598.171771 179.8504147 1.306452487)
(572.7084306 173.4591641 2.243035708)
(561.2380522 163.7371451 1.890761527)
(544.4292043 155.0430321 -1.084699999)
(523.3730061 150.0645611 1.34071253)
(509.7280502 148.3308051 -5.508667032)
(499.0602067 149.4915076 -5.231529883)
(494.4407954 140.7529204 -2.699787188)
(478.958292 138.5356032 -1.94211732)
(458.3268632 134.3369426 -2.918871908)
(448.2033189 129.9270623 -1.822790603)
(435.6209614 122.3331416 5.855896709)
(426.0904928 121.4271442 6.979469411)
(422.8866072 122.7593058 3.171902048)
(416.6935574 117.80854 0.02516076084)
(398.9872844 111.205139 0.6847424061)
(396.8505937 112.1681037 2.924719709)
(394.0869227 108.5221722 6.000374235)
(389.73298 105.4654686 7.257995855)
(380.1689545 104.9538441 9.707768265)
(382.6421952 103.0707737 2.367571928)
(384.0889045 98.79988245 5.672155708)
(385.2981007 106.0789961 1.047356647)
(390.3984245 104.9080234 0.9720246133)
(409.644789 107.8898609 10.41636955)
(430.7539914 103.9643911 8.623547898)
(484.2424182 112.9754083 2.916563391)
(599.6850394 89.91776286 3.481224683)
(835.9275949 268.5173121 -6.821687633)
(814.9422093 258.7432249 -6.08118756)
(791.6546329 254.6957411 -5.320609333)
(770.3698238 240.7992332 -4.867579818)
(751.1279557 227.8618599 -0.001899962422)
(724.8578675 223.5306821 -5.061426665)
(704.0584362 217.6560138 -6.962135734)
(689.0120388 206.630233 -10.20057084)
(670.691977 200.7555942 -2.811968462)
(656.2176442 195.2010313 -1.143936045)
(637.8713203 192.0748394 -3.449633368)
(617.6342109 187.8356161 1.064382583)
(605.8142788 179.7613895 7.103121588)
(586.4102113 175.4432547 5.510806345)
(575.4089146 173.499106 4.226638234)
(576.6211073 167.97767 6.946337025)
(561.076189 161.3919087 -0.2123015891)
(547.7696419 158.6399545 0.4346300797)
(540.7487009 159.9474996 3.894429466)
(531.3772117 149.1174483 3.543060042)
(527.766382 150.452076 2.060331174)
(525.4006299 142.6448888 3.047952648)
(506.9940793 142.406201 4.914491363)
(510.7806368 141.2712921 2.617531882)
(514.0630489 141.4932417 0.8158967726)
(516.4580954 140.4874907 4.586265573)
(529.7214101 138.3113453 2.996697176)
(566.1835932 135.5526685 4.554533259)
(618.3150343 135.6885816 3.370874499)
(713.3454097 103.283947 3.480550874)
(988.4484087 316.5457091 0.7522110476)
(970.1048863 312.3823171 -1.210066995)
(939.7204087 310.0910762 -2.549133657)
(919.7046768 302.2292857 -3.605451598)
(900.3163816 288.7999521 -2.402603114)
(887.2311483 277.3042612 -1.84953461)
(859.5534573 271.1557167 -0.3314355976)
(842.9285859 263.792446 1.287955027)
(818.8000862 258.6067937 -1.546688233)
(797.8977705 249.2671564 -0.04230023951)
(781.3194563 240.4244177 -0.3808639302)
(758.207144 238.2700777 0.2408299374)
(741.957888 229.6111967 -1.836122103)
(729.8360512 226.5905848 -2.681637782)
(716.860238 217.4960462 2.003643064)
(706.6806413 207.8285955 1.625630703)
(694.9603129 207.1673961 7.649760599)
(677.1863143 204.9328486 3.357370241)
(664.2269652 199.8393728 0.725303114)
(652.7360698 191.6482002 -0.1044266354)
(651.5115995 186.3035366 6.309122494)
(633.9752325 179.4939101 6.089611504)
(627.5069729 181.5688463 -0.7570936162)
(627.3722534 180.1103875 6.531364297)
(632.0129325 175.0542702 0.8361648747)
(635.4315013 174.869841 -0.4874021692)
(643.9878834 166.871502 0.6765861931)
(685.4084603 159.4814484 0.5851921269)
(721.4199054 154.9752024 1.852432214)
(786.9903949 132.0977572 3.831332671)
(1096.385351 345.9709274 2.022828459)
(1080.583339 344.3945594 3.059173602)
(1056.105543 344.8014949 1.397273296)
(1034.621152 337.364333 0.5169160943)
(1013.935657 326.1169167 0.6308616734)
(1001.721832 322.3735892 -1.055763064)
(981.3909534 322.9357141 5.306399133)
(964.8329219 313.6122752 0.9243732749)
(941.1166499 304.3030493 -4.382879601)
(922.7198179 294.7474427 -1.293147616)
(902.2001335 291.2980062 -2.953396986)
(881.7855315 279.663373 1.68741114)
(867.2262803 273.1840922 1.055278299)
(847.1405872 267.0174208 1.2129473)
(833.3322992 262.2099041 0.1772458696)
(816.3465262 253.4096663 -0.3132903917)
(801.335231 246.8591043 4.315339778)
(782.1669101 244.0860611 7.130306283)
(769.7373359 233.7241868 1.096441206)
(759.7418796 230.798674 3.022863072)
(755.3155067 222.8417527 2.65494454)
(743.3779305 220.9947398 -1.851826467)
(738.8474412 215.0938092 0.5017110224)
(737.4771679 214.4053574 2.343358287)
(736.3105764 207.1253692 9.396767546)
(737.3997162 204.9403184 2.187487062)
(747.423821 197.9434931 0.1165386382)
(777.1179541 188.540511 0.8882811284)
(802.4504887 171.4904269 2.018713167)
(856.4991721 159.8351951 -0.8563366189)
(1184.491246 351.396329 0.1913025765)
(1162.700442 356.8982741 0.9742129496)
(1145.274799 355.5846929 3.447616752)
(1125.397791 362.0968651 2.371339794)
(1106.560154 362.0832836 0.9891447958)
(1093.139652 360.8136006 3.602395492)
(1075.258514 352.5456609 2.766713957)
(1057.150674 343.1278708 1.939178837)
(1038.829022 337.1059293 0.03442726501)
(1024.381969 337.4222796 2.665510358)
(1006.576345 329.5222183 -1.3719253)
(984.9968022 321.1026864 0.5641657364)
(969.5751629 314.5413744 2.520531873)
(947.8468504 308.7362713 2.153165317)
(933.5871314 299.8998332 -0.08265546925)
(914.0057508 293.023475 1.242654456)
(906.8171008 289.207704 2.620616152)
(887.4051657 279.197072 4.876008222)
(874.0574629 273.6953888 2.225196556)
(861.0938239 265.274394 -0.502680139)
(843.9562474 260.9429774 -3.983531921)
(844.7831642 254.9866106 -1.846684744)
(837.3920508 246.497087 -5.487227455)
(825.9646664 244.0649161 1.338720593)
(824.4084756 236.9540819 3.467949265)
(830.4169083 230.8510756 6.016160079)
(835.8498729 228.2625803 -4.735839687)
(852.1375669 215.6323907 -3.929202874)
(876.2268803 200.8882495 3.762811424)
(924.1021067 192.1647687 -4.750495568)
(1266.834769 335.5192457 -2.480765858)
(1241.380987 351.5750228 -1.193191995)
(1217.256311 363.5700534 -4.281672639)
(1195.476317 372.0061096 -2.438545111)
(1176.092462 375.1953963 -1.501170896)
(1168.132789 377.7089105 -2.881526439)
(1151.936073 377.2113298 0.9119897496)
(1134.662503 373.9972388 -0.07219845171)
(1126.570055 366.7532321 2.608869158)
(1107.130267 360.1962315 4.500729375)
(1085.237015 362.4739614 4.443773653)
(1060.804382 353.2394056 -0.6489016208)
(1054.267381 347.0634485 -0.07515679197)
(1037.056555 342.3972487 4.132700757)
(1012.842185 337.2664973 -0.3262068709)
(1003.374609 330.1165771 1.46427684)
(987.6341208 317.8984643 -1.241651671)
(968.0909258 309.0951477 -3.900822194)
(956.8806676 304.4479088 -0.492448381)
(942.0582967 302.7441731 -4.784324389)
(935.2369532 291.1169195 1.791187024)
(930.6220634 287.3434486 1.655523651)
(922.3986226 279.8282529 2.668434174)
(921.1790475 271.2760325 2.92240877)
(911.9637124 270.671241 2.010481239)
(916.2832658 262.0754795 5.946267545)
(919.8562435 257.7434902 5.658896209)
(929.8622973 243.5519153 6.462581199)
(948.2125227 235.030993 4.284907688)
(982.3735939 218.2657092 3.577606179)
(1336.552237 309.6485891 -2.894270411)
(1307.037912 332.3905403 -1.735458562)
(1289.891005 351.7687901 -0.4905306977)
(1271.951811 364.6692779 -2.608852714)
(1253.91662 371.4101511 -4.63282712)
(1230.307317 383.6681252 -1.34079214)
(1213.046871 385.8771236 -2.060455956)
(1202.302332 385.2366724 1.995297579)
(1187.791943 389.1584033 2.505265206)
(1172.09017 385.0717353 -1.624388404)
(1154.632498 381.1761301 0.4185722054)
(1135.147789 381.2807834 2.844384208)
(1126.799792 375.0679942 1.627756121)
(1107.631947 370.5225596 1.605178583)
(1094.130908 361.7015113 0.1081626788)
(1079.111884 357.9666835 1.490538858)
(1059.489974 347.8359067 4.324411514)
(1050.263662 342.7655962 3.714417962)
(1039.844947 337.2920098 2.703887915)
(1023.107271 329.3591974 -2.284393907)
(1013.392363 322.4280349 -0.5185519641)
(1009.036919 317.8561909 1.060615319)
(995.4453374 307.6977382 -1.391243515)
(991.9894268 297.5220871 -3.152794842)
(977.4725733 295.9119937 -1.714501419)
(975.5563596 289.092791 1.28438567)
(979.9631943 281.7525223 -4.261167735)
(997.1288163 266.7554724 -1.283739472)
(1009.91555 262.0021044 -1.492715651)
(1031.510621 241.1710349 -0.9561224749)
(1406.544497 275.2099791 0.136035939)
(1380.000367 302.9732111 0.9132699381)
(1354.572964 325.4547321 2.175553971)
(1327.461825 346.1830949 -0.9019435761)
(1311.756116 362.2003194 2.182346646)
(1286.748183 370.5429722 -2.372195756)
(1266.677509 382.8830987 -4.620420656)
(1256.191493 390.8998227 -2.303208463)
(1242.19223 399.7581298 -2.172439259)
(1230.829475 397.6856599 1.332740018)
(1220.391838 399.7661218 0.920824514)
(1195.104091 396.3183308 7.037099121)
(1182.340125 391.5128122 3.672905223)
(1172.874006 389.612211 -2.491621027)
(1160.390691 384.459686 -0.5358629461)
(1138.189903 380.0924889 0.5905364855)
(1127.365606 379.1585997 -4.129036747)
(1116.76219 367.9477849 -1.61512961)
(1104.307585 359.7498295 2.171083243)
(1086.980137 356.5167033 2.52766578)
(1072.830892 350.307069 -1.377151068)
(1067.044463 344.7276355 1.790053902)
(1057.56511 336.3517226 -2.184139188)
(1055.014147 328.3597804 -1.497615484)
(1045.981774 321.405641 -1.403575503)
(1041.84321 312.3072102 -3.360955654)
(1044.261067 302.9886385 -2.055678115)
(1053.613972 295.4700238 -3.486205875)
(1060.016403 285.0633744 -3.456166631)
(1083.191734 270.6958301 -0.6758226606)
(1467.825005 235.814341 2.571280377)
(1440.751589 261.7306234 4.302815004)
(1414.10893 293.3449419 2.55065399)
(1390.245303 313.9809456 3.371059842)
(1364.388677 339.5253088 3.243163994)
(1348.877649 359.0567344 0.7240858669)
(1331.295613 369.233555 1.942225358)
(1310.246065 384.6048226 -0.7427828398)
(1294.109728 389.6734169 -3.830669777)
(1278.683832 397.6373769 -5.025843526)
(1265.810731 398.0378674 0.122414805)
(1248.813105 403.6657329 -0.9650040685)
(1240.584517 405.4882987 2.14718217)
(1220.567197 407.0481027 1.444019503)
(1207.843176 402.3441447 0.6059737857)
(1198.196886 400.0261745 -0.487444464)
(1189.666717 398.2895239 -1.977817645)
(1170.488243 394.0840168 -4.117817667)
(1165.415921 386.8235597 -7.444336438)
(1155.471871 381.5234266 -3.73422089)
(1135.19524 374.5765535 -6.109899516)
(1124.158207 366.2676398 0.9743744711)
(1120.383208 362.1515438 2.599158217)
(1114.882063 353.0181783 1.042443573)
(1103.003036 342.0836769 1.491937259)
(1096.076036 337.9218341 -0.8070880189)
(1095.320126 332.2794211 1.37918539)
(1099.821437 320.5514496 4.913528793)
(1104.718873 306.5271271 4.00352847)
(1116.405777 295.9197706 1.537593251)
(1523.832029 195.2787879 -3.056155717)
(1494.163136 226.6061527 -0.6361405004)
(1468.7319 249.4026904 -1.98891075)
(1446.640049 279.4744818 -2.8904179)
(1424.80658 299.2396057 1.692637262)
(1399.531784 324.8891155 6.070232218)
(1382.322365 346.1138506 3.303734467)
(1360.872726 361.7911594 4.448572228)
(1342.423773 375.8563507 0.5080061088)
(1323.038781 387.1019186 -3.617301871)
(1306.895973 396.1811482 -4.4918734)
(1296.539092 406.6646824 -6.326795104)
(1284.051233 412.0217237 -3.414138992)
(1264.195474 414.2242561 -0.6556852478)
(1253.868504 412.0552966 -0.6488727837)
(1247.893937 408.5572217 2.305735521)
(1235.156338 412.41709 5.118364398)
(1220.147991 408.1176033 3.709277102)
(1208.447542 406.0025487 -0.4460115913)
(1203.87592 399.2286419 2.734191608)
(1183.987255 393.7173792 0.3846676959)
(1176.380299 390.2529588 -4.145584577)
(1167.765816 382.5181792 -1.993502177)
(1154.944262 373.3569925 0.8074629129)
(1154.458425 370.5384876 1.81496379)
(1150.234537 360.299166 2.868663293)
(1142.274621 352.513271 2.411167663)
(1141.981051 341.8452455 4.34783405)
(1148.993699 334.9752082 -0.2293909259)
(1158.280789 321.6527436 -1.32536564)
(1566.667929 155.7387198 3.101074527)
(1538.212132 184.3459043 0.8562413185)
(1518.503152 209.849351 2.18579653)
(1496.851178 235.1717101 2.707965899)
(1478.767693 265.2667119 -2.99428769)
(1453.741653 291.1070841 -3.42847734)
(1428.352893 312.6978062 2.214292912)
(1408.733223 327.00445 3.185686159)
(1390.407298 350.8614782 4.245198974)
(1370.856448 369.2996213 -0.07689531277)
(1357.402419 388.0729344 -5.499398781)
(1337.858965 397.3696579 -4.359980799)
(1324.094568 406.9337018 -3.184355412)
(1310.785498 412.1476571 -0.3190544843)
(1300.237584 419.465586 4.184309184)
(1289.746929 418.0918073 3.010237807)
(1279.004849 420.5355441 2.264613376)
(1263.651545 419.6010195 4.045685911)
(1250.429399 417.8800454 1.898182369)
(1242.382107 415.5657597 -1.786483177)
(1231.076981 412.3299189 3.239472599)
(1218.576961 408.2969798 3.798551477)
(1210.110227 402.8363925 2.664428365)
(1201.395198 393.7846259 1.9761166)
(1196.821774 386.3295781 4.473747042)
(1191.085968 382.0727677 2.112737328)
(1189.43089 373.4976076 -0.3506796934)
(1187.801965 364.0014658 -0.4278479101)
(1183.622186 352.7729067 4.370326784)
(1192.415497 340.5075796 3.602282392)
(1609.594256 118.4593546 -3.473058671)
(1591.541894 142.1885412 -5.62357451)
(1568.30282 172.436727 -4.917378677)
(1540.751232 196.7124859 -1.436783859)
(1521.468209 223.0951899 -2.207014441)
(1494.834606 251.1215132 -3.996358219)
(1472.298506 273.5252346 -6.0928267)
(1456.981713 297.5035433 -4.1366563)
(1436.870781 325.2059918 -3.176870971)
(1415.081599 344.5581448 0.8487903501)
(1399.62393 362.5845659 3.505223633)
(1377.606603 378.4983629 -1.673271993)
(1363.032516 390.7106832 -2.537111351)
(1348.031599 404.556005 -2.172660267)
(1330.976339 413.2309817 1.473387718)
(1325.209767 419.4272258 3.155520696)
(1310.950317 421.8868164 0.3153805571)
(1297.088458 424.448049 0.9977201231)
(1291.069571 426.7535089 3.504414749)
(1280.064012 424.6437565 4.427799662)
(1275.195366 421.5631616 1.610845731)
(1259.770044 420.6348504 1.164954959)
(1252.944965 416.4095028 -1.33518573)
(1242.38114 411.0954858 3.806250634)
(1238.314384 404.4790944 2.513393828)
(1228.858406 399.4303917 -1.098962912)
(1225.646747 395.3340209 2.963147479)
(1221.508352 381.2320287 4.373386895)
(1226.818055 367.7056643 4.679962429)
(1233.587793 360.670134 7.432864422)
(1638.750471 96.63932444 -2.311225228)
(1621.863692 113.0426113 -2.03815123)
(1603.733261 130.8484802 3.193701438)
(1586.002308 154.3114277 -2.596034152)
(1564.502594 183.4256605 -2.374105651)
(1543.909839 207.0106696 -1.089503699)
(1523.621128 234.8199315 -2.156848973)
(1499.391803 265.808917 -4.3307712)
(1477.041121 286.3046413 -1.920778931)
(1454.526244 309.96768 -1.192753702)
(1433.809641 328.9958838 -2.35141615)
(1419.688232 349.8687337 1.434395496)
(1402.144532 369.4385966 -0.1425535121)
(1380.795058 384.4079932 -5.108861236)
(1362.310829 401.0828003 -4.786187738)
(1357.524653 409.4040211 -1.282837848)
(1345.875508 415.2956348 -2.364823186)
(1335.564373 419.6258253 -0.6596856369)
(1327.931445 429.5643459 -0.07302979378)
(1317.354132 430.4304287 2.221354004)
(1309.603658 429.3954909 2.21927888)
(1297.045864 428.9825513 3.400303139)
(1284.280691 427.0726578 3.156691286)
(1271.284957 421.2953031 -2.197440649)
(1270.183556 419.1922563 2.799756582)
(1267.951842 412.4032483 1.138415019)
(1258.835323 405.8653198 -2.167944447)
(1256.435977 398.5775582 -1.283260578)
(1258.537023 387.7073901 -1.196914272)
(1265.995833 374.5382061 -0.2909321899)
(1666.757957 69.10951005 -1.712001408)
(1655.427219 85.52711768 -1.581269351)
(1637.551699 100.5547 -3.328671884)
(1623.75618 119.3093884 -0.4508428583)
(1602.436437 148.5294011 1.605477042)
(1579.693118 173.6290227 -1.214569257)
(1561.827828 195.725956 -0.0123818708)
(1539.498761 223.1227386 -1.702378152)
(1517.724276 245.0931231 -0.9150137185)
(1495.924219 267.1602155 -1.610748825)
(1474.881064 297.5621321 -0.03810919968)
(1455.556072 320.4122564 1.363351946)
(1436.775206 339.1401455 -1.47490797)
(1422.637695 359.3320927 -0.9843888143)
(1408.513524 372.4641414 -2.088463512)
(1392.722331 389.5022012 -3.960730244)
(1380.504914 403.7010282 -1.077694843)
(1369.690252 414.0397919 -1.676161527)
(1357.147397 420.1981316 -4.322942923)
(1343.660259 424.7245627 -1.775139482)
(1335.162763 427.7550494 -1.206062793)
(1326.434293 429.2953469 1.432879937)
(1317.556046 430.7964501 1.853554555)
(1310.369093 430.3715983 3.198742756)
(1298.072653 427.9711273 0.6235350266)
(1298.457475 421.7556132 1.641078927)
(1288.394067 418.5813267 2.58509256)
(1282.228778 411.7460683 3.040445128)
(1283.701861 405.7431625 0.9986291826)
(1289.037359 397.6864879 -1.401119238)
(1676.862934 52.95272966 2.184322046)
(1667.067538 63.60309662 0.526375082)
(1655.848099 81.79065395 1.79289512)
(1643.914046 99.12718704 -1.197228692)
(1630.364174 113.0803174 -1.010771949)
(1612.042364 135.5190446 2.177739814)
(1593.728095 155.3700353 2.329577222)
(1574.565269 177.5290353 2.924049184)
(1556.507352 204.5364433 -0.2423121498)
(1541.989808 226.9423814 1.604170028)
(1521.780899 254.0625117 2.874146279)
(1500.757671 280.3289439 -3.531723974)
(1486.127091 303.6059481 -1.494336652)
(1468.070406 326.5034999 2.245540052)
(1441.795248 349.1029392 -0.4104068635)
(1424.033104 367.3017029 0.3711786877)
(1406.460213 383.3695504 1.823686265)
(1395.021955 397.7034003 0.02024091149)
(1385.241214 406.5369007 -0.9854643435)
(1373.208615 416.6683122 -4.101061176)
(1364.54766 427.0829432 -3.771304461)
(1351.314195 433.0840111 -3.574436833)
(1343.345904 434.1127218 -2.251858899)
(1331.069579 436.3846853 -1.114890483)
(1328.380302 431.5783542 3.045246169)
(1321.464065 432.4548801 2.442526249)
(1313.622907 429.7744803 3.461913215)
(1312.060748 425.7775682 0.3259499446)
(1307.480236 422.8661984 1.709387195)
(1694.346021 43.70813295 3.328216661)
(1689.530573 53.10632305 1.238129629)
(1681.976905 61.53398449 1.285623804)
(1667.925818 72.68998608 1.59205625)
(1656.653011 88.54206161 1.012158017)
(1642.374801 104.8254102 0.8209083433)
(1629.968404 124.7258889 0.21050275)
(1616.267946 142.4680146 -1.506372702)
(1597.64653 167.4754742 -2.456076206)
(1576.736117 191.3027775 -1.59164632)
(1556.121816 214.3438148 -2.743173992)
(1537.831301 238.4567262 -2.892720958)
(1519.727473 267.9440204 -7.048012211)
(1505.028107 289.4174412 -3.449683612)
(1479.645713 318.7157127 -2.050265362)
(1464.468831 337.4919788 -5.071599039)
(1445.98453 356.309347 -6.250976512)
(1427.700807 373.5798764 -2.664579969)
(1414.105659 387.5860256 -0.6914060442)
(1406.989241 401.0383944 -0.7547006288)
(1394.320287 413.0054929 -3.298585771)
(1376.765445 420.0753092 -2.630174824)
(1371.142249 427.754464 -0.5545083748)
(1359.799327 434.2590761 -0.0728140127)
(1358.041375 437.9283475 -2.804044038)
(1701.929977 34.03848048 -1.978792689)
(1696.215478 38.67269766 -2.326759028)
(1687.968836 47.25985777 -1.417749745)
(1682.249504 56.71371168 -1.105752442)
(1671.900494 67.23374729 -0.01134272066)
(1664.551904 79.05407891 -1.83854206)
(1656.25336 92.25048866 -1.130044428)
(1640.486986 114.4584781 -1.071262478)
(1627.808152 128.8968374 -0.1596211739)
(1609.403124 157.9867238 -2.884881006)
(1593.878256 180.7084194 -0.9879217053)
(1575.32863 201.8156223 0.2689430186)
(1558.700359 227.8341896 -0.456214782)
(1538.768772 253.0371456 -4.017004353)
(1518.168145 275.6044295 -6.623496165)
(1498.786714 300.77658 -2.921875303)
(1482.056148 320.8731685 -3.358441288)
(1463.804738 345.9847872 -1.95954297)
(1448.258949 366.6017194 5.468922207)
(1709.513509 24.2171527 -1.321479379)
(1703.036022 27.98103194 -0.5051727108)
(1703.310717 32.8248761 -1.963606487)
(1696.378497 42.01221158 -1.984844845)
(1687.705296 53.8978599 -2.484364658)
(1677.777552 61.22478199 -2.15132027)
(1668.9692 76.14711698 -1.396603279)
(1660.081028 89.5661714 -2.997749437)
(1644.907098 105.5375044 -0.9845489137)
(1633.295922 121.1806092 -0.1486631765)
(1620.38731 143.2599754 1.15079666)
(1604.995638 167.2954483 0.7586390039)
(1589.782291 184.9308647 1.726435534)
(1569.698984 209.7971908 1.929388252)
(1719.540784 15.62368362 -3.635431971)
(1718.847791 19.47895905 -3.35799265)
(1714.057715 27.28417328 -1.838488171)
(1704.908329 32.56594215 -2.91395254)
(1698.27945 42.95836427 -0.3771646931)
(1689.239621 52.47438731 0.8290023884)
(1684.569234 58.31046283 -0.1738845944)
(1676.909078 67.516947 0.6805195064)
(1724.37773 13.9959384 2.377948876)
)
;

boundaryField
{
    flow
    {
        type            calculated;
        value           nonuniform List<vector> 
15
(
(397.9513067 75.45385962 -0.7134984439)
(599.6850394 89.91776286 3.481224683)
(713.3454097 103.283947 3.480550874)
(786.9903949 132.0977572 3.831332671)
(856.4991721 159.8351951 -0.8563366189)
(924.1021067 192.1647687 -4.750495568)
(982.3735939 218.2657092 3.577606179)
(1031.510621 241.1710349 -0.9561224749)
(1083.191734 270.6958301 -0.6758226606)
(1116.405777 295.9197706 1.537593251)
(1158.280789 321.6527436 -1.32536564)
(1192.415497 340.5075796 3.602282392)
(1233.587793 360.670134 7.432864422)
(1265.995833 374.5382061 -0.2909321899)
(1289.037359 397.6864879 -1.401119238)
)
;
    }
    obstacle
    {
        type            calculated;
        value           nonuniform List<vector> 
30
(
(198.2861331 53.13060933 -4.087545672)
(172.005006 46.08860254 -0.7947349677)
(185.4626798 49.69457512 5.193008372)
(184.0131948 49.30618704 -1.866137907)
(162.8119922 43.62534169 -6.980922926)
(168.4650705 45.14007967 -1.227956906)
(157.6307981 42.23704514 1.749583791)
(156.0902661 41.82426061 -7.582434262)
(169.5313889 45.42579882 5.631887995)
(152.6125205 40.89240171 -16.96858451)
(162.7562614 43.61040868 1.298131101)
(135.4848367 36.30305265 9.759906512)
(152.1282495 40.76264167 2.508833677)
(145.792674 39.06502914 -3.622363888)
(119.6838626 32.06919439 12.54597666)
(137.6831911 36.89209976 -13.01131697)
(124.1107337 33.25537094 2.076136699)
(135.7959646 36.38641912 -4.755030843)
(133.7885449 35.84853244 -11.57491493)
(146.7597474 39.32415587 20.03523188)
(132.1165639 35.40052668 -2.666917212)
(132.5412234 35.51431366 1.731490616)
(130.9767225 35.09510708 -1.449493662)
(134.913385 36.14993263 0.4196637712)
(142.9695947 38.30858732 7.520530099)
(141.3935263 37.88628125 3.471194299)
(143.4275592 38.43129853 7.099612724)
(166.2465794 44.54563677 -0.4403811975)
(183.2715183 49.10745541 8.09049626)
(211.924813 56.78508231 7.841646162)
)
;
    }
    frontAndBack
    {
        type            empty;
    }
    procBoundary1to0
    {
        type            processor;
        value           nonuniform List<vector> 
21
(
(386.4281886 112.524612 -4.113113409)
(664.5053876 201.2266176 2.022061931)
(854.4616356 277.112409 -2.206427658)
(1008.749262 324.8611276 -1.710760261)
(1111.308366 343.8103843 0.8086601433)
(1214.63914 337.8576294 -0.6620928556)
(1292.42065 315.7977431 -0.9638081923)
(1357.397155 286.9200899 0.1628434105)
(1432.945711 245.7963634 -1.405189756)
(1499.157803 205.8026097 0.5739526766)
(1547.195429 170.3407167 -0.0453167004)
(1592.220149 131.7212338 1.683604912)
(1623.770959 101.7330955 -3.773255454)
(1657.0013 74.93383725 -1.435619381)
(1676.929468 60.08711887 0.8667416174)
(1684.042764 41.97245091 -0.8656880866)
(1704.142404 34.57711273 2.945882126)
(1707.104435 25.37558323 -0.5366781339)
(1716.186677 19.17333453 -4.557061331)
(1722.881138 14.26780023 -2.476124372)
(1723.864118 11.94849921 2.86753079)
)
;
    }
    procBoundary1to3
    {
        type            processor;
        value           nonuniform List<vector> 
36
(
(1308.071903 414.0273327 -0.4534492688)
(1349.060282 437.5263681 -1.293028619)
(1339.984547 438.8029919 -0.09831508145)
(1333.302183 433.2703315 -0.5333475767)
(1308.071903 414.0273327 -0.4534492688)
(1335.742617 427.9760657 -0.2115998213)
(1432.022933 380.5949499 2.708990554)
(1420.888158 391.7589611 0.2588340717)
(1407.236352 409.6459661 -2.553855544)
(1397.977513 417.0668621 -4.60779392)
(1386.22952 430.6244913 -0.9743615161)
(1349.060282 437.5263681 -1.293028619)
(1369.979694 434.9961864 -4.523838339)
(1552.093218 238.5452742 0.9022102686)
(1530.651779 262.0710864 -1.317739469)
(1514.336525 287.282683 1.344664797)
(1496.100974 309.1096289 -4.557655854)
(1432.022933 380.5949499 2.708990554)
(1474.652878 330.2829149 -3.624891467)
(1666.298287 82.38392007 1.317542826)
(1657.859007 94.38206281 0.4661565824)
(1645.896055 113.7916508 1.846806449)
(1633.617445 131.9694456 5.466352178)
(1624.740794 155.1361216 4.874363417)
(1552.093218 238.5452742 0.9022102686)
(1606.567531 174.6165967 -1.567370631)
(1722.449936 16.97987737 2.461072027)
(1717.001729 20.36643041 2.256603849)
(1714.487303 26.05264365 2.895149625)
(1709.768259 31.29652304 2.082888045)
(1703.875871 39.02416923 0.6225408709)
(1701.684428 46.39617353 1.588587396)
(1666.298287 82.38392007 1.317542826)
(1694.009513 55.34574766 2.834968314)
(1722.449936 16.97987737 2.461072027)
(1725.842292 11.91762912 -0.4135009117)
)
;
    }
}


// ************************************************************************* //
