/*--------------------------------*- C++ -*----------------------------------*\
| =========                 |                                                 |
| \\      /  F ield         | OpenFOAM: The Open Source CFD Toolbox           |
|  \\    /   O peration     | Version:  2406                                  |
|   \\  /    A nd           | Website:  www.openfoam.com                      |
|    \\/     M anipulation  |                                                 |
\*---------------------------------------------------------------------------*/
FoamFile
{
    version     2.0;
    format      ascii;
    arch        "LSB;label=32;scalar=64";
    class       volScalarField;
    location    "0.005";
    object      dsmcRhoNMean;
}
// * * * * * * * * * * * * * * * * * * * * * * * * * * * * * * * * * * * * * //

dimensions      [0 -3 0 0 0 0 0];

internalField   nonuniform List<scalar> 
654
(
16.8496
17.5264
17.7288
17.4216
17.208
17.2628
15.0712
15.5824
16.0132
16.5108
17.0112
17.2748
17.3176
17.322
17.5816
17.4412
17.168
11.2252
11.776
12.2252
12.6408
13.2816
13.91
14.5104
14.9704
15.4276
15.9464
16.4112
16.8424
16.9356
16.9648
17.014
16.844
9.2836
9.4036
9.444
9.7164
9.9208
10.2004
10.3856
10.844
11.3516
11.858
12.4332
12.8708
13.4724
13.9728
14.4432
14.8944
15.3768
15.9084
16.3668
16.5876
16.6092
16.8368
8.9828
8.9264
8.8248
8.9296
9.0252
9.0192
9.124
9.0944
9.2452
9.3728
9.4936
9.6132
9.82
10.1312
10.3764
10.6828
11.0756
11.4684
12.0008
12.5736
13.122
13.5952
14.0804
14.6288
15.1216
15.516
15.9224
16.2384
16.3928
9.0024
8.9756
9.038
9.0236
8.9936
8.9468
8.9588
8.9888
9.014
9.0824
9.0908
9.2272
9.3828
9.5144
9.672
9.8908
10.0432
10.3132
10.6396
10.9088
11.4688
11.966
12.6584
13.0672
13.59
14.2168
14.634
15.1392
15.3592
15.8152
9.0668
8.9304
8.89
8.87
8.8744
8.8168
8.8188
8.8512
8.8804
9.03
9.0404
9.0636
9.1076
9.2368
9.2912
9.404
9.5244
9.6244
9.9168
10.2732
10.4964
10.9964
11.5136
12.1128
12.7384
13.1136
13.7732
14.326
14.8388
15.0728
9.0916
9.1336
9.0672
9.0008
9.0132
8.9308
8.8068
8.774
8.6808
8.5956
8.58
8.6836
8.7288
8.7644
8.8976
8.986
9.1728
9.3644
9.4032
9.6548
10.0496
10.3416
10.5652
11.1744
11.6656
12.0024
12.5776
13.0696
13.6532
14.1128
9.0804
9.0372
9.0508
8.9472
8.8164
8.7704
8.7512
8.724
8.7152
8.724
8.6356
8.6344
8.5728
8.5044
8.5164
8.6456
8.7744
8.912
9.1572
9.3444
9.4428
9.7596
10.076
10.248
10.6652
11.25
11.7016
12.234
12.8308
13.3852
8.9048
8.7968
8.7636
8.6628
8.7588
8.7224
8.756
8.648
8.5956
8.5048
8.5228
8.4608
8.4384
8.4648
8.5248
8.4876
8.5436
8.7216
8.8308
8.9196
9.1248
9.2936
9.6592
10.0052
10.2996
10.7148
11.098
11.5088
11.87
12.2908
8.9548
8.9336
8.9148
8.7844
8.724
8.6248
8.4904
8.5024
8.538
8.5688
8.4536
8.3484
8.3832
8.3608
8.3036
8.292
8.278
8.3768
8.4288
8.612
8.7208
8.8788
9.092
9.3856
9.5836
9.9024
10.3372
10.7136
11.2732
11.8272
9.0096
8.824
8.7
8.7108
8.6572
8.6632
8.6176
8.5544
8.4172
8.3068
8.3936
8.4236
8.3636
8.2836
8.294
8.3776
8.3352
8.2884
8.41
8.384
8.5944
8.6708
8.7364
8.8728
9.0844
9.318
9.6524
10.0628
10.4748
11.004
8.8284
8.8488
8.7868
8.7132
8.5592
8.5148
8.41
8.34
8.2388
8.2656
8.2
8.1752
8.2496
8.2312
8.204
8.2084
8.2304
8.2848
8.2412
8.336
8.3556
8.3548
8.4164
8.5088
8.6948
8.9148
9.1052
9.4544
9.77
10.0488
8.858
8.7664
8.6984
8.6096
8.5984
8.4844
8.4604
8.3744
8.358
8.3932
8.308
8.2344
8.0916
8.1596
8.1776
8.218
8.1764
8.1944
8.0824
8.1448
8.048
8.1428
8.316
8.3932
8.5396
8.6768
8.7872
8.9704
9.2012
9.5656
8.86
8.7428
8.6636
8.6212
8.5144
8.5344
8.5664
8.5672
8.4284
8.3924
8.33
8.3248
8.2452
8.2556
8.1284
8.1224
8.0344
7.9192
7.886
7.854
7.8292
7.9556
7.8728
7.9352
8.0448
8.2156
8.3944
8.6268
8.7308
8.9512
8.8672
8.7812
8.7136
8.664
8.6488
8.6376
8.5424
8.542
8.524
8.4488
8.3328
8.3072
8.2724
8.1572
8.0724
8.008
7.9388
7.9464
7.9172
7.9188
7.8812
7.8752
7.942
8.0328
7.9764
7.9764
8.0264
8.1512
8.464
8.6116
9.054
9.0688
9.0352
8.88
8.7524
8.61
8.478
8.406
8.3156
8.3144
8.2584
8.134
8.0764
8.05
8.0164
8.0292
7.9956
7.9708
8.0164
7.9748
8.008
7.9668
7.86
7.7972
7.782
7.7428
7.7936
7.92
7.9336
8.2112
9.004
8.9448
8.9216
8.8888
8.7784
8.8024
8.6732
8.6316
8.4424
8.3252
8.2612
8.2376
8.2408
8.1652
8.0756
7.984
7.95
7.9296
7.8564
7.7572
7.7084
7.6376
7.6748
7.718
7.8316
7.812
7.8488
7.8488
7.8672
7.9312
8.8756
8.6972
8.6364
8.6144
8.5796
8.5028
8.4304
8.4108
8.392
8.2904
8.2688
8.22
8.1556
8.0368
8.026
7.9796
7.8908
7.8712
7.7508
7.7704
7.7596
7.7488
7.6332
7.6612
7.634
7.61
7.5852
7.6568
7.7968
7.7612
8.7824
8.678
8.67
8.5796
8.5516
8.536
8.4936
8.3804
8.3508
8.3124
8.2696
8.1212
8.01
8.0464
7.9912
7.9804
7.9656
7.8528
7.844
7.8292
7.734
7.6816
7.6288
7.594
7.5992
7.6216
7.5328
7.5072
7.5544
7.6108
8.8572
8.8632
8.7288
8.696
8.5944
8.5372
8.5696
8.6104
8.496
8.4928
8.3936
8.3872
8.344
8.222
8.0728
8.016
7.9524
7.8564
7.79
7.714
7.736
7.7668
7.7824
7.6848
7.6256
7.6684
7.6772
7.7192
7.6884
7.6836
9.1336
9.0328
9.0244
8.976
8.8876
8.7396
8.5788
8.4364
8.3896
8.316
8.2212
8.1724
8.1312
8.1144
8.074
8.0484
7.9796
7.9476
7.8848
7.8208
7.7188
7.6484
7.6164
7.5656
7.5136
7.5228
7.4848
7.402
7.3688
7.3852
8.972
8.8436
8.8
8.7504
8.6808
8.6844
8.6236
8.518
8.476
8.412
8.3344
8.3312
8.2688
8.2316
8.1344
8.0344
8.0028
7.9792
7.8948
7.8364
7.7664
7.6192
7.5652
7.5576
7.5664
7.4104
7.4416
7.418
7.4344
7.42
8.7184
8.7172
8.6496
8.6088
8.5144
8.4244
8.4156
8.4304
8.3468
8.284
8.2484
8.0952
8.0064
7.9328
7.9012
7.8812
7.7708
7.664
7.5728
7.5456
7.5404
7.594
7.4964
7.4244
7.2908
7.2716
7.2508
7.218
7.1868
7.252
)
;

boundaryField
{
    flow
    {
        type            calculated;
        value           nonuniform List<scalar> 
55
(
16.8496
17.2628
17.168
16.844
16.8368
16.3928
15.8152
15.0728
14.1128
13.3852
12.2908
11.8272
11.004
10.0488
9.5656
8.9512
8.6116
8.2112
7.9312
7.7612
7.6108
7.6836
7.3852
7.42
7.252
8.7184
8.7172
8.6496
8.6088
8.5144
8.4244
8.4156
8.4304
8.3468
8.284
8.2484
8.0952
8.0064
7.9328
7.9012
7.8812
7.7708
7.664
7.5728
7.5456
7.5404
7.594
7.4964
7.4244
7.2908
7.2716
7.2508
7.218
7.1868
7.252
)
;
    }
    obstacle
    {
        type            calculated;
        value           nonuniform List<scalar> 0();
    }
    frontAndBack
    {
        type            empty;
    }
    procBoundary3to1
    {
        type            processor;
        value           nonuniform List<scalar> 
36
(
16.5112
17.7752
17.6708
17.468
17.236
17.236
15.848
16.328
17.0036
17.216
17.4704
17.4588
17.4588
12.1608
12.6684
13.0872
13.7936
14.2536
14.2536
9.5264
9.6236
10.034
10.204
10.4148
10.7632
10.7632
9.0108
8.9788
8.9932
9.022
9.012
9.0712
9.212
9.212
8.9456
8.9456
)
;
    }
    procBoundary3to2
    {
        type            processor;
        value           nonuniform List<scalar> 
19
(
9.0748
9.0528
9.1776
9.1632
8.9724
9.0424
9.0336
8.8556
8.9556
8.9396
8.9292
9.0828
9.04
8.952
8.788
9.0064
9.0632
9.1092
8.758
)
;
    }
}


// ************************************************************************* //
