/*--------------------------------*- C++ -*----------------------------------*\
| =========                 |                                                 |
| \\      /  F ield         | OpenFOAM: The Open Source CFD Toolbox           |
|  \\    /   O peration     | Version:  2406                                  |
|   \\  /    A nd           | Website:  www.openfoam.com                      |
|    \\/     M anipulation  |                                                 |
\*---------------------------------------------------------------------------*/
FoamFile
{
    version     2.0;
    format      ascii;
    arch        "LSB;label=32;scalar=64";
    class       volScalarField;
    location    "0.005";
    object      iDofMean;
}
// * * * * * * * * * * * * * * * * * * * * * * * * * * * * * * * * * * * * * //

dimensions      [0 -3 0 0 0 0 0];

internalField   nonuniform List<scalar> 
654
(
4.800403526e+20
4.813982224e+20
4.913671521e+20
4.872652593e+20
4.857297522e+20
4.918122996e+20
3.928103173e+20
4.096222427e+20
4.245936333e+20
4.416133822e+20
4.590087723e+20
4.7026726e+20
4.756630974e+20
4.800923769e+20
4.917403041e+20
4.923122823e+20
4.891114788e+20
2.806212299e+20
2.968151423e+20
3.106958882e+20
3.239480089e+20
3.432438923e+20
3.625452226e+20
3.814420494e+20
3.969435512e+20
4.126410965e+20
4.302775517e+20
4.467577082e+20
4.626107672e+20
4.693830118e+20
4.744890062e+20
4.802537238e+20
4.798808101e+20
2.212403887e+20
2.258587437e+20
2.286231754e+20
2.370927893e+20
2.440259132e+20
2.529360857e+20
2.596318859e+20
2.733240004e+20
2.884938875e+20
3.038870554e+20
3.213182118e+20
3.354598859e+20
3.541556309e+20
3.704919641e+20
3.863114084e+20
4.018917101e+20
4.185985173e+20
4.369565616e+20
4.53618284e+20
4.639390838e+20
4.688274408e+20
4.796756842e+20
2.030072408e+20
2.032332648e+20
2.024258656e+20
2.063764874e+20
2.101729842e+20
2.116435611e+20
2.157569688e+20
2.16731504e+20
2.220542424e+20
2.26899548e+20
2.316561815e+20
2.364597521e+20
2.435034294e+20
2.532720867e+20
2.61538098e+20
2.714967451e+20
2.838363481e+20
2.963843379e+20
3.127845199e+20
3.305284287e+20
3.47932803e+20
3.636299999e+20
3.799277604e+20
3.982359097e+20
4.15345492e+20
4.300377162e+20
4.45334089e+20
4.583608792e+20
4.670262451e+20
2.019589598e+20
2.028445211e+20
2.057741329e+20
2.069859971e+20
2.078556237e+20
2.083472545e+20
2.102262181e+20
2.125598653e+20
2.148154647e+20
2.18144057e+20
2.200728042e+20
2.251556716e+20
2.307925069e+20
2.359255592e+20
2.417924454e+20
2.492985102e+20
2.552417114e+20
2.642981936e+20
2.74965196e+20
2.843230307e+20
3.014860109e+20
3.172812065e+20
3.385734694e+20
3.525888521e+20
3.699569416e+20
3.904933271e+20
4.055924204e+20
4.234287444e+20
4.335437245e+20
4.505705883e+20
2.034037031e+20
2.018230229e+20
2.024045218e+20
2.034626766e+20
2.051007324e+20
2.053198991e+20
2.06940995e+20
2.093060151e+20
2.116316028e+20
2.168854966e+20
2.188527059e+20
2.211636208e+20
2.240233053e+20
2.290420019e+20
2.322727409e+20
2.370286683e+20
2.420567285e+20
2.466461946e+20
2.562854649e+20
2.67756977e+20
2.759240471e+20
2.915720399e+20
3.079535721e+20
3.268365228e+20
3.467740561e+20
3.601916922e+20
3.817346949e+20
4.006843289e+20
4.188544115e+20
4.294198216e+20
2.039600653e+20
2.064152515e+20
2.064389502e+20
2.064630055e+20
2.083086092e+20
2.079746584e+20
2.066594043e+20
2.074804504e+20
2.068748725e+20
2.064519352e+20
2.077072067e+20
2.118911285e+20
2.147058091e+20
2.173280488e+20
2.224330485e+20
2.264929424e+20
2.331210341e+20
2.399831288e+20
2.4301221e+20
2.516392226e+20
2.641787972e+20
2.742098717e+20
2.825867739e+20
3.015159204e+20
3.175695114e+20
3.296703244e+20
3.485977301e+20
3.655440391e+20
3.853885084e+20
4.020696923e+20
2.037088041e+20
2.042366549e+20
2.06065562e+20
2.052335129e+20
2.037602652e+20
2.042393661e+20
2.053547008e+20
2.062980924e+20
2.076946697e+20
2.0953589e+20
2.090531881e+20
2.106905812e+20
2.108686126e+20
2.108809112e+20
2.12903348e+20
2.179131296e+20
2.229959411e+20
2.283893924e+20
2.36654693e+20
2.43549071e+20
2.482275481e+20
2.587780074e+20
2.695021684e+20
2.765191109e+20
2.90335887e+20
3.090041283e+20
3.243187281e+20
3.421731174e+20
3.621746458e+20
3.8134057e+20
1.997694109e+20
1.988037216e+20
1.995266864e+20
1.987098604e+20
2.02429044e+20
2.031215764e+20
2.054673386e+20
2.045009059e+20
2.048444445e+20
2.04271071e+20
2.06322492e+20
2.064545189e+20
2.075627233e+20
2.098989626e+20
2.131133397e+20
2.139307253e+20
2.171303056e+20
2.235099799e+20
2.282193534e+20
2.324772351e+20
2.39868121e+20
2.464219117e+20
2.583540459e+20
2.699677018e+20
2.80383256e+20
2.943037693e+20
3.075894904e+20
3.218899737e+20
3.350541701e+20
3.501614261e+20
2.008911075e+20
2.01895343e+20
2.029691599e+20
2.01499157e+20
2.016247607e+20
2.008487281e+20
1.992347951e+20
2.010578719e+20
2.034717593e+20
2.05808244e+20
2.046472761e+20
2.037118096e+20
2.062049451e+20
2.073201076e+20
2.075835125e+20
2.09000608e+20
2.103802443e+20
2.146737296e+20
2.178302403e+20
2.244600597e+20
2.292479755e+20
2.354233976e+20
2.431831814e+20
2.532491966e+20
2.608917818e+20
2.719895562e+20
2.865033462e+20
2.996490036e+20
3.182083155e+20
3.369535928e+20
2.021204853e+20
1.994184308e+20
1.980786659e+20
1.998109e+20
2.000809137e+20
2.017429623e+20
2.022196578e+20
2.022875289e+20
2.00592938e+20
1.995154422e+20
2.031947797e+20
2.055467905e+20
2.057228376e+20
2.054058036e+20
2.073435217e+20
2.111581671e+20
2.118339469e+20
2.124082855e+20
2.173443813e+20
2.185175519e+20
2.259252363e+20
2.299082285e+20
2.336719694e+20
2.3941245e+20
2.473021936e+20
2.559378193e+20
2.675235943e+20
2.814467612e+20
2.956719e+20
3.135008541e+20
1.980554608e+20
1.999788982e+20
2.000548976e+20
1.998659519e+20
1.978159863e+20
1.982871211e+20
1.97348139e+20
1.972175697e+20
1.963414316e+20
1.985258871e+20
1.985080515e+20
1.99485506e+20
2.029187321e+20
2.041064558e+20
2.050935904e+20
2.068934624e+20
2.091705198e+20
2.123160294e+20
2.129819893e+20
2.172664972e+20
2.196477828e+20
2.215294187e+20
2.251129485e+20
2.295907309e+20
2.366962169e+20
2.448631114e+20
2.523575286e+20
2.644304006e+20
2.757775267e+20
2.862874783e+20
1.987195058e+20
1.981166981e+20
1.980422362e+20
1.974895431e+20
1.987219573e+20
1.975791843e+20
1.985308199e+20
1.980310345e+20
1.991821242e+20
2.015906273e+20
2.011225509e+20
2.00930063e+20
1.990323425e+20
2.023310149e+20
2.04433611e+20
2.07135433e+20
2.077981449e+20
2.099993326e+20
2.088780294e+20
2.122831293e+20
2.115617497e+20
2.159081869e+20
2.224275538e+20
2.264715263e+20
2.324712467e+20
2.383259574e+20
2.435439194e+20
2.508933899e+20
2.597220244e+20
2.725212441e+20
1.987643721e+20
1.975833459e+20
1.972499216e+20
1.977556288e+20
1.967805909e+20
1.987435532e+20
2.010182058e+20
2.025902129e+20
2.008598488e+20
2.01571411e+20
2.016551303e+20
2.031359405e+20
2.028105051e+20
2.047114965e+20
2.032036494e+20
2.047258247e+20
2.041893011e+20
2.029467338e+20
2.038023532e+20
2.047038213e+20
2.058100461e+20
2.109445401e+20
2.105733118e+20
2.141134317e+20
2.190014387e+20
2.256581595e+20
2.326571671e+20
2.412832311e+20
2.464440585e+20
2.550171662e+20
1.989258962e+20
1.984511701e+20
1.983883061e+20
1.987373878e+20
1.998867786e+20
2.011468076e+20
2.004550214e+20
2.019943022e+20
2.031381224e+20
2.029260447e+20
2.017229136e+20
2.027064776e+20
2.034795545e+20
2.022715029e+20
2.018036948e+20
2.018423656e+20
2.017596863e+20
2.036437913e+20
2.046086724e+20
2.063927451e+20
2.071769958e+20
2.088127158e+20
2.124242e+20
2.167469471e+20
2.171394057e+20
2.190880489e+20
2.224577678e+20
2.279811582e+20
2.389130999e+20
2.453420534e+20
2.031165506e+20
2.049508007e+20
2.05710385e+20
2.036920595e+20
2.022811289e+20
2.005040753e+20
1.989438195e+20
1.987782843e+20
1.98171675e+20
1.996979815e+20
1.999218177e+20
1.984801725e+20
1.98658462e+20
1.996132985e+20
2.004037369e+20
2.023767103e+20
2.032032232e+20
2.04269096e+20
2.071723541e+20
2.078523107e+20
2.1051025e+20
2.112415088e+20
2.102309509e+20
2.103898156e+20
2.118473064e+20
2.12671748e+20
2.160055411e+20
2.215147204e+20
2.239415134e+20
2.339347725e+20
2.01994854e+20
2.021484565e+20
2.031239785e+20
2.03893915e+20
2.02882028e+20
2.049845628e+20
2.035243614e+20
2.041130905e+20
2.011934872e+20
1.99957381e+20
1.999896009e+20
2.010081471e+20
2.027022766e+20
2.02469878e+20
2.018836923e+20
2.012374418e+20
2.02044329e+20
2.032132547e+20
2.03037382e+20
2.021808611e+20
2.026345169e+20
2.025126961e+20
2.052774158e+20
2.082527808e+20
2.13197554e+20
2.145724667e+20
2.17535449e+20
2.195233255e+20
2.220672424e+20
2.259576494e+20
1.99114341e+20
1.965528064e+20
1.966306411e+20
1.975996484e+20
1.98287461e+20
1.980076715e+20
1.978268431e+20
1.988917923e+20
1.999923889e+20
1.991215416e+20
2.00173584e+20
2.005786858e+20
2.006065778e+20
1.992859823e+20
2.00643731e+20
2.011265394e+20
2.005397944e+20
2.017166276e+20
2.003083032e+20
2.025249011e+20
2.039804348e+20
2.054611894e+20
2.041647449e+20
2.067201612e+20
2.078183402e+20
2.090241259e+20
2.102295768e+20
2.141532716e+20
2.200800655e+20
2.211144014e+20
1.970235042e+20
1.961188979e+20
1.97395636e+20
1.968013957e+20
1.976403389e+20
1.987808115e+20
1.993098874e+20
1.981729177e+20
1.990105388e+20
1.996499448e+20
2.001929491e+20
1.981678343e+20
1.970251945e+20
1.995240304e+20
1.997737566e+20
2.011467035e+20
2.024407934e+20
2.012450893e+20
2.027169235e+20
2.040574448e+20
2.033074784e+20
2.036793679e+20
2.040470583e+20
2.049069211e+20
2.068709891e+20
2.093427435e+20
2.087772711e+20
2.099691047e+20
2.132378452e+20
2.168295438e+20
1.987015572e+20
2.003043317e+20
1.987343732e+20
1.994714132e+20
1.986295113e+20
1.988087578e+20
2.010932951e+20
2.0361177e+20
2.024708456e+20
2.039828511e+20
2.031947797e+20
2.046585832e+20
2.052407269e+20
2.038783263e+20
2.018136929e+20
2.020440031e+20
2.021053219e+20
2.013373471e+20
2.013213727e+20
2.010549135e+20
2.0336005e+20
2.059384634e+20
2.081553883e+20
2.073569539e+20
2.07589671e+20
2.106282007e+20
2.127794248e+20
2.158985391e+20
2.170202596e+20
2.189035973e+20
2.049022877e+20
2.041372169e+20
2.054644942e+20
2.058941343e+20
2.054058058e+20
2.035221173e+20
2.013091813e+20
1.994971589e+20
1.999351922e+20
1.997364124e+20
1.99021269e+20
1.994171824e+20
2.000064012e+20
2.012102049e+20
2.018436919e+20
2.028606496e+20
2.027965947e+20
2.036745456e+20
2.037713409e+20
2.038385085e+20
2.029079068e+20
2.027990606e+20
2.037153945e+20
2.041406131e+20
2.045407249e+20
2.066290006e+20
2.074469128e+20
2.070267608e+20
2.07998919e+20
2.104022635e+20
2.012769706e+20
1.99861382e+20
2.003554307e+20
2.007192565e+20
2.006263452e+20
2.022366556e+20
2.023604532e+20
2.014267696e+20
2.019942193e+20
2.020421703e+20
2.017616484e+20
2.032921088e+20
2.033910022e+20
2.041163761e+20
2.033536464e+20
2.025077784e+20
2.033862051e+20
2.044843627e+20
2.040297766e+20
2.04245103e+20
2.041591915e+20
2.02024816e+20
2.023459529e+20
2.039247494e+20
2.059780852e+20
2.03541706e+20
2.06249592e+20
2.074742672e+20
2.098506103e+20
2.113937096e+20
1.955877316e+20
1.970047988e+20
1.969311757e+20
1.974711939e+20
1.967805909e+20
1.961819433e+20
1.97479548e+20
1.993552772e+20
1.989152135e+20
1.989678243e+20
1.996797331e+20
1.97533402e+20
1.969366454e+20
1.967071272e+20
1.975238269e+20
1.986463585e+20
1.97490072e+20
1.964066784e+20
1.957081487e+20
1.96665795e+20
1.982182179e+20
2.01356634e+20
2.005057634e+20
2.003306486e+20
1.984754984e+20
1.997292817e+20
2.00961427e+20
2.018804611e+20
2.028616099e+20
2.066074331e+20
)
;

boundaryField
{
    flow
    {
        type            calculated;
        value           nonuniform List<scalar> 
55
(
4.800403526e+20
4.918122996e+20
4.891114788e+20
4.798808101e+20
4.796756842e+20
4.670262451e+20
4.505705883e+20
4.294198216e+20
4.020696923e+20
3.8134057e+20
3.501614261e+20
3.369535928e+20
3.135008541e+20
2.862874783e+20
2.725212441e+20
2.550171662e+20
2.453420534e+20
2.339347725e+20
2.259576494e+20
2.211144014e+20
2.168295438e+20
2.189035973e+20
2.104022635e+20
2.113937096e+20
2.066074331e+20
1.955877316e+20
1.970047988e+20
1.969311757e+20
1.974711939e+20
1.967805909e+20
1.961819433e+20
1.97479548e+20
1.993552772e+20
1.989152135e+20
1.989678243e+20
1.996797331e+20
1.97533402e+20
1.969366454e+20
1.967071272e+20
1.975238269e+20
1.986463585e+20
1.97490072e+20
1.964066784e+20
1.957081487e+20
1.96665795e+20
1.982182179e+20
2.01356634e+20
2.005057634e+20
2.003306486e+20
1.984754984e+20
1.997292817e+20
2.00961427e+20
2.018804611e+20
2.028616099e+20
2.066074331e+20
)
;
    }
    obstacle
    {
        type            calculated;
        value           nonuniform List<scalar> 0();
    }
    frontAndBack
    {
        type            empty;
    }
    procBoundary3to1
    {
        type            processor;
        value           nonuniform List<scalar> 
36
(
4.70399432e+20
4.882320118e+20
4.897596337e+20
4.885630223e+20
4.865201075e+20
4.865201075e+20
4.130565521e+20
4.292221944e+20
4.508543065e+20
4.604753206e+20
4.713992502e+20
4.75276251e+20
4.75276251e+20
3.040105014e+20
3.193081699e+20
3.326030845e+20
3.534910147e+20
3.683638374e+20
3.683638374e+20
2.270266318e+20
2.311427758e+20
2.429060737e+20
2.48990863e+20
2.561770281e+20
2.668916589e+20
2.668916589e+20
2.036400253e+20
2.044262888e+20
2.062886745e+20
2.08511992e+20
2.098655912e+20
2.128637858e+20
2.178379215e+20
2.178379215e+20
2.006847156e+20
2.006847156e+20
)
;
    }
    procBoundary3to2
    {
        type            processor;
        value           nonuniform List<scalar> 
19
(
2.021018281e+20
2.016118735e+20
2.043912524e+20
2.040705534e+20
1.99821312e+20
2.013802585e+20
2.011842781e+20
1.972200984e+20
1.994471649e+20
1.990908342e+20
1.988592193e+20
2.022799934e+20
2.01326809e+20
1.99366989e+20
1.957146028e+20
2.005785146e+20
2.018434884e+20
2.02867939e+20
1.950464815e+20
)
;
    }
}


// ************************************************************************* //
