/*--------------------------------*- C++ -*----------------------------------*\
| =========                 |                                                 |
| \\      /  F ield         | OpenFOAM: The Open Source CFD Toolbox           |
|  \\    /   O peration     | Version:  2406                                  |
|   \\  /    A nd           | Website:  www.openfoam.com                      |
|    \\/     M anipulation  |                                                 |
\*---------------------------------------------------------------------------*/
FoamFile
{
    version     2.0;
    format      ascii;
    arch        "LSB;label=32;scalar=64";
    class       volScalarField;
    location    "0.005";
    object      iDof;
}
// * * * * * * * * * * * * * * * * * * * * * * * * * * * * * * * * * * * * * //

dimensions      [0 -3 0 0 0 0 0];

internalField   nonuniform List<scalar> 
654
(
3.418766161e+20
4.394725419e+20
5.820309436e+20
4.195354554e+20
7.339012993e+20
4.843252017e+20
3.38827308e+20
3.154499251e+20
2.121218161e+20
3.744571645e+20
4.317238265e+20
5.172319181e+20
4.394725342e+20
5.543151795e+20
3.076593339e+20
3.669506496e+20
5.128149242e+20
1.499953123e+20
3.528712629e+20
3.812157121e+20
4.356619954e+20
2.842792145e+20
5.734000645e+20
3.943124063e+20
2.121218143e+20
3.209632838e+20
2.968101307e+20
3.811182555e+20
4.944066053e+20
3.325891106e+20
7.271947893e+20
3.951776263e+20
5.982840782e+20
1.906505138e+20
1.200916371e+20
1.936663917e+20
1.952103983e+20
1.475844165e+20
2.479668304e+20
2.749914059e+20
2.268458137e+20
2.541438101e+20
2.818989382e+20
3.359663444e+20
3.38827308e+20
4.468873938e+20
3.446979512e+20
2.139755226e+20
3.237928699e+20
3.266727933e+20
3.296044064e+20
4.711679026e+20
3.915664215e+20
5.64539461e+20
3.703663341e+20
2.937941545e+20
2.73211953e+20
1.146914749e+20
2.080035373e+20
1.164367461e+20
1.877271253e+20
1.891775263e+20
2.383131422e+20
1.921466208e+20
2.420829934e+20
1.952103998e+20
1.96779222e+20
1.735767827e+20
3.749882838e+20
2.016407216e+20
5.591163732e+20
2.562717578e+20
2.584356474e+20
3.127636689e+20
3.154499224e+20
2.916674922e+20
3.477102212e+20
5.126720439e+20
3.811182555e+20
4.120055008e+20
4.157363846e+20
4.754735161e+20
3.669506496e+20
4.55835484e+20
1.346034123e+20
2.711946002e+20
1.366059745e+20
1.605680637e+20
1.848920332e+20
2.095861414e+20
2.111930128e+20
1.891775234e+20
1.429878842e+20
2.88219929e+20
9.683319584e+19
1.952103968e+20
2.459740236e+20
5.455270225e+20
2.499921892e+20
2.016407249e+20
2.795581911e+20
1.025087048e+20
3.618099123e+20
2.345727556e+20
3.154499277e+20
2.651522702e+20
2.139755226e+20
5.666375271e+20
4.083409951e+20
4.12005508e+20
4.434521475e+20
5.873496375e+20
5.080855149e+20
5.982840782e+20
1.570373143e+20
1.581968513e+20
2.276766275e+20
2.293829499e+20
2.542265456e+20
1.397240943e+20
2.815906858e+20
2.128247171e+20
1.906505138e+20
1.441099645e+20
2.178746906e+20
1.952103983e+20
9.838961099e+19
2.231701474e+20
2.499921872e+20
2.268458118e+20
2.033150464e+20
3.075261144e+20
3.876534743e+20
3.648909471e+20
3.680249095e+20
3.977284019e+20
4.279510451e+20
1.618964349e+20
2.722273253e+20
4.120055044e+20
3.325891106e+20
4.475044857e+20
3.104967063e+20
4.273457701e+20
2.243390221e+20
2.033959516e+20
3.642826013e+20
1.835063599e+20
2.542265456e+20
1.862987938e+20
9.386356194e+19
1.891775249e+20
2.383131422e+20
2.401832742e+20
1.452497949e+20
2.196116998e+20
2.705714302e+20
1.735767813e+20
2.499921872e+20
1.008203616e+20
2.795581911e+20
1.537630572e+20
2.584356495e+20
1.303181954e+20
1.577249625e+20
2.651522702e+20
2.674694032e+20
4.317238265e+20
2.722273277e+20
6.866758407e+20
7.206097333e+20
3.91566425e+20
3.951776227e+20
4.558354881e+20
1.794712164e+20
2.259955018e+20
1.366059765e+20
1.605680649e+20
1.155575207e+20
1.164367452e+20
2.346589049e+20
9.458876315e+19
2.14481828e+20
2.161649484e+20
2.178746923e+20
1.22006498e+20
1.721818179e+20
2.727635134e+20
2.499921892e+20
2.016407233e+20
1.016575224e+20
1.793902319e+20
3.101227794e+20
2.60636393e+20
2.628749398e+20
1.32576134e+20
1.872285806e+20
1.888791741e+20
3.266727904e+20
4.944066053e+20
4.157363883e+20
4.475044857e+20
3.387236766e+20
2.848971775e+20
2.692068246e+20
1.581968501e+20
2.049089618e+20
1.835063586e+20
1.848920346e+20
9.314939758e+19
2.11193016e+20
2.128247171e+20
1.429878853e+20
7.205498226e+19
3.389161881e+20
2.684142998e+20
2.213766247e+20
3.471535626e+20
2.499921872e+20
1.764356329e+20
1.524862861e+20
2.306445858e+20
1.550613897e+20
2.085091126e+20
3.94312403e+20
1.32576134e+20
2.942163435e+20
3.50775609e+20
5.716773832e+20
2.746703339e+20
4.157363809e+20
3.915664215e+20
3.669506496e+20
5.128149242e+20
1.12169511e+20
2.033959531e+20
2.73211953e+20
2.52321243e+20
1.386690239e+20
2.328734905e+20
2.815906837e+20
1.182359522e+20
1.429878842e+20
2.88219929e+20
2.662912886e+20
1.464077976e+20
1.229870128e+20
7.439004912e+19
9.999687487e+19
2.268458118e+20
1.779006656e+20
2.306445858e+20
5.168712991e+19
2.606363908e+20
1.840124563e+20
3.181827242e+20
1.872285822e+20
3.237928699e+20
2.994500605e+20
3.296044064e+20
3.603048699e+20
3.076593339e+20
3.104967063e+20
2.848971801e+20
2.019051199e+20
2.033959516e+20
2.73211953e+20
1.835063599e+20
2.311150415e+20
1.862987924e+20
7.039767146e+19
1.891775263e+20
1.191565711e+20
3.602749113e+20
2.662912906e+20
1.708090998e+20
1.475844165e+20
2.479668304e+20
1.749945324e+20
1.764356343e+20
2.541438081e+20
2.562717599e+20
1.550613897e+20
1.563818358e+20
1.577249625e+20
2.121218143e+20
1.872285822e+20
1.618964363e+20
2.722273277e+20
2.472033026e+20
2.49441833e+20
4.475044897e+20
3.104967063e+20
3.703663307e+20
2.243390205e+20
3.163937003e+20
1.593736381e+20
2.981978349e+20
3.466725622e+20
1.164367461e+20
3.519883573e+20
1.18235953e+20
1.906505138e+20
1.681282919e+20
7.262489688e+19
2.196116981e+20
2.459740255e+20
3.471535598e+20
9.999687487e+19
2.772559923e+20
1.779006656e+20
2.56271762e+20
2.584356517e+20
2.085091144e+20
2.891624313e+20
1.856065891e+20
2.407224629e+20
3.237928699e+20
2.450045949e+20
3.570714372e+20
2.217260718e+20
2.237522429e+20
1.693618383e+20
3.988560521e+20
2.692068265e+20
1.807964028e+20
2.73211951e+20
2.52321243e+20
2.773380498e+20
2.561608395e+20
1.407953429e+20
2.364719079e+20
2.383131422e+20
1.441099656e+20
2.17874694e+20
2.684142977e+20
2.21376623e+20
2.727635134e+20
3.49989062e+20
1.764356329e+20
2.287294291e+20
2.818989382e+20
3.101227794e+20
2.60636393e+20
1.577249625e+20
1.325761328e+20
1.337347005e+20
2.968101307e+20
2.722273253e+20
3.021373699e+20
3.048733514e+20
2.796903036e+20
8.468091915e+19
2.564074597e+20
2.243390205e+20
2.711946002e+20
1.593736381e+20
1.835063599e+20
9.24460166e+19
4.424596352e+20
1.877271253e+20
4.965910066e+20
1.429878853e+20
1.441099645e+20
1.694580927e+20
2.684142977e+20
3.443636385e+20
2.479668304e+20
2.249929685e+20
2.52050902e+20
2.541438081e+20
2.818989382e+20
3.359663444e+20
1.042545563e+20
7.886248126e+19
2.121218161e+20
2.942163435e+20
2.428446524e+20
1.905591277e+20
2.746703339e+20
1.385787949e+20
1.118761214e+20
1.693618398e+20
1.994280279e+20
1.794712164e+20
3.389932527e+20
1.593736392e+20
2.752595399e+20
1.848920346e+20
1.397240953e+20
2.581247934e+20
1.655303343e+20
1.429878853e+20
2.401832742e+20
1.936663917e+20
1.708090985e+20
2.213766247e+20
3.719502456e+20
1.249960946e+20
7.561527183e+19
2.795581889e+20
2.306445839e+20
3.876534743e+20
2.345727517e+20
2.365874438e+20
1.325761351e+20
8.024082096e+19
1.349136958e+20
4.083409916e+20
3.296044064e+20
2.217260718e+20
1.398451505e+20
2.258157844e+20
3.703663307e+20
3.365085331e+20
2.259955018e+19
2.504442884e+20
2.064446549e+20
1.61780529e+20
2.561608395e+20
2.581247953e+20
2.364719061e+20
2.144818263e+20
2.642016016e+20
4.84165983e+19
3.41618197e+20
1.229870128e+20
1.487800982e+20
2.249929685e+20
1.26025451e+20
2.033150464e+20
3.075261144e+20
2.067485196e+20
2.345727537e+20
2.365874438e+20
2.121218143e+20
2.407224629e+20
1.349136969e+20
1.633363966e+20
1.373351681e+20
3.048733514e+20
2.237522429e+20
2.540427574e+20
2.279177441e+20
1.570373143e+20
2.937941524e+20
2.276766258e+20
2.293829482e+20
3.697840664e+20
2.794481907e+20
1.173294524e+20
1.418831437e+20
2.383131422e+20
1.681282932e+20
3.631244872e+20
1.952103983e+20
1.96779222e+20
1.487800994e+20
2.749914081e+20
2.520509041e+20
2.541438101e+20
1.793902319e+20
1.809049532e+20
2.345727517e+20
3.154499251e+20
3.181827215e+20
1.069877604e+20
1.888791741e+20
1.905591294e+20
1.373351681e+20
2.494418308e+20
2.796903036e+20
2.822697305e+20
1.709383065e+20
2.916407266e+20
2.033959502e+20
1.821413007e+20
2.523212449e+20
1.61780529e+20
2.561608395e+20
2.581247953e+20
1.182359539e+20
1.191565711e+20
1.681282919e+20
2.178746923e+20
1.952103998e+20
1.721818192e+20
1.735767813e+20
1.749945324e+20
3.024610849e+20
2.033150448e+20
1.02508704e+20
1.292178248e+20
1.824454736e+20
2.102999483e+20
3.181827215e+20
2.407224629e+20
2.428446524e+20
3.266727904e+20
2.19736269e+20
2.217260738e+20
1.678141821e+20
4.234045996e+20
1.709383096e+20
2.692068284e+20
9.039820138e+19
1.82141302e+20
2.981978349e+20
6.933451245e+19
1.862987924e+20
2.581247953e+20
2.128247171e+20
2.14481828e+20
9.607330968e+19
2.178746906e+20
2.196116964e+20
2.21376623e+20
1.239834152e+20
1.499953123e+20
1.764356329e+20
2.033150481e+20
2.050174096e+20
2.584356495e+19
3.127636716e+20
2.102999518e+20
2.916674972e+20
1.337347016e+20
2.698273915e+20
2.177818603e+20
4.39472538e+20
1.385787961e+20
1.678141821e+20
2.258157844e+20
2.848971775e+20
3.140746287e+20
1.807964001e+20
2.276766258e+20
1.376297699e+20
2.311150415e+20
1.630114445e+20
2.815906858e+20
2.601190967e+20
1.668191995e+20
1.441099645e+20
1.452497949e+20
1.220064999e+20
2.705714281e+20
3.719502426e+20
2.499921872e+20
2.772559923e+20
1.524862848e+20
2.050174096e+20
2.067485213e+20
1.303181965e+20
1.577249612e+20
2.121218143e+20
2.407224629e+20
1.618964349e+20
2.994500605e+20
3.296044035e+20
1.108630359e+20
2.237522429e+20
1.693618383e+20
2.279177441e+20
1.346034123e+20
1.355973011e+20
2.276766258e+20
2.52321243e+20
2.311150432e+20
2.561608414e+20
1.877271239e+20
2.364719061e+20
1.429878842e+20
1.20091638e+20
1.69458094e+20
2.196116981e+20
1.96779222e+20
1.239834152e+20
1.74994531e+20
2.772559945e+20
1.270719051e+20
2.050174096e+20
1.809049547e+20
2.085091126e+20
2.891624313e+20
1.590913608e+20
3.209632811e+20
1.349136969e+20
1.633363966e+20
1.922692354e+20
2.494418308e+20
1.118761204e+20
1.693618383e+20
2.27917742e+20
2.019051199e+20
1.129977509e+20
1.821413007e+20
2.064446549e+20
1.848920332e+20
1.630114445e+20
2.581247953e+20
9.458876244e+19
9.532525688e+19
2.642016016e+20
1.210414957e+20
3.41618197e+20
1.475844153e+20
1.983734643e+20
1.999937513e+20
7.561527122e+19
2.287294254e+20
3.075261119e+20
1.550613897e+20
1.042545572e+20
1.840124563e+20
1.32576134e+20
1.337347016e+20
2.428446524e+20
1.633363966e+20
1.922692354e+20
3.048733487e+20
1.398451518e+20
3.104967063e+20
2.279177462e+20
2.692068246e+20
1.581968513e+20
1.366059765e+20
2.064446549e+20
1.61780529e+20
2.794481886e+20
1.407953429e+20
2.128247171e+20
2.14481828e+20
2.401832742e+20
1.210414948e+20
2.684142977e+20
1.475844165e+20
2.231701474e+20
1.499953123e+20
1.26025452e+20
1.779006671e+20
2.050174096e+20
1.292178248e+20
2.345727517e+20
2.365874438e+20
1.590913621e+20
1.604816419e+20
2.158619132e+20
1.088909301e+20
1.648022018e+20
1.940103145e+20
2.796903036e+20
1.411348652e+20
2.27917742e+20
)
;

boundaryField
{
    flow
    {
        type            zeroGradient;
    }
    obstacle
    {
        type            calculated;
        value           nonuniform List<scalar> 0();
    }
    frontAndBack
    {
        type            empty;
    }
    procBoundary3to1
    {
        type            processor;
        value           nonuniform List<scalar> 
36
(
3.703663341e+20
5.493406677e+20
6.097466974e+20
3.356283643e+20
5.080855149e+20
5.080855149e+20
4.430818643e+20
4.468873901e+20
4.242436251e+20
4.546979816e+20
4.047410908e+20
5.172319272e+20
5.172319272e+20
3.499890648e+20
4.284865404e+20
2.795581889e+20
3.844076398e+20
3.101227794e+20
3.101227794e+20
2.383131422e+20
2.161649468e+20
2.420829915e+20
3.41618197e+20
2.459740255e+20
3.967469286e+20
3.967469286e+20
1.807964001e+20
2.276766258e+20
1.376297699e+20
2.311150432e+20
2.561608414e+20
3.285224668e+20
1.418831447e+20
1.418831447e+20
1.570373155e+20
1.570373155e+20
)
;
    }
    procBoundary3to2
    {
        type            processor;
        value           nonuniform List<scalar> 
19
(
2.227066471e+20
1.781653177e+20
2.449773118e+20
1.336239873e+20
2.895186412e+20
1.55894653e+20
1.558946541e+20
4.454132941e+19
3.117893059e+20
3.117893059e+20
1.113533235e+20
2.449773118e+20
1.336239882e+20
2.004359809e+20
1.781653189e+20
1.55894653e+20
2.004359824e+20
2.004359824e+20
1.781653177e+20
)
;
    }
}


// ************************************************************************* //
