/*--------------------------------*- C++ -*----------------------------------*\
| =========                 |                                                 |
| \\      /  F ield         | OpenFOAM: The Open Source CFD Toolbox           |
|  \\    /   O peration     | Version:  2406                                  |
|   \\  /    A nd           | Website:  www.openfoam.com                      |
|    \\/     M anipulation  |                                                 |
\*---------------------------------------------------------------------------*/
FoamFile
{
    version     2.0;
    format      ascii;
    arch        "LSB;label=32;scalar=64";
    class       volScalarField;
    location    "0.005";
    object      internalT;
}
// * * * * * * * * * * * * * * * * * * * * * * * * * * * * * * * * * * * * * //

dimensions      [1 2 -2 0 0 0 0];

internalField   nonuniform List<scalar> 
654
(
699.4689224
644.2791611
661.6748363
674.8663306
681.7486514
689.785654
535.7042968
555.3555569
567.6980485
583.4354996
598.1078603
611.4612942
622.350006
631.7674818
642.4899947
652.5637193
671.5540926
427.8081827
440.9519208
460.8669565
468.8709921
491.919475
509.8245503
526.7084395
538.7693375
559.5820808
569.405506
585.2385754
596.4570298
605.0506532
617.3627853
627.4078029
638.2669671
344.3211957
346.5221314
354.6186281
360.0545752
372.4919283
385.0060538
398.5269129
415.4872644
427.9224185
450.6716473
468.6126702
472.4867746
496.3011963
514.0688098
529.1625771
544.4198002
558.0883417
574.4752999
585.0086307
594.4040214
605.7566159
622.9990417
305.8713597
309.1893911
310.199065
312.145215
313.5371024
319.6825903
325.0551629
334.7389397
337.9133771
343.8039826
349.1298293
363.9568312
377.8483313
390.3419032
398.8111153
410.5037573
423.2662148
438.8369843
455.9061399
472.2882346
487.3253911
505.3002754
525.2159369
535.4655061
550.3459964
568.4103756
584.6820044
595.7051313
601.3158443
302.0095702
302.1638731
304.4024476
304.4087788
306.5285119
314.3642549
317.8700418
322.1992142
326.7084912
333.6456655
334.8549354
341.5224642
351.6816282
357.1747922
369.4393306
375.7963709
391.5162496
398.2432725
416.3408118
430.8368426
445.9397816
459.134235
478.8872671
499.0127135
516.5092457
526.3542482
539.5435261
552.9378397
568.1422702
583.3235728
302.2600715
303.4989507
307.0049014
309.7881376
308.7217827
308.9514921
312.1223603
316.9447542
320.0256253
327.045284
326.8311939
327.5384866
333.2660509
340.4633617
347.9812846
360.0258127
369.8694656
379.920391
387.4924428
394.7055011
411.6443885
432.5341779
451.1263702
468.482969
484.5990715
496.7859953
513.7239001
523.0389361
536.0294442
553.7997593
306.2789728
303.6127734
304.3912163
306.3529354
310.4537826
312.2508605
314.0161269
315.4789902
311.6986421
309.2435919
317.0503857
320.0515445
322.469616
328.4092547
331.2305621
340.0111435
350.6309331
366.093774
376.6461637
385.5030329
388.9672028
404.3476725
416.0033001
432.4462996
452.4454828
471.8105363
491.0189115
511.3588792
518.7360429
534.1140527
303.4141834
305.4879964
307.8813746
308.4300613
305.735549
307.5329426
308.9395605
306.8627846
311.6313327
314.2737471
316.7168866
322.0700996
325.26336
329.8559404
335.1582656
342.4074284
343.388235
351.2982199
357.7119709
370.0752053
374.527235
381.3900547
399.4026542
409.2125165
428.8618478
445.7558081
456.5754007
476.6387131
496.094198
507.7954766
299.2255663
300.458843
296.7449955
298.2731649
299.1790136
298.1370107
299.8350557
305.4519063
307.7832607
312.7625229
315.3388331
317.5489274
318.8643939
323.3442864
324.1072619
326.6015501
331.3885923
335.6018487
345.9006186
349.777183
362.6819793
368.2244695
378.5990202
396.4161671
406.6212578
421.6624865
440.3609281
453.4827042
470.0559194
489.0932297
300.4336826
300.8130163
300.0242865
300.9996231
300.5391855
300.6728088
304.4837273
306.9547676
309.5254512
306.4680742
308.6285221
309.8705353
316.0094435
318.371222
318.7667292
320.0133088
322.6045104
331.0759121
334.7149102
340.4110775
351.860913
359.9209282
364.7904144
373.4532417
385.8639681
401.3855732
413.6949462
430.8973033
449.1719083
462.8254866
296.0846767
298.1849774
303.4205896
303.3088692
306.5321909
307.880417
305.2268112
305.4308636
305.0689909
308.6470635
307.8860964
307.7869181
309.1150755
310.3238976
314.8879079
319.5299253
321.2189645
323.2174765
328.4624071
337.8192574
343.2236842
342.752028
351.3633311
361.1840294
371.9413068
380.2070576
394.6892054
411.6983373
422.7889814
439.9123175
303.7470905
303.01654
303.0455949
301.2364772
299.7230203
300.8633538
301.8546666
305.5447282
300.4332605
304.2605854
306.9435582
307.197471
304.8435944
308.540489
311.7335691
315.0909912
318.2993442
319.6385947
324.9313876
325.0727632
331.6255699
339.2773965
341.4472639
346.2897794
356.1917082
367.2026736
376.0718887
386.9990035
402.4544045
411.5132708
299.9708334
300.5447999
300.7949464
301.4255732
303.1487316
298.6088792
299.6815002
301.1596224
303.495306
301.7312515
305.5425121
305.132844
307.3253508
309.3765256
311.7313866
313.1486423
314.2721437
313.2524507
313.6082779
318.3791817
322.4029032
327.5746837
334.7980036
339.7111719
345.7292767
353.1837593
362.462797
370.7477969
376.9989774
392.3903584
302.2744263
301.8794012
298.9008205
300.6430031
300.1546401
303.5113998
304.8558086
304.4129158
300.0997364
302.3418387
301.539866
300.2465984
302.600537
301.4758676
302.7929094
303.7962188
307.7428555
314.6489779
318.953664
321.8393193
321.4044366
320.5704377
325.512657
331.5496051
336.763758
342.9694874
345.2021029
356.9966462
370.93643
379.0830757
297.34723
296.2484974
299.4528675
301.2245878
300.6645114
300.528364
297.9414508
298.0531667
301.5726872
300.7752048
301.5772971
304.8642494
302.7507764
300.1407238
300.4152639
301.4629808
303.6960614
306.5120356
309.5557054
312.2511656
318.350591
323.5197662
322.2129843
323.5144534
325.6795906
330.0443184
337.0291498
342.173581
351.529199
358.9807048
298.9341007
301.8809463
301.6339026
300.6888249
297.9285092
299.9298803
300.6462159
304.219868
304.7314414
303.7686132
298.7448927
297.7047854
299.9661737
303.1924629
307.2654013
308.7347542
311.4022598
310.5374365
308.6784493
306.7671034
306.6208953
310.4133526
315.8719999
315.162581
319.8447906
324.553106
328.519951
333.9788831
336.7160331
347.2953197
303.9119412
303.2992923
301.0974246
301.2292963
305.7130779
306.0926802
304.582104
301.9219734
301.0499332
301.7803166
303.8686958
307.1677289
304.8277835
303.6743902
300.9155806
299.0951258
295.2240436
297.5952845
300.8152242
309.1492935
307.4271498
306.153646
313.9786641
315.9418644
320.8125065
317.4571215
318.530178
326.6771547
335.2161881
339.3495956
301.5173178
301.8228218
303.7084381
306.2468175
302.2314379
299.0912539
302.2024381
303.1030092
303.9933077
305.1382884
301.497302
297.9750329
301.4461765
301.3356769
303.8546388
303.0103724
301.5947289
303.6082101
306.803702
305.9892821
308.0945101
308.0548143
306.8371265
314.403193
317.9378936
320.4586739
321.3833059
324.1524831
326.1918981
331.4695805
304.1732627
303.8984946
302.8811916
301.6704494
302.6186541
305.0725121
305.4308521
304.8667902
301.9111364
299.1053495
302.150003
305.3730212
307.5092245
304.6211746
302.8006851
304.1316882
307.0018411
302.0930511
301.6522866
303.7828197
304.7347931
304.303317
305.8426193
306.7572065
311.4902113
310.760677
316.425979
321.7410369
325.2573493
331.2643214
295.8226711
297.6001001
297.1256318
297.8260609
296.2217405
297.1907553
296.4949032
298.4356154
300.8281783
302.2538384
302.3146641
297.6608163
299.5366348
298.0207671
298.6084004
299.9041616
299.5595829
299.6692986
299.1170847
302.8514859
306.0399446
307.5146144
304.606486
307.2174081
308.5255367
310.2524272
307.0613403
310.2653189
316.1014488
319.1839451
300.6236803
300.2991169
300.4176191
297.9805442
299.4515095
299.6921058
302.4760897
302.1176252
299.721928
298.5115126
300.7009065
301.3082167
297.4465204
299.1816345
297.9002575
297.0392281
296.8442473
302.2207852
304.9090629
300.7379484
300.5014264
306.5401525
306.8806794
309.096294
308.5575213
311.4794486
316.3211546
314.9408388
312.3761546
318.9208345
300.6077964
300.9852217
298.9465664
297.9703767
298.1897135
298.1231307
294.4113231
293.6910938
294.0111859
295.0789813
295.1289905
297.1927923
296.6607934
298.8362043
300.4337571
300.2645694
300.6223249
299.6317805
300.4400127
306.3905532
303.8305096
303.9879373
306.6130793
307.5623159
307.9959245
308.8118191
310.1875255
312.067187
315.3761275
311.0525233
300.6516482
299.0784591
300.18738
300.6311441
301.4626308
297.8551908
299.4712694
299.8064285
299.2398086
299.2093079
296.4047551
298.7244923
296.9627148
294.6320601
296.9138801
298.5908757
301.6891071
301.3735906
302.0041887
301.5379348
300.576782
298.7009743
302.6131936
298.953216
300.5072688
303.0610693
307.421429
307.7967518
307.2804573
313.3417307
)
;

boundaryField
{
    flow
    {
        type            calculated;
        value           nonuniform List<scalar> 
55
(
699.4689224
689.785654
671.5540926
638.2669671
622.9990417
601.3158443
583.3235728
553.7997593
534.1140527
507.7954766
489.0932297
462.8254866
439.9123175
411.5132708
392.3903584
379.0830757
358.9807048
347.2953197
339.3495956
331.4695805
331.2643214
319.1839451
318.9208345
311.0525233
313.3417307
300.6516482
299.0784591
300.18738
300.6311441
301.4626308
297.8551908
299.4712694
299.8064285
299.2398086
299.2093079
296.4047551
298.7244923
296.9627148
294.6320601
296.9138801
298.5908757
301.6891071
301.3735906
302.0041887
301.5379348
300.576782
298.7009743
302.6131936
298.953216
300.5072688
303.0610693
307.421429
307.7967518
307.2804573
313.3417307
)
;
    }
    obstacle
    {
        type            calculated;
        value           nonuniform List<scalar> 0();
    }
    frontAndBack
    {
        type            empty;
    }
    procBoundary3to1
    {
        type            processor;
        value           nonuniform List<scalar> 
36
(
709.0960155
682.2193877
685.1704894
697.3394385
699.9930257
699.9930257
567.7124917
572.7616217
585.5318195
608.6804324
616.7901089
632.9622499
632.9622499
445.5808841
458.8264249
478.2555151
503.2080599
521.5204225
521.5204225
356.4533318
366.4269503
373.0024765
388.4228494
397.4459686
412.1631769
412.1631769
316.2638534
315.95765
316.9851262
324.7530292
330.1337737
334.7637953
338.9340729
338.9340729
306.1648302
306.1648302
)
;
    }
    procBoundary3to2
    {
        type            processor;
        value           nonuniform List<scalar> 
19
(
299.4972738
301.2254219
307.1317684
300.55374
297.6393031
302.8054807
296.7148392
300.8871747
300.3429255
303.1174558
297.2210794
297.4302181
304.8714
301.8924323
304.0924295
297.7008582
300.9849096
299.2094991
297.9676515
)
;
    }
}


// ************************************************************************* //
