/*--------------------------------*- C++ -*----------------------------------*\
| =========                 |                                                 |
| \\      /  F ield         | OpenFOAM: The Open Source CFD Toolbox           |
|  \\    /   O peration     | Version:  2406                                  |
|   \\  /    A nd           | Website:  www.openfoam.com                      |
|    \\/     M anipulation  |                                                 |
\*---------------------------------------------------------------------------*/
FoamFile
{
    version     2.0;
    format      ascii;
    arch        "LSB;label=32;scalar=64";
    class       volScalarField;
    location    "0.005";
    object      internalE;
}
// * * * * * * * * * * * * * * * * * * * * * * * * * * * * * * * * * * * * * //

dimensions      [1 -1 -2 0 0 0 0];

internalField   nonuniform List<scalar> 
654
(
2.3997379
1.658942037
2.672364735
1.944894519
2.261262749
2.326232651
1.279311335
0.8729142244
0.8908043565
1.233230153
1.984732203
2.445398406
1.832020493
1.836002326
0.7515296513
2.173663643
1.923877167
0.3738661871
1.152872223
1.66489757
1.573526253
0.9099299547
1.760572548
1.524424433
0.8035978716
1.038841261
1.905101097
1.055244303
1.862514917
0.7723953948
3.715453044
1.351631491
2.757733402
0.2984291515
0.1372060464
0.368693497
0.3128375789
0.3277068299
0.6914602841
0.6331153223
0.5334943644
0.6514369822
0.4788375471
0.92679927
1.159345929
1.295495858
1.143593411
0.6281496248
1.39765576
0.8978010327
1.593910745
1.779172586
1.978604505
1.625620778
0.8801199415
0.5591667856
0.9091435608
0.1787575431
0.3269246483
0.3138034714
0.391481302
0.4270821151
0.5625069462
0.4618228113
0.4292026724
0.3651666428
0.4529920655
0.5474493484
1.087480279
0.3746637528
1.672599406
0.6395407398
0.7736314942
0.7430396739
0.9782644399
1.254977725
1.501819537
1.248039987
2.247955816
1.192763222
1.71968877
2.234190269
1.453070914
1.620642906
0.4197897487
0.5351030569
0.2555934086
0.3436168734
0.4529886718
0.3825094029
0.2623233788
0.3692844425
0.251524935
0.3983153485
0.1747595118
0.1586353373
0.4324295393
1.221146756
1.128938708
0.3743443638
0.5626499226
0.9155558438
1.187968102
0.6279091714
0.5253501014
0.9206140509
0.3130728716
2.006198651
1.672765096
1.488227361
2.118189692
2.723058506
2.747041653
2.808355728
0.3450443881
0.1957626613
0.3499804397
0.3217518947
0.4740357102
0.1979092918
0.9385302386
0.4226591713
0.4808891849
0.1700555663
0.6018023667
0.4025559339
0.2295871305
0.5218514873
0.9023925614
0.4761032751
0.3187815215
0.626296909
0.7344394568
0.809916981
1.054926721
1.430405986
0.9577561986
0.941455217
0.5140787466
2.632861395
1.013952441
1.208878419
1.014352686
1.397553023
0.6067585056
0.3119018388
0.8539864176
0.3158676759
0.706336205
0.4691835079
0.1217881018
0.5501333724
0.2226832815
0.3537305665
0.5289559902
0.4138363171
0.5991289248
0.4567464435
0.6274912841
0.2609071048
0.5101913212
0.3647748031
1.07053433
0.6215149067
0.4617908841
0.6759289141
1.018918612
1.365153844
0.5648454254
2.213578133
2.995024271
1.322932584
1.510742954
1.923235196
0.2640142344
0.8591266334
0.2428366012
0.2300013042
0.1621240115
0.1860121556
0.3168735296
0.5366231668
0.1733886094
0.6290658181
0.3590732378
0.09514872887
0.2034190239
1.210100126
0.5283942977
0.3313419298
0.2306929048
0.6154787051
0.9262056105
0.5850039651
0.3492715832
0.1809902849
0.514344966
0.4772197367
1.19593879
3.08812993
1.007869034
1.102428789
0.7865338864
0.9598829259
0.4815406219
0.2252810197
0.5996003791
0.3342459694
0.2161892751
0.1049441236
0.3714956106
0.633597046
0.1804739896
0.2253966406
0.8029123448
0.9550303051
0.3321867316
0.8731333475
0.3915503881
0.3043280675
0.4388251929
0.9928808048
0.5133569382
0.4161088198
0.899763182
0.142289621
0.5485988737
0.712064592
1.603017324
0.7081859246
1.240814391
1.242527797
0.86415641
2.022620276
0.1374921535
0.4971885891
0.6931999018
0.5260286737
0.2514257557
0.708686805
0.7988259506
0.2812580448
0.3449050777
0.6207891077
0.5529229156
0.3689062515
0.2173009028
0.1183255233
0.1983356497
0.5576786479
0.2210204037
0.2257219463
0.184736345
0.5720335431
0.6087894456
0.8205411046
0.3688531772
0.6191212374
0.5172322217
1.196929129
0.8936379891
1.146118422
1.179217361
1.647168401
0.360284961
0.1167308177
0.6100637604
0.4721992289
0.5254430747
0.5423502805
0.07719963686
0.5114361749
0.3184751109
0.6504851172
0.576409388
0.4006709928
0.2332556918
0.4617549693
0.1622699351
0.3824671418
0.2323267135
0.9279879816
0.3634723953
0.4306280251
0.3753706484
0.4275521254
0.5454958727
0.4336290411
0.7422190129
0.4871589107
0.4163514569
1.844602982
2.054889864
1.051962719
0.3583563263
0.6051951399
0.3786138929
0.6082088391
0.5252633931
0.401148636
0.7998771836
0.4986286144
0.2301294519
0.3253934214
0.3686116119
0.3592644544
0.6062066613
0.9485726567
0.1658922178
0.5332148552
0.4685515194
0.7624062765
0.4929348319
0.3894536544
0.7483050113
0.3185147738
0.7742446751
0.5803037217
0.5809325878
0.9422569483
0.4933087933
0.2384593338
0.2197188668
1.177130559
0.8141648049
0.2786099067
0.5438872993
0.3409282719
0.6589819367
0.6580565649
0.4385495199
0.52044739
0.6384047274
0.1182328466
0.6190193764
0.6200769882
0.3182123375
0.6366544194
0.9273983846
0.3750410854
0.6185907954
0.4666656934
0.5090055626
0.6452766518
0.3777839438
0.4141761026
0.1487664427
0.6243428716
0.3937217376
0.6822065418
0.6327727868
0.6686415001
0.210162569
0.4623434777
0.5290199356
0.4248751037
0.1795141298
0.1571782408
0.09790434533
0.9620007799
0.2576712647
1.129326263
0.1540422438
0.09953163696
0.2893131036
0.500074457
1.059735217
0.4968903907
0.6456560899
0.295585426
0.2359633013
0.8437390965
0.6848689241
0.3680258951
0.07074216761
0.4665621332
0.8041520189
0.2730751238
0.1923403791
0.5932008377
0.3795520325
0.218811361
0.795400143
0.8076119502
0.323553189
0.6224068731
0.1651993141
0.3736349671
0.3568342132
0.09061433191
0.5852335317
0.3577304118
0.4150532191
0.6952955341
0.6758334211
0.4000242215
0.4081903756
0.768824913
0.2172022092
0.09709465518
0.482557456
0.4051134155
1.059933888
0.2989233117
0.7290712167
0.2560787816
0.2816870561
0.4600852074
1.039313726
0.4610751556
0.4776169014
0.2884248528
0.875092535
0.7288406744
0.697436107
0.08487340366
0.5404786096
0.5662966892
0.3501193389
0.3048798557
0.2354754849
0.5158739333
0.3876399871
0.7200571815
0.08585791729
0.5775357269
0.2886792906
0.3318863634
0.3517264112
0.2746075707
0.4910524774
0.7634095216
0.613361387
0.7053657309
0.2857413938
0.1842521811
0.6997520011
0.5667119514
0.1115567374
0.2093129178
1.031740906
0.5091660552
0.5564619368
0.6359196524
0.282553723
0.5205479898
0.3699680229
0.4084955573
0.7598594412
0.6050072215
0.1925006177
0.1878129297
0.3416390808
0.295583209
0.4611556183
0.4914456697
0.5061192515
0.7440155102
0.6323711205
0.7522141997
0.5431972343
0.3960021438
0.7008140611
0.4640027915
0.6933591299
0.5483889846
0.327590188
0.443668166
0.4000937784
0.3948555441
0.5286215952
0.4720381214
0.8078716204
0.3823371951
0.6677113012
0.3834320342
0.2922304468
0.9503566874
0.2542772321
0.8164218904
0.6392129903
0.2062043509
0.6619912783
0.4108124422
0.474314181
0.1726587187
0.3100652377
0.2396657066
0.3463134894
0.5476075051
0.6424057347
0.1020337971
0.3829205781
0.3792955578
0.2538368284
0.7333992597
0.3027168352
0.5560325164
0.7565104115
0.4285266726
0.3710365387
0.803984699
1.035653483
0.4048750205
0.6126007857
0.2027352009
0.6153670879
0.672109395
0.06759104368
0.571606913
1.016597045
0.4223454036
0.3411085587
0.1512730174
0.9999746263
0.3232123786
0.2133133567
0.2447327919
0.3454049619
0.449307512
0.2470751556
0.2048896412
0.04004045098
0.5982335946
0.4356347212
0.9330206896
0.2072126532
0.3855698572
0.382807377
1.145740701
0.3406830114
0.3217939126
0.2022795247
0.4672285466
0.575005431
0.2447023695
0.3334830275
0.3242850596
0.7537788646
0.5627002163
0.7816367654
0.49639505
0.3341337019
0.1545570167
0.1849528596
0.3118631785
0.3969688675
0.7619206669
0.687203418
0.7286464971
0.4651842942
0.2796163009
0.2625325021
0.2867184457
0.2610822453
0.3755778729
0.6427971015
0.4262218424
0.4354941094
0.6931287679
0.3350487585
0.4455222112
0.4432639155
0.5571105152
0.2844165715
0.2698716565
0.4163058145
0.6300441155
0.4303457125
0.4183292275
0.2272687418
0.3668355366
0.2555451019
0.3848800525
0.2782902728
0.4527169863
0.3522981151
0.2579135629
0.4854493887
0.4788655608
0.3132275717
0.6056464558
0.3658593876
0.6568466082
0.4548533971
0.4410607845
0.7366279878
0.2064600689
0.1856753148
0.2536130429
0.3851028538
0.4606967364
0.3115701651
0.286577315
0.4875572523
0.2728723471
0.6230263794
0.5688565479
0.5604756542
0.1804979239
0.3520239976
0.224650664
0.3607962754
0.4085582437
0.1884791087
0.7645452864
0.4345363029
0.8019451895
0.4235517866
0.3252286724
0.5333204724
0.8356911057
0.2142192659
0.1181966552
0.5330098218
0.433394711
0.3151209676
0.3940483336
0.5266339738
0.2635861369
0.7581893333
0.1870069043
0.4958373859
0.3502060028
0.5166651751
0.3113072145
0.1776256783
0.3606049176
0.4125432383
0.626949255
0.247092256
0.3495545117
0.3189177834
0.44334957
0.3416929443
0.655943812
0.2767686734
0.567554851
0.2254330254
0.335132788
0.4137411954
0.352064598
0.3577338585
0.4811662181
0.5125553367
0.3463659029
0.1730108148
0.4679717341
0.1957987449
0.1196609717
0.2355758053
0.5908524008
0.2885029706
0.8351380802
)
;

boundaryField
{
    flow
    {
        type            zeroGradient;
    }
    obstacle
    {
        type            calculated;
        value           nonuniform List<scalar> 0();
    }
    frontAndBack
    {
        type            empty;
    }
    procBoundary3to1
    {
        type            processor;
        value           nonuniform List<scalar> 
36
(
2.019526243
3.180304133
2.798654359
1.346563244
2.531238426
2.531238426
1.554796325
1.999068779
1.199844702
1.362452075
2.275329937
2.305344614
2.305344614
0.7550582277
1.944552364
1.018696197
1.60997095
1.544600608
1.544600608
0.4717145936
0.4732001829
0.2720974884
1.043101401
0.4288108501
0.4702219087
0.4702219087
0.53454875
0.407692512
0.1866057778
0.5223243349
0.6908153429
0.8807184555
0.3572050098
0.3572050098
1.02065218
1.02065218
)
;
    }
    procBoundary3to2
    {
        type            processor;
        value           nonuniform List<scalar> 
19
(
0.255945068
0.2951176893
0.400254769
0.2488594416
0.5652555353
0.2189974882
0.124198515
0.07711993798
0.6713572717
0.4908004282
0.1548773557
0.3545579493
0.2990529166
0.4694673725
0.6058563003
0.3005885444
0.400414248
0.2345572994
0.3334829539
)
;
    }
}


// ************************************************************************* //
