/*--------------------------------*- C++ -*----------------------------------*\
| =========                 |                                                 |
| \\      /  F ield         | OpenFOAM: The Open Source CFD Toolbox           |
|  \\    /   O peration     | Version:  2406                                  |
|   \\  /    A nd           | Website:  www.openfoam.com                      |
|    \\/     M anipulation  |                                                 |
\*---------------------------------------------------------------------------*/
FoamFile
{
    version     2.0;
    format      ascii;
    arch        "LSB;label=32;scalar=64";
    class       volScalarField;
    location    "0.005";
    object      internalEMean;
}
// * * * * * * * * * * * * * * * * * * * * * * * * * * * * * * * * * * * * * //

dimensions      [1 -1 -2 0 0 0 0];

internalField   nonuniform List<scalar> 
654
(
2.317927089
2.141076419
2.244421089
2.270057257
2.285980888
2.341893521
1.452652104
1.570392652
1.663966124
1.77864255
1.895195852
1.985031107
2.043561721
2.093802336
2.181000554
2.217773536
2.267474736
0.8287493723
0.903505693
0.9884726977
1.04853343
1.165602409
1.275958452
1.386923305
1.476336046
1.594005734
1.691312866
1.804922673
1.904796129
1.960526437
2.022181824
2.080052316
2.114410727
0.5258740884
0.540283229
0.5596743445
0.589305211
0.6274894299
0.6722517682
0.7142813069
0.7839513029
0.8522269365
0.9454227289
1.039448483
1.094167606
1.213369502
1.314781694
1.411172999
1.510415944
1.61270242
1.732859005
1.831919672
1.903690318
1.96049072
2.062949914
0.4286511012
0.4337834508
0.4334710433
0.4447034512
0.4549036617
0.4670653475
0.4841450568
0.5008202521
0.5179860468
0.5385154102
0.5583216271
0.5941015791
0.6351498386
0.6824739914
0.7200386628
0.7693702081
0.8293449726
0.8978671315
0.9844060945
1.077629688
1.170490835
1.268419302
1.377502909
1.472060026
1.577970625
1.687415932
1.797460143
1.884918107
1.938641637
0.4210536457
0.4231159743
0.432406807
0.4349624241
0.4398314271
0.4521416779
0.4613070355
0.4727802705
0.4844841425
0.5024379956
0.5087175065
0.5308303778
0.5603056315
0.5817138386
0.616651025
0.6467342581
0.6898505919
0.7266014236
0.7902787645
0.8456262889
0.9281047253
1.005628624
1.119282762
1.214601432
1.319115678
1.418878967
1.510671089
1.616256371
1.700370682
1.814370465
0.4244174558
0.4228452947
0.4289622963
0.4351140817
0.4371073269
0.4378999955
0.4458872119
0.4579508602
0.467540113
0.4896570409
0.4937749147
0.5000686524
0.5153922425
0.5383182649
0.5579659971
0.589098772
0.6180437811
0.6468753832
0.6855526511
0.7295710239
0.7840889843
0.8706024941
0.9590407519
1.057007309
1.160066211
1.235255048
1.353770376
1.446738299
1.549905936
1.641679789
0.4312369103
0.4326287968
0.4337878258
0.4366343441
0.4464345283
0.4482988917
0.4479821683
0.4518572197
0.4451396246
0.4407306648
0.4546042094
0.4681513746
0.4779541061
0.4927025042
0.5086081524
0.5316201408
0.5642678287
0.6064942053
0.6318518259
0.6696682912
0.7093564857
0.7654055988
0.8115255708
0.9001109297
0.9918789168
1.073744846
1.181616034
1.290384416
1.380062601
1.482480344
0.4266770456
0.4307065144
0.4379680567
0.436977002
0.4300500846
0.433595433
0.4379573051
0.437011671
0.4468071039
0.45459026
0.4570688413
0.4684347774
0.4734789613
0.480192288
0.4925904944
0.5150865118
0.5286107262
0.5538669869
0.5843892211
0.6222000873
0.6417811889
0.6813187328
0.7430650109
0.7811378145
0.8595511668
0.9508563123
1.022205324
1.125871437
1.240325846
1.336766154
0.4126494667
0.4123472497
0.4087313928
0.4091543776
0.418078228
0.4180474249
0.4252837659
0.4312128337
0.4352339734
0.4410371523
0.4491357575
0.4525730041
0.4568871968
0.4685210252
0.4768183917
0.4823308127
0.4967199458
0.5178152847
0.544950946
0.5613393782
0.6005540662
0.6263910867
0.6752247527
0.7387827885
0.7870380982
0.8566716431
0.9350479286
1.007678004
1.087221808
1.182261521
0.416641893
0.4192533364
0.4203780848
0.4186901915
0.4183103128
0.4168855501
0.418777053
0.4260387152
0.4347645318
0.4354132171
0.436009176
0.4357627375
0.4498344775
0.4556473317
0.4567930043
0.4617099048
0.4685209247
0.4906367639
0.5033230631
0.5274682947
0.5568396296
0.5849386588
0.6123934757
0.6528868351
0.6949414668
0.7536463303
0.8182076123
0.8913334717
0.9866831536
1.076566743
0.4131234675
0.4104919606
0.4148932333
0.4183674495
0.4233848883
0.4287795471
0.4260883424
0.4265162978
0.4224422105
0.4251011365
0.4318731708
0.4367314408
0.4389916844
0.4400292366
0.45071297
0.46577162
0.4697322059
0.4739362088
0.4928192804
0.5095940291
0.535297969
0.5439865347
0.5667827919
0.5969375123
0.6349740585
0.6717508754
0.7289050198
0.7998876102
0.8629533399
0.9520471392
0.415291029
0.4183156452
0.4185147463
0.4156233878
0.4092937262
0.4118294515
0.4112297552
0.4159814833
0.4072054349
0.4169811698
0.4206203217
0.423041121
0.4270245221
0.4347328983
0.44135623
0.4500247048
0.4596103722
0.4684849003
0.4777361945
0.4875587411
0.5028383986
0.5188477482
0.530612791
0.5488423635
0.5820076908
0.620701507
0.6551499895
0.7064392671
0.7661770845
0.8132794526
0.4115031174
0.4110398241
0.4112273192
0.4109394185
0.4158677216
0.4072841478
0.4107158582
0.4117025925
0.4173072595
0.4198984116
0.4242149944
0.4232407535
0.4222558179
0.4321190568
0.439932891
0.4477736479
0.4508179041
0.4541151527
0.4522034597
0.4665667063
0.4708577204
0.4882396462
0.5140732985
0.5311009009
0.5548288097
0.581066279
0.6093886063
0.6421276929
0.6759312931
0.7381970274
0.4147568317
0.4117536114
0.4070029415
0.4104247631
0.4077377514
0.4164104879
0.423041982
0.4257308652
0.4161140184
0.4207080164
0.4197663438
0.4210352588
0.4236563719
0.4260380501
0.424747475
0.4293471604
0.4337850331
0.4408207134
0.4487354616
0.4547981114
0.456637989
0.4668155998
0.4731782885
0.4900563588
0.5091267509
0.5342691868
0.5544258487
0.5946273458
0.631061146
0.6673557591
0.4083276808
0.4058480108
0.4101079112
0.4132602152
0.4148774595
0.4173036786
0.4122887358
0.4156104522
0.4228993731
0.4213407104
0.4199595661
0.4266067546
0.4252650041
0.4190957227
0.4185089115
0.4200489643
0.4229871317
0.4308958463
0.4372365431
0.4448894399
0.4553032949
0.4663493367
0.4724987134
0.4840612063
0.488183155
0.4991654873
0.5175694592
0.5385165219
0.5797689725
0.6079903738
0.4191547324
0.4271091974
0.4283413209
0.4228097453
0.4160265369
0.4151418726
0.412895163
0.4174554285
0.4168813319
0.4187648059
0.4123008999
0.407902668
0.4113703192
0.4177933024
0.4250823548
0.4313200572
0.4368234593
0.4378952478
0.4414603592
0.4401667611
0.4455829824
0.4526611857
0.4584177091
0.4577337791
0.4677521901
0.4764849326
0.4898693224
0.5107109875
0.5205374817
0.5608507606
0.4237811857
0.4232485004
0.4222035072
0.4239894729
0.4281650328
0.4331394111
0.4279316266
0.425421252
0.4181249227
0.4165642073
0.4195145009
0.4262288562
0.4265468864
0.4244457514
0.4193720819
0.4155006667
0.4117674293
0.4174761585
0.421627975
0.4314812237
0.4300403885
0.428001502
0.4449333
0.4542046619
0.472157736
0.4702325297
0.4783372744
0.49505453
0.5138816197
0.5293318006
0.4144464305
0.4095292498
0.4122509405
0.4177450892
0.413702829
0.4088267757
0.412702202
0.4161603604
0.4196923882
0.4194387529
0.4166235323
0.4125895837
0.4174539268
0.4145538058
0.4208671873
0.4207077166
0.4175206057
0.4227745266
0.4242414997
0.4277975027
0.4338364868
0.4369295322
0.4324563304
0.4486662321
0.4561206831
0.4624044966
0.4664130911
0.4792119813
0.4955728187
0.5059578167
0.4137068165
0.4114353418
0.4127275449
0.4098401916
0.4128809895
0.4186307628
0.4202380274
0.4170691082
0.414771407
0.4122370073
0.4175658581
0.417750935
0.4182476548
0.4195743197
0.4175888474
0.4223069159
0.4290348909
0.4196813099
0.4221338998
0.4279265718
0.4276899036
0.4278655559
0.4308061991
0.4339153398
0.4448336123
0.4490943299
0.4560463147
0.4663537305
0.4787899272
0.4958458935
0.4057759717
0.4115067998
0.4076305352
0.4101067937
0.4061760435
0.4078724851
0.411593421
0.4194760131
0.4204696099
0.4256171155
0.4240580983
0.4205379887
0.4243919057
0.4194412989
0.4160123772
0.4182944076
0.4179406063
0.4165049764
0.415704479
0.420337369
0.4296327271
0.437176521
0.4377038895
0.4397623318
0.4421304831
0.4511129631
0.4510330572
0.4624199246
0.4735658389
0.4823336243
0.4252297059
0.4231845913
0.4261041705
0.4235312742
0.4246125468
0.4210566365
0.4203472729
0.416069977
0.413676989
0.4115967449
0.4131310434
0.4147889253
0.4106826823
0.4155645908
0.415087506
0.4159730755
0.4155687641
0.4249273522
0.4289108556
0.4231828579
0.4209195623
0.4291478189
0.4315657769
0.4355889101
0.4356819117
0.4442979136
0.4529902085
0.4501000577
0.4485310923
0.463219572
0.4176840862
0.4152672292
0.4134740804
0.4128722853
0.4129849459
0.416206779
0.4112763665
0.4083772742
0.4099740766
0.4115607045
0.4110589337
0.4170733063
0.416529238
0.4210800467
0.4217492265
0.4197584042
0.4220815062
0.4229622218
0.4231603107
0.4319968947
0.4282071561
0.4239500315
0.4282908546
0.4329688592
0.4379450157
0.4339112653
0.4416426711
0.4469572096
0.4568700137
0.453920075
0.4059371519
0.4067387422
0.4080942782
0.409818277
0.4095145595
0.4033832
0.4082544145
0.4125934022
0.4109045688
0.410971355
0.4085759091
0.4073474263
0.4037216712
0.400086318
0.4048588091
0.4094593024
0.411299801
0.4086156959
0.4080143869
0.4093778961
0.4112942134
0.4151988896
0.4188594528
0.4134321333
0.4117328174
0.4178548939
0.426481743
0.4289551853
0.4303169071
0.4469076426
)
;

boundaryField
{
    flow
    {
        type            calculated;
        value           nonuniform List<scalar> 
55
(
2.317927089
2.341893521
2.267474736
2.114410727
2.062949914
1.938641637
1.814370465
1.641679789
1.482480344
1.336766154
1.182261521
1.076566743
0.9520471392
0.8132794526
0.7381970274
0.6673557591
0.6079903738
0.5608507606
0.5293318006
0.5059578167
0.4958458935
0.4823336243
0.463219572
0.453920075
0.4469076426
0.4059371519
0.4067387422
0.4080942782
0.409818277
0.4095145595
0.4033832
0.4082544145
0.4125934022
0.4109045688
0.410971355
0.4085759091
0.4073474263
0.4037216712
0.400086318
0.4048588091
0.4094593024
0.411299801
0.4086156959
0.4080143869
0.4093778961
0.4112942134
0.4151988896
0.4188594528
0.4134321333
0.4117328174
0.4178548939
0.426481743
0.4289551853
0.4303169071
0.4469076426
)
;
    }
    obstacle
    {
        type            calculated;
        value           nonuniform List<scalar> 0();
    }
    frontAndBack
    {
        type            empty;
    }
    procBoundary3to1
    {
        type            processor;
        value           nonuniform List<scalar> 
36
(
2.302636769
2.299343789
2.316515649
2.351897675
2.350975529
2.350975529
1.618793931
1.697108788
1.822385809
1.934858907
2.007150276
2.076717988
2.076717988
0.9351229983
1.011374627
1.098094866
1.22794685
1.326178278
1.326178278
0.5586413594
0.5846841677
0.6254659773
0.667639129
0.7028649404
0.7593776162
0.7593776162
0.4445967687
0.4458812614
0.4514065654
0.4674528905
0.4782828373
0.4919193048
0.5096855448
0.5096855448
0.4241536413
0.4241536413
)
;
    }
    procBoundary3to2
    {
        type            processor;
        value           nonuniform List<scalar> 
19
(
0.4178464502
0.4192386639
0.4333518419
0.4234050955
0.4105685574
0.4209535992
0.4120850957
0.4096457458
0.4135222436
0.41659669
0.4080176392
0.4153283933
0.4237131051
0.4154885672
0.4108491954
0.4122095972
0.4193851678
0.4190273743
0.401199922
)
;
    }
}


// ************************************************************************* //
