/*--------------------------------*- C++ -*----------------------------------*\
| =========                 |                                                 |
| \\      /  F ield         | OpenFOAM: The Open Source CFD Toolbox           |
|  \\    /   O peration     | Version:  2406                                  |
|   \\  /    A nd           | Website:  www.openfoam.com                      |
|    \\/     M anipulation  |                                                 |
\*---------------------------------------------------------------------------*/
FoamFile
{
    version     2.0;
    format      ascii;
    arch        "LSB;label=32;scalar=64";
    class       volScalarField;
    location    "0.005";
    object      linearKEMean;
}
// * * * * * * * * * * * * * * * * * * * * * * * * * * * * * * * * * * * * * //

dimensions      [1 -1 -2 0 0 0 0];

internalField   nonuniform List<scalar> 
654
(
14.64079885
15.54428213
15.71532603
15.42902766
15.34575047
15.31163423
13.4191217
13.9812797
14.36638083
14.83066325
15.23937674
15.40076029
15.51740381
15.63334118
15.94766114
15.82701922
15.61227513
10.24418051
10.77247365
11.18958931
11.56785212
12.0822952
12.64169584
13.12951158
13.6002738
14.087372
14.60965166
15.06772563
15.38497755
15.54681322
15.6099898
15.70160333
15.68101943
8.467389268
8.627834649
8.718881502
8.968706735
9.240122484
9.492309466
9.699652227
10.07905808
10.60326622
11.06270662
11.59603824
11.96682428
12.55975816
12.97556066
13.39169419
13.81713475
14.34714202
14.85153571
15.24037766
15.52084423
15.58504268
15.85182977
7.942866827
7.929538345
7.901823843
8.046766195
8.182065694
8.22651366
8.356722337
8.347206699
8.534692948
8.70126399
8.850898452
8.979978669
9.1918134
9.525844529
9.756625633
10.02177167
10.38024351
10.79362112
11.2854619
11.77560153
12.36329253
12.81508803
13.31012939
13.78590027
14.34563511
14.78074926
15.16189778
15.55638127
15.70086402
7.92769027
7.96905268
8.051446326
8.103945364
8.123566163
8.12050535
8.172116953
8.266644776
8.334440498
8.416253015
8.452974739
8.634587442
8.806303543
8.967963094
9.129093657
9.401671145
9.568186988
9.856801547
10.17599208
10.4510391
10.925765
11.43627213
12.0837655
12.49630443
13.06266235
13.64063197
14.06066385
14.62125938
14.88169544
15.42841856
7.980432113
7.932402977
7.958731524
7.979829576
8.058724253
8.053906054
8.09091849
8.164762906
8.274203185
8.418031416
8.471278293
8.552764135
8.654428302
8.786643489
8.873500667
8.963472251
9.1388968
9.2977705
9.573121386
9.957688165
10.23472941
10.70771852
11.18217322
11.73831951
12.34980036
12.75841425
13.47783002
13.9852832
14.54370042
14.83946964
8.009171768
8.078415056
8.079164709
8.075121841
8.134522268
8.140809656
8.079964659
8.095929743
8.074378413
8.055507776
8.063756669
8.189876932
8.289678943
8.389042122
8.548827432
8.704382494
8.92152373
9.124926092
9.221152109
9.468365257
9.865479851
10.20885004
10.48849062
11.03069047
11.44189303
11.84870246
12.40152648
12.95439545
13.51105567
14.09538597
8.016535756
8.002896581
8.093708399
8.021776429
7.976767741
7.982577917
8.027684761
8.072379572
8.091440107
8.17383684
8.132319254
8.19844309
8.175494499
8.14023768
8.217734027
8.398468083
8.533860482
8.729770064
9.016783637
9.248268345
9.393373711
9.652265325
9.977078118
10.18667181
10.62057224
11.23414112
11.68836183
12.18655969
12.84041893
13.42255094
7.782577214
7.774848175
7.803568185
7.787243229
7.912825449
7.931367065
8.019785933
8.000861445
7.997497602
7.977224798
8.040749231
8.041867405
8.084861027
8.142972935
8.245429862
8.263126592
8.378244997
8.570107549
8.708926088
8.811184503
9.05639329
9.283778834
9.690570884
10.0777843
10.40940476
10.81748633
11.2616709
11.69178588
12.12946328
12.53436392
7.903521144
7.925208648
7.962250907
7.908603423
7.902714507
7.899717738
7.824251163
7.866039546
7.950647842
8.023819627
7.977454927
7.902370321
7.994000931
8.082707456
8.056255764
8.118681374
8.16159997
8.306481916
8.393510796
8.590873362
8.788025275
9.010420262
9.224003801
9.536227718
9.721919875
10.11953695
10.62890088
10.98614319
11.56187352
12.15277688
7.933094423
7.82433751
7.763172482
7.832594709
7.835383177
7.910336483
7.925689803
7.887472559
7.831608298
7.821522368
7.954900917
8.021511446
8.00343192
7.989192412
8.081340984
8.203269203
8.209039963
8.222834786
8.416941517
8.42807388
8.66078676
8.792838544
8.942828238
9.156583324
9.434030942
9.660980902
9.949953208
10.47521666
10.93496405
11.48804679
7.754215001
7.839385005
7.855538628
7.823729325
7.720192499
7.743130194
7.722291129
7.718903171
7.687636787
7.751705761
7.756385339
7.815795629
7.96036232
7.973493657
7.995541692
8.089415354
8.155581554
8.259255878
8.253193768
8.398108909
8.462090114
8.504718073
8.584144259
8.717241984
8.945903145
9.250844509
9.547623804
9.920154475
10.25722256
10.58721835
7.774108437
7.762114823
7.742968128
7.703752825
7.779511565
7.724061885
7.749089754
7.734448796
7.80038208
7.904319517
7.884189468
7.876019561
7.812478757
7.952125845
7.981980288
8.069885326
8.065484006
8.149034336
8.100299719
8.215924973
8.190758822
8.333676852
8.553172414
8.687019342
8.886333355
9.083551483
9.241918202
9.450286395
9.749337659
10.18328249
7.74737839
7.742074025
7.734953373
7.769344586
7.725405697
7.808807281
7.868010196
7.921658792
7.848430634
7.865528478
7.875011019
7.939045847
7.918741656
7.985699008
7.921524511
7.960662179
7.967358311
7.890516974
7.938534834
7.975412587
7.991551515
8.180592435
8.145130994
8.22940401
8.379104879
8.56572159
8.827914654
9.124008418
9.281354948
9.586369359
7.811980287
7.753823713
7.783668527
7.78249943
7.824354526
7.887234191
7.863553799
7.921953726
7.972051875
7.966673035
7.903373726
7.924521938
7.959310144
7.887574028
7.880862523
7.861574099
7.87525875
7.957432185
7.947727109
8.047576528
8.08566386
8.127504764
8.247401168
8.389322135
8.380647391
8.492947794
8.54853405
8.762370043
9.081561147
9.262844783
7.964219382
8.011312432
8.045677784
7.972529223
7.938348809
7.873174735
7.819428269
7.802952567
7.772719683
7.830238833
7.825127815
7.781150416
7.774543033
7.825953908
7.867049507
7.937942976
7.959254077
7.963384648
8.093172767
8.108692004
8.185268491
8.221940942
8.191381602
8.200959373
8.24279292
8.264274718
8.385058309
8.547003363
8.597758208
8.889661289
7.922931752
7.929786614
7.975432878
8.006950764
7.963608312
8.036796359
7.945039456
7.965534606
7.846669547
7.805268171
7.818118249
7.856965736
7.949155135
7.926808694
7.894552209
7.881917543
7.914617845
7.964320722
7.93270067
7.871728502
7.893894784
7.909169039
7.97887325
8.106588656
8.297837254
8.321727034
8.441582362
8.50084854
8.590637062
8.714407285
7.776838339
7.696447591
7.667417444
7.683697181
7.723332288
7.71014186
7.726166506
7.77797379
7.823081307
7.770832053
7.8090355
7.813911227
7.823363338
7.77790481
7.863165438
7.86923103
7.845631717
7.877980767
7.837764664
7.956075123
8.00882813
8.020675745
7.979750847
8.056950989
8.05372483
8.096248993
8.150452456
8.292676744
8.513998628
8.534392427
7.758022171
7.675729217
7.708297559
7.677108027
7.718861236
7.746734992
7.760934459
7.720981906
7.783962143
7.795351529
7.83506047
7.775980637
7.704259168
7.779054959
7.778662084
7.84538831
7.925457542
7.843389903
7.912724115
7.950999459
7.927934537
7.918473873
7.923774165
7.968792346
8.045696419
8.139565064
8.128237675
8.194030644
8.276579514
8.388061856
7.783921373
7.854403536
7.828454578
7.849951862
7.800189848
7.810133406
7.875580783
7.960929917
7.910646916
7.961637605
7.934602268
7.953140672
7.965177054
7.924237622
7.845380325
7.861867509
7.886076388
7.889240311
7.889028653
7.853585581
7.925844448
8.054953481
8.132117579
8.092136391
8.091302322
8.183622071
8.237583658
8.361245083
8.38392618
8.439876317
8.012937225
8.002701922
8.016909926
8.049851985
8.038561372
7.958107416
7.886034446
7.83701653
7.841324756
7.855263113
7.816805495
7.84239077
7.876241594
7.948472998
7.967368001
7.995053399
7.973796239
7.99772091
7.989306008
8.002240629
7.978655344
7.949233592
7.98821528
7.999329527
8.015979023
8.054076001
8.08586185
8.053588003
8.05953017
8.152498167
7.915850507
7.8634051
7.902622273
7.898115832
7.908137146
7.96808341
7.974295953
7.951826775
7.983328155
7.971152461
7.949003835
8.016047939
8.013316602
8.052956548
8.01483324
7.979944496
7.99247542
8.018413688
8.005929818
8.036283632
8.014351764
7.922669837
7.945067876
7.993979504
8.081883654
7.978579362
8.059351532
8.062586943
8.168310806
8.23557185
7.70043774
7.768123834
7.765198882
7.784618616
7.76879422
7.734721172
7.801496939
7.835819508
7.838267054
7.843592643
7.856385598
7.772679036
7.737662992
7.725741417
7.767634814
7.813617414
7.768642264
7.744839335
7.707688742
7.750213731
7.799265811
7.922467442
7.886812439
7.89581572
7.817012125
7.84561244
7.89952709
7.958291655
7.975580019
8.06552997
)
;

boundaryField
{
    flow
    {
        type            calculated;
        value           nonuniform List<scalar> 
55
(
14.64079885
15.31163423
15.61227513
15.68101943
15.85182977
15.70086402
15.42841856
14.83946964
14.09538597
13.42255094
12.53436392
12.15277688
11.48804679
10.58721835
10.18328249
9.586369359
9.262844783
8.889661289
8.714407285
8.534392427
8.388061856
8.439876317
8.152498167
8.23557185
8.06552997
7.70043774
7.768123834
7.765198882
7.784618616
7.76879422
7.734721172
7.801496939
7.835819508
7.838267054
7.843592643
7.856385598
7.772679036
7.737662992
7.725741417
7.767634814
7.813617414
7.768642264
7.744839335
7.707688742
7.750213731
7.799265811
7.922467442
7.886812439
7.89581572
7.817012125
7.84561244
7.89952709
7.958291655
7.975580019
8.06552997
)
;
    }
    obstacle
    {
        type            calculated;
        value           nonuniform List<scalar> 0();
    }
    frontAndBack
    {
        type            empty;
    }
    procBoundary3to1
    {
        type            processor;
        value           nonuniform List<scalar> 
36
(
14.08921413
15.3619965
15.19761517
15.10854073
14.87703456
14.87703456
14.01306579
14.39667055
14.90943682
15.11204232
15.35589831
15.41350402
15.41350402
10.93734309
11.37551613
11.81814502
12.35190125
12.75765449
12.75765449
8.612412696
8.712753856
9.136801529
9.312726734
9.519387893
9.815101975
9.815101975
7.953788333
7.964320488
8.000987376
8.103435873
8.137335915
8.206849623
8.358763525
8.358763525
7.840947212
7.840947212
)
;
    }
    procBoundary3to2
    {
        type            processor;
        value           nonuniform List<scalar> 
19
(
7.933369037
7.924098849
8.0063306
8.020460992
7.789628519
7.906860312
7.877529341
7.74036114
7.800497152
7.767888403
7.79500637
7.949417255
7.905577143
7.80175271
7.690776579
7.856467232
7.88247485
7.976926342
7.717502513
)
;
    }
}


// ************************************************************************* //
