/*--------------------------------*- C++ -*----------------------------------*\
| =========                 |                                                 |
| \\      /  F ield         | OpenFOAM: The Open Source CFD Toolbox           |
|  \\    /   O peration     | Version:  2406                                  |
|   \\  /    A nd           | Website:  www.openfoam.com                      |
|    \\/     M anipulation  |                                                 |
\*---------------------------------------------------------------------------*/
FoamFile
{
    version     2.0;
    format      ascii;
    arch        "LSB;label=32;scalar=64";
    class       volScalarField;
    location    "0.005";
    object      linearKE;
}
// * * * * * * * * * * * * * * * * * * * * * * * * * * * * * * * * * * * * * //

dimensions      [1 -1 -2 0 0 0 0];

internalField   nonuniform List<scalar> 
654
(
8.311092004
12.04736517
16.69971498
15.44526798
20.80154902
16.41150808
11.92963236
11.19390975
6.372168885
16.54321298
15.39405782
17.29598102
15.99670946
20.76956964
13.49280562
11.13254365
14.93203814
4.597009836
10.94396242
14.96809732
13.98228503
10.00405708
22.56663511
15.28495248
7.347624946
10.59143127
11.58024292
12.41732119
16.03008926
11.07919457
21.29502191
14.12552869
24.15171282
7.773873127
6.074525614
8.673650173
6.712563381
4.926529297
8.739441837
11.09109907
8.55549405
9.598378935
10.70781663
12.87875059
13.23490965
16.25887599
9.529901858
7.569284697
8.762903639
9.291965107
12.74419691
16.03880875
15.20756412
19.36619791
12.05382697
10.53159246
10.82593706
3.759305406
7.969303326
4.116053393
7.49506626
7.193166387
10.24361617
7.96934242
8.80351904
6.501183146
9.78881808
5.569921978
11.70028655
6.776027671
21.7056389
8.575246378
9.340458053
9.303597922
9.731297804
11.95395521
13.83842591
16.61915567
15.4932263
12.71438267
9.494326711
13.70546764
11.42720455
15.21419729
5.133576883
9.381543253
5.815455979
6.386955209
7.810985968
7.045790422
7.910987846
8.27583571
5.19514765
10.2963765
3.969217903
7.282580739
9.999974001
22.2957026
8.076016393
8.586925308
8.887398447
4.007745077
17.02305531
8.756758737
13.46282837
12.24010839
8.178733623
21.28593999
13.9764575
15.76902024
13.34354998
19.10039586
16.98557048
20.53210421
7.027962074
5.802110779
8.479662881
7.37350463
10.33418731
7.53172722
11.45985373
8.827469377
7.937374603
6.490593681
8.284346189
7.579334874
3.270893909
9.735116844
6.819537719
7.676186983
6.366586951
10.69407533
15.18396879
15.44701032
10.66148562
14.58955547
16.25886758
6.205756815
10.47530228
17.6266363
13.12685845
14.0727403
12.17459382
15.52969933
7.708865002
6.285051396
13.47419552
8.99511511
9.913141428
6.773501356
4.202384139
7.602548241
9.994197872
10.67532954
5.271680432
8.215435902
10.4871743
6.501330619
10.54110072
5.079691359
10.28922381
5.855931654
8.465449885
6.18440608
5.134335652
9.169409104
8.877833188
15.29025477
10.40330609
25.10835148
28.06815854
16.4745471
14.81199605
15.82671708
6.326974607
8.39131577
5.307479224
5.869437739
5.585886178
5.130081237
10.43508945
3.752373284
9.521791603
8.735646658
9.44160304
4.609633071
7.350940988
7.50446822
7.24793577
6.990953442
3.535184255
6.452704398
10.59681257
10.34169392
10.85987972
5.21012039
6.353842849
7.880261928
10.3719076
20.35040646
16.33206193
14.50851459
10.27826493
7.54889629
11.31538293
6.833258802
9.36245649
6.396945632
7.259076228
2.911729485
8.980205819
6.999427511
5.419137399
2.910735047
13.39211978
9.916757438
7.036482557
13.28026624
8.90209101
6.2593417
4.851686911
9.110109326
6.981328031
8.570018436
15.24050844
4.652954768
11.01984395
14.20791707
17.27101066
11.46261366
15.79475933
13.5854165
13.54281739
16.68306566
4.735540889
7.394056036
10.89440703
9.063242774
5.578207947
8.183379116
10.42646885
4.756611922
5.478786387
11.02408031
10.09664327
5.361915301
6.055720328
3.788455156
4.532638837
7.516245247
5.586350311
10.17721755
2.79690382
11.36859061
7.697126476
11.36517249
7.793871588
11.60518469
11.36157603
10.57077437
13.37137529
9.880310039
9.826943295
11.01325334
7.224780371
7.540635082
9.50578224
6.466291744
10.41143618
6.903274246
3.753568521
9.494498608
4.225850013
12.05584471
11.68517741
7.959642195
5.877863048
8.787196055
7.067433073
6.654880748
8.93318803
10.44598799
6.133963236
6.992639035
7.178566994
7.443788039
7.234155693
5.315532336
9.128594189
8.974215507
11.97575542
16.35851639
7.365135774
16.20533094
8.759932107
12.85727291
5.34908441
10.99054437
12.22690797
4.096958032
13.75045978
4.832441263
7.227838703
6.245732267
3.05799559
7.45379068
11.0312068
16.12098655
5.1819248
12.38246963
7.01846513
9.827857103
9.374280637
6.939306759
11.14124674
7.985682218
7.879459631
13.51207393
10.28214432
13.80653909
6.756371452
7.929902018
5.751830081
17.2302258
10.29135493
6.116767594
9.818926556
9.587711791
10.61453043
12.16861397
4.971491628
8.788311187
9.577939305
6.006085189
9.137818672
10.77919038
9.104444124
11.17218071
13.2990753
6.896542685
10.72903308
13.18277646
13.48750962
9.519614327
6.515261195
6.54573697
5.631825592
13.02874865
10.73677963
11.79653851
9.838514878
10.515621
3.422515665
9.969864552
9.07520207
11.08612008
6.7398353
7.100799587
4.243269984
16.68252153
7.344445998
20.45112206
4.690097436
5.000673974
6.45137089
10.19709953
13.36271138
9.58433845
9.686439351
9.502406146
9.012362684
11.61355739
12.16381218
4.754854881
2.099974723
7.840258832
12.78830716
10.66551805
6.878770832
13.04930885
5.988011776
2.512992098
6.905483756
6.193595227
7.197497737
13.77722728
6.17435569
9.254204143
6.284820812
4.612264938
10.57052751
6.069009962
4.08299603
9.53644035
8.562349281
6.390850129
8.533067047
15.55929207
5.95010497
2.126529745
9.220707252
10.2083617
14.99519
9.060456634
8.878525322
6.645733307
3.724408059
4.882761067
12.74599668
10.45124791
7.432694686
4.54142359
7.092330936
12.54756281
15.6679785
0.839539546
10.07435037
8.539454971
5.071663958
10.56267948
9.266417954
7.877938359
6.871022719
10.13989238
2.385707433
12.88704489
4.372638265
6.392126644
8.532133418
4.994436579
6.94543309
11.57564165
9.298171706
8.818371415
9.134131446
9.18164927
9.782881564
4.442250675
5.319459908
4.397725846
10.15746747
7.7891887
11.71592517
7.589769096
5.972169084
12.27782255
10.17225453
9.852781036
13.88905421
13.36710369
6.422861397
5.487942245
8.977271715
7.819987696
12.2068271
7.093731664
7.052800131
4.642605224
10.1313924
10.06778786
12.9897312
6.489080673
7.460082476
8.394455792
11.47353316
14.81366564
5.101578061
8.427335715
7.479872834
5.256555705
10.79645853
11.92552898
10.69955533
6.089440952
9.631796864
7.645574452
6.261352939
9.468875369
6.158272835
9.295104018
9.284746554
3.301304483
4.832467005
5.102634397
8.314160332
6.892305129
6.133656079
6.20751064
6.232380162
14.3288824
6.591138686
3.997057321
3.838099153
7.450505077
8.766499827
14.17802282
9.448796829
8.700677821
11.84487581
6.39907039
9.949849446
8.199412243
17.04106567
6.49225092
9.475224031
2.788450964
7.444998876
12.34101752
3.462927378
6.534859161
10.70598665
8.798729794
7.697601771
2.840583309
9.250294219
8.356972612
9.514669965
3.770226505
5.522210793
7.331808563
7.841997722
7.457698339
0.8592860949
12.21368348
9.053671145
11.96668075
4.712370685
10.92619638
7.52946563
15.70526358
5.63735355
8.229932182
9.192259432
10.80955858
13.0279329
8.17942016
9.112930028
5.45002793
8.729267329
5.771827341
10.35181743
11.45677235
6.651007306
4.966655129
7.461619261
5.202084378
9.966532148
11.76597108
10.04600656
11.22325283
5.551407663
7.215438024
7.686051758
4.96075771
6.184992663
8.660085689
10.68828676
5.467006563
11.4260975
13.37481093
5.238921506
7.45797888
6.77777
8.109416956
4.863027911
4.564960422
8.149850826
9.539824426
8.789546001
9.437030516
6.341922478
9.514350902
6.109551549
3.956354243
5.857266311
8.648706221
7.202664597
5.118463728
6.746187176
8.97776347
5.408832339
5.712814758
7.115139018
9.322233242
11.61050055
8.054987919
12.06107884
5.505194389
7.018465859
7.593540421
10.68725102
5.140739889
6.986955743
8.130375176
8.068865646
4.32865526
7.301619754
7.879747393
8.825532091
5.881488453
11.60207388
4.310908694
2.584202377
11.89853102
4.234519368
15.54851813
4.857715478
7.186382452
6.802859399
2.896157565
9.192835619
10.89360811
5.470574654
3.6982269
7.359881647
5.31318582
5.295969983
10.82044776
6.569040735
5.840086621
11.72893972
6.337711197
11.76166656
8.214764905
10.73048218
7.253763679
4.608972139
9.327391485
6.611979184
8.92577752
4.858215653
7.386850455
7.658639519
8.706094018
5.841337463
9.907181984
5.766571817
8.091705808
7.159454045
3.860773881
5.964488915
8.680624692
4.80104486
8.138539239
11.98424316
6.204403107
7.681593342
7.607182096
4.150553419
7.484707181
8.581968629
10.72917509
3.913224253
7.903085406
)
;

boundaryField
{
    flow
    {
        type            zeroGradient;
    }
    obstacle
    {
        type            calculated;
        value           nonuniform List<scalar> 0();
    }
    frontAndBack
    {
        type            empty;
    }
    procBoundary3to1
    {
        type            processor;
        value           nonuniform List<scalar> 
36
(
12.71562776
18.7269676
16.7046071
11.29290069
14.90127634
14.90127634
12.92806965
14.45185567
11.61350559
14.87956029
14.76923256
19.11403177
19.11403177
14.06191189
16.9425357
9.991265683
10.47235318
8.807722521
8.807722521
9.978083203
8.395804208
8.730817828
12.66651114
9.483356449
16.13712233
16.13712233
6.465179119
8.088085356
4.423544321
9.011851734
10.6958175
12.84019293
7.377359983
7.377359983
5.49058682
5.49058682
)
;
    }
    procBoundary3to2
    {
        type            processor;
        value           nonuniform List<scalar> 
19
(
6.962204767
6.660978566
11.28787092
5.963021076
11.98703591
6.608048826
5.699538795
1.968497188
12.13363157
11.22805401
3.920158743
8.942917074
4.618504462
7.045046232
7.193845001
5.345609435
8.032203194
7.99600698
6.455877566
)
;
    }
}


// ************************************************************************* //
