/*--------------------------------*- C++ -*----------------------------------*\
| =========                 |                                                 |
| \\      /  F ield         | OpenFOAM: The Open Source CFD Toolbox           |
|  \\    /   O peration     | Version:  2406                                  |
|   \\  /    A nd           | Website:  www.openfoam.com                      |
|    \\/     M anipulation  |                                                 |
\*---------------------------------------------------------------------------*/
FoamFile
{
    version     2.0;
    format      ascii;
    arch        "LSB;label=32;scalar=64";
    class       volVectorField;
    location    "0.005";
    object      momentumMean;
}
// * * * * * * * * * * * * * * * * * * * * * * * * * * * * * * * * * * * * * //

dimensions      [1 -2 -1 0 0 0 0];

internalField   nonuniform List<vector> 
654
(
(0.01511239862 0.004734768972 9.852994928e-06)
(0.01568685801 0.004976912523 2.486186077e-05)
(0.01587745631 0.005132154878 5.659743055e-05)
(0.01568622098 0.005006252507 5.098583642e-05)
(0.0156659194 0.004955458548 8.669457619e-05)
(0.01574498212 0.004887604714 5.802072312e-05)
(0.01350117671 0.003516602847 4.014198265e-05)
(0.01401900418 0.003771988311 -1.121469857e-05)
(0.01439581099 0.004078124572 -6.846540398e-05)
(0.01491221284 0.00432763364 -6.035461865e-05)
(0.0153142364 0.004617911488 -2.483044749e-05)
(0.01551914348 0.00480709531 -7.948277117e-05)
(0.01567418424 0.00485916094 -8.863597291e-05)
(0.01576924249 0.004932057271 -4.140583887e-05)
(0.01610312323 0.005128351571 -2.547623317e-05)
(0.01608254844 0.005035417572 2.589444091e-05)
(0.01592784139 0.004978116634 5.642313985e-05)
(0.01047696759 0.001563902572 1.195940944e-05)
(0.01095648078 0.001819720844 -1.500009976e-05)
(0.01136256233 0.002098409627 -1.323231479e-05)
(0.01170172244 0.00235080502 -4.914512332e-05)
(0.01222206614 0.002648049966 -4.505174199e-05)
(0.01273849258 0.003045431612 -3.808447809e-05)
(0.01323500037 0.003318118713 2.06771903e-05)
(0.01369654101 0.003580074349 -1.6668824e-05)
(0.01412960844 0.003914440291 -2.781280953e-05)
(0.0146419683 0.004205831765 -2.542862161e-05)
(0.01510294219 0.004499725535 1.524240795e-05)
(0.01545257722 0.004711756891 -2.104481175e-05)
(0.01564845381 0.004799648541 -4.393899173e-05)
(0.01574298669 0.004881305805 -1.095522021e-05)
(0.01583645051 0.004998241629 -7.131679211e-05)
(0.01586210271 0.004926075168 -1.390467276e-05)
(0.008857356246 0.0004263342357 2.087487985e-07)
(0.009002622623 0.0004934996581 7.576367504e-06)
(0.009078590664 0.0005847825245 -6.423244123e-06)
(0.009293708891 0.0007420334208 2.117805555e-05)
(0.009533719852 0.000864283207 1.719288846e-05)
(0.009781518869 0.001000762645 -2.341231251e-05)
(0.009953247133 0.00115816348 -6.505969187e-06)
(0.01030320357 0.00142285952 -2.020406641e-05)
(0.01080558665 0.001640205035 -8.949505028e-06)
(0.01121329588 0.001941460431 -1.293783962e-05)
(0.01173882217 0.002212164532 -4.383036615e-05)
(0.01207727713 0.002517588877 -2.314586224e-05)
(0.01261902869 0.002892427217 -5.592557053e-05)
(0.01306216688 0.003151668122 1.290157977e-05)
(0.01349037423 0.003431016722 -2.823239776e-05)
(0.01391246898 0.003713379406 -1.432551484e-05)
(0.01439102852 0.004034648845 -3.821848869e-05)
(0.01485398237 0.004378306809 -3.058510043e-05)
(0.01530363722 0.004575743803 1.595195399e-05)
(0.01557689265 0.004781525872 9.741489401e-07)
(0.01568324963 0.004863813639 2.757707795e-05)
(0.0160035968 0.004940644204 3.087706653e-05)
(0.008391340888 8.08606085e-05 3.584213324e-05)
(0.008382560649 0.0001006752185 2.246909399e-05)
(0.008347843229 0.000122068203 2.61802661e-05)
(0.008478979373 0.0001418046637 2.501138983e-05)
(0.008602530577 0.0001805164227 1.314258936e-05)
(0.008646864386 0.0002153805702 7.888084834e-06)
(0.008770774102 0.0002724272604 2.142729126e-05)
(0.00877223693 0.0003059637621 1.326092034e-05)
(0.008932932211 0.0003940493218 -5.199296619e-06)
(0.009083180667 0.0004739666572 -1.251744711e-05)
(0.00922378136 0.0005682506358 -1.948315917e-05)
(0.009342617096 0.0006861855199 -3.856503758e-06)
(0.009534348685 0.0008061499844 -6.591494861e-07)
(0.009851218843 0.0009470101669 -9.755343016e-06)
(0.01006316634 0.001104272437 -1.403537221e-05)
(0.01030711996 0.001282684476 -3.172069305e-05)
(0.01066767296 0.001490519903 -6.607533353e-06)
(0.01102053477 0.001796240577 -1.195843886e-05)
(0.01150639396 0.002047120233 1.633468835e-05)
(0.01196285164 0.002394059868 3.734158858e-05)
(0.01247744752 0.002767377398 -2.682448003e-05)
(0.01291956755 0.003006834071 1.894217388e-05)
(0.01339590713 0.003313681639 -1.513538389e-06)
(0.01386371942 0.003618328421 -6.617672385e-06)
(0.0143855474 0.003906463526 3.403762469e-05)
(0.01480023385 0.004234582909 5.097858421e-05)
(0.01519118292 0.004472771497 1.811800494e-05)
(0.01560006662 0.004664512176 5.831053492e-06)
(0.01579495074 0.004836471947 -4.50151732e-06)
(0.00837843241 5.022498401e-05 -1.566800615e-05)
(0.008414104331 7.739789938e-05 -2.005673856e-05)
(0.008506180624 8.50649077e-05 5.173399507e-06)
(0.008556605499 8.607263823e-05 8.46514619e-07)
(0.008571078228 9.779978977e-05 3.443509836e-06)
(0.008563287711 0.0001333082393 1.371389554e-05)
(0.00861056851 0.0001779888168 1.809159009e-05)
(0.008689496785 0.000221136676 2.344905255e-06)
(0.008759746789 0.0002530999653 3.58191344e-06)
(0.008840922617 0.0002829274056 -2.145765197e-06)
(0.008864480205 0.0003529501639 -2.836916592e-06)
(0.009041223364 0.0004205450085 5.966668916e-07)
(0.00919859541 0.000511821573 1.56913316e-06)
(0.009355022369 0.0005932078358 2.370198677e-05)
(0.009488389731 0.0007325905158 5.115569295e-05)
(0.009739548098 0.0008559998352 4.687264702e-05)
(0.009885809511 0.001016210094 2.703141204e-05)
(0.0101368754 0.001210149072 2.112679968e-05)
(0.01043031043 0.001419796895 -1.51536151e-05)
(0.01068629279 0.001637618139 -4.906268265e-05)
(0.01115376798 0.001912496064 -3.472617772e-05)
(0.01161796728 0.002209822757 -3.26276917e-05)
(0.01224685147 0.002583482152 -3.081862882e-05)
(0.01264789572 0.002811712482 3.337883838e-05)
(0.013146006 0.003149275619 1.434956942e-06)
(0.01372255861 0.003508803451 -4.607969861e-05)
(0.014133045 0.003770087797 -1.805225103e-05)
(0.01467543546 0.004067832426 -4.458317025e-05)
(0.01494570746 0.004306751051 -6.327420811e-05)
(0.01545694301 0.004580797705 -2.396564526e-05)
(0.008449507506 5.070508982e-05 9.519373403e-06)
(0.008392000141 3.329970875e-05 6.054296855e-06)
(0.008406852966 5.809068226e-05 1.011853719e-05)
(0.008431475827 7.062959131e-05 5.350405025e-06)
(0.008500741559 7.620238342e-05 -9.240204614e-06)
(0.008491375575 9.394442572e-05 2.014424063e-06)
(0.008538928866 0.0001033395084 4.758970383e-06)
(0.00860705954 0.0001173736735 4.894852581e-06)
(0.008701956278 0.0001644864653 -7.56806629e-07)
(0.008860214331 0.0002175664896 -7.731769735e-06)
(0.00891834167 0.0002588840179 -4.703409074e-06)
(0.008960526303 0.0003392381927 -1.34943454e-05)
(0.009048556701 0.0003911241015 -1.745890045e-05)
(0.009176979659 0.0004805840964 -2.768265813e-05)
(0.009240135288 0.0005833042653 -2.383668893e-05)
(0.009340468115 0.0006824273189 -2.876460752e-05)
(0.009483045007 0.0008184718611 -2.014837372e-05)
(0.009608444923 0.0009799976474 -2.299803523e-05)
(0.009887495673 0.001122735009 -3.603494037e-07)
(0.0102434151 0.001307430768 1.297385498e-05)
(0.01048550119 0.001478133078 -1.313878205e-05)
(0.01092338753 0.001767317027 -1.437863953e-05)
(0.01138269773 0.002077121966 -3.265212376e-05)
(0.01192037754 0.002370837723 -3.526837342e-05)
(0.01252722009 0.002651348217 -8.624004616e-06)
(0.01289957494 0.002944395796 -8.749092951e-06)
(0.01353624106 0.003346885349 -2.484851827e-05)
(0.01405678723 0.003673747298 -5.783349587e-06)
(0.01461655905 0.003965380521 -6.351769943e-05)
(0.01491046361 0.004200541857 -7.8772739e-05)
(0.008475308736 4.379943659e-05 9.270106698e-06)
(0.008560298134 3.810690108e-05 7.050403904e-06)
(0.008561477819 3.143840622e-05 -6.404006839e-06)
(0.008554487806 3.853982071e-05 -1.67859145e-05)
(0.008616403883 6.264199968e-05 -1.083169604e-05)
(0.008608354784 7.349174401e-05 -2.222890729e-05)
(0.008543208369 9.878410744e-05 -2.244356516e-05)
(0.008559631298 0.0001203366624 -1.106605833e-05)
(0.008513409736 0.0001243360239 -7.649613e-06)
(0.008477642799 0.0001509395339 -3.57924216e-06)
(0.008492269585 0.0001639180719 -1.057960463e-05)
(0.008626638537 0.0002009992885 -1.122147791e-05)
(0.00872446957 0.0002772399799 -1.526817877e-06)
(0.008804784265 0.0003637439904 -2.118365976e-06)
(0.008948458593 0.0004588407697 -2.47126654e-05)
(0.00908634021 0.0005636812063 -5.874971009e-06)
(0.009279933852 0.0006704949925 -5.623334585e-06)
(0.009474931751 0.0007601807363 -1.990480487e-06)
(0.009537790336 0.0008985789755 -2.0405216e-05)
(0.009773206684 0.001051051705 -7.659555671e-06)
(0.01015945057 0.001230194508 -1.100287788e-05)
(0.01046179316 0.001428915475 7.395267901e-07)
(0.01072470546 0.001567960842 8.196584273e-07)
(0.01122541676 0.001919628212 -5.015507448e-05)
(0.01163813961 0.002237657248 -3.230397461e-05)
(0.01202571552 0.002469176466 -3.426615408e-06)
(0.01254681316 0.002827040742 -1.77413787e-05)
(0.01302557884 0.003183615102 3.137878828e-05)
(0.01358182857 0.003480874767 3.653340039e-05)
(0.01415623453 0.003758622664 -1.954872084e-05)
(0.008478501951 1.583387604e-05 -9.641360853e-06)
(0.008478783036 2.065140353e-05 -1.012108957e-05)
(0.008554927858 4.228890673e-05 -1.691737713e-05)
(0.008505819017 6.163706761e-05 -1.246272479e-05)
(0.008450234158 7.292368301e-05 6.826190455e-07)
(0.00844806108 7.793800419e-05 -2.803964097e-06)
(0.008489086575 7.131954088e-05 -1.504592359e-05)
(0.008531302631 7.538449905e-05 -6.827759791e-06)
(0.008544891766 0.000115949549 -8.807235448e-06)
(0.008616412259 0.0001239452002 -1.269275719e-05)
(0.00856994145 0.0001639152133 -6.783644184e-06)
(0.008636858257 0.0001970652166 -2.337835157e-05)
(0.008612013782 0.0002363831748 -1.713981737e-05)
(0.00857714611 0.0002749686185 -1.929001085e-06)
(0.008631538673 0.0003193830806 -6.343196602e-07)
(0.008794817671 0.0003875309727 -2.177441967e-05)
(0.008936908587 0.0004844134434 -1.45268332e-05)
(0.009095904304 0.0006250359749 -1.987474606e-05)
(0.009380176462 0.0006926635119 -1.908629594e-05)
(0.009566513049 0.000845213305 -2.519562572e-05)
(0.009706043675 0.0009390998463 -3.520159355e-05)
(0.009949906924 0.001157121404 -1.520364427e-05)
(0.01026185481 0.00136064451 -1.854950548e-05)
(0.0104531132 0.001520891821 -6.509575825e-06)
(0.01084486281 0.001764281562 -7.342028817e-06)
(0.01141144697 0.002113441057 -3.378907392e-05)
(0.01186608784 0.002353382607 -3.243794948e-05)
(0.01234458596 0.002641678196 -1.450031953e-05)
(0.01297614846 0.002979458521 4.485438632e-05)
(0.01352591076 0.003352507873 2.676106047e-05)
(0.008273467255 -1.759556498e-05 -8.141391197e-06)
(0.008250288675 -4.6141513e-06 -5.754664188e-06)
(0.008279650399 1.901521492e-05 4.698161098e-06)
(0.008244820936 2.576008703e-05 1.106227859e-05)
(0.0083800166 2.933272494e-05 1.643992233e-05)
(0.008400005558 4.777826303e-05 1.876647724e-05)
(0.008491558594 6.501290667e-05 2.064502382e-05)
(0.008463517392 8.020218769e-05 8.254060054e-06)
(0.00845675921 8.609781673e-05 1.582692641e-05)
(0.008434826077 0.0001086609343 2.185479785e-05)
(0.008491884571 0.0001445383492 1.914012409e-05)
(0.00848747712 0.000158512243 2.072122938e-05)
(0.008527501288 0.0001872013768 3.363025372e-06)
(0.00858270623 0.0002251327667 -5.911233461e-06)
(0.008683927189 0.0002662630674 -1.220323704e-05)
(0.008698200392 0.0003125367788 -1.426244505e-05)
(0.008791821874 0.0003770288722 5.419801611e-06)
(0.008975859029 0.0004382871589 1.744750573e-05)
(0.009105461608 0.0005427373687 9.408822782e-06)
(0.009212323063 0.0006476807688 8.192643521e-06)
(0.009436275842 0.000784557627 1.201929549e-05)
(0.009640884763 0.0008947387749 -1.706450436e-06)
(0.01000280126 0.00109669646 -1.872357197e-05)
(0.01038251438 0.001249761314 -2.611557939e-05)
(0.01069471347 0.001465585582 -4.481290757e-05)
(0.01109068335 0.001689972078 -2.201308861e-05)
(0.01149512211 0.001976004535 -8.414860143e-06)
(0.01188728645 0.002294835234 -3.232707837e-05)
(0.01225170998 0.002611145987 -1.833722858e-05)
(0.01267113508 0.002837013926 1.406159571e-05)
(0.0083635875 1.106393538e-05 9.128997002e-06)
(0.008391165085 1.480620003e-05 1.354154317e-06)
(0.008436230743 -1.147077e-06 8.514619762e-07)
(0.008372289846 1.084621797e-06 3.302285262e-06)
(0.008371597607 1.840445856e-05 -8.732130463e-06)
(0.008351533385 2.145472823e-05 2.394666406e-07)
(0.008275909058 3.539441133e-05 6.03927569e-06)
(0.008326232993 5.560774838e-05 1.027180549e-05)
(0.008418563924 7.344593713e-05 -1.989513626e-06)
(0.008494089883 9.511211496e-05 -6.341106035e-06)
(0.008436208628 0.0001144340184 -3.684087274e-06)
(0.008365888349 0.000153939012 7.95371525e-06)
(0.008461492441 0.0001667710426 3.614517641e-05)
(0.008510839225 0.0001924903801 2.36576153e-05)
(0.008484447748 0.0001949736017 1.090353722e-05)
(0.008529645012 0.0002091931313 4.213321965e-06)
(0.008559734896 0.0002668622693 1.09298076e-05)
(0.008699233412 0.0003469674488 -2.924742574e-06)
(0.008792514018 0.0004055694185 8.045201935e-06)
(0.00898354504 0.0005178452957 -6.015224973e-06)
(0.009166576847 0.0005651109625 -2.564727385e-05)
(0.009381581121 0.0006668549277 -3.013392679e-05)
(0.009586201597 0.0007992190664 -8.179973126e-06)
(0.00988148371 0.0009570934367 -3.105634347e-05)
(0.0100667232 0.001130172636 -4.771874267e-05)
(0.01042588164 0.001373632305 -5.035590763e-05)
(0.01087302666 0.001664162777 -4.896249243e-05)
(0.01124252022 0.001892726601 -1.544913298e-06)
(0.01177901337 0.002196944453 -2.262914443e-05)
(0.01237379002 0.002460838138 -3.282673274e-05)
(0.008409993507 1.378149105e-06 -2.029262482e-05)
(0.008299619468 4.930935374e-06 -6.949685453e-06)
(0.008237203841 1.083720476e-05 -6.469850601e-06)
(0.008302715872 -6.50241091e-07 4.04271037e-06)
(0.008310679022 6.240653524e-06 3.863497014e-06)
(0.008379491696 3.140114662e-05 6.184180053e-06)
(0.008392537924 2.533320469e-05 -1.499838739e-06)
(0.00835981692 4.219643873e-05 1.084442209e-05)
(0.008299296904 5.855469082e-05 5.651146838e-06)
(0.008272961994 8.91598306e-05 1.509617287e-05)
(0.008409476214 0.0001042763511 2.203359055e-05)
(0.008477233855 0.0001198779078 5.5805598e-06)
(0.008466114954 0.0001248810908 -8.732056991e-06)
(0.008448012217 0.0001378090671 -1.986402659e-05)
(0.008528610906 0.0001744244431 -1.661237191e-05)
(0.008651261346 0.0002170867928 -6.699598365e-06)
(0.0086656501 0.0002272686458 -3.041173303e-05)
(0.008658077751 0.0002573789498 -1.673746869e-06)
(0.008837937049 0.0003021671735 -2.932471136e-05)
(0.00883740496 0.0003746666716 -7.630201058e-06)
(0.009078469414 0.0004407474417 -1.711627158e-06)
(0.009204213634 0.0005230850858 2.525561712e-08)
(0.009319410149 0.0006190229207 -1.163907585e-05)
(0.009499809398 0.0007947458893 -1.644725213e-06)
(0.009749911573 0.0009247856787 -9.849898605e-06)
(0.009977733757 0.001073665175 -2.574380289e-05)
(0.01027867736 0.001275694412 -4.037415358e-05)
(0.01074940551 0.001521622242 -3.545998801e-05)
(0.011193183 0.001725483461 -4.697622689e-05)
(0.0117135454 0.002033004065 -3.954765383e-05)
(0.008230171452 -1.027335715e-05 6.130926462e-06)
(0.008312891895 -2.225247897e-06 -3.519291612e-06)
(0.008319374545 4.185246169e-06 -1.168960667e-05)
(0.008292693462 1.669565277e-05 -2.256654499e-05)
(0.008195606142 1.982892631e-05 -2.112797066e-05)
(0.008220171912 9.587916813e-06 -1.903911801e-05)
(0.008188949872 2.638960378e-05 -9.969069135e-06)
(0.0081818073 3.965984748e-05 -2.941133772e-05)
(0.008146792025 5.974773376e-05 -2.351140017e-05)
(0.008217505029 5.532924779e-05 -2.167713123e-05)
(0.008218472669 6.104092404e-05 -2.433653794e-05)
(0.008261659263 5.147629074e-05 -2.105331218e-05)
(0.008405038831 8.172670703e-05 -1.344856612e-05)
(0.008426629796 0.0001108414473 1.984916953e-05)
(0.008444513992 0.0001434125607 2.607880555e-05)
(0.008521172588 0.0001512702795 1.305833156e-05)
(0.008599244275 0.0001582504512 1.205127803e-05)
(0.008704030943 0.0001753125569 -5.808897019e-07)
(0.008696549721 0.0002287619745 5.461157739e-06)
(0.008841705325 0.0002744142701 1.162756561e-05)
(0.008883883137 0.0003555693379 -5.593034881e-06)
(0.008924734119 0.0004204160533 -1.15795651e-05)
(0.009004537743 0.0005173752205 -2.562030616e-06)
(0.00913518273 0.0006063387728 -7.853990635e-06)
(0.009337232723 0.0007177702129 5.808162376e-06)
(0.009628842789 0.0008282121965 -1.499480514e-05)
(0.009877994314 0.0009929767843 -1.531525651e-05)
(0.01022997923 0.001180910049 -4.479591953e-05)
(0.01055055562 0.001400231286 -1.36678929e-05)
(0.01085424546 0.001646594459 -1.083077936e-06)
(0.008254996183 -4.301478362e-06 -1.634714287e-05)
(0.008239241863 -1.396273356e-07 -2.22168898e-05)
(0.008223868681 6.623760401e-06 -8.341598436e-06)
(0.008184274231 1.54632104e-05 -1.059976053e-05)
(0.008252756795 2.223797546e-05 3.677874104e-06)
(0.008201522648 3.58767465e-05 3.80973258e-06)
(0.008225725019 4.214287965e-05 -4.817969346e-06)
(0.008206982922 2.873096308e-05 8.930209462e-06)
(0.008260271001 2.157121449e-05 2.556148886e-06)
(0.008362079596 1.824858381e-05 -4.712440378e-06)
(0.008342066927 3.635919517e-05 -2.804927392e-07)
(0.008324548665 6.652988946e-05 7.364064265e-06)
(0.008258511273 4.171612901e-05 -1.822206055e-06)
(0.00839435488 3.840357474e-05 -2.255822354e-05)
(0.008446524817 6.319294125e-05 -9.212077477e-06)
(0.008525471779 0.0001157495852 -1.29175125e-05)
(0.00852949132 0.0001294228848 -1.315755718e-05)
(0.008605884697 0.0001625042366 4.837651459e-06)
(0.008546382399 0.0001781596926 4.815227722e-06)
(0.008661243726 0.0002036178163 -7.413061804e-06)
(0.008628041039 0.0002605650081 1.37478359e-05)
(0.008761754652 0.0003483574638 -3.759760101e-06)
(0.008985926102 0.0004149634785 7.107510757e-06)
(0.009110353359 0.000454201121 3.046982328e-05)
(0.00930280559 0.0005683223057 3.611439912e-05)
(0.009489551927 0.0006677355559 4.963304761e-05)
(0.009630388574 0.0007900804151 4.013537884e-05)
(0.009822446287 0.0009401930139 4.359664878e-05)
(0.01009366074 0.001115329804 3.521685362e-05)
(0.01049270569 0.00134574672 2.261027561e-05)
(0.008243048112 2.299585128e-05 -1.068567276e-05)
(0.008217229816 1.230295154e-05 -3.96330847e-06)
(0.008207291133 1.30474541e-05 -1.624593072e-06)
(0.008241147533 1.355299291e-05 6.868975871e-07)
(0.008191943491 1.700980655e-05 -3.234303191e-06)
(0.008276014871 1.37121433e-05 -7.718777895e-06)
(0.008346392829 1.097864868e-05 2.349689037e-06)
(0.008406011726 2.213618638e-05 1.626286093e-06)
(0.008326983041 2.099215422e-05 -1.334853708e-05)
(0.008346559775 3.56389267e-05 -1.831518132e-05)
(0.008350470042 1.716062931e-05 -1.455482477e-05)
(0.008421709446 1.182376677e-05 -1.67539475e-05)
(0.008388174585 5.2732369e-05 -8.566857404e-06)
(0.00846032068 4.924877689e-05 -1.872094597e-06)
(0.008393283318 5.337512769e-05 -5.169239934e-06)
(0.008437027561 5.255564206e-05 -2.419809622e-06)
(0.008423616938 7.516585122e-05 5.836208524e-06)
(0.008349465019 0.0001198026972 -4.034164257e-06)
(0.008383867069 0.0001552486821 8.604943893e-06)
(0.008411687706 0.0002071028377 2.921842816e-05)
(0.008430708816 0.0002086369419 2.816486068e-05)
(0.008609160522 0.0002301465595 3.088983203e-05)
(0.008571353767 0.0002587779892 1.589355243e-05)
(0.008648992172 0.0003528604523 3.814127391e-06)
(0.008808779226 0.000398608189 1.934264456e-06)
(0.009002367575 0.000485119161 -6.532480359e-06)
(0.009246089841 0.0006061881336 1.49444386e-05)
(0.009518315948 0.0007636222862 1.067439576e-05)
(0.009655480834 0.0009064950418 1.866473277e-05)
(0.009937336846 0.001071469489 1.694950964e-05)
(0.008283410002 1.91629969e-05 2.60288059e-05)
(0.008237530162 2.083572368e-05 2.183671867e-05)
(0.008255238968 2.398636974e-05 2.23843903e-05)
(0.008260640703 3.382298606e-07 8.116294852e-07)
(0.008301382993 -8.678595547e-06 -4.625296464e-06)
(0.008365902825 -1.576529417e-05 -6.605559723e-06)
(0.00834057401 -1.800706606e-05 -1.372866015e-05)
(0.008407056167 -6.035897761e-06 -9.634126586e-06)
(0.008457561612 -3.909128182e-07 -5.249662423e-07)
(0.00844295823 1.942000195e-05 -3.876540846e-06)
(0.008375171725 2.736634918e-05 -9.914924345e-06)
(0.008403856767 2.690957878e-05 -1.537979044e-05)
(0.008435064937 2.580890326e-05 -4.971583695e-06)
(0.008372865594 4.752076615e-05 -1.311283138e-05)
(0.008347596735 6.802721078e-05 -2.505870911e-05)
(0.008335527909 9.254249598e-05 -2.662388331e-05)
(0.008332691179 0.0001054545423 -9.954835496e-06)
(0.008407912661 0.0001222128879 -3.218355679e-06)
(0.008417743241 0.0001059674846 -1.053344788e-05)
(0.008500991968 0.000118710934 -2.670710296e-05)
(0.008520511628 0.0001648998038 -3.164742803e-05)
(0.00856617253 0.0002001980243 -1.629798318e-05)
(0.008678343285 0.0002489425922 1.307892774e-05)
(0.008827057804 0.0002705598468 9.308137381e-06)
(0.008825488814 0.0003119304321 2.450469921e-05)
(0.008898536903 0.0003922716329 2.034749773e-06)
(0.008964939247 0.0004555023656 -1.226765447e-05)
(0.009160956405 0.0005486796111 -5.331855802e-07)
(0.00947451565 0.0007264241604 -2.256950401e-06)
(0.009650335249 0.0008463931449 -5.767941898e-07)
(0.008445500682 3.146767282e-05 -3.328791619e-05)
(0.008511033063 2.101780207e-05 -2.564854058e-05)
(0.008542560504 1.510420293e-05 -2.663148694e-05)
(0.008466004438 1.268448889e-05 -2.780788119e-05)
(0.008418169929 6.661060098e-06 -1.509844144e-05)
(0.008346554909 7.047005764e-06 -1.345889095e-05)
(0.008283292491 5.477188802e-06 -4.283844055e-06)
(0.008268702448 -7.83733109e-06 -1.054830451e-05)
(0.008236616238 -8.441971615e-06 -1.066717646e-05)
(0.008300640189 -9.126896613e-06 -4.351953536e-06)
(0.008299400053 1.558261376e-05 -4.916149955e-07)
(0.008246210262 3.633407247e-05 3.545710797e-07)
(0.008239790745 5.97257994e-05 -5.365884096e-06)
(0.008289446957 4.633096194e-05 -1.174814139e-05)
(0.008324494674 4.82736038e-05 -1.380001989e-05)
(0.008398850397 3.834159285e-05 -9.487713921e-06)
(0.008419922879 5.552779969e-05 -1.944329256e-05)
(0.008440870038 7.287766462e-05 -1.887397877e-05)
(0.008559099785 0.000115796778 -2.016575893e-05)
(0.008578206968 0.0001116174978 -1.762657869e-05)
(0.008664624155 0.0001246246427 -2.58640656e-05)
(0.008689398146 0.0001502270366 -3.732180874e-05)
(0.008642048851 0.0001832546629 -4.45056457e-05)
(0.00863193513 0.0002438380035 -3.790339711e-05)
(0.008669633063 0.0002681231509 -3.699044823e-05)
(0.008676579539 0.0003117346509 -2.202078247e-05)
(0.008786520015 0.0003789025147 -1.287216884e-05)
(0.008945899609 0.0004610817326 -8.473767114e-06)
(0.00899253871 0.0005306827421 3.670360926e-06)
(0.009295484232 0.0006658489496 1.351409426e-05)
(0.008407540234 -5.072434102e-06 -1.4433134e-05)
(0.008412170816 1.149073979e-06 -1.244172636e-05)
(0.008455327414 9.494914579e-06 -8.571924834e-06)
(0.008486761321 2.302170306e-05 -1.170578556e-05)
(0.008446524757 3.157736279e-05 -2.605820624e-05)
(0.008529858866 4.129599612e-05 -2.533220885e-05)
(0.008450818358 2.885617582e-05 -1.691819561e-05)
(0.008473814968 2.411667209e-05 -2.066461363e-05)
(0.00835177526 2.90340032e-05 -1.186692508e-05)
(0.008300248841 1.851063908e-05 -1.673725376e-06)
(0.008306997955 3.005370165e-05 3.084189955e-06)
(0.008347892129 1.35561525e-05 2.912677476e-06)
(0.008429144454 1.93142485e-05 5.76362181e-06)
(0.008406377577 3.211498952e-05 2.350733718e-06)
(0.008374094833 2.430855815e-05 3.961335704e-06)
(0.008352712907 4.306756499e-05 -8.675071246e-06)
(0.008378679681 5.858725292e-05 -4.452240265e-06)
(0.008420116814 5.784775427e-05 -3.349873107e-05)
(0.008392901563 5.721762931e-05 -3.205004918e-05)
(0.008341227367 7.578084011e-05 -2.429517806e-05)
(0.008360532194 0.0001086992543 -1.572898068e-05)
(0.00835369911 0.0001308698866 -2.419522416e-05)
(0.008439981496 0.0001608571954 -3.506575139e-05)
(0.008558772585 0.0001703459024 -2.441597649e-05)
(0.008736086883 0.0002519838372 -1.766477993e-05)
(0.008772917018 0.0002480392546 -1.992923782e-05)
(0.008876040534 0.0003033845303 -1.054052941e-07)
(0.008930300631 0.000353771232 -7.963782348e-06)
(0.009007545146 0.0004190767742 -1.076788951e-05)
(0.009113278445 0.0005346330994 -2.191385877e-05)
(0.008275046968 -1.776759851e-05 1.199964891e-05)
(0.008179740675 4.753511275e-06 1.148120523e-05)
(0.008163634364 1.822042443e-05 1.374107482e-06)
(0.008187725149 1.268498107e-05 2.399942914e-06)
(0.00821820809 1.689841836e-06 -1.378307819e-06)
(0.008205236184 1.195895206e-05 8.595740738e-06)
(0.008210304069 3.098677001e-05 3.486866112e-06)
(0.008258998943 2.495689583e-05 2.28321712e-06)
(0.008306554521 2.498510301e-05 9.742949103e-08)
(0.008262401772 1.521177718e-05 7.327893921e-06)
(0.008300234015 2.271636026e-05 -5.302684658e-06)
(0.008309008639 1.445036982e-05 -8.010713291e-06)
(0.008316080208 -5.095200252e-07 -6.570701566e-07)
(0.008261964342 1.893505326e-05 7.14804154e-07)
(0.008333859342 2.381972386e-05 -2.836853438e-07)
(0.008345610669 3.726101384e-05 -2.243513907e-06)
(0.008317329599 3.055879539e-05 4.713257795e-06)
(0.008350637914 6.105638505e-05 1.150233943e-05)
(0.008301637358 7.613971091e-05 2.106760715e-05)
(0.008406802176 6.989534652e-05 2.976480174e-05)
(0.008464467459 7.313626716e-05 2.862064839e-05)
(0.008489458211 8.234273653e-05 4.957207504e-05)
(0.008434279805 0.0001004323403 5.177419208e-05)
(0.008510131526 0.0001386942694 2.865623426e-05)
(0.008524295403 0.0001587183347 1.16522163e-05)
(0.008541218872 0.0002202732155 1.69188578e-05)
(0.008597473184 0.0002325869124 4.753271531e-06)
(0.008735621309 0.0002762605165 1.323615805e-05)
(0.008943458875 0.0003499890689 1.00861718e-05)
(0.008964001475 0.0003697002204 1.51272747e-05)
(0.008218383465 1.396961001e-05 -1.272660379e-05)
(0.008153404892 -4.673486408e-06 -8.726606393e-06)
(0.00819705377 -1.695549418e-05 -4.670189067e-06)
(0.008165021033 -6.569423388e-06 -7.975923455e-06)
(0.008204297219 1.062737666e-05 -9.269758923e-06)
(0.008241134659 1.161129263e-05 -8.828420474e-06)
(0.008261118809 4.277243061e-06 -3.605327745e-06)
(0.008218806441 2.150064217e-05 2.280579823e-06)
(0.008268969684 1.156510563e-05 -6.827128639e-06)
(0.008285588903 1.445495374e-05 -1.624036278e-05)
(0.008315682731 9.492761145e-06 -8.837405883e-06)
(0.008245930071 6.01414956e-06 5.242472533e-06)
(0.008181239795 1.548102893e-05 2.488379033e-06)
(0.008272990385 1.16717795e-05 5.290990347e-06)
(0.008272003909 2.368809464e-05 -5.747375501e-08)
(0.008336753058 3.247702604e-05 1.483076077e-06)
(0.008403425074 3.417349269e-05 1.063544353e-05)
(0.00833754798 2.542960457e-05 1.22801134e-05)
(0.00839412112 4.137009192e-05 4.47382543e-06)
(0.008438276625 4.999497234e-05 4.579515883e-06)
(0.008405070289 6.998982779e-05 2.12712925e-06)
(0.008404628324 7.451436757e-05 2.388009295e-06)
(0.008411185824 9.977215462e-05 4.890907323e-06)
(0.0084419513 0.0001215683712 7.065265016e-07)
(0.008515338492 0.0001202371914 1.123017189e-05)
(0.008598867376 0.0001475076073 1.629587965e-05)
(0.008574653122 0.0002010229745 5.070623858e-06)
(0.00863172595 0.0002140689469 -1.264607016e-05)
(0.008715528296 0.0002558983854 -1.314586811e-06)
(0.008831855682 0.0002891120682 -5.51460938e-06)
(0.008267787223 2.455782211e-05 -6.900585539e-06)
(0.00833687627 2.364561151e-05 -8.381988343e-06)
(0.008293296978 1.579521292e-05 -2.309068886e-06)
(0.008320751989 1.887744441e-06 9.382520646e-06)
(0.008277397978 -3.541023682e-06 1.205538796e-05)
(0.008288350355 -1.515809588e-05 2.447311266e-05)
(0.008367142404 -2.266400235e-05 1.027509638e-05)
(0.008460412164 -1.803215002e-05 5.411175482e-06)
(0.00840870029 1.063417484e-05 1.350805112e-06)
(0.008464991979 8.138770256e-06 6.386548633e-06)
(0.008436454327 1.077818561e-05 -1.888003593e-06)
(0.008472036003 3.26713668e-05 -1.812186994e-06)
(0.008495534432 2.913530519e-05 -1.214701942e-05)
(0.008442955623 3.125385726e-05 -1.002378874e-05)
(0.008356205412 2.073781054e-05 8.039238388e-06)
(0.008369468448 7.180963293e-06 1.106923752e-05)
(0.008379731172 1.951697491e-05 1.005565545e-05)
(0.008366062088 3.189142919e-05 2.76503459e-05)
(0.008367395965 1.939820916e-05 1.653872197e-05)
(0.008337458414 6.296580371e-05 5.227515693e-06)
(0.008420107595 6.699739551e-05 3.511475478e-06)
(0.008543075716 5.51501494e-05 8.252757404e-07)
(0.008623451636 6.674170621e-05 -5.968680967e-06)
(0.008583867287 7.559756393e-05 -3.995043291e-06)
(0.008580053841 9.385390574e-05 6.114833991e-07)
(0.008673164868 0.0001154811829 3.814865894e-06)
(0.008734916649 0.0001330894428 -1.724730437e-05)
(0.008845751402 0.0001769854672 -3.99806752e-06)
(0.00887015224 0.0001949850994 4.931669492e-06)
(0.00891701418 0.0002546729481 -6.993710058e-06)
(0.008509624391 8.926930544e-06 -1.481996061e-05)
(0.008490148499 5.523079317e-06 -1.316961352e-05)
(0.00852433503 -8.407697393e-07 -2.063478497e-05)
(0.008553679481 1.367176502e-05 -1.435306418e-05)
(0.008535128491 1.085766783e-05 -1.410876967e-05)
(0.008455307698 1.096740092e-05 -2.376733258e-05)
(0.008371557205 1.195513638e-05 -1.695936725e-05)
(0.008307748663 5.348480574e-06 -1.276300005e-05)
(0.00832332368 -1.393443265e-05 -1.366259681e-05)
(0.008323861461 -5.801776995e-06 -9.292393341e-06)
(0.008293052064 -1.147706545e-06 -3.142869078e-06)
(0.008309443925 1.017166373e-05 4.889950964e-06)
(0.008337165964 1.808268766e-05 1.336583819e-05)
(0.008401627346 1.888751997e-05 7.343023164e-06)
(0.008423076076 1.40271796e-05 1.823575621e-05)
(0.008462400865 2.78948099e-05 1.201919313e-05)
(0.008446345434 4.690185771e-05 6.639148159e-06)
(0.008477147036 3.435961536e-05 -5.150376172e-06)
(0.008478321916 2.644982391e-05 -6.358239584e-06)
(0.008476736934 1.167078215e-05 -1.053457575e-05)
(0.008441683897 1.431043491e-05 -8.225468836e-07)
(0.008417736009 3.338668069e-05 1.145014897e-06)
(0.008458178438 2.01819437e-05 -5.711832244e-07)
(0.008468085471 3.868856326e-05 -1.044945079e-05)
(0.008479003313 6.37385872e-05 -9.712834722e-06)
(0.008525927649 0.0001026166299 -5.524651615e-06)
(0.008554715827 0.0001236999375 2.051168778e-05)
(0.008518966342 0.0001364715321 -2.083206843e-06)
(0.008530577625 0.0001861453045 -7.083323216e-07)
(0.008609895347 0.0002000588635 2.115713327e-05)