/*--------------------------------*- C++ -*----------------------------------*\
| =========                 |                                                 |
| \\      /  F ield         | OpenFOAM: The Open Source CFD Toolbox           |
|  \\    /   O peration     | Version:  2406                                  |
|   \\  /    A nd           | Website:  www.openfoam.com                      |
|    \\/     M anipulation  |                                                 |
\*---------------------------------------------------------------------------*/
FoamFile
{
    version     2.0;
    format      ascii;
    arch        "LSB;label=32;scalar=64";
    class       volVectorField;
    location    "0.005";
    object      momentum;
}
// * * * * * * * * * * * * * * * * * * * * * * * * * * * * * * * * * * * * * //

dimensions      [1 -2 -1 0 0 0 0];

internalField   nonuniform List<vector> 
654
(
(0.01001231521 0.003102262691 0.001214264051)
(0.01390734929 0.001592379101 0.0002958708614)
(0.01736365963 0.008423568288 -0.001431156469)
(0.01512131176 0.004604225499 8.061439194e-05)
(0.02280639483 0.005124698228 -0.003278483182)
(0.01620532942 0.005184475005 -0.001642179722)
(0.01129480249 0.003878370325 0.0009266885069)
(0.01096190806 0.001783130195 -0.002346727508)
(0.006949900886 0.001493665493 -0.0007367875328)
(0.01409675757 0.00684014841 -0.0008093808954)
(0.01383476162 0.006387140588 -0.00228726617)
(0.01687875885 0.005181022942 -0.001031466536)
(0.01459879171 0.005638417582 0.002885866374)
(0.02047367375 0.004842306532 -0.001578138524)
(0.01124352646 0.004222756692 -8.247515071e-05)
(0.01148076062 0.003627358664 -0.001163710118)
(0.01621455495 0.003592039714 0.002223454374)
(0.004348330624 0.002303543195 0.001444461479)
(0.01153960807 0.002862307629 -0.0001681160828)
(0.01438410558 0.003580234635 -0.001607042702)
(0.01455147895 0.003184277174 -0.0006346675089)
(0.009789323762 0.001772039072 -0.0005911221038)
(0.02196349598 0.003719679625 0.001583460113)
(0.01444275768 0.004037967628 0.0007489714999)
(0.007582353725 0.002273707586 0.0002133353492)
(0.01125424554 0.003027021094 0.0001271516202)
(0.0113047353 0.002522188366 0.000962159733)
(0.0123555234 0.004300360148 -0.0007372187627)
(0.01678278182 0.004635170183 -0.001766881327)
(0.01109222667 0.004570258643 -0.0001825395923)
(0.02263371164 0.007888727088 2.3602758e-05)
(0.01419088599 0.002417384831 0.0006398373931)
(0.02249155162 0.006115436637 -0.0003190690645)
(0.008043183546 0.0005719395729 0.000113047068)
(0.005708543151 -0.000393522472 0.0005709375224)
(0.008644793055 0.0006927897358 0.000160198617)
(0.007591041726 -0.0005028268986 -0.0003500155519)
(0.005582191846 0.0005568214314 -0.0003262917749)
(0.008980799478 0.0009670372064 0.001466908481)
(0.0113590405 0.0003864825223 -0.0004177176719)
(0.00868233886 0.001760734198 -8.71857234e-05)
(0.008698613396 0.002531063483 0.001203554916)
(0.01130168525 0.002202663424 -0.0006491372152)
(0.01290613201 0.001568347824 0.0008843297846)
(0.01309629796 0.002074716997 -0.0003393676787)
(0.01660850151 0.003622707609 0.0008905503989)
(0.01029707292 0.003220222307 0.001120390954)
(0.007316104041 0.002009440423 7.79594707e-05)
(0.009723290735 0.001174639194 -9.396988185e-05)
(0.01109066985 0.001438982748 0.0001744954496)
(0.01245090169 0.00346219942 0.001122803897)
(0.01607512238 0.003013692215 -0.001032976472)
(0.01431852453 0.004651134844 0.00171242802)
(0.01823114692 0.00673576544 -0.000478512858)
(0.01219423341 0.004298920583 0.0006599199138)
(0.01162069508 0.0001302681324 0.0002505061295)
(0.01136639826 -0.0005394668099 -7.670782616e-05)
(0.004509656393 -0.0003207904122 0.0002076922867)
(0.008576677146 -0.0002709758998 0.0008073636397)
(0.004490710584 -0.0001666277539 -7.712180047e-06)
(0.007802407601 0.000279303872 0.0004936620295)
(0.007628305978 0.0001860847734 -0.0003726917517)
(0.01030473576 0.001042603628 0.001041787455)
(0.008428679066 0.0009890880757 -0.00021065886)
(0.009607509434 -0.0004903672847 -0.0002210793406)
(0.006279521375 0.002326645905 -0.0005433580616)
(0.008830668133 -0.0001062440796 0.0004032783261)
(0.0062402278 -9.593742521e-05 -0.0007813058926)
(0.0126506774 0.00157248056 -0.0004691249198)
(0.007584942052 0.0004873913638 -0.0008386774504)
(0.02170510492 0.004159717851 -0.0007153722294)
(0.009267682584 0.0007616233194 0.0002118772299)
(0.009488671726 0.002097442707 0.001159496429)
(0.01012578088 0.003257974326 -0.0007555170878)
(0.01046861 0.003071126028 0.0003700758743)
(0.01108084777 0.002845344316 -0.0004545392756)
(0.01185248141 0.005634675172 0.001105456121)
(0.01852120962 0.002714959664 0.0007425658832)
(0.01424770226 0.004493042652 0.0001495877484)
(0.01382853299 0.002833527204 0.001214063541)
(0.01183025431 0.002956265989 0.0006542895687)
(0.01554965425 0.003365759514 0.0002051899634)
(0.01240945271 0.001661124246 -0.001048054856)
(0.01586196808 0.004317024299 0.000634191522)
(0.005658805165 0.0004372466533 7.661761988e-05)
(0.01014686396 -0.0003589655434 0.0004079861114)
(0.005667644886 -0.0006162344289 -0.0003097395956)
(0.006708724056 -0.0001726593331 0.000146007617)
(0.007868185064 0.0004669713608 -0.0001612643477)
(0.007828933542 -0.0003636918167 0.0006191936906)
(0.008498684253 0.0003979847704 -0.0009555723697)
(0.008292218367 0.0006089741375 0.0003850661773)
(0.005742668589 0.0005203341639 8.886114371e-05)
(0.01006807095 0.001481882187 -0.0005360047516)
(0.004080355252 -0.0001310735462 -0.0002236403526)
(0.007910742369 -0.000138945116 -4.021905663e-05)
(0.01038183095 0.0006773952922 0.0006365777154)
(0.02162119063 0.002589856513 0.0005934258646)
(0.008859972529 0.0007490777938 0.0001311496629)
(0.008751766801 0.0009403718663 0.0003000117297)
(0.009809035473 0.001380439075 -0.000232192661)
(0.00416247629 0.000679254442 -0.00042986598)
(0.01512893033 0.003051476239 0.001805707988)
(0.009211383573 0.001594300299 0.0005048148927)
(0.01348584617 7.233104609e-05 0.000556191073)
(0.01106244926 0.002768802728 3.851562518e-05)
(0.007767490743 0.001659219962 4.216764795e-05)
(0.02161205606 0.003955583323 0.00249769028)
(0.01454788925 0.003404805627 0.0007478198515)
(0.01456429647 0.006226441032 -0.001518574102)
(0.01510112978 0.002797914208 6.306914671e-05)
(0.01973812135 0.006059888392 0.0001968540453)
(0.01794132901 0.003743396488 0.001785157807)
(0.02068076345 0.00673649272 0.002011186908)
(0.006923749466 6.831171983e-05 0.0003320247197)
(0.006114168135 -0.001021786802 0.0004607581693)
(0.009141617731 5.01531206e-06 0.0004864438514)
(0.008222716957 0.0006537430857 0.0006870597364)
(0.01048258545 -0.0002860123706 0.0001288623329)
(0.007316678487 -0.0003308760799 -0.0001363559704)
(0.01158820501 0.002108583356 -0.0004359156595)
(0.009065138985 0.0005275905685 0.0001895905624)
(0.008282324415 -0.0005067148782 -0.0004752358186)
(0.006544428629 -0.0005670721118 0.0004074159025)
(0.008774151944 -0.0006863093918 -0.0008183731081)
(0.007546359761 0.0003851846971 0.001425715803)
(0.003671145158 -0.0004031443662 -0.0002717063412)
(0.009651302787 0.0002391468342 -0.0004196455079)
(0.008215632121 0.0008228791498 0.0008964020042)
(0.008657982686 -0.0004840850947 0.0007251404576)
(0.006797583666 0.0007803912913 -0.0006267813797)
(0.01152801211 0.0005929909267 0.002152085942)
(0.01518539201 0.001643804997 -0.0007535788716)
(0.01574414359 0.00109363734 -0.0001769109568)
(0.01244319041 0.001461799436 -1.330657007e-06)
(0.01432598267 0.004977467099 0.00048998027)
(0.01568764791 0.003797012532 0.001406486826)
(0.005836036058 0.001773620798 0.0003635664287)
(0.01092284719 0.000511029956 -0.0001225063508)
(0.01603038975 0.005195191084 -0.001594600394)
(0.01298630011 0.003819915863 -0.001260248208)
(0.01404166557 0.005569693585 -0.00239088528)
(0.01191474878 0.004222821815 -0.001410236035)
(0.0158961778 0.004146932762 -0.0003751393287)
(0.00849550076 -0.0003225593026 3.406641321e-05)
(0.007419678434 0.0003603724275 0.0001220074024)
(0.01460370159 -2.92702312e-05 0.0002932690468)
(0.008477220381 -0.0005460702415 0.0001959690546)
(0.01057343216 -0.0001819047324 -0.0004221562302)
(0.007479118432 0.0007251133684 0.000570412249)
(0.004190653242 0.0004161785178 0.0001985578424)
(0.007836025762 5.343824227e-05 0.0005953623332)
(0.01000603281 0.0001545711592 -0.0001518255667)
(0.01084817336 0.0002124598589 0.0007632273759)
(0.005938083866 0.0004984086579 -0.0003432250534)
(0.008798346638 0.0003007447913 -0.0008803583485)
(0.01100641715 0.0002159287336 -0.0005914478608)
(0.007275594422 0.000257783729 0.0001428222273)
(0.0101936306 0.002222051376 -0.0009405713557)
(0.004896316224 0.0005364399733 0.0002677038145)
(0.01045507617 0.002191407022 -0.000113210465)
(0.006481095792 -0.0002115381127 -0.0005812415195)
(0.009805534504 9.837748509e-05 0.0004624318696)
(0.005192977317 0.001452759863 -0.0003730566029)
(0.005593085338 0.0008438511908 -0.0004017642885)
(0.009834295621 0.0001399370773 0.001030886279)
(0.008887287272 0.003200040382 -0.0004036685986)
(0.01556883343 0.003921591603 0.001531621589)
(0.01004269827 0.001703036167 0.000338060043)
(0.0247902764 0.006272940449 0.002512040699)
(0.02812908443 0.005567256639 0.0007336922437)
(0.01496572012 0.004959105252 -0.0002578852831)
(0.01485977159 0.004084395584 -0.001245627335)
(0.01628671803 0.003282472899 0.0001035858237)
(0.006939257153 8.777632772e-05 0.0004680761062)
(0.009165386352 -0.0001847129753 -0.001179124344)
(0.005705609757 -5.236430028e-05 0.0001089218165)
(0.006534203865 0.0001644769122 -0.0004691843999)
(0.005409014946 0.0001644440036 -0.0001691066011)
(0.005222362482 -0.0002606682002 -0.0001747439187)
(0.01054732155 0.0006155848194 0.000794318874)
(0.003908845817 0.0011488467 -0.000258074768)
(0.009550639623 -0.001067211555 -9.242703477e-05)
(0.008915996948 0.001315562724 0.0007106169412)
(0.009434072274 0.0004202549261 0.001214241738)
(0.004894766977 0.0005354879795 -0.0002938683959)
(0.007924495898 0.0003574838588 0.0001119196322)
(0.009088994532 0.0005831722486 0.00152123944)
(0.008754507109 -0.001033642151 0.0006794763891)
(0.007138511723 0.0006545843421 0.0002448584001)
(0.003920880884 0.0002792238673 0.0002660775279)
(0.006902008259 -0.0003078802835 0.0004588697326)
(0.01184286708 -0.0003737635449 -0.000317673943)
(0.009660113017 0.003388721366 -0.000527075457)
(0.01083169626 0.001428251598 -0.001040728359)
(0.005521874459 -0.0001021258111 4.785212338e-05)
(0.006662554941 0.00118712104 -0.0003634520027)
(0.00785024203 0.0009995189548 0.0007355920926)
(0.01137350047 0.002108783193 -8.164519677e-05)
(0.01971217077 0.003223646929 -0.0004160039353)
(0.01671672631 0.001693474584 0.0004855086482)
(0.01532201394 0.002247556999 -0.001427595871)
(0.01113386875 0.003695749845 -0.0001216024475)
(0.007635964414 0.003549413355 -0.0001991844898)
(0.01161095786 -0.0007793155251 0.0006837778087)
(0.007020167264 0.0001294727196 -0.0003809661399)
(0.009258577557 0.0002081715616 -0.001024658688)
(0.00714135468 -3.464144867e-05 4.913122004e-05)
(0.007807419662 6.516526846e-05 -0.0001067176678)
(0.003386558534 0.0002654336611 -4.706673753e-05)
(0.008915276976 0.0003987503774 -0.0002858022575)
(0.007472234998 0.0006993706253 0.0007419120392)
(0.005242739718 0.0004678496371 -0.0006639848292)
(0.003053502665 -0.0001606516846 0.0004022060444)
(0.01420680253 6.671565741e-05 -0.0008588388534)
(0.01091762469 -0.001340030879 -0.0004266220648)
(0.008417541305 -0.0006569831972 4.37566561e-05)
(0.01412184215 0.0003809419674 -0.0005185811837)
(0.009642496081 0.0004984098181 -0.0002128312233)
(0.00699168237 0.0001350607074 -7.327390572e-05)
(0.005552263214 0.0002387981785 -0.0007408601005)
(0.008972243781 0.0002576295572 0.0004251979488)
(0.006633868855 0.0007533716673 -0.0003607261217)
(0.009038171091 0.001077242554 0.0003920261944)
(0.01483718467 0.003145057045 0.0003802612382)
(0.005268122998 2.749333019e-05 0.0003573525296)
(0.01155481746 0.001443173111 0.001054340715)
(0.01418301399 0.001560356375 0.00112279419)
(0.01989591057 0.002554789146 0.001163905183)
(0.009797760538 0.003487172237 0.0004755800309)
(0.016378871 -0.0002915306772 0.0005384252983)
(0.01427507083 0.003394247667 -0.001039905182)
(0.01425329642 0.001778751466 -0.0004724060569)
(0.017177319 0.005310773849 0.001880689543)
(0.004823131922 -0.0001476827925 0.000666600241)
(0.008244071614 0.0003035980701 -5.91627019e-05)
(0.01144990615 0.0004305034565 -0.0001241592755)
(0.009997100493 -0.0001415183234 -0.0001741276566)
(0.005891240506 0.0003743212093 -0.0005374613459)
(0.009246165641 0.0006176856817 0.0003469905069)
(0.0115135533 -0.0003542887889 -0.0001534535214)
(0.00497012219 0.0001163867977 9.422191202e-05)
(0.005901964842 -0.0005131592671 0.0001316282775)
(0.01170077214 -0.001059497414 -0.0003902235353)
(0.01082449977 0.00103908505 -0.0006740805818)
(0.00581144304 -0.0004433739543 0.000358976028)
(0.005911952231 2.573188535e-06 -1.036647192e-05)
(0.003590257234 0.0007142378955 -0.0003495931217)
(0.004429170914 -3.637987536e-05 0.0001097058303)
(0.007789520557 0.002166390854 0.000467258635)
(0.00650477365 0.0003733451782 -0.0004106902145)
(0.01028231534 -9.714815076e-05 0.0001399158718)
(0.0025760476 8.851579662e-05 1.065908604e-05)
(0.01107261577 0.002023104506 0.0007551268635)
(0.007716199517 0.0007317616025 0.0004965861789)
(0.01174934572 0.002823735085 0.0004788224484)
(0.007283309361 0.001024395015 -9.079070145e-05)
(0.0128469697 4.921348396e-05 -0.0002124838971)
(0.01203071379 0.001085626527 -0.0007425203158)
(0.0115397203 0.003648734387 -3.10486172e-05)
(0.01373159439 0.001944853103 -0.001241230234)
(0.009378307145 0.00363606738 0.001192338886)
(0.01033606023 0.002967620556 -0.001012904468)
(0.01121124812 0.001716839822 -0.0008991206449)
(0.008060811192 0.0006930966051 0.0004522127367)
(0.008318960519 3.631500618e-05 -0.0006743821451)
(0.01056419696 -0.0002182056915 -0.0007877824814)
(0.007129675647 -0.0003945244957 -0.0003185940466)
(0.01019621952 -0.0001027992705 -0.0002798052795)
(0.007622553556 0.0001142185446 6.942397188e-05)
(0.003465330524 0.000293972654 0.0007586995503)
(0.008997046676 -0.0005070908664 0.0002539931343)
(0.004636675128 0.0001441928042 -0.0002365920885)
(0.01367661529 0.0002113214841 -7.677201503e-05)
(0.01173040684 1.121149343e-05 0.0007148900875)
(0.007670519224 -9.178139781e-05 0.0008017322034)
(0.006198614852 0.0001654310777 -0.0001200397862)
(0.009285757702 0.001270676721 0.0010891723)
(0.00729954469 -0.0002313202538 -0.000166365404)
(0.007204913849 0.0007583142275 -0.001374793717)
(0.009899728156 0.000469293658 -0.0003473293923)
(0.01027105576 0.0007783346133 0.0001435921245)
(0.006148854366 0.0006482910903 0.001306351151)
(0.007019743399 0.0004594914129 0.0002060959828)
(0.006951239314 -0.0004410367602 -0.001044981754)
(0.007984678101 0.001230594077 -0.0007489390918)
(0.007561291257 0.000305300959 -0.0003584356261)
(0.006164915321 0.0002828673079 0.0002084201682)
(0.00997564757 0.0004407545023 0.0004047619083)
(0.008755655538 0.00328084364 -0.0006776442568)
(0.01019652986 0.003097750909 -0.0008355193376)
(0.01513826812 0.003673137454 0.001242537015)
(0.009022116029 0.003349100225 -0.0004106268006)
(0.01472441178 0.004900219247 -0.0004935496675)
(0.009310408936 -0.001148142443 3.863699541e-05)
(0.01358377778 -0.0004819938865 0.000510718124)
(0.006150868741 -0.0005601804386 0.0005209309754)
(0.012021704 0.0003030178733 0.0002219193896)
(0.01380784406 -0.0004650498788 4.374337522e-05)
(0.004456005473 0.0006687583546 -0.0002470771871)
(0.01486343421 0.0002313292867 -0.000447391782)
(0.00495489485 -0.0001509576494 -0.000188714426)
(0.008099035749 -0.0002844587698 0.0007668760402)
(0.006808008677 -0.0007340363218 -4.122368064e-05)
(0.003146987568 0.0002963727591 0.0001482763526)
(0.008620907114 -0.0002463293936 0.0003656405036)
(0.01105397705 0.0002726392098 -0.0001652678162)
(0.01544158272 0.0007032194099 -0.0003292624769)
(0.004976819413 -0.0004802553443 0.0005349463814)
(0.01239018876 -0.000724959601 0.001155537541)
(0.007649126089 0.0005557028621 -2.147062691e-05)
(0.01047037696 0.0001062052573 -0.0003745959966)
(0.01038332086 0.001224113087 0.0005048692818)
(0.007635986312 0.0004783389268 -0.0003107868516)
(0.01152236774 -7.484745728e-05 -0.0002478461366)
(0.008133714687 -0.0004037169125 -0.0003776527286)
(0.009258179584 -0.0001583352477 -7.900544565e-05)
(0.0136894969 -0.0005446827587 3.98423898e-05)
(0.009977775199 0.0003922002877 -0.0003933417917)
(0.01487908217 0.0002906281531 0.0004124118011)
(0.007670811617 0.001226758355 0.000247023424)
(0.008573909286 0.0001760024643 -0.001175814724)
(0.005991793738 0.0008026742209 2.38959133e-05)
(0.01687806996 0.001921477072 -0.0003096386041)
(0.01095804433 0.0003692868353 -0.0009751950331)
(0.007127250538 0.0007618900721 -0.0002935915403)
(0.01093474456 0.0005861461228 -0.0004274629934)
(0.0105324346 0.0003870034565 0.0004140061403)
(0.01136482134 -0.000283875274 0.0003995426325)
(0.0119224495 -0.0001475904554 -0.0002965566879)
(0.005535185625 -0.0003900335876 0.001112780804)
(0.009093713507 0.001670213292 -4.803819501e-07)
(0.009878718477 0.0009930686986 -0.0009700158087)
(0.006347045977 6.696635631e-05 -2.725148935e-06)
(0.009398736857 -0.0005631890482 0.0004314443602)
(0.0114076272 0.0005192961893 0.000228769469)
(0.009341932142 0.001188871859 0.0005353912914)
(0.01153154222 3.518437205e-05 -0.0006736983906)
(0.01443431203 -0.0005269198353 -0.000240666981)
(0.007403181914 -0.0003058855312 -0.0005892417621)
(0.01051665124 0.0005970668004 0.0001381634406)
(0.01307685694 -0.0006958580175 -5.17357103e-05)
(0.01341813605 0.001157229432 0.0001270087389)
(0.01063947197 9.751292675e-05 -0.0006564071466)
(0.006751654634 0.0001179750911 0.0001520027757)
(0.006227976109 0.0005513162507 -0.000283889794)
(0.00591287373 9.189258629e-06 -3.851048145e-05)
(0.013102191 -0.0003005586466 -0.0003262803078)
(0.01079676092 0.001339682604 0.0001564520141)
(0.01263240636 0.0003947934823 -0.0002864652932)
(0.01107260461 0.00194343083 -0.001062208023)
(0.01112956241 0.001719321296 2.515122335e-05)
(0.003567519012 0.0002858517401 0.0002850974529)
(0.01004138463 0.0004424456071 0.0002646721185)
(0.009248756838 -0.0001828801381 0.0008381176567)
(0.0114764604 -0.0004270094496 -0.001213842967)
(0.006905716223 0.0003430516183 -0.0001553842382)
(0.007698657629 -0.0001565217868 -0.0002988268731)
(0.004195943889 4.58617332e-05 6.719819005e-06)
(0.01765480502 0.001022650729 0.0002214852388)
(0.007794136918 -0.000521348009 -0.000765948007)
(0.02150136505 0.0008954108518 -0.001431472885)
(0.005509124951 0.0001642202784 -0.0001199584478)
(0.005705765184 -0.0003807155817 0.0001230205288)
(0.007008995148 -0.0003523923161 -7.84261669e-05)
(0.0110049259 0.0003483618529 0.0007914605351)
(0.01432234939 -0.0001321823932 0.0007930691448)
(0.01021027708 -0.0002379786668 -0.000901535042)
(0.009825044492 0.0002765195234 -0.0002340525676)
(0.01031083487 -0.000709754541 0.001638211979)
(0.009992347474 -0.0002783162502 -0.0003002369146)
(0.01181771996 0.0002719621873 0.0002077492201)
(0.01329063106 0.0003215339979 -0.001917098572)
(0.004826940693 -2.900472042e-05 0.0001379428595)
(0.002651831135 -0.0003489186818 0.0004010693747)
(0.008745117353 0.0002793154288 5.714655891e-05)
(0.01312379433 -0.000377658241 -0.0004113938956)
(0.01062635044 -0.0004891429024 0.0004508207203)
(0.007432989657 -0.0001465375091 -0.0009801481614)
(0.01259168016 0.000932117414 -0.0003329721477)
(0.005550234542 0.00143517776 5.325816129e-05)
(0.00355134614 0.0002646521158 -0.000349151138)
(0.006820417013 0.001330463268 0.0003914882692)
(0.006974615163 0.001165908523 0.0002672871831)
(0.007448829342 0.0003161086232 0.0009450529007)
(0.01440480858 0.0003152979743 -0.0008459688578)
(0.006549592605 -0.0001355743861 -0.0001113881947)
(0.01074422913 -0.0001401464908 -9.680601213e-05)
(0.007221022468 6.862386994e-05 0.0001253353226)
(0.005231736586 -6.945424443e-06 0.000137117733)
(0.01081685866 0.0005912391543 0.0008004517332)
(0.006582569032 -0.0002799018875 0.0003249893702)
(0.004963308964 -2.753319176e-05 -0.0004485153062)
(0.01029840127 -0.0007922226603 0.0002717893927)
(0.008443254504 0.0002828789606 9.338921679e-05)
(0.006964941001 3.956067484e-05 0.0001522099139)
(0.009261923654 0.001054783335 -7.292507073e-05)
(0.01612275005 0.0006634837772 -0.0001199584882)
(0.005895561236 -0.000121741958 -0.0004164689128)
(0.002510089671 0.0001823268535 0.000220783274)
(0.01057383558 -3.742490351e-05 -0.0002369105773)
(0.009699675902 0.0007690711969 -0.001261018974)
(0.01610816492 0.0006758015103 0.001722546281)
(0.009712734348 0.0005391886326 -0.0003067326289)
(0.009615259468 -0.0008328908003 -0.00052632195)
(0.006329069831 -0.000343796984 -0.0002689095464)
(0.003637556446 2.534852088e-05 -0.0005818176089)
(0.005487462164 -0.0001068786399 -0.0001598862465)
(0.01479028538 0.001442259421 0.0006904088372)
(0.01228528822 0.0001472170438 -0.0009832142918)
(0.008440284614 -0.0002720536894 -8.816634939e-05)
(0.00509649387 0.0008794726803 -0.000217954289)
(0.008245661367 0.0001446241128 -0.0003032186017)
(0.01363243745 0.001214402716 -0.001187658792)
(0.01524451298 0.0004788135869 -0.0003393432452)
(0.0009340019729 -9.852416132e-05 -1.370594192e-05)
(0.01029705345 -0.000142409916 0.001365677697)
(0.008727247671 0.0005887957801 0.0005671496452)
(0.005987745442 1.935305222e-05 0.0003936835617)
(0.01108120046 -0.0005030992748 -0.0002101903061)
(0.01033998773 -0.0004564033657 5.399071577e-05)
(0.00892288971 0.0008875800007 0.0004162060206)
(0.007868227266 0.0001345019126 -0.0006143936988)
(0.01084302182 0.0002864815301 -0.0004054017425)
(0.002336792179 -0.0001009841214 -0.0002204636015)
(0.01420790526 -0.0002219065445 -5.786652254e-06)
(0.004854795 -0.0001314067723 -0.0002183794955)
(0.006443499864 -0.0002788581443 6.574551725e-05)
(0.009114525365 -0.000215525901 1.264400469e-05)
(0.00528075822 -2.307081294e-05 -3.114929022e-05)
(0.007609003457 0.00147967423 -0.0006541260415)
(0.01251303193 -0.0004486322117 0.000433562287)
(0.009143519484 1.104539255e-05 0.0002136811458)
(0.009502668503 -0.001399760244 -0.000290790284)
(0.009901851181 0.0002110007389 0.0007430799509)
(0.009176202372 -0.0003968377503 -0.001117657067)
(0.01032548013 -0.0008381472756 -3.124700845e-05)
(0.005263969255 4.305830032e-05 0.0001079501942)
(0.006239524483 -0.0003059868399 0.0006127725165)
(0.005224346084 -0.0004586286444 -0.0002846226284)
(0.01147994619 0.000785552501 -0.0001446136817)
(0.007448339174 0.003188136093 -0.0008023370733)
(0.0103684511 0.001592786608 0.00178001943)
(0.008147965521 0.002206670143 0.0001848381676)
(0.006636836396 -0.0001433961187 0.0001221970528)
(0.01259602548 7.526149325e-05 0.0002631959207)
(0.01024506407 0.0002828105108 -0.0003800313269)
(0.009956452022 -9.316230577e-05 0.0005551776709)
(0.01492831194 0.0005929044565 -0.0009078603669)
(0.01261408143 -0.0002778198578 -0.0003748108042)
(0.005781414023 0.0001209198036 -0.0008419064835)
(0.005796021562 0.0008688599537 0.0002267445099)
(0.009712840779 -0.0004852486606 -0.0002583173596)
(0.007543663848 -0.0008667424507 -0.0004203495261)
(0.01376722269 -0.0007831256611 -0.0001281862042)
(0.007763847006 -0.0003850359075 0.0003942364823)
(0.007490121886 0.0005393451764 -0.0006391843123)
(0.005691149125 0.0003246915615 0.0003034736549)
(0.01130064206 -0.0003522195964 -0.0002528801166)
(0.01070814135 -0.0005235962865 0.0003603694169)
(0.01243851767 -0.00059334481 -0.0005990403101)
(0.007142269201 0.0004165888237 0.0001906849896)
(0.007752835898 -0.0002210115412 -0.0002226848239)
(0.009187648938 0.0001607418516 -0.0005242485825)
(0.01244593021 0.001072534211 -2.041133518e-05)
(0.01411205877 0.001679922927 -0.0002322141551)
(0.004703977134 -0.0005099388417 0.001086131126)
(0.008377335102 -0.0008467914422 -0.0006876766269)
(0.007836003684 0.0004724653879 -0.0002370145375)
(0.005711155417 0.0001454907547 0.0001844551703)
(0.01070947272 0.0007263312337 -0.0002299137376)
(0.01222582059 -0.0004980703659 -0.0004792662716)
(0.0111361351 0.001766546137 -0.0003615650429)
(0.00678784082 0.0003521893282 0.0002527179792)
(0.01112900893 -0.0007142601773 -0.0003855297073)
(0.008369896297 -9.803065807e-05 0.000317111811)
(0.006956410885 -5.707217212e-05 -3.406916964e-05)
(0.0100427077 6.192111274e-05 -0.0001263123415)
(0.006695577459 0.000223913389 -0.0001963018793)
(0.01035845646 0.0007281758143 0.0005387789205)
(0.01004900727 0.0007386649764 -0.000262717836)
(0.003999868544 0.0005728681155 -7.28680128e-05)
(0.00497452301 0.0004707399213 -4.524657223e-05)
(0.005995801105 0.0005656755225 -0.0002683088217)
(0.009303791658 -0.0001136416696 -0.0006418265932)
(0.007677122204 9.008817317e-05 -0.0005847856327)
(0.006851836504 0.0001913093876 -0.000634310407)
(0.006949728022 0.0007568881544 -1.480265835e-05)
(0.006856115953 -0.0003083802361 0.0003358405137)
(0.01396716951 0.000228452522 -0.0003351111405)
(0.007702475518 -0.001104662239 -1.91828866e-05)
(0.004282601047 0.0001854780757 0.0008047639449)
(0.004477519009 0.0001592884817 0.0006646034151)
(0.007776104149 -0.0002459490455 0.0003903463055)
(0.008877680678 0.0004923761725 -0.0007299457501)
(0.01439358 -0.0002945482385 -0.0001170405051)
(0.01001099631 6.626769154e-05 0.0002190986671)
(0.009751338554 0.0006176738877 0.000606784894)
(0.01269356437 -0.0001627041983 -0.0009771026457)
(0.007781236535 0.0001084494494 -5.885836919e-05)
(0.009813895819 0.0003503723459 0.0002027276264)
(0.008035479481 0.0003715186896 -6.7700693e-06)
(0.01755369677 0.0009302537712 -0.0005750231644)
(0.006716910618 0.001477306539 0.0001854905229)
(0.01066383539 -0.0006520419233 0.0001762518751)
(0.003352470581 1.466719341e-05 6.910278451e-06)
(0.007751069159 -0.000335043128 0.000917067953)
(0.01289768487 -0.0005488594049 -0.001023648701)
(0.003298745022 -0.0005731759137 -4.2129361e-05)
(0.007182087358 -0.000639544827 -0.0003133676267)
(0.01103576321 0.0004236944062 0.0009053330322)
(0.009227851356 -0.0007701703843 -0.0003946358219)
(0.008670126259 -0.0005449939298 0.0004423346773)
(0.003376291373 -3.563070803e-05 -0.000140729316)
(0.009687853848 0.0007259900127 -0.0002851883691)
(0.009066661468 0.0002705163145 -0.0005449431941)
(0.009775092358 -0.0008181493219 -0.0002721963391)
(0.004518119496 0.0002063036193 0.0005594757668)
(0.006138556329 -0.0003796360058 -0.0004449219297)
(0.007557290424 -0.0005174756858 -1.208795504e-05)
(0.008357246575 9.466142257e-05 0.0005176921098)
(0.0080524838 -0.0008667663395 -0.0007722370501)
(0.001009073556 0.0001078450687 5.259510537e-05)
(0.01321662085 -0.0004981675153 -0.0006809036386)
(0.009114729624 0.0003415417804 -0.0003999995829)
(0.01276717634 0.0001964407309 0.0002539399088)
(0.005288019764 -9.165801975e-05 -0.0003764011477)
(0.01147525169 -0.0002780219754 0.0001734539563)
(0.008479745809 -0.0001413455866 -0.0005841532121)
(0.01666664076 0.0003394434844 0.0001870685391)
(0.005812695399 0.0007466245888 1.5199223e-05)
(0.007715791582 -0.0003504600436 0.000570631594)
(0.009683790356 0.0002279392411 -0.0007779179102)
(0.01139097937 0.0004051394197 6.007454643e-05)
(0.01352451527 0.0003734206508 0.0007504976251)
(0.008156922835 -0.0008461408706 -0.0004431673555)
(0.009658312614 0.0001544908697 -0.0007769434869)
(0.005635298382 0.001267814696 -0.0002093149341)
(0.009611393078 -0.0009403551857 -0.0002021504727)
(0.006441548287 0.0003589162404 0.0002759800717)
(0.01136371201 -0.0008655134299 0.0005692382704)
(0.01154279119 8.883820991e-05 -0.000866719343)
(0.007083399361 -0.0002215119631 0.0004667591227)
(0.005937528064 -0.0004052565106 -8.428988042e-05)
(0.006877561347 -0.00077178172 0.0006758759495)
(0.005365970785 -0.0003434942532 0.0002506242003)
(0.01086998342 0.0005882942124 0.0004482730109)
(0.01357293215 0.000465545577 -0.0014094037)
(0.0103809136 0.001142376621 -0.0007603259255)
(0.01179529814 -0.0001222342711 6.991354543e-05)
(0.006074225736 -1.645141947e-05 -0.0005040887071)
(0.008183344722 0.0002918717412 0.0003954493077)
(0.008404313317 0.0005866328103 -0.0002818964996)
(0.005161764161 -0.0004794148666 0.0008363051509)
(0.006514380282 0.0002543196746 1.464447187e-05)
(0.008921583216 0.0001299102639 -0.0002786878393)
(0.01069486864 0.0004380290527 7.144030945e-05)
(0.006228446582 -2.082264265e-05 0.0003383259164)
(0.01235273293 -0.000511545867 -6.267691851e-05)
(0.01390787655 -0.0001054327754 0.0004843409592)
(0.005136223065 3.633011802e-05 -0.0001306073603)
(0.008575898645 0.0002316554622 -0.0004408896477)
(0.006959938218 0.0005365243896 -0.0002348083997)
(0.009032161148 0.0005619887085 -0.0001307536349)
(0.005298163024 -0.0004249047013 -0.0005597903041)
(0.00506911502 0.000175798381 -0.0003840710275)
(0.00898951578 -0.0003519818498 -0.0002754665096)
(0.0104733151 -0.0004906529514 -0.0008909896661)
(0.009630914364 4.05978533e-05 -0.0003815060962)
(0.01024547476 0.0002839685614 0.0003420954731)
(0.007103619337 -0.00069119421 0.0002551845515)
(0.00969910924 0.000208163444 0.0001865428854)
(0.006182451074 -0.0001898593229 -0.0005123762473)
(0.004354396836 -0.0004641633629 -0.0001561005199)
(0.006612199592 -0.0009497280599 -0.0001909135279)
(0.008928057104 0.0002507574274 -0.0003004655997)
(0.007879206129 -0.0002086250741 -4.574893817e-05)
(0.005181535293 -0.0002304579574 -0.0003414112531)
(0.007198613129 -0.0006155248161 -0.0001714042866)
(0.01059392673 -0.0006877866712 -0.0001928547961)
(0.005538104606 0.0007076400223 0.0001172505306)
(0.007132502195 -0.0003470525176 5.793512892e-05)
(0.007687910529 -0.000714951292 -9.762020533e-05)
(0.009452934986 -0.0004473005178 -0.0003082811711)
(0.01218220539 -5.86926826e-05 -0.0003889720703)
(0.007188008167 0.0009803229927 0.0004224458341)
(0.01280302022 7.177739365e-05 -0.0008745988396)
(0.005744408885 -0.0006526310303 -0.0005646305465)
(0.007030381938 -0.000219485277 -2.899160232e-05)
(0.008078234959 -0.000551652592 -0.0002535712933)
(0.0109535581 -0.0004983043233 0.0006260095871)
(0.004890363885 0.000299698301 -0.0003940166263)
(0.007255438564 0.001250771938 -0.0001246180029)
(0.009188016414 -0.0003435649827 -0.0002450138319)
(0.008315301339 -0.0002332360942 0.0004400182986)
(0.004771176351 6.128778675e-06 9.537510044e-05)
(0.007535664723 -0.0001093227811 -4.60002187e-05)