/*--------------------------------*- C++ -*----------------------------------*\
| =========                 |                                                 |
| \\      /  F ield         | OpenFOAM: The Open Source CFD Toolbox           |
|  \\    /   O peration     | Version:  2406                                  |
|   \\  /    A nd           | Website:  www.openfoam.com                      |
|    \\/     M anipulation  |                                                 |
\*---------------------------------------------------------------------------*/
FoamFile
{
    version     2.0;
    format      ascii;
    arch        "LSB;label=32;scalar=64";
    class       volScalarField;
    location    "0.005";
    object      overallT;
}
// * * * * * * * * * * * * * * * * * * * * * * * * * * * * * * * * * * * * * //

dimensions      [1 2 -2 0 0 0 0];

internalField   nonuniform List<scalar> 
654
(
732.1013242
716.9518663
725.4665299
725.863037
721.9973735
722.7266257
669.0033971
682.148606
687.6066861
686.3175753
696.315704
701.7863269
701.9587928
709.3265392
710.1629485
709.0411328
712.9345035
564.0483572
587.3779465
599.6356504
616.8344503
634.0055255
647.8659532
658.9403436
663.6594487
676.5318391
680.2007423
685.7944592
693.5039945
692.8115455
695.870002
700.5483743
701.1930794
414.5991381
426.5591586
439.8482431
467.6735342
484.1958052
502.9425412
524.0119102
553.6174926
567.7656902
595.2845582
608.9109819
622.8193551
639.2425139
646.1572512
651.471352
659.3237297
667.8470988
680.9634049
681.3403645
685.1203915
686.4231636
690.7275691
325.0977368
329.8223902
331.3827767
345.0539641
357.6640779
363.4542034
377.242258
385.2329831
403.2285677
418.3407137
430.9151219
449.9284914
474.0380627
491.7608438
511.2519402
533.831009
547.5322369
570.6179738
586.3969567
606.9457764
622.9093996
634.9980381
644.1750617
654.5802341
664.2410279
671.0650166
678.6537129
679.6255129
677.4313
315.814343
318.7167246
325.031584
326.0566239
333.3144703
343.2159454
352.7813121
361.3273114
367.3667944
381.6190149
395.1667166
406.6672715
426.4678868
437.1398491
463.136967
476.920789
497.8687606
516.7254962
538.539197
554.3509577
575.4643764
593.0817402
608.2162769
622.6430778
639.9514308
645.3863623
653.3488405
659.3322545
661.4987365
670.2577705
311.9770015
312.9210756
319.7708806
324.3096901
327.3042031
332.359692
335.0239695
345.0708538
352.1805631
365.160332
368.2422991
387.0728586
398.2911559
414.3315397
432.2722683
447.529265
465.8032338
484.5587958
499.1035251
516.6096615
534.1828118
561.7138522
579.2436722
597.7676764
610.8016373
620.4470995
638.9872345
644.2295478
647.6942062
652.5154433
312.8258553
312.9280012
312.4449954
315.2789299
319.9090729
324.7191106
328.1107304
332.9480883
342.0226002
347.6048359
356.4660362
364.4116898
370.4436518
383.316001
401.9530155
414.1446949
434.7404998
454.7839242
470.8544199
491.1180011
508.1829574
529.1318009
541.304624
568.8322076
585.7072114
596.1228462
612.8578812
631.6517034
639.21285
641.2256028
308.6392257
309.8171891
316.24444
314.3466817
314.3074102
320.3301877
323.6680182
323.0311579
334.9419373
340.6785558
348.3099108
351.5596716
359.6719305
368.6116104
381.1429362
398.0687861
409.6113669
429.489106
442.7110627
469.434376
476.2147299
501.5938611
520.6746875
534.4986294
560.4656799
579.7693539
588.9276019
608.5918312
618.7861976
628.6771513
306.3737295
307.397024
305.565675
309.9523046
313.4196389
315.3734633
318.2932163
320.3002717
326.448735
328.8371508
337.9567807
342.0947902
344.7407524
356.0756069
363.4358764
368.7241779
384.0093762
401.710949
417.7185088
427.609064
448.2315584
463.2532873
490.1765705
507.538578
522.8571881
543.5040719
561.1686674
576.6506073
596.4623839
607.9934246
305.7472575
307.1422315
306.1189408
309.1219802
309.47601
310.5297124
313.2443689
318.6129278
320.8519599
323.665292
328.1435119
333.1484122
337.5159784
349.0409527
355.6362792
363.9601635
371.8386031
384.7757712
392.056255
410.7100462
422.1248978
432.8605657
452.8888477
473.0057543
490.6414518
508.6841422
532.6631455
547.9889616
571.6545213
581.7903634
301.2951166
300.7272708
303.0591052
307.0998185
308.5710065
311.4371475
312.2790613
317.4734945
315.0973335
317.0955811
322.0685112
329.0477225
330.5056059
332.4851822
339.6808432
349.0785771
351.7154959
364.4763099
377.3114824
390.9513374
402.3918729
409.8176353
427.6662721
444.759705
462.7927395
481.1235266
501.8754686
522.7953678
538.1732867
559.7771427
304.0835898
305.5599799
307.2093832
307.458677
305.3909879
306.7628454
307.635769
311.2069556
309.6183975
314.1932038
315.8018517
320.2326286
321.9007402
326.3043247
334.681176
342.520565
345.4329517
352.2271075
360.5436375
367.428238
384.8516001
393.990211
405.6158473
416.0514195
441.5421244
453.0015737
471.9022319
494.9355323
515.5980539
529.2918022
301.831732
301.0840262
303.129178
306.513539
305.8786244
302.8516648
306.422694
307.1238404
310.4815121
312.1506994
314.714105
319.0340561
316.8877774
321.9644233
324.3026792
334.2790256
335.9891932
340.9328404
346.10212
355.9606695
360.543799
374.6151563
387.1076792
398.6024956
411.0137712
424.7055936
441.8356197
461.9475823
478.9081819
502.638043
302.1960959
301.4243012
299.7716172
299.4393376
301.3356946
302.725738
306.9335975
307.0022717
307.2485055
310.1410022
311.8342561
308.4336962
316.9697862
317.1580341
319.568672
322.9729947
328.2939255
334.7279505
340.7334891
346.2077569
350.393944
361.9036897
367.6219664
385.3951079
392.4421092
406.6544349
419.1522753
441.1535701
458.9651042
473.5171117
299.0096581
299.3680634
300.9340411
301.2669705
302.8103353
302.3557755
301.1985074
301.6645603
303.1958899
305.6817412
308.3581626
310.2550487
311.4111324
309.9375219
314.6882197
316.5368117
322.3435203
327.3765484
330.1945575
334.4271772
344.9691193
350.098153
359.9160162
366.3774752
368.6275347
381.7000418
392.7639731
405.9226857
432.0053828
448.3506483
301.9846868
301.9797867
302.7703078
301.0149711
301.0800795
301.7997377
301.7495133
303.0759361
304.9482566
304.7930821
305.5310296
305.4464301
308.7118907
308.8182316
312.6998123
315.3925169
318.9652391
320.2623776
324.1762888
325.0322268
328.5183815
333.7402501
341.6580021
349.7801888
356.7170278
367.32337
377.9012594
392.6027341
402.5752216
421.9590479
301.4740987
302.6399499
302.6854449
303.3055225
303.0723484
302.8571999
302.6205959
301.2410192
300.2116123
302.4859009
303.383335
305.9487917
307.1664033
309.6022162
309.0330051
307.9917536
310.6747405
314.8833225
319.1831268
321.493857
322.2138605
329.0095774
333.7247568
339.4587735
353.0192533
352.9530824
362.5275113
371.7265063
384.4452091
398.8783985
297.5833653
298.0664801
299.4125166
302.7117358
303.6046241
302.1661298
303.2047263
304.9385183
304.3824672
303.1974484
303.1551705
302.0839111
303.8124616
304.7018535
307.4629113
307.3426934
307.2810787
312.7355381
314.5779617
317.4065538
317.6698075
321.4573385
324.9817812
336.0846426
339.7387619
353.9154572
352.757259
360.2335768
372.2282821
378.6969539
303.109747
302.3793237
301.5653057
302.8938529
302.4661428
303.746419
303.4198716
301.2721105
301.9628154
301.6890797
304.3017074
304.4846106
304.6827549
303.3016016
305.7551027
306.9807758
310.4623124
306.8562683
311.4895537
312.977043
315.9775535
316.4356424
319.6158552
324.5323311
330.1510507
339.3347558
345.1840902
350.1461504
362.7610505
371.081386
298.0440414
299.0441909
298.5186102
298.2214688
296.7792732
296.297319
297.2506999
299.5373534
300.8034287
301.5277416
301.0965189
299.8611168
299.5829106
301.0983251
302.5735014
302.4520164
304.9185348
305.7163202
304.6445365
308.3398733
312.0768774
313.5293951
314.4161615
316.6240088
320.6724943
327.6636659
328.6892232
338.614713
343.976545
352.873849
302.0651299
302.1550663
300.7332424
299.7675011
302.3061939
300.7610758
301.480183
302.061988
299.5256014
300.640056
300.537043
303.2340523
303.096064
302.6685878
302.0931334
302.0189023
303.1774873
304.7564267
304.9549932
307.1462756
308.9534762
313.942992
313.8036279
316.845916
317.7582408
325.7162518
330.1387336
332.4100033
335.6493815
347.1672527
300.1474799
300.4794289
300.3521097
299.9331988
301.3226696
302.2594515
299.5085049
298.362202
298.6540863
298.0643924
298.15657
299.679663
300.0258166
300.7853969
304.0772947
300.9527195
302.172219
303.2715406
303.7501229
305.5526143
308.8238293
308.1536863
310.4881339
312.4389581
316.6713158
318.5553774
321.1952412
327.3705384
332.1598741
336.6678257
299.0132236
299.5988674
301.6873418
299.7921817
299.2930838
297.8303033
299.7386999
300.1133471
299.643116
299.8272258
299.8881518
300.8355227
300.3358723
298.2171939
299.0125857
302.5208431
302.339563
303.8876538
301.4303441
301.7977207
301.8498677
306.5585459
308.6619487
306.5304244
310.1081055
309.6072753
312.9819783
321.2038507
321.9450477
329.2506494
)
;

boundaryField
{
    flow
    {
        type            calculated;
        value           nonuniform List<scalar> 
55
(
732.1013242
722.7266257
712.9345035
701.1930794
690.7275691
677.4313
670.2577705
652.5154433
641.2256028
628.6771513
607.9934246
581.7903634
559.7771427
529.2918022
502.638043
473.5171117
448.3506483
421.9590479
398.8783985
378.6969539
371.081386
352.873849
347.1672527
336.6678257
329.2506494
299.0132236
299.5988674
301.6873418
299.7921817
299.2930838
297.8303033
299.7386999
300.1133471
299.643116
299.8272258
299.8881518
300.8355227
300.3358723
298.2171939
299.0125857
302.5208431
302.339563
303.8876538
301.4303441
301.7977207
301.8498677
306.5585459
308.6619487
306.5304244
310.1081055
309.6072753
312.9819783
321.2038507
321.9450477
329.2506494
)
;
    }
    obstacle
    {
        type            calculated;
        value           nonuniform List<scalar> 0();
    }
    frontAndBack
    {
        type            empty;
    }
    procBoundary3to1
    {
        type            processor;
        value           nonuniform List<scalar> 
36
(
738.5139702
734.0915641
733.6559207
739.2993163
736.2461937
736.2461937
687.7859944
683.6224589
697.0315384
703.2944857
710.9599505
711.9715431
711.9715431
598.7648579
616.6190564
634.3875511
651.0395018
657.569107
657.569107
443.9202912
461.0033959
486.6024844
507.4943798
521.4740526
538.0600913
538.0600913
338.6306025
338.7912024
344.4185391
363.9742117
379.0365618
382.8988884
395.4371956
395.4371956
323.8168688
323.8168688
)
;
    }
    procBoundary3to2
    {
        type            processor;
        value           nonuniform List<scalar> 
19
(
312.6377717
308.1117966
308.6044454
305.2300015
301.5797281
305.3886747
299.3377337
301.6900565
302.0597977
302.4753732
300.0659592
300.1341287
302.4008104
297.5136797
300.7437343
298.9728368
300.8166337
300.2779109
297.5308172
)
;
    }
}


// ************************************************************************* //
