/*--------------------------------*- C++ -*----------------------------------*\
| =========                 |                                                 |
| \\      /  F ield         | OpenFOAM: The Open Source CFD Toolbox           |
|  \\    /   O peration     | Version:  2406                                  |
|   \\  /    A nd           | Website:  www.openfoam.com                      |
|    \\/     M anipulation  |                                                 |
\*---------------------------------------------------------------------------*/
FoamFile
{
    version     2.0;
    format      ascii;
    arch        "LSB;label=32;scalar=64";
    class       volScalarField;
    location    "0.005";
    object      p;
}
// * * * * * * * * * * * * * * * * * * * * * * * * * * * * * * * * * * * * * //

dimensions      [1 -1 -2 0 0 0 0];

internalField   nonuniform List<scalar> 
654
(
2.498157942
2.543587796
2.605060017
2.555954474
2.510911804
2.528290188
2.055090239
2.16795239
2.249735008
2.301380818
2.413840036
2.473745605
2.479236898
2.522212419
2.563872275
2.537676175
2.500340159
1.268623143
1.403547918
1.484527157
1.600016442
1.726723524
1.851761424
1.967242813
2.046709302
2.149237313
2.239807178
2.321793348
2.421331474
2.434474496
2.450767928
2.484191947
2.461840182
0.7047639802
0.7482673643
0.7838627409
0.8828737312
0.9411114472
1.015462875
1.089126706
1.218330331
1.316400651
1.451039674
1.558117298
1.6743921
1.795813646
1.877830394
1.954795596
2.041723852
2.141317097
2.268213822
2.33468148
2.387917289
2.395610519
2.436734758
0.4735578214
0.4820292499
0.4828077793
0.5228435475
0.5616083259
0.5736512981
0.6136929354
0.626731505
0.6848550319
0.7330990505
0.7763040403
0.8279933242
0.9046357998
0.9780088742
1.058384888
1.154605469
1.235154985
1.34724364
1.454005514
1.589714449
1.713248789
1.811037734
1.89750027
2.017828234
2.122243426
2.195326777
2.278948083
2.327483392
2.347635216
0.4531307192
0.4617471968
0.4812466411
0.4865159042
0.503889124
0.5213026993
0.5457483295
0.5684715465
0.5849728234
0.6228433438
0.6614287042
0.6995886406
0.758890367
0.7987727372
0.877310619
0.9367877311
1.002171995
1.086889378
1.17686425
1.249672448
1.37738956
1.494597627
1.623074716
1.716130463
1.84454842
1.953665072
2.041744703
2.134580609
2.166042182
2.265037551
0.4471574462
0.4447240149
0.4586910493
0.4691079159
0.4809575535
0.4931969752
0.5004146238
0.5256828088
0.5458344853
0.5847677311
0.5980477285
0.6515586014
0.6829932457
0.7329774357
0.783224772
0.827730626
0.8852158258
0.9438148203
1.01465702
1.105115757
1.173102052
1.303956097
1.412977541
1.543168279
1.663586685
1.747725893
1.903929035
2.005431886
2.08802898
2.129399825
0.446600123
0.4547514705
0.4529168891
0.4578375343
0.4690958084
0.478133358
0.4814949432
0.4935585602
0.517316152
0.5318507239
0.5487980737
0.576296783
0.5964633972
0.6299940647
0.6895999873
0.7248044417
0.7898626926
0.8513771014
0.895254034
0.9754462367
1.071711238
1.159086899
1.218915081
1.373242686
1.478786563
1.545260747
1.67028316
1.796304335
1.914263435
1.977976161
0.438923263
0.4408793718
0.4577957989
0.4509479004
0.4501454995
0.4636671547
0.4727561054
0.4753880408
0.5025104443
0.5182469128
0.5330577744
0.5399199453
0.5569586694
0.5742241139
0.6052318637
0.65463963
0.6985168474
0.7593303607
0.8158256702
0.900617752
0.932196746
1.039207391
1.119097418
1.179731522
1.29916526
1.427304118
1.516067252
1.645350316
1.751579752
1.867132344
0.4290790217
0.4282170875
0.4289804769
0.435855691
0.4512450788
0.4583289864
0.4689186238
0.4661490794
0.4792251493
0.4788161252
0.502826835
0.510877903
0.518682415
0.5475663466
0.5732504935
0.5860098537
0.6281758535
0.6878198241
0.7335273997
0.7695200039
0.8366523126
0.8958155337
1.006885779
1.083939097
1.16200663
1.269237911
1.362579904
1.463827656
1.574510871
1.661281051
0.4289233495
0.4339554074
0.4346105943
0.4375205098
0.4390417518
0.439663359
0.4388588907
0.4530070077
0.4612801987
0.4761346741
0.4819582376
0.4903211751
0.5008581681
0.5288039699
0.544849834
0.5673862289
0.587692655
0.6232706209
0.6470335286
0.7090158391
0.7421674579
0.7825061908
0.8588861815
0.9429567269
1.009448755
1.089421447
1.210367291
1.295017109
1.435106607
1.537768764
0.4252402434
0.4163249785
0.4140694186
0.4270824918
0.428078271
0.4370352051
0.4424962587
0.4545443447
0.445586676
0.4444947787
0.4650293959
0.4870111485
0.4896215076
0.4924025431
0.5098583422
0.5375589673
0.5440595056
0.5747664367
0.6149731181
0.6431752767
0.6890976274
0.7213878061
0.7719227432
0.8271500531
0.8934749827
0.9689167006
1.058821167
1.159637821
1.255470947
1.384394523
0.4160578134
0.4241676948
0.4280986001
0.4299315916
0.4221937674
0.4252884098
0.4243561677
0.4288294753
0.4279545675
0.4396684926
0.4408519365
0.4529589439
0.4668472359
0.4764482434
0.4955054046
0.5153179386
0.5249099489
0.5480916106
0.5650021087
0.5934364826
0.6373479894
0.6582991278
0.6968105943
0.7331203185
0.814441506
0.8624186405
0.933391332
1.034823413
1.12517457
1.20122506
0.4157577842
0.4122689445
0.4165460024
0.4225002917
0.4221092909
0.4169289789
0.4261139569
0.4252916431
0.4333173617
0.4440651141
0.445438049
0.4553773545
0.4441532969
0.461422457
0.4695017514
0.4981311434
0.5027391183
0.5209945677
0.5302935957
0.5583559522
0.5636967067
0.6050935266
0.6479401238
0.6845510357
0.7294438471
0.7771819697
0.8317971504
0.9053880019
0.9804574082
1.083875386
0.4145777006
0.4107190423
0.4089791645
0.4076861101
0.4104117091
0.414613972
0.4278474884
0.4317663556
0.432634654
0.4387955485
0.4436506289
0.440169846
0.4571858561
0.4629741167
0.4639682461
0.4745172107
0.4820653124
0.4877048481
0.4998054707
0.5121907228
0.5252831231
0.5671316019
0.5751979312
0.6227028297
0.6494196486
0.6996138522
0.7523769753
0.8282523616
0.8806613087
0.9444326576
0.4121325222
0.4129708017
0.4134887492
0.4133571255
0.419812384
0.4215328165
0.4198005457
0.4240034342
0.4266931042
0.4327962401
0.4356973187
0.4391792979
0.4455399111
0.4418950068
0.4516483684
0.4550546279
0.4662740237
0.4797815389
0.4858226306
0.4975493628
0.5187527539
0.5302033079
0.5646460143
0.5909514642
0.5954791162
0.6293740327
0.6602210288
0.7057315849
0.8009814847
0.8602605035
0.4262837707
0.4273422674
0.4310309464
0.4235740891
0.423361277
0.4194554148
0.4154205351
0.4148392252
0.4173756808
0.4211186343
0.4279102621
0.4255814653
0.4313599533
0.430713635
0.4376126311
0.4468221808
0.454505234
0.4607508147
0.4784010755
0.4838464784
0.4986188721
0.5093553808
0.520788754
0.541529939
0.5576242687
0.5811385109
0.6125934166
0.6601208572
0.6902263429
0.7618094567
0.4181155544
0.4217150005
0.425914752
0.4288600596
0.4220009302
0.4255087481
0.4233384954
0.423822095
0.4161843649
0.4181874698
0.4183977034
0.4234098414
0.432000955
0.4382546239
0.4382268783
0.4360992125
0.4476841841
0.4578965106
0.4645359405
0.4601968393
0.4645140452
0.4812556609
0.4915696652
0.5105519996
0.5511585249
0.5578630283
0.5884553831
0.6088360076
0.6396605942
0.6840910264
0.4054341643
0.4010345763
0.4025322024
0.4097082001
0.4168355884
0.4158318373
0.4149834903
0.4203606164
0.4205878423
0.4149923344
0.4204417369
0.4220718119
0.4229154601
0.4222720052
0.4291968473
0.4307329008
0.4306406858
0.4439575385
0.4421582958
0.4544012685
0.4563085598
0.4686119814
0.4750781327
0.5002334264
0.5082473568
0.542865038
0.5422997461
0.5681130044
0.6121421383
0.6261048838
0.4112959994
0.4080074396
0.4097390111
0.4126103222
0.4125341888
0.4155979136
0.415626561
0.4088730158
0.4148897363
0.4181719797
0.422521886
0.4157253556
0.4118404525
0.4165450984
0.4243795181
0.4289004927
0.4370949018
0.4307101038
0.4450777776
0.4495124561
0.4539882634
0.4562966414
0.4631408872
0.4758208981
0.4892489652
0.5179171557
0.5251252965
0.5349742932
0.5708011426
0.5951780916
0.4108543444
0.4148348293
0.4108156105
0.4110142554
0.4074501816
0.405828859
0.4133420791
0.4220569868
0.4204119556
0.4239130333
0.4212102692
0.4257189972
0.4245011802
0.4266603424
0.4252191461
0.4242171521
0.4304018091
0.4305127209
0.4285076397
0.4330332195
0.443757593
0.4514279895
0.4611972232
0.4622039237
0.4711423454
0.4933067533
0.503980622
0.5328398948
0.5431674038
0.5671842446
0.4286279034
0.4275436295
0.4268502896
0.4277643924
0.4313589637
0.4235597438
0.4180406075
0.4159422732
0.4132253716
0.4164882454
0.4127558251
0.4192075196
0.4236831689
0.423636913
0.424824604
0.4275956167
0.4303458553
0.4308692743
0.4290185379
0.4382119678
0.4406512108
0.4464207733
0.4477919947
0.4537906242
0.4573342064
0.4781438168
0.4859694973
0.4917103698
0.5042265828
0.5315975328
0.4166180966
0.4141041643
0.4167141003
0.4174051456
0.4202167162
0.4258312405
0.4231438356
0.4192025624
0.4207643056
0.4185005295
0.4180870109
0.4228899986
0.4244037229
0.4256576161
0.4302738962
0.4213617502
0.4257083252
0.4315254047
0.4309306208
0.430027801
0.4399361472
0.4336328139
0.4373122705
0.4444106284
0.4585045107
0.4567290433
0.4677638429
0.4834875016
0.4973930054
0.5162209143
0.4022501752
0.4079183112
0.4114928546
0.4079121641
0.4046026124
0.4033270249
0.4088620392
0.413297371
0.4118275791
0.4123858974
0.4165786596
0.4121451738
0.4113647001
0.4082001838
0.4096283147
0.4184412788
0.4127777704
0.4142968267
0.4067222588
0.4099657193
0.4141975913
0.4334024626
0.4328133404
0.4308967467
0.4336567438
0.4328978697
0.4393385388
0.4600961062
0.4645441687
0.4847248064
)
;

boundaryField
{
    flow
    {
        type            calculated;
        value           nonuniform List<scalar> 
55
(
2.498157942
2.528290188
2.500340159
2.461840182
2.436734758
2.347635216
2.265037551
2.129399825
1.977976161
1.867132344
1.661281051
1.537768764
1.384394523
1.20122506
1.083875386
0.9444326576
0.8602605035
0.7618094567
0.6840910264
0.6261048838
0.5951780916
0.5671842446
0.5315975328
0.5162209143
0.4847248064
0.4022501752
0.4079183112
0.4114928546
0.4079121641
0.4046026124
0.4033270249
0.4088620392
0.413297371
0.4118275791
0.4123858974
0.4165786596
0.4121451738
0.4113647001
0.4082001838
0.4096283147
0.4184412788
0.4127777704
0.4142968267
0.4067222588
0.4099657193
0.4141975913
0.4334024626
0.4328133404
0.4308967467
0.4336567438
0.4328978697
0.4393385388
0.4600961062
0.4645441687
0.4847248064
)
;
    }
    obstacle
    {
        type            calculated;
        value           nonuniform List<scalar> 0();
    }
    frontAndBack
    {
        type            empty;
    }
    procBoundary3to1
    {
        type            processor;
        value           nonuniform List<scalar> 
36
(
2.461850901
2.590726026
2.589725656
2.587759231
2.553906862
2.553906862
2.189429773
2.24458175
2.400764582
2.436120417
2.517894047
2.508760658
2.508760658
1.470924922
1.591069022
1.695571116
1.829186403
1.902777014
1.902777014
0.7871082057
0.8362001942
0.9429479622
1.008748537
1.068428224
1.145969239
1.145969239
0.497001242
0.4995859963
0.5165180468
0.5615451877
0.5963630728
0.6098063138
0.6513002283
0.6513002283
0.4649115149
0.4649115149
)
;
    }
    procBoundary3to2
    {
        type            processor;
        value           nonuniform List<scalar> 
19
(
0.4484015999
0.4352124956
0.4368149987
0.4343845683
0.4196277027
0.4269387661
0.4181563332
0.4114675645
0.4174619893
0.4151259207
0.4145266052
0.4216212466
0.417990358
0.4054445831
0.4033086771
0.4151449924
0.4189943817
0.4215211332
0.4002196262
)
;
    }
}


// ************************************************************************* //
