/*--------------------------------*- C++ -*----------------------------------*\
| =========                 |                                                 |
| \\      /  F ield         | OpenFOAM: The Open Source CFD Toolbox           |
|  \\    /   O peration     | Version:  2406                                  |
|   \\  /    A nd           | Website:  www.openfoam.com                      |
|    \\/     M anipulation  |                                                 |
\*---------------------------------------------------------------------------*/
FoamFile
{
    version     2.0;
    format      ascii;
    arch        "LSB;label=32;scalar=64";
    class       volScalarField;
    location    "0.005";
    object      rhoM;
}
// * * * * * * * * * * * * * * * * * * * * * * * * * * * * * * * * * * * * * //

dimensions      [1 -3 0 0 0 0 0];

internalField   nonuniform List<scalar> 
654
(
8.137233258e-06
1.067231601e-05
1.399091525e-05
1.003193181e-05
1.762379289e-05
1.201496867e-05
7.964005557e-06
7.508233966e-06
5.282893831e-06
8.971726192e-06
1.030551757e-05
1.238607108e-05
1.058139994e-05
1.325478457e-05
7.338234495e-06
8.811896446e-06
1.239445182e-05
3.652885839e-06
8.204256862e-06
9.031508507e-06
1.046844521e-05
6.609491737e-06
1.367663408e-05
9.42879826e-06
5.107362985e-06
7.550928722e-06
7.258087005e-06
9.131321174e-06
1.18586171e-05
8.191392637e-06
1.746274379e-05
9.374742374e-06
1.419300772e-05
4.590387745e-06
2.95113189e-06
4.663002546e-06
4.619410063e-06
3.675589893e-06
5.765228807e-06
6.724539843e-06
5.441022866e-06
5.908843585e-06
6.893454126e-06
7.811217507e-06
8.222817493e-06
1.073817832e-05
8.365288972e-06
5.151995644e-06
7.706809957e-06
7.86546418e-06
7.936050096e-06
1.141334955e-05
9.474229258e-06
1.340583631e-05
8.988221135e-06
6.905518603e-06
6.578260798e-06
2.818428305e-06
4.912581322e-06
2.707154347e-06
4.442327761e-06
4.711466293e-06
5.698543856e-06
4.864912256e-06
5.628429596e-06
4.780946705e-06
4.656534314e-06
4.035660197e-06
9.132214671e-06
4.938433324e-06
1.358830687e-05
6.297622176e-06
6.179713201e-06
7.444296594e-06
7.508233903e-06
7.044565394e-06
8.261327386e-06
1.263412795e-05
9.131321174e-06
9.851875535e-06
9.941088429e-06
1.15176467e-05
8.718465166e-06
1.078677693e-05
3.278041767e-06
6.454883476e-06
3.176088907e-06
3.809133238e-06
4.528237008e-06
4.949958914e-06
5.065581741e-06
4.47664962e-06
3.403349958e-06
6.860114678e-06
2.331501273e-06
4.619410027e-06
5.963148254e-06
1.292973433e-05
5.977813228e-06
4.855004554e-06
6.667971146e-06
2.552979293e-06
8.839791465e-06
5.626357862e-06
7.508234029e-06
6.164790281e-06
5.151995644e-06
1.371019971e-05
9.854357122e-06
9.670043944e-06
1.040200159e-05
1.411876652e-05
1.237357591e-05
1.447591062e-05
3.651117558e-06
3.678076792e-06
5.293481589e-06
5.333153585e-06
6.063765344e-06
3.633990819e-06
6.935343933e-06
4.948174672e-06
4.511506095e-06
3.509558003e-06
5.225845497e-06
4.53864176e-06
2.368975859e-06
5.270782947e-06
5.97781318e-06
5.441022822e-06
4.72707483e-06
7.234808113e-06
9.440654277e-06
9.001338392e-06
8.730602352e-06
9.598246946e-06
1.039252366e-05
3.853404979e-06
6.689714293e-06
9.942791503e-06
7.824435985e-06
1.077478925e-05
7.405910986e-06
1.003009012e-05
5.29013848e-06
4.728955876e-06
8.620292407e-06
4.342448624e-06
6.140264422e-06
4.408528081e-06
2.33767201e-06
4.554921855e-06
5.540780556e-06
5.90226378e-06
3.457187201e-06
5.186740323e-06
6.535037962e-06
4.281891227e-06
5.812318352e-06
2.594359956e-06
6.92033595e-06
3.744642986e-06
6.094171052e-06
3.202439334e-06
3.841128587e-06
6.515851887e-06
6.395728369e-06
1.012689183e-05
6.50949986e-06
1.687437211e-05
1.739635044e-05
9.381651853e-06
9.748467412e-06
1.069247607e-05
4.246961997e-06
5.404004439e-06
3.176088953e-06
3.885059022e-06
2.839710515e-06
2.784235452e-06
5.766507928e-06
2.434005348e-06
5.223347451e-06
5.18483638e-06
5.386104477e-06
2.836651078e-06
4.410314278e-06
6.752136792e-06
5.895065813e-06
4.855004514e-06
2.447658995e-06
4.340474797e-06
7.552523422e-06
6.232337428e-06
6.28586556e-06
3.257925916e-06
4.530129243e-06
4.480753664e-06
7.685249622e-06
1.204044886e-05
1.003282768e-05
1.086736675e-05
8.249050604e-06
6.906762274e-06
6.407571103e-06
3.827685787e-06
4.990216249e-06
4.266522837e-06
4.451737962e-06
2.165723494e-06
5.065581817e-06
5.182991277e-06
3.403349984e-06
1.675278338e-06
8.280448724e-06
6.482937378e-06
5.391258734e-06
8.317551392e-06
5.895065766e-06
4.268986162e-06
3.629427752e-06
5.447312573e-06
3.776261711e-06
5.19291945e-06
9.428798181e-06
3.170160515e-06
7.017594732e-06
8.334158643e-06
1.374203538e-05
6.749748784e-06
9.849349179e-06
9.381651769e-06
8.905327727e-06
1.258305375e-05
2.682197348e-06
4.803760421e-06
6.578260798e-06
6.018320412e-06
3.300553883e-06
5.491389779e-06
6.857671784e-06
2.827258088e-06
3.482231607e-06
6.860114678e-06
6.271401929e-06
3.565517897e-06
3.022282852e-06
1.811645663e-06
2.324927341e-06
5.441022822e-06
4.136190476e-06
5.701790433e-06
1.20172577e-06
6.491149313e-06
4.278289609e-06
7.748809943e-06
4.44159691e-06
7.88543569e-06
7.322642888e-06
8.11788186e-06
8.56056655e-06
7.245657004e-06
7.405910986e-06
6.623859437e-06
4.917062686e-06
4.878564898e-06
6.352177907e-06
4.418374381e-06
5.449923793e-06
4.485609174e-06
1.792090056e-06
4.633194091e-06
2.849271928e-06
8.614893679e-06
6.351531447e-06
4.052079874e-06
3.675589893e-06
6.011459869e-06
4.068622879e-06
4.352415047e-06
6.161208339e-06
6.04314437e-06
3.690719511e-06
3.808418974e-06
3.667105379e-06
5.195128385e-06
4.353064537e-06
3.942717879e-06
6.329285369e-06
5.929308549e-06
5.89126178e-06
1.077478935e-05
7.219048423e-06
8.893920087e-06
5.364394658e-06
7.655371573e-06
3.931519975e-06
7.388654199e-06
8.366133387e-06
2.707154347e-06
8.572089794e-06
2.748985908e-06
4.827032695e-06
3.988483451e-06
1.688528853e-06
5.267508585e-06
5.963148301e-06
8.071320265e-06
2.490422169e-06
6.696488366e-06
4.472676878e-06
6.04314442e-06
6.179713303e-06
4.934107555e-06
7.071072945e-06
4.578649401e-06
5.862394379e-06
7.706809957e-06
5.786464078e-06
8.483742676e-06
5.155131169e-06
5.479972118e-06
3.93766274e-06
9.556306112e-06
6.407571149e-06
4.502734411e-06
6.427538824e-06
6.094246168e-06
6.677606894e-06
6.26406402e-06
3.428835918e-06
5.57624406e-06
5.698543856e-06
3.589058694e-06
5.225845578e-06
6.402169025e-06
5.228423887e-06
6.505905729e-06
8.468235348e-06
4.268986162e-06
5.57032403e-06
6.808628173e-06
7.381439022e-06
6.318608075e-06
3.841128587e-06
3.257925888e-06
3.197864157e-06
7.079461272e-06
6.419392559e-06
7.115609731e-06
7.271783746e-06
6.87310952e-06
1.96883137e-06
6.150075371e-06
5.290138442e-06
6.454883476e-06
3.780798049e-06
4.418374381e-06
2.302368043e-06
1.05184299e-05
4.442327761e-06
1.217191851e-05
3.403349984e-06
3.509558003e-06
4.100159595e-06
6.402169025e-06
8.332124207e-06
5.847305828e-06
5.231086517e-06
6.110470018e-06
6.077086738e-06
6.723802219e-06
7.982301907e-06
2.596459725e-06
1.833552689e-06
5.107363028e-06
7.106127104e-06
5.914076768e-06
4.610714209e-06
6.749748784e-06
3.313696143e-06
2.786274804e-06
4.124525339e-06
4.825303583e-06
4.246961997e-06
8.18081117e-06
3.780798076e-06
6.551635815e-06
4.375238883e-06
3.325666342e-06
6.15674564e-06
3.926852473e-06
3.324468334e-06
5.981764444e-06
4.582873076e-06
4.052079843e-06
5.309841331e-06
8.894074273e-06
2.988906614e-06
1.75805507e-06
6.667971092e-06
5.447312528e-06
9.355112077e-06
5.712628413e-06
5.761692881e-06
3.170160542e-06
1.865599087e-06
3.226056293e-06
9.854357036e-06
7.936050096e-06
5.155131169e-06
3.25139975e-06
5.343648268e-06
8.799619121e-06
8.046592044e-06
5.254395417e-07
5.898190669e-06
4.951689739e-06
3.7613973e-06
6.186982895e-06
6.156745687e-06
5.576244018e-06
5.223347411e-06
6.222187901e-06
1.205815381e-06
8.26569629e-06
2.859448047e-06
3.459137284e-06
5.231086517e-06
2.930091736e-06
4.81119643e-06
7.404460019e-06
4.977987481e-06
5.540087169e-06
5.761692881e-06
5.195128385e-06
5.862394379e-06
3.315369189e-06
3.887678467e-06
3.28395854e-06
7.271783746e-06
5.202239646e-06
5.999925391e-06
5.58199045e-06
3.79962999e-06
7.055127576e-06
5.51956444e-06
5.560930813e-06
8.673978622e-06
6.497170433e-06
2.883253964e-06
3.377055291e-06
5.540780556e-06
3.988483482e-06
8.522773798e-06
4.619410063e-06
4.575116911e-06
3.705368376e-06
6.641792482e-06
6.027041218e-06
6.329451591e-06
4.170822892e-06
4.206040161e-06
5.540087123e-06
7.508233966e-06
7.573279076e-06
2.487465428e-06
4.570066531e-06
4.430499758e-06
3.28395854e-06
5.799522565e-06
6.687954539e-06
6.936496357e-06
3.974315626e-06
6.780646894e-06
4.878564862e-06
4.23478524e-06
5.9423947e-06
3.914395458e-06
6.186982895e-06
6.234417784e-06
2.905530332e-06
2.849271928e-06
3.908982788e-06
5.546363418e-06
4.619410099e-06
4.0846447e-06
4.199814206e-06
4.068622879e-06
7.282506772e-06
4.895317991e-06
2.46815332e-06
3.004314426e-06
4.24185726e-06
4.889473797e-06
7.748809878e-06
5.685329634e-06
6.092702501e-06
7.775356866e-06
5.290700017e-06
5.338609541e-06
4.179412206e-06
1.00310195e-05
3.974315699e-06
6.481827412e-06
2.176562694e-06
4.385507199e-06
7.084951173e-06
1.688526493e-06
4.408528048e-06
6.312089882e-06
5.104719076e-06
5.223347451e-06
2.23370445e-06
5.386104436e-06
5.186740242e-06
5.391258692e-06
2.964691424e-06
3.735633253e-06
4.185557313e-06
4.811196469e-06
4.936306679e-06
6.008628852e-07
7.703108594e-06
4.976485485e-06
7.307861718e-06
3.197864185e-06
6.541425453e-06
5.333749985e-06
1.030865239e-05
3.313696172e-06
3.901679735e-06
5.437079549e-06
6.812461308e-06
7.673516195e-06
4.353125325e-06
5.51956444e-06
3.275817907e-06
5.602921951e-06
3.867097212e-06
6.70232764e-06
6.282585601e-06
4.036309689e-06
3.748059994e-06
3.457187201e-06
2.836651122e-06
6.53503791e-06
8.894074202e-06
5.97781318e-06
6.613059517e-06
3.629427723e-06
4.851480726e-06
5.063529723e-06
3.20243936e-06
3.754116952e-06
4.931832183e-06
5.862394379e-06
3.942717845e-06
7.142428397e-06
7.936050026e-06
2.669304747e-06
5.387394627e-06
3.93766274e-06
5.58199045e-06
3.203785551e-06
3.15263725e-06
5.444203477e-06
6.094246168e-06
5.526422913e-06
6.109901815e-06
4.442327728e-06
5.576244018e-06
3.403349958e-06
2.792130584e-06
4.100159627e-06
5.186740283e-06
4.656534314e-06
2.964691424e-06
4.15137026e-06
6.69648842e-06
2.954421793e-06
4.851480726e-06
4.377124596e-06
5.020378159e-06
6.810038132e-06
3.96217034e-06
7.462396285e-06
3.226056321e-06
3.887678467e-06
4.652091485e-06
5.98300089e-06
2.69369729e-06
4.031094021e-06
5.581990399e-06
4.694294037e-06
2.70200222e-06
4.23478524e-06
4.875763983e-06
4.451737929e-06
3.867097212e-06
6.312089882e-06
2.277460928e-06
2.216312222e-06
6.142687238e-06
3.054603187e-06
7.942623081e-06
3.512755059e-06
4.694260066e-06
4.980844377e-06
1.758055056e-06
5.40208074e-06
7.319634006e-06
3.776261711e-06
2.510189101e-06
4.452312817e-06
3.170160515e-06
3.286396557e-06
6.182015368e-06
3.887678467e-06
4.561175604e-06
7.271783682e-06
3.343977269e-06
7.592773549e-06
5.299087598e-06
6.333314887e-06
3.752881303e-06
3.251449917e-06
5.179467009e-06
3.837896379e-06
6.57425151e-06
3.35116382e-06
5.026446874e-06
5.06558415e-06
5.981764444e-06
2.814214754e-06
6.482937328e-06
3.431337683e-06
5.434936989e-06
3.487391011e-06
2.93009176e-06
4.220312111e-06
5.021132633e-06
3.089856626e-06
5.626357768e-06
5.761692881e-06
3.874404972e-06
3.731198175e-06
5.018789483e-06
2.711928615e-06
4.013482954e-06
4.602478976e-06
6.780532029e-06
3.374816898e-06
5.299087501e-06
)
;

boundaryField
{
    flow
    {
        type            zeroGradient;
    }
    obstacle
    {
        type            calculated;
        value           nonuniform List<scalar> 0();
    }
    frontAndBack
    {
        type            empty;
    }
    procBoundary3to1
    {
        type            processor;
        value           nonuniform List<scalar> 
36
(
8.705318235e-06
1.340858169e-05
1.44518282e-05
7.89593696e-06
1.218671334e-05
1.218671334e-05
1.073300657e-05
1.065116663e-05
1.030249128e-05
1.074879281e-05
9.856794698e-06
1.247617854e-05
1.247617854e-05
8.302740587e-06
1.029602746e-05
6.667971092e-06
9.107129531e-06
7.552523422e-06
7.552523422e-06
5.698543856e-06
5.423338331e-06
5.788688492e-06
8.184927988e-06
5.963148301e-06
9.716828216e-06
9.716828216e-06
4.353125325e-06
5.444203477e-06
3.275817907e-06
5.526422913e-06
6.264064067e-06
7.793491548e-06
3.455327518e-06
3.455327518e-06
3.725373801e-06
3.725373801e-06
)
;
    }
    procBoundary3to2
    {
        type            processor;
        value           nonuniform List<scalar> 
19
(
5.399077245e-06
4.289775436e-06
5.843154299e-06
3.180473604e-06
6.878740208e-06
3.771982481e-06
3.771982508e-06
1.035585909e-06
7.470249063e-06
7.249101362e-06
2.662680672e-06
6.064302e-06
3.254189527e-06
4.733852456e-06
4.510923169e-06
3.919414282e-06
4.66013659e-06
4.955000191e-06
4.363491336e-06
)
;
    }
}


// ************************************************************************* //
