/*--------------------------------*- C++ -*----------------------------------*\
| =========                 |                                                 |
| \\      /  F ield         | OpenFOAM: The Open Source CFD Toolbox           |
|  \\    /   O peration     | Version:  2406                                  |
|   \\  /    A nd           | Website:  www.openfoam.com                      |
|    \\/     M anipulation  |                                                 |
\*---------------------------------------------------------------------------*/
FoamFile
{
    version     2.0;
    format      ascii;
    arch        "LSB;label=32;scalar=64";
    class       volScalarField;
    location    "0.005";
    object      rhoMMean;
}
// * * * * * * * * * * * * * * * * * * * * * * * * * * * * * * * * * * * * * //

dimensions      [1 -3 0 0 0 0 0];

internalField   nonuniform List<scalar> 
654
(
1.151151147e-05
1.154617145e-05
1.179039894e-05
1.169126558e-05
1.165800983e-05
1.17975438e-05
9.415669561e-06
9.82167968e-06
1.018375532e-05
1.059472679e-05
1.1010414e-05
1.128978158e-05
1.141239339e-05
1.151879293e-05
1.180030955e-05
1.181333338e-05
1.17385972e-05
6.726380385e-06
7.116298601e-06
7.448082183e-06
7.769507458e-06
8.237970951e-06
8.695476656e-06
9.145398573e-06
9.51607085e-06
9.894101062e-06
1.031458323e-05
1.071842303e-05
1.110285354e-05
1.126147028e-05
1.138229371e-05
1.151454725e-05
1.150595381e-05
5.305798841e-06
5.415464163e-06
5.486004339e-06
5.685477668e-06
5.852948737e-06
6.065929751e-06
6.224211779e-06
6.555179105e-06
6.921757427e-06
7.287041218e-06
7.705889474e-06
8.048419429e-06
8.49424831e-06
8.886537501e-06
9.262529519e-06
9.639929374e-06
1.003045425e-05
1.047282712e-05
1.086774887e-05
1.111915907e-05
1.124208437e-05
1.150005302e-05
4.868450188e-06
4.876015911e-06
4.855519561e-06
4.951037293e-06
5.043582385e-06
5.078356085e-06
5.177465023e-06
5.200809509e-06
5.32491069e-06
5.44153891e-06
5.555328889e-06
5.670424398e-06
5.842713628e-06
6.076776735e-06
6.272880731e-06
6.506923056e-06
6.802743446e-06
7.106023161e-06
7.501167871e-06
7.924729165e-06
8.33956906e-06
8.711991287e-06
9.099437046e-06
9.540479933e-06
9.953423025e-06
1.031451006e-05
1.06773352e-05
1.098700184e-05
1.120218152e-05
4.84278104e-06
4.865265389e-06
4.936327013e-06
4.964822611e-06
4.986131003e-06
4.997434273e-06
5.043445522e-06
5.095555617e-06
5.149351562e-06
5.228688234e-06
5.274451597e-06
5.400024389e-06
5.534459806e-06
5.654512068e-06
5.79594041e-06
5.977230967e-06
6.122970419e-06
6.334502041e-06
6.587292686e-06
6.814005666e-06
7.227426813e-06
7.605820642e-06
8.117846919e-06
8.45969904e-06
8.874235505e-06
9.366009478e-06
9.727038489e-06
1.015455665e-05
1.039860438e-05
1.0801444e-05
4.883707835e-06
4.846781794e-06
4.860515686e-06
4.885456514e-06
4.924741948e-06
4.929669019e-06
4.967374775e-06
5.022564857e-06
5.080248988e-06
5.20833078e-06
5.254930606e-06
5.30704767e-06
5.375512658e-06
5.492827821e-06
5.56725931e-06
5.679376069e-06
5.799359706e-06
5.91744271e-06
6.149635684e-06
6.423910232e-06
6.615325979e-06
6.995374087e-06
7.386386359e-06
7.837664586e-06
8.31915828e-06
8.635276323e-06
9.152383928e-06
9.614972972e-06
1.004990233e-05
1.030335165e-05
4.893732415e-06
4.953850327e-06
4.952839069e-06
4.952450465e-06
4.995806126e-06
4.991484672e-06
4.960548172e-06
4.981372831e-06
4.966405084e-06
4.952871369e-06
4.982047533e-06
5.08225464e-06
5.151683573e-06
5.216013422e-06
5.342127346e-06
5.440293834e-06
5.594532245e-06
5.756486822e-06
5.824711054e-06
6.034851515e-06
6.341065563e-06
6.581347362e-06
6.782691012e-06
7.228847322e-06
7.613769217e-06
7.906707653e-06
8.357583573e-06
8.762337417e-06
9.238259568e-06
9.638680485e-06
4.884742128e-06
4.896106488e-06
4.940510324e-06
4.925079574e-06
4.890179526e-06
4.897424331e-06
4.923782565e-06
4.945366994e-06
4.976283545e-06
5.019835081e-06
5.009783853e-06
5.050691187e-06
5.056020495e-06
5.05866488e-06
5.103052459e-06
5.224794848e-06
5.350139642e-06
5.475497911e-06
5.676077579e-06
5.839508759e-06
5.946810303e-06
6.19882475e-06
6.456482491e-06
6.62823702e-06
6.960691768e-06
7.406035268e-06
7.772437119e-06
8.199151903e-06
8.678094497e-06
9.141074428e-06
4.794161121e-06
4.771616018e-06
4.78715511e-06
4.764718744e-06
4.852557916e-06
4.870510748e-06
4.928048044e-06
4.905586176e-06
4.913297286e-06
4.901403072e-06
4.949788812e-06
4.952396583e-06
4.978442098e-06
5.033963217e-06
5.110086198e-06
5.129701083e-06
5.207000243e-06
5.35648699e-06
5.467740507e-06
5.569251501e-06
5.746328003e-06
5.903436002e-06
6.189249907e-06
6.469521958e-06
6.722913504e-06
7.05996069e-06
7.379335728e-06
7.717681534e-06
8.032743922e-06
8.394696435e-06
4.817389128e-06
4.839785913e-06
4.867765365e-06
4.832606922e-06
4.837285485e-06
4.81674205e-06
4.77897818e-06
4.823563174e-06
4.882234275e-06
4.935870332e-06
4.906096377e-06
4.88439633e-06
4.944691766e-06
4.970984404e-06
4.974732428e-06
5.008434917e-06
5.037072941e-06
5.141170429e-06
5.218460613e-06
5.378538641e-06
5.495024238e-06
5.643964192e-06
5.830259214e-06
6.067669858e-06
6.251318809e-06
6.516389752e-06
6.864276611e-06
7.186099863e-06
7.629342835e-06
8.082748382e-06
4.847576097e-06
4.783693794e-06
4.75014261e-06
4.792504578e-06
4.80084025e-06
4.83935211e-06
4.849618994e-06
4.849554063e-06
4.808013019e-06
4.78352064e-06
4.873030977e-06
4.92922423e-06
4.931268215e-06
4.92293111e-06
4.972826628e-06
5.062335781e-06
5.082278415e-06
5.096574282e-06
5.21725837e-06
5.241652139e-06
5.415717077e-06
5.511207813e-06
5.602784618e-06
5.740249479e-06
5.925268872e-06
6.135077172e-06
6.414961028e-06
6.746196749e-06
7.085190018e-06
7.509031033e-06
4.749975217e-06
4.796814425e-06
4.797476637e-06
4.789745285e-06
4.738939599e-06
4.755088083e-06
4.732006543e-06
4.730613009e-06
4.710269836e-06
4.760926888e-06
4.760154226e-06
4.782419432e-06
4.865747091e-06
4.892031825e-06
4.917834706e-06
4.96371534e-06
5.019680762e-06
5.095447241e-06
5.109742153e-06
5.211219296e-06
5.265728945e-06
5.309624998e-06
5.395288274e-06
5.501712841e-06
5.676877769e-06
5.86893502e-06
6.048515733e-06
6.336642709e-06
6.609229106e-06
6.859459035e-06
4.765087536e-06
4.75142375e-06
4.75068226e-06
4.737105625e-06
4.765266561e-06
4.737950236e-06
4.758447533e-06
4.745675076e-06
4.771235962e-06
4.830242281e-06
4.821999048e-06
4.817394596e-06
4.772066703e-06
4.853116644e-06
4.901795108e-06
4.963834852e-06
4.976433455e-06
5.027977959e-06
5.001630622e-06
5.086383846e-06
5.072090324e-06
5.177035623e-06
5.336783683e-06
5.43104904e-06
5.573961635e-06
5.714982407e-06
5.839856363e-06
6.016056313e-06
6.228501548e-06
6.53863968e-06
4.767972232e-06
4.737796514e-06
4.729336939e-06
4.744233597e-06
4.719426002e-06
4.765114312e-06
4.820100723e-06
4.857123718e-06
4.815575457e-06
4.83303913e-06
4.83601616e-06
4.872073517e-06
4.86414269e-06
4.908594164e-06
4.875052043e-06
4.910147466e-06
4.89787797e-06
4.869976782e-06
4.890464527e-06
4.91182133e-06
4.936483763e-06
5.059524468e-06
5.048884264e-06
5.135435109e-06
5.250083857e-06
5.406782356e-06
5.57565728e-06
5.78443627e-06
5.907418541e-06
6.11397901e-06
4.769113848e-06
4.75569937e-06
4.756799146e-06
4.76359728e-06
4.789196895e-06
4.823518239e-06
4.808342644e-06
4.850344599e-06
4.877948012e-06
4.870799015e-06
4.837656224e-06
4.860182373e-06
4.879372418e-06
4.851897143e-06
4.837141067e-06
4.839836634e-06
4.838798481e-06
4.884656501e-06
4.908561328e-06
4.949950036e-06
4.969344287e-06
5.006659575e-06
5.092661088e-06
5.197343118e-06
5.207872878e-06
5.254936448e-06
5.330484896e-06
5.466423759e-06
5.729259205e-06
5.885600079e-06
4.868982167e-06
4.914236389e-06
4.931408414e-06
4.884320793e-06
4.851628058e-06
4.808482213e-06
4.767241985e-06
4.760794391e-06
4.746417805e-06
4.785729462e-06
4.794498674e-06
4.760143876e-06
4.763080878e-06
4.785399085e-06
4.805386421e-06
4.853127805e-06
4.871082064e-06
4.899025186e-06
4.967208854e-06
4.984368052e-06
5.048304243e-06
5.063725815e-06
5.041738872e-06
5.046324548e-06
5.079136792e-06
5.098411445e-06
5.179810103e-06
5.309228348e-06
5.365174383e-06
5.605405807e-06
4.844387846e-06
4.848752746e-06
4.872359662e-06
4.890623558e-06
4.866272154e-06
4.917247584e-06
4.884893296e-06
4.898260145e-06
4.828948923e-06
4.799010961e-06
4.798478518e-06
4.824766912e-06
4.865729813e-06
4.860646046e-06
4.844826427e-06
4.826506329e-06
4.846392236e-06
4.871389209e-06
4.867751715e-06
4.844604456e-06
4.856840333e-06
4.855936271e-06
4.920265675e-06
4.991458342e-06
5.111899678e-06
5.145403365e-06
5.217435419e-06
5.263557942e-06
5.327614557e-06
5.419824532e-06
4.776109008e-06
4.715242796e-06
4.717500942e-06
4.741670014e-06
4.757551293e-06
4.75037916e-06
4.744720926e-06
4.771761616e-06
4.796826886e-06
4.775062058e-06
4.798749651e-06
4.807254332e-06
4.809937787e-06
4.777132366e-06
4.810238108e-06
4.821358239e-06
4.80431194e-06
4.834760389e-06
4.803342562e-06
4.8580902e-06
4.891439366e-06
4.925015331e-06
4.895316813e-06
4.957325393e-06
4.984598296e-06
5.012476875e-06
5.040931977e-06
5.133223603e-06
5.273190742e-06
5.298731932e-06
4.729130691e-06
4.705603252e-06
4.736040684e-06
4.722715825e-06
4.740149533e-06
4.767183031e-06
4.780817285e-06
4.751854276e-06
4.773778001e-06
4.788683043e-06
4.801283254e-06
4.753334315e-06
4.722567185e-06
4.783356433e-06
4.79037529e-06
4.825197579e-06
4.856989626e-06
4.829259914e-06
4.862798887e-06
4.892790119e-06
4.874470555e-06
4.882710328e-06
4.893997119e-06
4.912523901e-06
4.959472694e-06
5.022794042e-06
5.010872129e-06
5.043088704e-06
5.122779543e-06
5.208954012e-06
4.768442447e-06
4.805218565e-06
4.768221375e-06
4.785765583e-06
4.765289765e-06
4.769744396e-06
4.824549538e-06
4.884037117e-06
4.8561864e-06
4.890695125e-06
4.873063029e-06
4.906408819e-06
4.924325412e-06
4.893064161e-06
4.843993314e-06
4.847261169e-06
4.849156264e-06
4.831438839e-06
4.831036669e-06
4.824879222e-06
4.882967012e-06
4.946398058e-06
4.99766077e-06
4.979740278e-06
4.985120689e-06
5.053771912e-06
5.100289332e-06
5.175800746e-06
5.199882649e-06
5.24291745e-06
4.912757944e-06
4.896008767e-06
4.925329722e-06
4.938161247e-06
4.927856953e-06
4.88154994e-06
4.827363005e-06
4.784270944e-06
4.79666451e-06
4.791265819e-06
4.777567389e-06
4.785903157e-06
4.799859149e-06
4.826171378e-06
4.839527354e-06
4.86921827e-06
4.86765106e-06
4.887712736e-06
4.892788794e-06
4.891495758e-06
4.869183048e-06
4.866982514e-06
4.889012731e-06
4.899137159e-06
4.904356939e-06
4.954571864e-06
4.9748406e-06
4.961125863e-06
4.984493231e-06
5.042130646e-06
4.829033669e-06
4.79632631e-06
4.81097522e-06
4.817663117e-06
4.815571708e-06
4.855208688e-06
4.860131525e-06
4.836617216e-06
4.84784992e-06
4.848054716e-06
4.840127347e-06
4.877125952e-06
4.877443845e-06
4.898500327e-06
4.880856401e-06
4.857643487e-06
4.877153418e-06
4.90548914e-06
4.893493806e-06
4.900811047e-06
4.897440106e-06
4.846523896e-06
4.854694309e-06
4.891367491e-06
4.940911298e-06
4.882246769e-06
4.947883588e-06
4.978788462e-06
5.036178106e-06
5.072310922e-06
4.695630167e-06
4.729132785e-06
4.726146313e-06
4.738076041e-06
4.721782173e-06
4.706235195e-06
4.737609447e-06
4.781692301e-06
4.77181411e-06
4.775844767e-06
4.790761263e-06
4.740005288e-06
4.727347482e-06
4.719800451e-06
4.739686274e-06
4.768366049e-06
4.741380623e-06
4.713475615e-06
4.69560198e-06
4.719001799e-06
4.755762396e-06
4.830813134e-06
4.80911228e-06
4.807411669e-06
4.762223089e-06
4.792189617e-06
4.821924708e-06
4.845955146e-06
4.868900163e-06
4.957295674e-06
)
;

boundaryField
{
    flow
    {
        type            calculated;
        value           nonuniform List<scalar> 
55
(
1.151151147e-05
1.17975438e-05
1.17385972e-05
1.150595381e-05
1.150005302e-05
1.120218152e-05
1.0801444e-05
1.030335165e-05
9.638680485e-06
9.141074428e-06
8.394696435e-06
8.082748382e-06
7.509031033e-06
6.859459035e-06
6.53863968e-06
6.11397901e-06
5.885600079e-06
5.605405807e-06
5.419824532e-06
5.298731932e-06
5.208954012e-06
5.24291745e-06
5.042130646e-06
5.072310922e-06
4.957295674e-06
4.695630167e-06
4.729132785e-06
4.726146313e-06
4.738076041e-06
4.721782173e-06
4.706235195e-06
4.737609447e-06
4.781692301e-06
4.77181411e-06
4.775844767e-06
4.790761263e-06
4.740005288e-06
4.727347482e-06
4.719800451e-06
4.739686274e-06
4.768366049e-06
4.741380623e-06
4.713475615e-06
4.69560198e-06
4.719001799e-06
4.755762396e-06
4.830813134e-06
4.80911228e-06
4.807411669e-06
4.762223089e-06
4.792189617e-06
4.821924708e-06
4.845955146e-06
4.868900163e-06
4.957295674e-06
)
;
    }
    obstacle
    {
        type            calculated;
        value           nonuniform List<scalar> 0();
    }
    frontAndBack
    {
        type            empty;
    }
    procBoundary3to1
    {
        type            processor;
        value           nonuniform List<scalar> 
36
(
1.12868697e-05
1.170942101e-05
1.174895091e-05
1.171525439e-05
1.167167665e-05
1.167167665e-05
9.906685376e-06
1.029519853e-05
1.081193925e-05
1.104056192e-05
1.130570909e-05
1.139647301e-05
1.139647301e-05
7.29189387e-06
7.654812635e-06
7.978219355e-06
8.477453108e-06
8.832035222e-06
8.832035222e-06
5.448311816e-06
5.544169157e-06
5.823466425e-06
5.969667797e-06
6.141617313e-06
6.397061482e-06
6.397061482e-06
4.884179766e-06
4.903000109e-06
4.950280227e-06
5.004788125e-06
5.035880513e-06
5.103433011e-06
5.225001836e-06
5.225001836e-06
4.811818251e-06
4.811818251e-06
)
;
    }
    procBoundary3to2
    {
        type            processor;
        value           nonuniform List<scalar> 
19
(
4.847714649e-06
4.83959619e-06
4.906841036e-06
4.894696452e-06
4.792038878e-06
4.829729216e-06
4.821958659e-06
4.732032442e-06
4.781511802e-06
4.776765478e-06
4.767724122e-06
4.847227634e-06
4.831965904e-06
4.779795145e-06
4.698710395e-06
4.813447579e-06
4.837108378e-06
4.867708717e-06
4.681879173e-06
)
;
    }
}


// ************************************************************************* //
