/*--------------------------------*- C++ -*----------------------------------*\
| =========                 |                                                 |
| \\      /  F ield         | OpenFOAM: The Open Source CFD Toolbox           |
|  \\    /   O peration     | Version:  2406                                  |
|   \\  /    A nd           | Website:  www.openfoam.com                      |
|    \\/     M anipulation  |                                                 |
\*---------------------------------------------------------------------------*/
FoamFile
{
    version     2.0;
    format      ascii;
    arch        "LSB;label=32;scalar=64";
    class       volScalarField;
    location    "0.005";
    object      rhoNMean;
}
// * * * * * * * * * * * * * * * * * * * * * * * * * * * * * * * * * * * * * //

dimensions      [0 -3 0 0 0 0 0];

internalField   nonuniform List<scalar> 
654
(
2.400201763e+20
2.406991112e+20
2.45683576e+20
2.436326296e+20
2.428648761e+20
2.459061498e+20
1.964051586e+20
2.048111213e+20
2.122968166e+20
2.208066911e+20
2.295043862e+20
2.3513363e+20
2.378315487e+20
2.400461885e+20
2.458701521e+20
2.461561412e+20
2.445557394e+20
1.40310615e+20
1.484075711e+20
1.553479441e+20
1.619740044e+20
1.716219461e+20
1.812726113e+20
1.907210247e+20
1.984717756e+20
2.063205482e+20
2.151387758e+20
2.233788541e+20
2.313053836e+20
2.346915059e+20
2.372445031e+20
2.401268619e+20
2.399404051e+20
1.106201943e+20
1.129293719e+20
1.143115877e+20
1.185463946e+20
1.220129566e+20
1.264680428e+20
1.29815943e+20
1.366620002e+20
1.442469437e+20
1.519435277e+20
1.606591059e+20
1.677299429e+20
1.770778154e+20
1.85245982e+20
1.931557042e+20
2.00945855e+20
2.092992586e+20
2.184782808e+20
2.26809142e+20
2.319695419e+20
2.344137204e+20
2.398378421e+20
1.015036204e+20
1.016166324e+20
1.012129328e+20
1.031882437e+20
1.050864921e+20
1.058217805e+20
1.078784844e+20
1.08365752e+20
1.110271212e+20
1.13449774e+20
1.158280907e+20
1.18229876e+20
1.217517147e+20
1.266360433e+20
1.30769049e+20
1.357483725e+20
1.41918174e+20
1.481921689e+20
1.563922599e+20
1.652642143e+20
1.739664015e+20
1.81815e+20
1.899638802e+20
1.991179548e+20
2.07672746e+20
2.150188581e+20
2.226670445e+20
2.291804396e+20
2.335131226e+20
1.009794799e+20
1.014222606e+20
1.028870665e+20
1.034929986e+20
1.039278119e+20
1.041736272e+20
1.051131091e+20
1.062799327e+20
1.074077324e+20
1.090720285e+20
1.100364021e+20
1.125778358e+20
1.153962534e+20
1.179627796e+20
1.208962227e+20
1.246492551e+20
1.276208557e+20
1.321490968e+20
1.37482598e+20
1.421615154e+20
1.507430055e+20
1.586406032e+20
1.692867347e+20
1.762944261e+20
1.849784708e+20
1.952466636e+20
2.027962102e+20
2.117143722e+20
2.167718622e+20
2.252852941e+20
1.017018515e+20
1.009115115e+20
1.012022609e+20
1.017313383e+20
1.025503662e+20
1.026599495e+20
1.034704975e+20
1.046530076e+20
1.058158014e+20
1.084427483e+20
1.09426353e+20
1.105818104e+20
1.120116526e+20
1.14521001e+20
1.161363705e+20
1.185143341e+20
1.210283643e+20
1.233230973e+20
1.281427325e+20
1.338784885e+20
1.379620236e+20
1.457860199e+20
1.53976786e+20
1.634182614e+20
1.733870281e+20
1.800958461e+20
1.908673474e+20
2.003421644e+20
2.094272057e+20
2.147099108e+20
1.019800327e+20
1.032076258e+20
1.032194751e+20
1.032315028e+20
1.041543046e+20
1.039873292e+20
1.033297022e+20
1.037402252e+20
1.034374362e+20
1.032259676e+20
1.038536033e+20
1.059455642e+20
1.073529045e+20
1.086640244e+20
1.112165242e+20
1.132464712e+20
1.165605171e+20
1.199915644e+20
1.21506105e+20
1.258196113e+20
1.320893986e+20
1.371049359e+20
1.412933869e+20
1.507579602e+20
1.587847557e+20
1.648351622e+20
1.74298865e+20
1.827720196e+20
1.926942542e+20
2.010348462e+20
1.018544021e+20
1.021183275e+20
1.03032781e+20
1.026167565e+20
1.018801326e+20
1.02119683e+20
1.026773504e+20
1.031490462e+20
1.038473348e+20
1.04767945e+20
1.045265941e+20
1.053452906e+20
1.054343063e+20
1.054404556e+20
1.06451674e+20
1.089565648e+20
1.114979706e+20
1.141946962e+20
1.183273465e+20
1.217745355e+20
1.241137741e+20
1.293890037e+20
1.347510842e+20
1.382595554e+20
1.451679435e+20
1.545020642e+20
1.62159364e+20
1.710865587e+20
1.810873229e+20
1.90670285e+20
9.988470547e+19
9.94018608e+19
9.976334318e+19
9.935493019e+19
1.01214522e+20
1.015607882e+20
1.027336693e+20
1.02250453e+20
1.024222223e+20
1.021355355e+20
1.03161246e+20
1.032272594e+20
1.037813617e+20
1.049494813e+20
1.065566699e+20
1.069653627e+20
1.085651528e+20
1.1175499e+20
1.141096767e+20
1.162386176e+20
1.199340605e+20
1.232109559e+20
1.29177023e+20
1.349838509e+20
1.40191628e+20
1.471518847e+20
1.537947452e+20
1.609449868e+20
1.67527085e+20
1.750807131e+20
1.004455537e+20
1.009476715e+20
1.014845799e+20
1.007495785e+20
1.008123804e+20
1.00424364e+20
9.961739754e+19
1.00528936e+20
1.017358796e+20
1.02904122e+20
1.02323638e+20
1.018559048e+20
1.031024725e+20
1.036600538e+20
1.037917563e+20
1.04500304e+20
1.051901222e+20
1.073368648e+20
1.089151201e+20
1.122300299e+20
1.146239878e+20
1.177116988e+20
1.215915907e+20
1.266245983e+20
1.304458909e+20
1.359947781e+20
1.432516731e+20
1.498245018e+20
1.591041577e+20
1.684767964e+20
1.010602427e+20
9.97092154e+19
9.903933296e+19
9.990545e+19
1.000404569e+20
1.008714811e+20
1.011098289e+20
1.011437644e+20
1.00296469e+20
9.975772111e+19
1.015973899e+20
1.027733952e+20
1.028614188e+20
1.027029018e+20
1.036717609e+20
1.055790836e+20
1.059169734e+20
1.062041427e+20
1.086721906e+20
1.092587759e+20
1.129626182e+20
1.149541142e+20
1.168359847e+20
1.19706225e+20
1.236510968e+20
1.279689097e+20
1.337617971e+20
1.407233806e+20
1.4783595e+20
1.567504271e+20
9.902773042e+19
9.99894491e+19
1.000274488e+20
9.993297595e+19
9.890799316e+19
9.914356057e+19
9.867406949e+19
9.860878484e+19
9.817071579e+19
9.926294356e+19
9.925402574e+19
9.974275301e+19
1.014593661e+20
1.020532279e+20
1.025467952e+20
1.034467312e+20
1.045852599e+20
1.061580147e+20
1.064909946e+20
1.086332486e+20
1.098238914e+20
1.107647093e+20
1.125564743e+20
1.147953655e+20
1.183481084e+20
1.224315557e+20
1.261787643e+20
1.322152003e+20
1.378887633e+20
1.431437392e+20
9.935975288e+19
9.905834907e+19
9.902111811e+19
9.874477155e+19
9.936097864e+19
9.878959213e+19
9.926540993e+19
9.901551727e+19
9.959106212e+19
1.007953136e+20
1.005612754e+20
1.004650315e+20
9.951617125e+19
1.011655075e+20
1.022168055e+20
1.035677165e+20
1.038990725e+20
1.049996663e+20
1.044390147e+20
1.061415647e+20
1.057808749e+20
1.079540934e+20
1.112137769e+20
1.132357631e+20
1.162356234e+20
1.191629787e+20
1.217719597e+20
1.25446695e+20
1.298610122e+20
1.362606221e+20
9.938218607e+19
9.879167295e+19
9.862496078e+19
9.887781438e+19
9.839029546e+19
9.93717766e+19
1.005091029e+20
1.012951065e+20
1.004299244e+20
1.007857055e+20
1.008275652e+20
1.015679702e+20
1.014052526e+20
1.023557483e+20
1.016018247e+20
1.023629123e+20
1.020946506e+20
1.014733669e+20
1.019011766e+20
1.023519107e+20
1.029050231e+20
1.0547227e+20
1.052866559e+20
1.070567159e+20
1.095007193e+20
1.128290797e+20
1.163285836e+20
1.206416155e+20
1.232220293e+20
1.275085831e+20
9.946294812e+19
9.922558503e+19
9.919415306e+19
9.936869389e+19
9.994338928e+19
1.005734038e+20
1.002275107e+20
1.009971511e+20
1.015690612e+20
1.014630224e+20
1.008614568e+20
1.013532388e+20
1.017397772e+20
1.011357514e+20
1.009018474e+20
1.009211828e+20
1.008798432e+20
1.018218956e+20
1.023043362e+20
1.031963726e+20
1.035884979e+20
1.044063579e+20
1.062121e+20
1.083734735e+20
1.085697028e+20
1.095440245e+20
1.112288839e+20
1.139905791e+20
1.194565499e+20
1.226710267e+20
1.015582753e+20
1.024754003e+20
1.028551925e+20
1.018460298e+20
1.011405645e+20
1.002520377e+20
9.947190977e+19
9.938914213e+19
9.90858375e+19
9.984899075e+19
9.996090884e+19
9.924008624e+19
9.932923099e+19
9.980664924e+19
1.002018685e+20
1.011883551e+20
1.016016116e+20
1.02134548e+20
1.03586177e+20
1.039261553e+20
1.05255125e+20
1.056207544e+20
1.051154755e+20
1.051949078e+20
1.059236532e+20
1.06335874e+20
1.080027705e+20
1.107573602e+20
1.119707567e+20
1.169673863e+20
1.00997427e+20
1.010742282e+20
1.015619893e+20
1.019469575e+20
1.01441014e+20
1.024922814e+20
1.017621807e+20
1.020565452e+20
1.005967436e+20
9.997869049e+19
9.999480046e+19
1.005040736e+20
1.013511383e+20
1.01234939e+20
1.009418461e+20
1.006187209e+20
1.010221645e+20
1.016066274e+20
1.01518691e+20
1.010904305e+20
1.013172584e+20
1.012563481e+20
1.026387079e+20
1.041263904e+20
1.06598777e+20
1.072862333e+20
1.087677245e+20
1.097616627e+20
1.110336212e+20
1.129788247e+20
9.95571705e+19
9.827640321e+19
9.831532057e+19
9.879982418e+19
9.91437305e+19
9.900383574e+19
9.891342157e+19
9.944589614e+19
9.999619446e+19
9.956077082e+19
1.00086792e+20
1.002893429e+20
1.003032889e+20
9.964299113e+19
1.003218655e+20
1.005632697e+20
1.002698972e+20
1.008583138e+20
1.001541516e+20
1.012624505e+20
1.019902174e+20
1.027305947e+20
1.020823724e+20
1.033600806e+20
1.039091701e+20
1.04512063e+20
1.051147884e+20
1.070766358e+20
1.100400327e+20
1.105572007e+20
9.851175208e+19
9.805944895e+19
9.869781802e+19
9.840069785e+19
9.882016944e+19
9.939040574e+19
9.965494371e+19
9.908645884e+19
9.950526939e+19
9.982497242e+19
1.000964745e+20
9.908391714e+19
9.851259723e+19
9.976201521e+19
9.988687831e+19
1.005733517e+20
1.012203967e+20
1.006225446e+20
1.013584617e+20
1.020287224e+20
1.016537392e+20
1.018396839e+20
1.020235292e+20
1.024534606e+20
1.034354945e+20
1.046713717e+20
1.043886355e+20
1.049845523e+20
1.066189226e+20
1.084147719e+20
9.935077861e+19
1.001521659e+20
9.936718658e+19
9.973570661e+19
9.931475563e+19
9.940437889e+19
1.005466476e+20
1.01805885e+20
1.012354228e+20
1.019914256e+20
1.015973899e+20
1.023292916e+20
1.026203635e+20
1.019391632e+20
1.009068464e+20
1.010220015e+20
1.01052661e+20
1.006686735e+20
1.006606863e+20
1.005274568e+20
1.01680025e+20
1.029692317e+20
1.040776942e+20
1.036784769e+20
1.037948355e+20
1.053141003e+20
1.063897124e+20
1.079492696e+20
1.085101298e+20
1.094517986e+20
1.024511439e+20
1.020686084e+20
1.027322471e+20
1.029470672e+20
1.027029029e+20
1.017610586e+20
1.006545906e+20
9.974857943e+19
9.996759612e+19
9.986820618e+19
9.951063448e+19
9.970859119e+19
1.000032006e+20
1.006051024e+20
1.00921846e+20
1.014303248e+20
1.013982974e+20
1.018372728e+20
1.018856705e+20
1.019192543e+20
1.014539534e+20
1.013995303e+20
1.018576973e+20
1.020703066e+20
1.022703625e+20
1.033145003e+20
1.037234564e+20
1.035133804e+20
1.039994595e+20
1.052011318e+20
1.006384853e+20
9.993069099e+19
1.001777154e+20
1.003596282e+20
1.003131726e+20
1.011183278e+20
1.011802266e+20
1.007133848e+20
1.009971097e+20
1.010210851e+20
1.008808242e+20
1.016460544e+20
1.016955011e+20
1.020581881e+20
1.016768232e+20
1.012538892e+20
1.016931025e+20
1.022421813e+20
1.020148883e+20
1.021225515e+20
1.020795957e+20
1.01012408e+20
1.011729765e+20
1.019623747e+20
1.029890426e+20
1.01770853e+20
1.03124796e+20
1.037371336e+20
1.049253052e+20
1.056968548e+20
9.77938658e+19
9.850239942e+19
9.846558786e+19
9.873559695e+19
9.839029546e+19
9.809097166e+19
9.873977398e+19
9.967763861e+19
9.945760676e+19
9.948391217e+19
9.983986657e+19
9.876670102e+19
9.846832268e+19
9.835356361e+19
9.876191346e+19
9.932317926e+19
9.874503598e+19
9.82033392e+19
9.785407434e+19
9.833289752e+19
9.910910895e+19
1.00678317e+20
1.002528817e+20
1.001653243e+20
9.923774918e+19
9.986464086e+19
1.004807135e+20
1.009402306e+20
1.01430805e+20
1.033037166e+20
)
;

boundaryField
{
    flow
    {
        type            calculated;
        value           nonuniform List<scalar> 
55
(
2.400201763e+20
2.459061498e+20
2.445557394e+20
2.399404051e+20
2.398378421e+20
2.335131226e+20
2.252852941e+20
2.147099108e+20
2.010348462e+20
1.90670285e+20
1.750807131e+20
1.684767964e+20
1.567504271e+20
1.431437392e+20
1.362606221e+20
1.275085831e+20
1.226710267e+20
1.169673863e+20
1.129788247e+20
1.105572007e+20
1.084147719e+20
1.094517986e+20
1.052011318e+20
1.056968548e+20
1.033037166e+20
9.77938658e+19
9.850239942e+19
9.846558786e+19
9.873559695e+19
9.839029546e+19
9.809097166e+19
9.873977398e+19
9.967763861e+19
9.945760676e+19
9.948391217e+19
9.983986657e+19
9.876670102e+19
9.846832268e+19
9.835356361e+19
9.876191346e+19
9.932317926e+19
9.874503598e+19
9.82033392e+19
9.785407434e+19
9.833289752e+19
9.910910895e+19
1.00678317e+20
1.002528817e+20
1.001653243e+20
9.923774918e+19
9.986464086e+19
1.004807135e+20
1.009402306e+20
1.01430805e+20
1.033037166e+20
)
;
    }
    obstacle
    {
        type            calculated;
        value           nonuniform List<scalar> 0();
    }
    frontAndBack
    {
        type            empty;
    }
    procBoundary3to1
    {
        type            processor;
        value           nonuniform List<scalar> 
36
(
2.35199716e+20
2.441160059e+20
2.448798168e+20
2.442815111e+20
2.432600537e+20
2.432600537e+20
2.065282761e+20
2.146110972e+20
2.254271532e+20
2.302376603e+20
2.356996251e+20
2.376381255e+20
2.376381255e+20
1.520052507e+20
1.59654085e+20
1.663015422e+20
1.767455074e+20
1.841819187e+20
1.841819187e+20
1.135133159e+20
1.155713879e+20
1.214530368e+20
1.244954315e+20
1.280885141e+20
1.334458294e+20
1.334458294e+20
1.018200127e+20
1.022131444e+20
1.031443372e+20
1.04255996e+20
1.049327956e+20
1.064318929e+20
1.089189608e+20
1.089189608e+20
1.003423578e+20
1.003423578e+20
)
;
    }
    procBoundary3to2
    {
        type            processor;
        value           nonuniform List<scalar> 
19
(
1.01050914e+20
1.008059367e+20
1.021956262e+20
1.020352767e+20
9.991065601e+19
1.006901293e+20
1.005921391e+20
9.861004919e+19
9.972358243e+19
9.954541711e+19
9.942960965e+19
1.011399967e+20
1.006634045e+20
9.968349452e+19
9.785730142e+19
1.002892573e+20
1.009217442e+20
1.014339695e+20
9.752324075e+19
)
;
    }
}


// ************************************************************************* //
