/*--------------------------------*- C++ -*----------------------------------*\
| =========                 |                                                 |
| \\      /  F ield         | OpenFOAM: The Open Source CFD Toolbox           |
|  \\    /   O peration     | Version:  2406                                  |
|   \\  /    A nd           | Website:  www.openfoam.com                      |
|    \\/     M anipulation  |                                                 |
\*---------------------------------------------------------------------------*/
FoamFile
{
    version     2.0;
    format      ascii;
    arch        "LSB;label=32;scalar=64";
    class       volScalarField;
    location    "0.005";
    object      rhoN;
}
// * * * * * * * * * * * * * * * * * * * * * * * * * * * * * * * * * * * * * //

dimensions      [0 -3 0 0 0 0 0];

internalField   nonuniform List<scalar> 
654
(
1.709383081e+20
2.197362709e+20
2.910154718e+20
2.097677277e+20
3.669506496e+20
2.421626009e+20
1.69413654e+20
1.577249625e+20
1.060609081e+20
1.872285822e+20
2.158619132e+20
2.586159591e+20
2.197362671e+20
2.771575897e+20
1.53829667e+20
1.834753248e+20
2.564074621e+20
7.499765615e+19
1.764356314e+20
1.90607856e+20
2.178309977e+20
1.421396072e+20
2.867000323e+20
1.971562032e+20
1.060609072e+20
1.604816419e+20
1.484050653e+20
1.905591277e+20
2.472033026e+20
1.662945553e+20
3.635973946e+20
1.975888131e+20
2.991420391e+20
9.532525688e+19
6.004581855e+19
9.683319584e+19
9.760519915e+19
7.379220824e+19
1.239834152e+20
1.374957029e+20
1.134229068e+20
1.270719051e+20
1.409494691e+20
1.679831722e+20
1.69413654e+20
2.234436969e+20
1.723489756e+20
1.069877613e+20
1.618964349e+20
1.633363966e+20
1.648022032e+20
2.355839513e+20
1.957832107e+20
2.822697305e+20
1.851831671e+20
1.468970772e+20
1.366059765e+20
5.734573747e+19
1.040017687e+20
5.821837305e+19
9.386356265e+19
9.458876315e+19
1.191565711e+20
9.607331042e+19
1.210414967e+20
9.760519991e+19
9.838961099e+19
8.678839133e+19
1.874941419e+20
1.008203608e+20
2.795581866e+20
1.281358789e+20
1.292178237e+20
1.563818345e+20
1.577249612e+20
1.458337461e+20
1.738551106e+20
2.56336022e+20
1.905591277e+20
2.060027504e+20
2.078681923e+20
2.37736758e+20
1.834753248e+20
2.27917742e+20
6.730170614e+19
1.355973001e+20
6.830298725e+19
8.028403187e+19
9.24460166e+19
1.047930707e+20
1.055965064e+20
9.458876172e+19
7.149394211e+19
1.441099645e+20
4.841659792e+19
9.760519839e+19
1.229870118e+20
2.727635113e+20
1.249960946e+20
1.008203624e+20
1.397790956e+20
5.12543524e+19
1.809049562e+20
1.172863778e+20
1.577249639e+20
1.325761351e+20
1.069877613e+20
2.833187636e+20
2.041704976e+20
2.06002754e+20
2.217260738e+20
2.936748187e+20
2.540427574e+20
2.991420391e+20
7.851865717e+19
7.909842564e+19
1.138383137e+20
1.146914749e+20
1.271132728e+20
6.986204714e+19
1.407953429e+20
1.064123585e+20
9.532525688e+19
7.205498226e+19
1.089373453e+20
9.760519915e+19
4.919480549e+19
1.115850737e+20
1.249960936e+20
1.134229059e+20
1.016575232e+20
1.537630572e+20
1.938267371e+20
1.824454736e+20
1.840124547e+20
1.988642009e+20
2.139755226e+20
8.094821746e+19
1.361136627e+20
2.060027522e+20
1.662945553e+20
2.237522429e+20
1.552483532e+20
2.136728851e+20
1.12169511e+20
1.016979758e+20
1.821413007e+20
9.175317996e+19
1.271132728e+20
9.314939689e+19
4.693178097e+19
9.458876244e+19
1.191565711e+20
1.200916371e+20
7.262489744e+19
1.098058499e+20
1.352857151e+20
8.678839064e+19
1.249960936e+20
5.041018082e+19
1.397790956e+20
7.68815286e+19
1.292178248e+20
6.51590977e+19
7.886248126e+19
1.325761351e+20
1.337347016e+20
2.158619132e+20
1.361136639e+20
3.433379203e+20
3.603048667e+20
1.957832125e+20
1.975888113e+20
2.279177441e+20
8.973560819e+19
1.129977509e+20
6.830298825e+19
8.028403246e+19
5.777876037e+19
5.821837262e+19
1.173294524e+20
4.729438158e+19
1.07240914e+20
1.080824742e+20
1.089373462e+20
6.100324899e+19
8.609090894e+19
1.363817567e+20
1.249960946e+20
1.008203616e+20
5.08287612e+19
8.969511596e+19
1.550613897e+20
1.303181965e+20
1.314374699e+20
6.628806698e+19
9.361429032e+19
9.443958704e+19
1.633363952e+20
2.472033026e+20
2.078681941e+20
2.237522429e+20
1.693618383e+20
1.424485887e+20
1.346034123e+20
7.909842506e+19
1.024544809e+20
9.175317928e+19
9.244601728e+19
4.657469879e+19
1.05596508e+20
1.064123585e+20
7.149394266e+19
3.602749113e+19
1.69458094e+20
1.342071499e+20
1.106883124e+20
1.735767813e+20
1.249960936e+20
8.821781643e+19
7.624314304e+19
1.153222929e+20
7.753069486e+19
1.042545563e+20
1.971562015e+20
6.628806698e+19
1.471081718e+20
1.753878045e+20
2.858386916e+20
1.373351669e+20
2.078681905e+20
1.957832107e+20
1.834753248e+20
2.564074621e+20
5.608475552e+19
1.016979766e+20
1.366059765e+20
1.261606215e+20
6.933451193e+19
1.164367452e+20
1.407953419e+20
5.911797608e+19
7.149394211e+19
1.441099645e+20
1.331456443e+20
7.320389879e+19
6.149350638e+19
3.719502456e+19
4.999843743e+19
1.134229059e+20
8.895033282e+19
1.153222929e+20
2.584356495e+19
1.303181954e+20
9.200622814e+19
1.590913621e+20
9.361429112e+19
1.618964349e+20
1.497250302e+20
1.648022032e+20
1.801524349e+20
1.53829667e+20
1.552483532e+20
1.4244859e+20
1.009525599e+20
1.016979758e+20
1.366059765e+20
9.175317996e+19
1.155575207e+20
9.314939619e+19
3.519883573e+19
9.458876315e+19
5.957828555e+19
1.801374556e+20
1.331456453e+20
8.540454992e+19
7.379220824e+19
1.239834152e+20
8.749726621e+19
8.821781714e+19
1.27071904e+20
1.281358799e+20
7.753069486e+19
7.819091789e+19
7.886248126e+19
1.060609072e+20
9.361429112e+19
8.094821816e+19
1.361136639e+20
1.236016513e+20
1.247209165e+20
2.237522449e+20
1.552483532e+20
1.851831654e+20
1.121695102e+20
1.581968501e+20
7.968681904e+19
1.490989174e+20
1.733362811e+20
5.821837305e+19
1.759941786e+20
5.911797652e+19
9.532525688e+19
8.406414597e+19
3.631244844e+19
1.09805849e+20
1.229870128e+20
1.735767799e+20
4.999843743e+19
1.386279961e+20
8.895033282e+19
1.28135881e+20
1.292178258e+20
1.042545572e+20
1.445812157e+20
9.280329456e+19
1.203612314e+20
1.618964349e+20
1.225022975e+20
1.785357186e+20
1.108630359e+20
1.118761214e+20
8.468091915e+19
1.994280261e+20
1.346034132e+20
9.039820138e+19
1.366059755e+20
1.261606215e+20
1.386690249e+20
1.280804198e+20
7.039767146e+19
1.182359539e+20
1.191565711e+20
7.205498281e+19
1.08937347e+20
1.342071488e+20
1.106883115e+20
1.363817567e+20
1.74994531e+20
8.821781643e+19
1.143647146e+20
1.409494691e+20
1.550613897e+20
1.303181965e+20
7.886248126e+19
6.628806642e+19
6.686735023e+19
1.484050653e+20
1.361136627e+20
1.510686849e+20
1.524366757e+20
1.398451518e+20
4.234045957e+19
1.282037299e+20
1.121695102e+20
1.355973001e+20
7.968681904e+19
9.175317996e+19
4.62230083e+19
2.212298176e+20
9.386356265e+19
2.482955033e+20
7.149394266e+19
7.205498226e+19
8.472904636e+19
1.342071488e+20
1.721818192e+20
1.239834152e+20
1.124964842e+20
1.26025451e+20
1.27071904e+20
1.409494691e+20
1.679831722e+20
5.212727816e+19
3.943124063e+19
1.060609081e+20
1.471081718e+20
1.214223262e+20
9.527956387e+19
1.373351669e+20
6.928939743e+19
5.593806071e+19
8.468091991e+19
9.971401394e+19
8.973560819e+19
1.694966264e+20
7.968681962e+19
1.376297699e+20
9.244601728e+19
6.986204766e+19
1.290623967e+20
8.276516713e+19
7.149394266e+19
1.200916371e+20
9.683319584e+19
8.540454926e+19
1.106883124e+20
1.859751228e+20
6.249804729e+19
3.780763592e+19
1.397790944e+20
1.15322292e+20
1.938267371e+20
1.172863759e+20
1.182937219e+20
6.628806754e+19
4.012041048e+19
6.745684789e+19
2.041704958e+20
1.648022032e+20
1.108630359e+20
6.992257527e+19
1.129078922e+20
1.851831654e+20
1.682542666e+20
1.129977509e+19
1.252221442e+20
1.032223275e+20
8.089026452e+19
1.280804198e+20
1.290623977e+20
1.18235953e+20
1.072409132e+20
1.321008008e+20
2.420829915e+19
1.708090985e+20
6.149350638e+19
7.439004912e+19
1.124964842e+20
6.301272551e+19
1.016575232e+20
1.537630572e+20
1.033742598e+20
1.172863768e+20
1.182937219e+20
1.060609072e+20
1.203612314e+20
6.745684847e+19
8.166819831e+19
6.866758407e+19
1.524366757e+20
1.118761214e+20
1.270213787e+20
1.13958872e+20
7.851865717e+19
1.468970762e+20
1.138383129e+20
1.146914741e+20
1.848920332e+20
1.397240953e+20
5.866472621e+19
7.094157183e+19
1.191565711e+20
8.406414662e+19
1.815622436e+20
9.760519915e+19
9.838961099e+19
7.439004971e+19
1.37495704e+20
1.26025452e+20
1.270719051e+20
8.969511596e+19
9.045247659e+19
1.172863759e+20
1.577249625e+20
1.590913608e+20
5.349388018e+19
9.443958704e+19
9.52795647e+19
6.866758407e+19
1.247209154e+20
1.398451518e+20
1.411348652e+20
8.546915325e+19
1.458203633e+20
1.016979751e+20
9.107065033e+19
1.261606224e+20
8.089026452e+19
1.280804198e+20
1.290623977e+20
5.911797697e+19
5.957828555e+19
8.406414597e+19
1.089373462e+20
9.760519991e+19
8.609090961e+19
8.678839064e+19
8.749726621e+19
1.512305424e+20
1.016575224e+20
5.125435198e+19
6.460891238e+19
9.122273678e+19
1.051499741e+20
1.590913608e+20
1.203612314e+20
1.214223262e+20
1.633363952e+20
1.098681345e+20
1.108630369e+20
8.390709107e+19
2.117022998e+20
8.546915481e+19
1.346034142e+20
4.519910069e+19
9.1070651e+19
1.490989174e+20
3.466725622e+19
9.314939619e+19
1.290623977e+20
1.064123585e+20
1.07240914e+20
4.803665484e+19
1.089373453e+20
1.098058482e+20
1.106883115e+20
6.19917076e+19
7.499765615e+19
8.821781643e+19
1.01657524e+20
1.025087048e+20
1.292178248e+19
1.563818358e+20
1.051499759e+20
1.458337486e+20
6.68673508e+19
1.349136958e+20
1.088909301e+20
2.19736269e+20
6.928939805e+19
8.390709107e+19
1.129078922e+20
1.424485887e+20
1.570373143e+20
9.039820007e+19
1.138383129e+20
6.881488497e+19
1.155575207e+20
8.150572227e+19
1.407953429e+20
1.300595484e+20
8.340959977e+19
7.205498226e+19
7.262489744e+19
6.100324995e+19
1.35285714e+20
1.859751213e+20
1.249960936e+20
1.386279961e+20
7.624314242e+19
1.025087048e+20
1.033742607e+20
6.515909824e+19
7.88624806e+19
1.060609072e+20
1.203612314e+20
8.094821746e+19
1.497250302e+20
1.648022018e+20
5.543151795e+19
1.118761214e+20
8.468091915e+19
1.13958872e+20
6.730170614e+19
6.779865055e+19
1.138383129e+20
1.261606215e+20
1.155575216e+20
1.280804207e+20
9.386356194e+19
1.18235953e+20
7.149394211e+19
6.004581901e+19
8.472904702e+19
1.09805849e+20
9.838961099e+19
6.19917076e+19
8.749726551e+19
1.386279972e+20
6.353595253e+19
1.025087048e+20
9.045247734e+19
1.042545563e+20
1.445812157e+20
7.954568038e+19
1.604816405e+20
6.745684847e+19
8.166819831e+19
9.61346177e+19
1.247209154e+20
5.593806021e+19
8.468091915e+19
1.13958871e+20
1.009525599e+20
5.649887545e+19
9.107065033e+19
1.032223275e+20
9.24460166e+19
8.150572227e+19
1.290623977e+20
4.729438122e+19
4.766262844e+19
1.321008008e+20
6.052074787e+19
1.708090985e+20
7.379220766e+19
9.918673216e+19
9.999687567e+19
3.780763561e+19
1.143647127e+20
1.537630559e+20
7.753069486e+19
5.212727859e+19
9.200622814e+19
6.628806698e+19
6.68673508e+19
1.214223262e+20
8.166819831e+19
9.61346177e+19
1.524366744e+20
6.992257589e+19
1.552483532e+20
1.139588731e+20
1.346034123e+20
7.909842564e+19
6.830298825e+19
1.032223275e+20
8.089026452e+19
1.397240943e+20
7.039767146e+19
1.064123585e+20
1.07240914e+20
1.200916371e+20
6.05207474e+19
1.342071488e+20
7.379220824e+19
1.115850737e+20
7.499765615e+19
6.301272602e+19
8.895033354e+19
1.025087048e+20
6.460891238e+19
1.172863759e+20
1.182937219e+20
7.954568105e+19
8.024082096e+19
1.079309566e+20
5.444546507e+19
8.240110088e+19
9.700515727e+19
1.398451518e+20
7.056743262e+19
1.13958871e+20
)
;

boundaryField
{
    flow
    {
        type            zeroGradient;
    }
    obstacle
    {
        type            calculated;
        value           nonuniform List<scalar> 0();
    }
    frontAndBack
    {
        type            empty;
    }
    procBoundary3to1
    {
        type            processor;
        value           nonuniform List<scalar> 
36
(
1.851831671e+20
2.746703339e+20
3.048733487e+20
1.678141821e+20
2.540427574e+20
2.540427574e+20
2.215409322e+20
2.23443695e+20
2.121218125e+20
2.273489908e+20
2.023705454e+20
2.586159636e+20
2.586159636e+20
1.749945324e+20
2.142432702e+20
1.397790944e+20
1.922038199e+20
1.550613897e+20
1.550613897e+20
1.191565711e+20
1.080824734e+20
1.210414957e+20
1.708090985e+20
1.229870128e+20
1.983734643e+20
1.983734643e+20
9.039820007e+19
1.138383129e+20
6.881488497e+19
1.155575216e+20
1.280804207e+20
1.642612334e+20
7.094157237e+19
7.094157237e+19
7.851865773e+19
7.851865773e+19
)
;
    }
    procBoundary3to2
    {
        type            processor;
        value           nonuniform List<scalar> 
19
(
1.113533235e+20
8.908265883e+19
1.224886559e+20
6.681199365e+19
1.447593206e+20
7.794732648e+19
7.794732703e+19
2.227066471e+19
1.55894653e+20
1.55894653e+20
5.567666177e+19
1.224886559e+20
6.681199412e+19
1.002179905e+20
8.908265946e+19
7.794732648e+19
1.002179912e+20
1.002179912e+20
8.908265883e+19
)
;
    }
}


// ************************************************************************* //
