/*--------------------------------*- C++ -*----------------------------------*\
| =========                 |                                                 |
| \\      /  F ield         | OpenFOAM: The Open Source CFD Toolbox           |
|  \\    /   O peration     | Version:  2406                                  |
|   \\  /    A nd           | Website:  www.openfoam.com                      |
|    \\/     M anipulation  |                                                 |
\*---------------------------------------------------------------------------*/
FoamFile
{
    version     2.0;
    format      ascii;
    arch        "LSB;label=32;scalar=64";
    class       volScalarField;
    location    "0.005";
    object      translationalT;
}
// * * * * * * * * * * * * * * * * * * * * * * * * * * * * * * * * * * * * * //

dimensions      [1 2 -2 0 0 0 0];

internalField   nonuniform List<scalar> 
654
(
753.8562588
765.4003365
767.9943256
759.8608412
748.8298549
744.6872735
757.8694639
766.6773055
767.5457779
754.9056258
761.7875999
762.0030154
755.0313173
761.0325775
755.2782511
746.6927419
740.5214442
654.8751403
684.9952969
692.148113
715.4767557
728.7295593
739.8935551
747.0949463
746.9195228
754.4983447
754.0642332
752.831715
758.201971
751.3188071
748.2081464
749.3087552
743.1438209
461.4510996
479.9171768
496.6679864
539.4195069
558.6650564
581.5668661
607.6685751
645.7043115
660.994538
691.6931656
702.4431896
723.0410754
734.5367256
734.2162122
733.0105353
735.9263495
741.0196036
751.9554749
745.5615204
745.5979715
740.2008621
735.8799207
337.9153216
343.5777229
345.5052512
366.9931302
387.0820615
392.6352787
412.0336547
418.8956788
446.7720281
468.0318677
485.4386502
507.2429315
538.1645504
559.3734708
586.2124901
616.0491767
630.3762516
658.4719668
673.3908345
696.7174709
713.2987386
721.4632132
723.4811449
733.9900528
740.171049
739.5014439
741.3015186
735.5724339
728.1749371
325.0175249
329.7519589
338.7843416
340.4885206
351.1717759
362.4504058
376.0554923
387.4127095
394.4723299
413.6012478
435.3745708
450.097143
476.3253926
490.449887
525.6020579
544.3370677
568.7704347
595.7136453
620.0047871
636.6937011
661.8141062
682.380077
694.4356167
705.0633207
722.2462209
724.741105
729.2190501
730.2618643
723.7363807
728.2139023
318.4549547
319.2024922
328.2815334
333.990725
339.6924834
347.9651586
350.291709
363.8215868
373.6171884
390.5703639
395.8497026
426.76244
441.6412259
463.5769917
488.4662573
505.8648998
529.7590793
554.3177324
573.5109133
597.8791017
615.8750939
647.8336351
664.6552068
683.9574814
694.9366811
702.8878357
722.4961241
725.023289
722.1373809
718.3258993
317.1904437
319.1381531
317.8141814
321.2295929
326.2125998
333.0312773
337.5071328
344.5941537
362.2385723
373.1789987
382.7431365
393.98512
402.4263423
419.9204986
449.1013177
463.5670624
490.8135443
513.910691
533.6599241
561.5279798
587.6601271
612.3212198
624.8388399
659.7561463
674.5483639
678.9977195
694.083861
711.8469196
719.5307215
712.6333029
312.1225872
312.7033176
321.8198169
318.2910953
320.0219843
328.8616845
333.4869899
333.8100734
350.4823404
358.2817617
369.371927
371.2193862
382.6109774
394.4487237
411.7993832
435.1763579
453.7601215
481.6163634
499.3771238
535.6738231
544.0063931
581.729732
601.5227097
618.0227046
648.201568
669.1117178
677.1624026
696.5605766
700.5808639
709.2649345
311.1391716
312.022478
311.446128
317.7383977
322.9133892
326.8644316
330.5986566
330.1991819
338.8923846
339.5535695
353.0354125
358.4586987
361.991658
377.8964872
389.6549527
396.8059297
419.0898988
445.7836826
465.5971022
479.4969847
505.2646111
526.6058325
564.561604
581.6201852
600.3478084
624.7317954
641.7071603
658.7625427
680.7333602
687.2602212
309.2896408
311.3617083
310.1820437
314.5368849
315.433893
317.1009814
319.0847967
326.3850346
328.4029657
335.1301038
341.153505
348.6669968
351.8536683
369.4874399
380.2159792
393.2580666
404.6613316
420.5756773
430.2838183
457.5760253
468.9675544
481.4869907
511.6211366
539.374096
560.4931075
580.2165215
611.9752785
626.0500672
653.3095966
661.1002812
304.7687432
302.422133
302.8181156
309.627118
309.9302169
313.8083011
316.9805614
325.5019151
321.7828953
322.7279261
331.5234544
343.2215921
344.7659595
347.259372
356.2094668
368.7776783
372.0465168
391.9821988
409.8775327
426.372724
441.837332
454.5280402
478.5348995
500.4768221
523.3603613
548.4011726
573.3329774
596.8600548
615.0961569
639.6870262
304.3079227
307.2556064
309.9852421
311.6068101
309.169633
310.6958399
311.4898372
314.9817738
315.7418222
320.8149494
321.7073808
328.9227337
333.2721707
338.1468818
349.9795806
360.8069475
363.5220234
373.9527827
384.2851374
395.6652212
420.3356203
430.4654206
448.3949029
462.5591795
498.4424018
510.2008405
535.7891273
566.8932181
591.0271535
607.8108232
303.072331
301.4435103
304.6853324
309.9055162
307.6985529
305.6801885
310.9168232
311.0999857
315.1389828
319.096998
320.8285003
328.3015309
323.2627284
330.3563551
332.683541
348.3659478
350.4672263
359.3864335
367.7646814
381.0149947
385.9710628
405.9754715
421.9807963
437.8633781
454.5367675
472.3868165
494.7508348
522.7474391
546.8476516
576.1364994
302.1438757
301.1209012
300.3521483
298.636894
302.1230642
302.2019634
308.3187901
308.728509
312.0143516
315.3404446
318.6971828
313.8917614
326.5492856
327.6128117
330.7525138
335.757512
341.9946389
348.1139323
355.2533726
362.4533819
369.7202823
389.459191
395.6948394
421.2921097
429.5610101
449.1110665
468.4523902
497.258186
517.6508869
536.4731356
300.1179435
301.4477741
301.9214901
301.2952256
304.2408847
303.5740498
303.3698784
304.072156
304.278025
308.9527656
312.8787396
313.8489149
317.184703
316.4687206
324.2035237
326.5860322
334.7751596
341.2862235
343.9537923
349.2111849
362.7148049
367.8170776
385.0513709
394.952823
397.2594974
416.1371907
429.9205219
448.4220889
485.6561719
507.9306107
304.0184108
302.0456803
303.5279114
301.2324019
303.1811264
303.0463094
302.4850448
302.3133147
305.0928
305.4760614
310.0551209
310.6075266
314.5423688
312.568744
316.322753
319.8310253
324.0072253
326.7456716
334.5081819
337.2089758
343.1167056
349.2915151
358.8486702
372.858594
381.2985192
395.8368793
410.8221316
431.6853014
446.4813472
471.7348667
299.8488703
302.2003884
303.7441251
304.6896733
301.311862
300.700213
301.3129239
300.7870497
299.6527316
302.9562905
303.0597612
305.1361669
308.7254832
313.5541002
314.4446215
313.9228388
320.9752051
326.4086811
331.4283951
329.723566
332.0716676
344.246865
346.8888186
355.1367129
374.4904179
376.6170564
391.8590668
401.7594074
417.2645563
438.5642671
294.9607303
295.5622523
296.548569
300.3550147
304.5200816
304.2160471
303.8729183
306.162191
304.6419068
301.9035551
304.2604161
304.8231633
305.389985
306.9459712
309.8684263
310.2309074
311.0719785
318.8204235
319.7608016
325.0180682
324.0533391
330.3923545
337.0782177
350.5389424
354.272674
376.2199794
373.6732277
384.2876393
402.9192048
410.1818696
302.4007366
301.3665431
300.6880483
303.7094552
302.3644686
302.862357
302.079218
298.8756574
301.997268
303.4115665
305.7361771
303.8923369
302.7984419
302.4218862
307.7247145
308.8801675
312.7692932
310.0317464
318.0477318
319.1065252
323.4727271
324.5238594
328.7980124
336.3824141
342.5916103
358.3841416
364.3561644
369.0828926
387.7635181
397.6260956
299.5249548
300.0069181
299.4472624
298.4850741
297.1509617
295.7016949
297.7545643
300.2718455
300.786929
301.0436771
300.2844222
301.3279838
299.6137611
303.1500305
305.2169021
304.1505863
308.4911695
309.7476679
308.3295043
311.9987982
316.1014993
317.5392488
320.9559452
322.8950758
328.7704661
339.2711584
343.1078118
357.5143091
362.5599424
375.3337849
303.0260963
303.3923659
300.9436579
300.9588057
304.2093168
301.4737224
300.8162452
302.0248966
299.394717
302.0590849
300.4278007
304.5179426
306.8624263
304.9932234
304.888384
305.3386851
307.3996473
306.4468543
304.9856134
311.4184936
314.5881761
318.8782184
318.4189269
322.0123307
323.8920538
335.2074539
339.350453
344.056113
351.1648661
365.9981982
299.8406022
300.1422336
301.2891385
301.241747
303.411307
305.0169987
302.906626
301.4762741
301.7493533
300.0546665
300.1749563
301.3375768
302.2691654
302.0848586
306.5063197
301.4114862
303.2054818
305.6980474
305.956863
304.9939884
312.1527091
310.9308523
313.0715037
315.6900529
322.45491
325.051083
328.5337184
337.5727727
343.3490384
353.7446939
297.9209406
299.9458062
302.6873164
299.2328734
297.8467191
297.8137115
299.9169869
300.3179596
299.9119876
300.2391711
302.2104163
302.2428763
302.584644
300.6072832
300.4117228
305.1408213
302.7732003
305.5636959
301.0477811
301.9709113
302.6985915
311.796927
312.6944522
311.5818966
316.5086633
313.9714126
316.6890111
330.1419166
331.7214412
339.8565952
)
;

boundaryField
{
    flow
    {
        type            calculated;
        value           nonuniform List<scalar> 
55
(
753.8562588
744.6872735
740.5214442
743.1438209
735.8799207
728.1749371
728.2139023
718.3258993
712.6333029
709.2649345
687.2602212
661.1002812
639.6870262
607.8108232
576.1364994
536.4731356
507.9306107
471.7348667
438.5642671
410.1818696
397.6260956
375.3337849
365.9981982
353.7446939
339.8565952
297.9209406
299.9458062
302.6873164
299.2328734
297.8467191
297.8137115
299.9169869
300.3179596
299.9119876
300.2391711
302.2104163
302.2428763
302.584644
300.6072832
300.4117228
305.1408213
302.7732003
305.5636959
301.0477811
301.9709113
302.6985915
311.796927
312.6944522
311.5818966
316.5086633
313.9714126
316.6890111
330.1419166
331.7214412
339.8565952
)
;
    }
    obstacle
    {
        type            calculated;
        value           nonuniform List<scalar> 0();
    }
    frontAndBack
    {
        type            empty;
    }
    procBoundary3to1
    {
        type            processor;
        value           nonuniform List<scalar> 
36
(
758.12594
768.673015
765.9795416
767.2725681
760.4149724
760.4149724
767.8349961
757.5296837
771.3646842
766.3705212
773.7398448
764.6444052
764.6444052
700.887507
721.8141441
738.475575
749.5937964
748.26823
748.26823
502.2315975
524.0543595
562.3358229
586.8754
604.159442
621.9913675
621.9913675
353.5417685
354.0135706
362.707481
390.1216667
411.6384206
414.9889504
433.1059441
433.1059441
335.5848946
335.5848946
)
;
    }
    procBoundary3to2
    {
        type            processor;
        value           nonuniform List<scalar> 
19
(
321.3981037
312.7027131
309.5862301
308.3475092
304.2066781
307.110804
301.0863301
302.2253111
303.2043792
302.0473181
301.9625457
301.9367358
300.7537507
294.5945112
298.5112709
299.8208226
300.7044497
300.9901854
297.2395944
)
;
    }
}


// ************************************************************************* //
