/*--------------------------------*- C++ -*----------------------------------*\
| =========                 |                                                 |
| \\      /  F ield         | OpenFOAM: The Open Source CFD Toolbox           |
|  \\    /   O peration     | Version:  2406                                  |
|   \\  /    A nd           | Website:  www.openfoam.com                      |
|    \\/     M anipulation  |                                                 |
\*---------------------------------------------------------------------------*/
FoamFile
{
    version     2.0;
    format      ascii;
    arch        "LSB;label=32;scalar=64";
    class       volVectorField;
    location    "0.005";
    object      UMean;
}
// * * * * * * * * * * * * * * * * * * * * * * * * * * * * * * * * * * * * * //

dimensions      [0 1 -1 0 0 0 0];

internalField   nonuniform List<vector> 
654
(
(1312.807503 411.3073235 0.8559253886)
(1358.619875 431.044398 2.153255811)
(1346.64284 435.2825468 4.800298179)
(1341.704273 428.204498 4.361019437)
(1343.790203 425.0689971 7.43648165)
(1334.598319 414.2900248 4.918034135)
(1433.905112 373.4840973 4.263316845)
(1427.353022 384.0471725 -1.141831024)
(1413.60535 400.4539038 -6.723001669)
(1407.512732 408.4705276 -5.696665885)
(1390.886519 419.4130656 -2.25517837)
(1374.618575 425.7917015 -7.040239937)
(1373.435326 425.7793061 -7.766641918)
(1369.001299 428.1748357 -3.594633493)
(1364.635661 434.5946645 -2.158946175)
(1361.389535 426.2486641 2.191967337)
(1356.877753 424.0810506 4.806633951)
(1557.593682 232.5028444 1.777985893)
(1539.631963 255.7117043 -2.107851371)
(1525.568871 281.7382483 -1.776606979)
(1506.108657 302.5680884 -6.325384664)
(1483.625788 321.4444408 -5.468791072)
(1464.956217 350.2317046 -4.379803385)
(1447.175896 362.818382 2.260939219)
(1439.30633 376.213503 -1.751649842)
(1428.084103 395.6337485 -2.81104967)
(1419.540468 407.7558611 -2.465307715)
(1409.063828 419.8122729 1.422075608)
(1391.766285 424.3735067 -1.895441715)
(1389.556907 426.2008798 -3.901710046)
(1383.111971 428.8508036 -0.962479135)
(1375.342874 434.0806044 -6.193625383)
(1378.599547 428.1327084 -1.208476323)
(1669.372796 80.35250648 0.03934351919)
(1662.39169 91.12785963 1.399024585)
(1654.863923 106.5953449 -1.170841969)
(1634.639943 130.5138221 3.724938657)
(1628.874655 147.6662868 2.937474636)
(1612.534149 164.9809157 -3.859641221)
(1599.117685 186.0739193 -1.045267966)
(1571.765379 217.058832 -3.082153224)
(1561.104498 236.9636689 -1.292952711)
(1538.799569 266.4264374 -1.775458548)
(1523.357195 287.0745213 -5.687904855)
(1500.577503 312.8053774 -2.875827042)
(1485.596869 340.5159717 -6.583934032)
(1469.882604 354.6564814 1.451811774)
(1456.446018 370.4189785 -3.048022433)
(1443.21275 385.2081547 -1.486060144)
(1434.733479 402.239893 -3.810245052)
(1418.335488 418.0635047 -2.920424456)
(1408.169936 421.0387873 1.467825047)
(1400.90564 430.0258537 0.08760994728)
(1395.048206 432.6434031 2.453021792)
(1391.610697 429.6192544 2.684949928)
(1723.616462 16.60910667 7.36212385)
(1719.141365 20.64702419 4.608084634)
(1719.248192 25.14009086 5.391856787)
(1712.56625 28.64140488 5.051747412)
(1705.638953 35.79131042 2.605804439)
(1702.689658 42.41147462 1.553275253)
(1694.028654 52.61788523 4.138568037)
(1686.706063 58.83002666 2.549780051)
(1677.574091 74.00111377 -0.9764101074)
(1669.230124 87.10158376 -2.300350565)
(1660.348387 102.2892878 -3.50711174)
(1647.60456 121.0113162 -0.680108487)
(1631.835701 137.975269 -0.1128156415)
(1621.125684 155.8408689 -1.605348269)
(1604.233648 176.0391253 -2.237468368)
(1584.023642 197.126117 -4.874914422)
(1568.142771 219.1057056 -0.9713042105)
(1550.87234 252.7771914 -1.682859539)
(1533.947001 272.9068684 2.177619356)
(1509.559682 302.0998974 4.712033409)
(1496.174135 331.8369784 -3.216530715)
(1482.963783 345.1374057 2.174264557)
(1472.16878 364.1633677 -0.1663331897)
(1453.146961 379.2606291 -0.6936414553)
(1445.286447 392.4743795 3.419690353)
(1434.89451 410.5462001 4.942414515)
(1422.7504 418.9033514 1.696865801)
(1419.86566 424.5482292 0.5307229011)
(1409.988823 431.7437579 -0.4018429189)
(1730.086977 10.37110363 -3.235332348)
(1729.423507 15.90825848 -4.122434638)
(1723.18013 17.23242959 1.048026092)
(1723.446368 17.33649819 0.1705024903)
(1718.983762 19.61436427 0.6906176019)
(1713.536836 26.67533618 2.744187274)
(1707.278977 35.29111517 3.587148907)
(1705.308986 43.3979516 0.4601863725)
(1701.135897 49.15181304 0.6956047566)
(1690.849066 54.11059007 -0.4103830829)
(1680.644905 66.91694055 -0.5378600107)
(1674.293061 77.87835354 0.1104933698)
(1662.0584 92.47904781 0.2835205629)
(1654.434946 104.9087576 4.191694436)
(1637.075101 126.3971787 8.826124724)
(1629.441484 143.2100984 7.841866455)
(1614.544712 165.9668468 4.414754636)
(1600.263973 191.040916 3.335195024)
(1583.398663 215.5357235 -2.300431425)
(1568.28352 240.3311971 -7.200270305)
(1543.255748 264.6164552 -4.804777498)
(1527.510025 290.5436324 -4.289831858)
(1508.632965 318.2472124 -3.796404284)
(1495.076322 332.365545 3.945629534)
(1481.367718 354.8785264 0.161699218)
(1465.144643 374.6316357 -4.919885968)
(1452.964848 387.5884527 -1.855883581)
(1445.206912 400.5918294 -4.390459552)
(1437.28013 414.1662567 -6.084875028)
(1431.007097 424.0912332 -2.218744574)
(1730.14189 10.38249861 1.949210257)
(1731.458212 6.870478219 1.249137492)
(1729.62161 11.95154712 2.081782643)
(1725.831722 14.45711186 1.095169921)
(1726.129338 15.47337591 -1.876281988)
(1722.504197 19.05694386 0.4086327207)
(1719.002341 20.8036464 0.9580453658)
(1713.678128 23.36926986 0.9745722993)
(1712.899564 32.37763852 -0.1489703813)
(1701.161986 41.77278649 -1.484500517)
(1697.137858 49.26497365 -0.8950468478)
(1688.420165 63.92220568 -2.542721724)
(1683.29186 72.76033496 -3.247857751)
(1670.72043 87.49302036 -5.039782609)
(1659.727843 104.7740428 -4.281584097)
(1644.62927 120.1588538 -5.064747812)
(1635.188277 141.1314184 -3.474241079)
(1623.749548 165.6116832 -3.886482111)
(1607.818118 182.5693532 -0.05859687016)
(1594.576315 203.5256908 2.019619594)
(1585.031671 223.4407016 -1.986112566)
(1561.515852 252.6408173 -2.055449694)
(1541.037413 281.2094933 -4.420581618)
(1520.909375 302.4928788 -4.499857455)
(1505.827834 318.7039034 -1.036643892)
(1493.823065 340.9729678 -1.013180427)
(1478.985275 365.6845447 -2.7149777)
(1461.96846 382.0860765 -0.6014941076)
(1454.398119 394.5690604 -6.320230519)
(1447.146921 407.6869354 -7.645350921)
(1731.870077 8.950108604 1.894281483)
(1728.009037 7.692380384 1.42321698)
(1728.600041 6.347552541 -1.292997158)
(1727.324254 7.781969953 -3.38941593)
(1724.727435 12.53891726 -2.168157805)
(1724.608077 14.72342376 -4.453365833)
(1722.230704 19.91394983 -4.524412299)
(1718.327776 24.157329 -2.221487671)
(1714.199626 25.03541733 -1.540271659)
(1711.662219 30.47515727 -0.7226600275)
(1704.574179 32.90174789 -2.123545503)
(1697.403839 39.54923607 -2.207972388)
(1693.518137 53.81541314 -0.2963726043)
(1688.029449 69.73601502 -0.4061274012)
(1675.073994 85.89102055 -4.62599706)
(1670.192914 103.6122723 -1.079899577)
(1658.750624 119.8482667 -1.005148302)
(1645.957342 132.056367 -0.3457804297)
(1637.470125 154.2701375 -3.503215149)
(1619.461002 174.1636397 -1.269220237)
(1602.167722 194.0043823 -1.735178066)
(1589.612671 217.1159486 0.1123670807)
(1581.187384 231.1709084 0.1208456092)
(1552.863998 265.5510799 -6.938184229)
(1528.564798 293.8961222 -4.242836063)
(1520.951077 312.288828 -0.4333808152)
(1501.248902 338.2605412 -2.12278807)
(1486.541573 363.3294349 3.581097918)
(1470.171786 376.7890198 3.954576089)
(1468.690093 389.951993 -2.028153218)
(1735.711268 3.241496812 -1.973770693)
(1731.739916 4.217923687 -2.067171046)
(1731.587892 8.559623188 -3.424216532)
(1727.041947 12.51493843 -2.53046161)
(1728.000805 14.91227114 0.1395897721)
(1725.000839 15.91408032 -0.5725385238)
(1724.098589 14.4847056 -3.055765235)
(1725.110116 15.24345901 -1.380637635)
(1717.123168 23.30043053 -1.769841965)
(1716.473175 24.6910901 -2.528520756)
(1710.640958 32.71901905 -1.354079215)
(1710.034912 39.0174749 -4.628743018)
(1703.318606 46.75281183 -3.389981781)
(1695.535544 54.35596646 -0.3813261268)
(1691.446197 62.58667398 -0.1243020066)
(1683.284785 74.17151946 -4.167516678)
(1670.406603 90.54220559 -2.715225055)
(1661.20131 114.1514407 -3.629760505)
(1652.580736 122.0320727 -3.36258546)
(1638.239353 144.7404807 -4.314682408)
(1632.142809 157.9165634 -5.919407507)
(1605.12796 186.6678686 -2.452665608)
(1589.387848 210.7408347 -2.873004845)
(1577.057847 229.4564628 -0.9820976234)
(1558.01509 253.463538 -1.054784361)
(1540.830763 285.3674039 -4.562370107)
(1526.688174 302.7856734 -4.173459235)
(1505.593031 322.1892005 -1.768514562)
(1495.276234 343.3309608 5.1686907)
(1479.685005 366.7520595 2.927561818)
(1725.738257 -3.670207267 -1.698188899)
(1729.034492 -0.966999709 -1.206019966)
(1729.555489 3.97213261 0.9814098331)
(1730.389846 5.406423424 2.321706523)
(1726.927683 6.044796466 3.387887918)
(1724.66626 9.809702822 3.853081989)
(1723.107916 13.1924255 4.18929029)
(1725.281564 16.34915478 1.682583846)
(1721.198356 17.52342912 3.221243391)
(1720.900312 22.16935287 4.458886063)
(1715.605431 29.20091233 3.866856712)
(1713.812086 32.00717881 4.184081189)
(1712.885501 37.60240114 0.6755176229)
(1704.96006 44.72276753 -1.174270293)
(1699.370001 52.10539647 -2.388068727)
(1695.654435 60.92689881 -2.780365721)
(1688.461967 72.40807657 1.040868323)
(1675.698839 81.82362053 3.257266519)
(1665.306098 99.26172757 1.720788097)
(1654.140249 116.2958377 1.4710493)
(1642.140135 136.5319951 2.091648002)
(1633.097193 151.5623739 -0.2890605463)
(1616.157274 177.1937596 -3.025176274)
(1604.834862 193.1767636 -4.036709291)
(1590.785522 217.9985778 -6.665697475)
(1570.927068 239.3741484 -3.11801858)
(1557.744835 267.7753944 -1.140327592)
(1540.266517 297.3477492 -4.188703334)
(1525.221033 325.0627696 -2.282810053)
(1509.421475 337.9531288 1.675057082)
(1736.124543 2.296666323 1.895009259)
(1733.788485 3.059267557 0.279796326)
(1733.08081 -0.2356475537 0.1749184507)
(1732.458274 0.2244382409 0.6833341333)
(1730.639557 3.804707954 -1.805171618)
(1733.855228 4.454199127 0.04971547949)
(1731.73192 7.406271801 1.263716942)
(1726.158173 11.52835495 2.129505746)
(1724.326087 15.04350938 -0.407500647)
(1720.889997 19.26957326 -1.284698667)
(1719.535855 23.32486149 -0.7509202817)
(1712.778363 31.51648671 1.628392684)
(1711.227482 33.72728786 7.309894757)
(1712.103385 38.72278898 4.759140922)
(1705.508361 39.19278162 2.191783654)
(1703.055975 41.76816405 0.8412452263)
(1699.347021 52.97963171 2.169872808)
(1692.072561 67.48802702 -0.568886524)
(1684.886535 77.71821014 1.541681069)
(1670.2576 96.27992478 -1.118375339)
(1668.159493 102.8404859 -4.66736319)
(1662.232573 118.1536425 -5.339142093)
(1644.215333 137.0812235 -1.403020488)
(1628.546698 157.7365709 -5.118331121)
(1610.335915 180.7894735 -7.633388109)
(1599.947523 210.7965234 -7.727577623)
(1584.001822 242.4381871 -7.132942801)
(1564.48149 263.3871832 -0.2149863386)
(1543.909302 287.9598546 -2.966067316)
(1530.888929 304.4556161 -4.061333001)
(1734.886331 0.2842965386 -4.186138477)
(1734.98134 1.030779892 -1.452786435)
(1734.096114 2.281448296 -1.362032918)
(1732.437755 -0.1356787626 0.8435485671)
(1731.088432 1.299908599 0.8047543372)
(1731.531723 6.4887088 1.277894212)
(1730.55614 5.223751541 -0.3092693963)
(1723.832091 8.701096674 2.236168923)
(1726.138609 12.17856328 1.175360137)
(1729.47137 18.63895597 3.15587075)
(1725.717783 21.3986637 4.52153714)
(1719.790673 24.31983253 1.132137541)
(1716.823053 25.32433552 -1.770752798)
(1716.053308 27.99329587 -4.034999911)
(1715.042881 35.07551262 -3.340629617)
(1708.946565 42.88273284 -1.323420384)
(1705.071898 44.71786614 -5.983877809)
(1698.803406 50.50038232 -0.3284062541)
(1693.981095 57.91685058 -5.620712887)
(1685.99608 71.47873641 -1.455686271)
(1676.318996 81.38302564 -0.3160481121)
(1670.090105 94.91296709 0.004582592051)
(1663.353276 110.4848683 -2.077373421)
(1654.94713 138.4514545 -0.2865250402)
(1645.480025 156.0748885 -1.662354708)
(1626.342013 175.0043472 -4.196166106)
(1602.297709 198.8623791 -6.293748849)
(1593.402314 225.5526038 -5.256293188)
(1579.799973 243.5338299 -6.630200004)
(1559.927686 270.741199 -5.266678705)
(1732.676714 -2.162823317 1.290728095)
(1733.002605 -0.4639011851 -0.7336726627)
(1734.114655 0.8723848984 -2.436615653)
(1731.343311 3.485707856 -4.711429031)
(1729.417725 4.18425386 -4.458375174)
(1728.710755 2.016348939 -4.003946442)
(1730.544918 5.576831634 -2.1067319)
(1729.544836 8.383659244 -6.217236045)
(1729.580747 12.68456709 -4.991518742)
(1726.030503 11.62152856 -4.553132559)
(1726.513949 12.82330806 -5.112552405)
(1727.506209 10.76365038 -4.402230395)
(1727.38917 16.79633271 -2.763926251)
(1722.521459 22.6575483 4.057448979)
(1717.120338 29.16172854 5.302904043)
(1716.692438 30.47521244 2.630757541)
(1713.105809 31.52599911 2.40080567)
(1708.197638 34.40572508 -0.1140017106)
(1701.954709 44.76976875 1.068773644)
(1696.667291 52.6583616 2.231256248)
(1687.113642 67.52518818 -1.062157764)
(1680.859594 79.17998982 -2.180863075)
(1668.96323 95.89389745 -0.4748644531)
(1660.425216 110.2090913 -1.42755372)
(1644.783119 126.4374965 1.023126199)
(1640.645663 141.1179701 -2.554944822)
(1633.126993 164.1686701 -2.532068558)
(1614.416293 186.362101 -7.06934596)
(1596.336796 211.8600011 -2.068001075)
(1582.376307 240.0472764 -0.1578955323)
(1732.391298 -0.9027071025 -3.430607045)
(1734.057473 -0.02938642035 -4.675838436)
(1731.092132 1.394275609 -1.755873784)
(1727.695112 3.264273932 -2.237602742)
(1731.856275 4.666680273 0.7718086821)
(1731.027605 7.572208384 0.8040887705)
(1728.65729 8.856434659 -1.012508662)
(1729.360479 6.054136159 1.881757457)
(1731.264407 4.521095719 0.5357414528)
(1731.19258 3.777985192 -0.9756115955)
(1730.001778 7.540274231 -0.05816938917)
(1728.018849 13.81034668 1.528640454)
(1730.594266 8.741732168 -0.3818484041)
(1729.683314 7.913177769 -4.64819315)
(1723.149302 12.89179573 -1.879327323)
(1717.517209 23.31858102 -2.602325195)
(1713.976766 26.00715672 -2.643973299)
(1711.599527 32.3199978 0.9621465127)
(1708.719225 35.62032187 0.9627315743)
(1702.829355 40.03194065 -1.457432633)
(1701.081899 51.3723123 2.7104872)
(1692.426958 67.28898335 -0.72623802)
(1683.771844 77.75534913 1.331796674)
(1677.457392 83.63045842 5.610301628)
(1668.975533 101.9602112 6.479125887)
(1660.469141 116.8394771 8.68472448)
(1649.079699 135.2910698 6.872665412)
(1632.705177 156.2806206 7.246715542)
(1620.560044 179.0687208 5.654145439)
(1604.723032 205.8144792 3.45794794)
(1728.837273 4.822983474 -2.241135695)
(1734.399059 2.596766557 -0.8365299054)
(1735.399959 2.758833695 -0.3435139203)
(1737.087216 2.856729676 0.1447857853)
(1735.792338 3.604210882 -0.6853170682)
(1736.792515 2.877610568 -1.619851569)
(1731.580585 2.277680345 0.4874771653)
(1730.656292 4.557468095 0.3348249267)
(1729.177149 4.359220286 -2.771950559)
(1726.979557 7.374019896 -3.78957853)
(1726.725008 3.548505369 -3.009672485)
(1728.567809 2.426844901 -3.438771489)
(1724.491883 10.84104073 -1.761226582)
(1723.573063 10.0331735 -0.3813911956)
(1721.680762 10.94862726 -1.06034559)
(1718.283946 10.70347529 -0.4928181158)
(1719.850308 15.34661575 1.191578998)
(1714.477377 24.60026045 -0.8283744332)
(1714.32939 31.74518111 1.75953508)
(1712.539431 42.16416351 5.948593443)
(1707.836837 42.264282 5.705449876)
(1701.575035 45.48778466 6.105283654)
(1697.672856 51.25449023 3.147933603)
(1684.17904 68.71091637 0.7427077376)
(1677.83591 75.92415662 0.3684254402)
(1665.013863 89.72418882 -1.208201094)
(1658.295942 108.7204796 2.680300789)
(1645.504506 132.0132595 1.845364918)
(1634.467029 153.4502821 3.159541286)
(1625.346903 175.2491278 2.772255125)
(1736.886614 4.018146245 5.457786652)
(1732.13854 4.381211272 4.591694506)
(1735.460908 5.042544157 4.705767389)
(1734.118192 0.07100303419 0.1703816334)
(1733.355962 -1.812119179 -0.9657770533)
(1734.398506 -3.268422217 -1.369448481)
(1734.604754 -3.74496316 -2.855175092)
(1733.29049 -1.244426584 -1.986276725)
(1733.835947 -0.08013878319 -0.1076203028)
(1733.382594 3.987025925 -0.7958737025)
(1731.245739 5.656943758 -2.049530576)
(1729.123749 5.536742599 -3.164447187)
(1728.719232 5.289389915 -1.018898184)
(1725.689013 9.794264955 -2.702619407)
(1725.729438 14.063516 -5.180479288)
(1722.274643 19.12099581 -5.500988013)
(1722.057906 21.79353876 -2.057294912)
(1721.290465 25.0197507 -0.6588704197)
(1714.910475 21.58829798 -2.145933845)
(1717.38945 23.98224893 -5.395428795)
(1714.614874 33.18341299 -6.368531983)
(1710.955659 39.98634645 -3.255260905)
(1704.088125 48.88261517 2.568191268)
(1698.378884 52.05733789 1.790941481)
(1694.643671 59.89593821 4.705318235)
(1693.367178 74.64821636 0.3872073036)
(1681.824341 85.4523321 -2.301414357)
(1675.859174 100.3726815 -0.09753828165)
(1653.70693 126.7919873 -0.3939340708)
(1639.651883 143.807451 -0.09800091445)
(1734.551574 6.462885207 -6.836729946)
(1731.913646 4.276921255 -5.219232155)
(1732.276013 3.062857842 -5.400381535)
(1733.302295 2.596981121 -5.693295419)
(1735.12269 1.372953577 -3.112036056)
(1735.798229 1.465536411 -2.798989443)
(1737.543954 1.148921917 -0.8986000854)
(1736.832505 -1.646223392 -2.215660591)
(1735.333166 -1.778598506 -2.247416241)
(1734.456629 -1.907106677 -0.9093605417)
(1731.025623 3.250102841 -0.1025373097)
(1732.344752 7.632977787 0.07448747116)
(1729.928791 12.53932086 -1.126557418)
(1732.237335 9.681734192 -2.454997207)
(1732.325758 10.04572777 -2.871781514)
(1730.60565 7.900388036 -1.954968899)
(1728.552869 11.39947941 -3.99157565)
(1722.969309 14.87595223 -3.852598844)
(1723.120577 23.31224264 -4.059776733)
(1721.021979 22.3935104 -3.536371814)
(1716.343496 24.68643661 -5.123317526)
(1716.008817 29.66729284 -7.370424486)
(1714.100843 36.34751175 -8.827439664)
(1710.539036 48.319921 -7.511089852)
(1706.910725 52.78911788 -7.282821815)
(1701.820191 61.14348641 -4.319145818)
(1696.301571 73.14988525 -2.485065781)
(1684.971718 86.84533842 -1.596044954)
(1676.094395 98.91248712 0.6841084117)
(1658.307097 118.7869304 2.410903817)
(1735.521701 -1.047074319 -2.979351461)
(1734.91437 0.2369834139 -2.565964282)
(1735.366024 1.948730233 -1.759296404)
(1735.312731 4.707314474 -2.393515964)
(1735.727984 6.489025232 -5.354860028)
(1734.681592 8.398193383 -5.151704977)
(1729.990369 5.907227461 -3.463370555)
(1729.964256 4.923518019 -4.218766055)
(1729.522385 6.01248919 -2.457455083)
(1729.574887 3.857177911 -0.3487646496)
(1731.173313 6.263173115 0.6427433077)
(1730.216668 2.809701017 0.6036928891)
(1732.349468 3.969445334 1.184533879)
(1729.477419 6.607144239 0.4836257764)
(1728.461269 5.017426014 0.8176424407)
(1730.591931 8.92313447 -1.797381098)
(1728.848858 12.08883847 -0.9186710544)
(1728.483694 11.87500152 -6.876627924)
(1724.184399 11.75442641 -6.584158571)
(1721.756119 15.6423173 -5.014894049)
(1721.393256 22.3806522 -3.238521261)
(1720.306578 26.95049509 -4.982607434)
(1715.350766 32.69278654 -7.126800402)
(1714.683765 34.12748153 -4.891551691)
(1708.970722 49.2935803 -3.455619445)
(1705.000832 48.20598834 -3.873211954)
(1701.226718 58.14820998 -0.02020251055)
(1696.628161 67.21142541 -1.513003644)
(1690.727632 78.66124129 -2.0211465)
(1681.471124 98.64398677 -4.043278272)
(1732.59173 -3.720099035 2.512431958)
(1734.744324 1.008115909 2.43491284)
(1730.499784 3.862304353 0.2912786873)
(1726.759797 2.675213804 0.5061387458)
(1727.40294 0.3551915118 -0.2897095026)
(1727.280267 2.517473164 1.80948519)
(1730.408215 6.530788743 0.7348938255)
(1730.807112 5.230122088 0.4784851598)
(1731.676944 5.208673068 0.02031123769)
(1730.323433 3.185671097 1.534617526)
(1729.665979 4.733808161 -1.105013815)
(1728.431255 3.005950761 -1.66638017)
(1728.937166 -0.1059306893 -0.136606789)
(1729.48198 3.963686121 0.1496303848)
(1732.525325 4.951880412 -0.05897532252)
(1730.966723 7.728323014 -0.465328191)
(1731.221807 6.360701755 0.9810474119)
(1727.208226 12.62862689 2.379091931)
(1728.304249 15.85140138 4.386030537)
(1730.474699 14.38741226 6.126852428)
(1730.46558 14.95189078 5.851171047)
(1723.742494 16.71928532 10.06536462)
(1722.928286 20.51600419 10.57626994)
(1716.678017 27.97764084 5.780583679)
(1710.126854 31.84175039 2.337644001)
(1703.991676 43.94498388 3.375348799)
(1705.532474 46.13966495 0.942935067)
(1701.780788 53.81813416 2.578527467)
(1696.024155 66.37140319 1.912726524)
(1691.725792 69.77145195 2.854885827)
(1737.821177 2.953948818 -2.691108498)
(1732.701304 -0.9931747659 -1.854513848)
(1730.781958 -3.580098929 -0.9860956394)
(1728.882562 -1.391026611 -1.688842554)
(1730.80979 2.241991858 -1.95558365)
(1728.7221 2.435671665 -1.851915569)
(1727.972085 0.8946677537 -0.7541237261)
(1729.59985 4.524684664 0.4799347141)
(1732.164688 2.42263164 -1.430131154)
(1730.243749 3.018565566 -3.391404825)
(1731.970869 1.977129997 -1.840634142)
(1734.767539 1.265248594 1.102904232)
(1732.371288 3.278096071 0.5269123626)
(1729.536676 2.440081491 1.106125044)
(1726.79663 4.944935043 -0.01199775624)
(1727.753718 6.730714237 0.3073606941)
(1730.17151 7.03594105 2.189719218)
(1726.464951 5.265735334 2.542856176)
(1726.191297 8.50746512 0.9200103755)
(1724.634906 10.21809052 0.9359722718)
(1724.304249 14.35844714 0.4363815979)
(1721.303899 15.26086181 0.4890745375)
(1718.674045 20.38663943 0.9993686561)
(1718.455008 24.74662183 0.1438214889)
(1716.984651 24.24394666 2.264388289)
(1711.968937 29.36764001 3.244385399)
(1711.209726 40.11736267 1.011924417)
(1711.595107 42.44798366 -2.507604151)
(1701.328004 49.95303492 -0.256615925)
(1695.514236 55.5029028 -1.058678838)
(1733.854884 5.150072038 -1.44713617)
(1734.962969 4.920819144 -1.744351111)
(1739.285223 3.312600587 -0.4842620978)
(1738.645959 0.3944498343 1.960505688)
(1737.018814 -0.7430867496 2.529833139)
(1737.692771 -3.177968173 5.130906528)
(1734.284691 -4.697641132 2.129752488)
(1732.257958 -3.692058351 1.107930868)
(1731.543972 2.189820153 0.2781617098)
(1730.836162 1.664133635 1.305857035)
(1731.242604 2.211788673 -0.3874367276)
(1726.728513 6.658916533 -0.369350998)
(1725.217918 5.91660842 -2.466737757)
(1725.494567 6.387379408 -2.048570877)
(1725.065431 4.281139381 1.659630364)
(1726.638643 1.481447573 2.283606584)
(1728.080251 4.02481872 2.073691773)
(1731.588118 6.600814013 5.723004433)
(1732.008374 4.015330557 3.423431264)
(1728.013911 13.05023418 1.083450062)
(1724.383469 13.72063243 0.7191274218)
(1727.130655 11.14955747 0.1668437782)
(1725.497594 13.35458913 -1.194294939)
(1723.758029 15.18102546 -0.8022593685)
(1721.132622 18.82680713 0.1226617042)
(1716.176555 22.85049364 0.7548551775)
(1712.631594 26.09448879 -3.381632541)
(1709.059494 34.1947992 -0.7724539093)
(1705.837004 37.49798073 0.9484193828)
(1700.773332 48.57466297 -1.333934803)
(1732.148111 1.817091468 -3.016627478)
(1734.095853 1.128077906 -2.689867225)
(1730.713579 -0.1707032395 -4.189523572)
(1732.158804 2.768594287 -2.906560451)
(1732.016285 2.203324475 -2.863063966)
(1732.094888 2.246704645 -4.868808651)
(1734.188458 2.476535608 -3.513174217)
(1736.471191 1.117930117 -2.667700096)
(1735.231568 -2.905025486 -2.848353639)
(1737.29903 -1.210906932 -1.939444333)
(1735.83152 -0.2402282274 -0.6578387748)
(1736.233194 2.125338393 1.021740475)
(1736.960545 3.767337144 2.784631336)
(1740.847286 3.913561806 1.521500707)
(1740.474939 2.89846065 3.768086195)
(1737.938288 5.728806629 2.468403029)
(1735.199448 9.63541904 1.363932639)
(1734.379145 7.029794348 -1.05373954)
(1732.819926 5.405878943 -1.299512375)
(1732.953958 2.385933204 -2.153651208)
(1733.696149 2.938980681 -0.1689291357)
(1729.559534 6.859831649 0.2352617651)
(1730.038129 4.12802028 -0.1168299728)
(1728.485077 7.89701574 -2.132916563)
(1728.871577 12.99631899 -1.980450209)
(1720.820261 20.71150298 -1.115061355)
(1719.595966 24.86510573 4.123084422)
(1717.143765 27.50817776 -0.4199060658)
(1711.423254 37.34488058 -0.142107189)
(1707.59069 39.67744543 4.196070025)
(1737.705201 -0.2923807882 -0.7505903018)
(1737.787768 -1.200024544 2.687003367)
(1739.366212 0.08781633459 0.749736406)
(1737.496591 -0.02992943214 0.01376659168)
(1738.5666 0.03861511866 -1.47802457)
(1737.572053 2.773816129 -0.2018551295)
(1737.906777 0.4547730022 -1.209470536)
(1740.159046 1.502833075 -1.793885357)
(1741.597147 3.324716421 0.6933260949)
(1740.514371 5.537482203 -1.001000195)
(1739.382473 5.050584768 -3.314629007)
(1739.842769 3.6816972 -2.924490201)
(1739.197121 0.4576724516 -4.449211134)
(1739.891073 1.914223666 -4.028707946)
(1737.72153 4.305328904 -5.521984831)
(1739.332202 0.2027324395 -4.275902724)
(1736.564212 -0.648259209 -1.463830118)
(1733.564833 2.956915785 -0.5724970415)
(1734.32053 4.138367956 0.6410488271)
(1736.738199 8.637494215 0.03312919895)
(1733.001654 9.466194025 -0.1836598136)
(1732.283858 14.02471111 -0.8326422581)
(1732.828316 14.56908939 1.212983861)
(1730.861171 12.45496989 1.830169724)
(1729.998705 11.15870501 1.213265325)
(1728.467847 11.83368389 4.100654034)
(1724.490072 14.51470423 2.305860481)
(1716.668012 21.85392534 4.426519676)
(1716.656364 25.52855067 0.5516336498)
(1714.889469 33.16889539 -1.764773651)
(1738.624798 3.945334575 2.306868778)
(1739.663752 4.661016879 0.4134620653)
(1739.20064 5.76619589 2.324326834)
(1740.02012 5.983624047 0.2649543182)
(1741.707757 2.703191887 0.8102924271)
(1740.653878 5.676087509 -0.4445809174)
(1741.974305 7.243918431 0.9407426878)
(1737.252879 8.624681765 1.852282172)
(1739.599366 10.80337861 0.6747964225)
(1739.412632 9.547827884 1.021879251)
(1737.496674 6.407847402 2.693752556)
(1737.445241 6.084065639 1.91936259)
(1735.655892 4.383157222 0.2410259459)
(1736.152972 8.188478186 1.79389324)
(1737.330619 10.28060728 -1.012312229)
(1736.035165 13.82318131 -1.584112809)
(1736.547774 12.0440712 -5.893658049)
(1738.485757 13.14999829 -7.728225833)
(1738.662588 10.76963213 -4.781842184)
(1738.948991 10.16789416 -3.1614795)
(1737.360042 14.50944478 -3.233209037)
(1735.114467 14.07980156 -1.848502475)
(1734.827684 17.94877985 -0.4418740897)
(1736.59554 13.72701398 1.822124726)
(1734.748217 19.67630478 1.269644404)
(1732.921916 17.66427445 0.727265302)
(1732.872442 17.72149198 -2.16341586)
(1731.790589 24.02093241 -0.5244550522)
(1728.855843 30.90615653 1.698653482)
(1720.295299 35.16699747 3.33152074)
)
;

boundaryField
{
    flow
    {
        type            calculated;
        value           nonuniform List<vector> 
55
(
(1312.807503 411.3073235 0.8559253886)
(1334.598319 414.2900248 4.918034135)
(1356.877753 424.0810506 4.806633951)
(1378.599547 428.1327084 -1.208476323)
(1391.610697 429.6192544 2.684949928)
(1409.988823 431.7437579 -0.4018429189)
(1431.007097 424.0912332 -2.218744574)
(1447.146921 407.6869354 -7.645350921)
(1468.690093 389.951993 -2.028153218)
(1479.685005 366.7520595 2.927561818)
(1509.421475 337.9531288 1.675057082)
(1530.888929 304.4556161 -4.061333001)
(1559.927686 270.741199 -5.266678705)
(1582.376307 240.0472764 -0.1578955323)
(1604.723032 205.8144792 3.45794794)
(1625.346903 175.2491278 2.772255125)
(1639.651883 143.807451 -0.09800091445)
(1658.307097 118.7869304 2.410903817)
(1681.471124 98.64398677 -4.043278272)
(1691.725792 69.77145195 2.854885827)
(1695.514236 55.5029028 -1.058678838)
(1700.773332 48.57466297 -1.333934803)
(1707.59069 39.67744543 4.196070025)
(1714.889469 33.16889539 -1.764773651)
(1720.295299 35.16699747 3.33152074)
(1738.624798 3.945334575 2.306868778)
(1739.663752 4.661016879 0.4134620653)
(1739.20064 5.76619589 2.324326834)
(1740.02012 5.983624047 0.2649543182)
(1741.707757 2.703191887 0.8102924271)
(1740.653878 5.676087509 -0.4445809174)
(1741.974305 7.243918431 0.9407426878)
(1737.252879 8.624681765 1.852282172)
(1739.599366 10.80337861 0.6747964225)
(1739.412632 9.547827884 1.021879251)
(1737.496674 6.407847402 2.693752556)
(1737.445241 6.084065639 1.91936259)
(1735.655892 4.383157222 0.2410259459)
(1736.152972 8.188478186 1.79389324)
(1737.330619 10.28060728 -1.012312229)
(1736.035165 13.82318131 -1.584112809)
(1736.547774 12.0440712 -5.893658049)
(1738.485757 13.14999829 -7.728225833)
(1738.662588 10.76963213 -4.781842184)
(1738.948991 10.16789416 -3.1614795)
(1737.360042 14.50944478 -3.233209037)
(1735.114467 14.07980156 -1.848502475)
(1734.827684 17.94877985 -0.4418740897)
(1736.59554 13.72701398 1.822124726)
(1734.748217 19.67630478 1.269644404)
(1732.921916 17.66427445 0.727265302)
(1732.872442 17.72149198 -2.16341586)
(1731.790589 24.02093241 -0.5244550522)
(1728.855843 30.90615653 1.698653482)
(1720.295299 35.16699747 3.33152074)
)
;
    }
    obstacle
    {
        type            calculated;
        value           nonuniform List<vector> 0();
    }
    frontAndBack
    {
        type            empty;
    }
    procBoundary3to1
    {
        type            processor;
        value           nonuniform List<vector> 
36
(
(1299.194528 392.8103249 -3.423008505)
(1332.44689 429.7017784 7.545664149)
(1321.352713 424.0443349 2.629954715)
(1319.231561 419.8303722 -0.4292664581)
(1311.25582 416.4370195 2.330331729)
(1311.25582 416.4370195 2.330331729)
(1415.719506 402.1529413 -2.725762058)
(1404.798312 411.3710557 -4.768806821)
(1386.080123 413.0336822 -0.604660539)
(1377.683167 421.4059976 -0.1150812313)
(1365.343652 429.1750473 1.124569455)
(1364.232387 428.2818666 -0.7301658173)
(1364.232387 428.2818666 -0.7301658173)
(1523.438319 271.6993793 -4.115960018)
(1504.428374 291.9935794 0.1921067052)
(1492.446717 312.4232268 -4.656975622)
(1466.671944 339.9669996 -6.562739631)
(1452.689637 363.7190304 5.499467771)
(1452.689637 363.7190304 5.499467771)
(1648.443061 103.577387 -0.3157947586)
(1636.12255 116.8701655 -1.444075042)
(1622.311671 142.3169061 3.128901566)
(1608.289276 162.732696 1.311337468)
(1595.34198 181.4606046 4.628055654)
(1578.286225 200.4828884 5.260944372)
(1578.286225 200.4828884 5.260944372)
(1717.866103 24.88764021 -2.067491411)
(1715.269017 30.40121648 0.3142233805)
(1708.360826 31.9077446 -0.9146975169)
(1702.828814 45.19426619 0.1877252392)
(1695.064664 56.7716996 2.720965116)
(1689.448231 59.16234487 1.907527293)
(1679.633703 66.34816088 1.405671857)