/*--------------------------------*- C++ -*----------------------------------*\
| =========                 |                                                 |
| \\      /  F ield         | OpenFOAM: The Open Source CFD Toolbox           |
|  \\    /   O peration     | Version:  2406                                  |
|   \\  /    A nd           | Website:  www.openfoam.com                      |
|    \\/     M anipulation  |                                                 |
\*---------------------------------------------------------------------------*/
FoamFile
{
    version     2.0;
    format      ascii;
    arch        "LSB;label=32;scalar=64";
    class       Cloud<dsmcParcel>;
    location    "0.003/lagrangian/dsmc";
    object      coordinates;
}
// * * * * * * * * * * * * * * * * * * * * * * * * * * * * * * * * * * * * * //

6146
(
(0.190700306 0.3831789057 0.02147094128 0.404649847) 201 335 2
(0.1370510697 0.4314744652 0.1229519202 0.308522545) 353 1267 2
(0.09802205122 0.4509889744 0.2331779389 0.2178110355) 172 278 1
(0.5955294135 0.1908314969 0.2022352932 0.01140379637) 233 456 2
(0.5450063929 0.2274968035 0.07009027014 0.1574065334) 318 565 1
(0.2317409545 0.3841295227 0.2223661102 0.1617634126) 293 1265 2
(0.2948616498 0.3525691751 0.08868507932 0.2638840958) 233 1263 2
(0.4158371943 0.2920814028 0.004271585416 0.2878098174) 111 214 2
(0.5097565956 0.07947892992 0.2451217022 0.1656427723) 622 1222 2
(0.04722593466 0.4763870327 0.4607610101 0.01562602261) 473 926 2
(0.3682498159 0.315875092 0.3037705 0.01210459208) 503 1272 2
(0.01208542147 0.4939572893 0.1402503815 0.3537069078) 350 628 1
(0.6938611594 0.1530694203 0.009908179517 0.1431612408) 349 626 1
(0.3829711822 0.1507021119 0.157812297 0.3085144089) 233 1263 1
(0.384859253 0.3075703735 0.03303651922 0.2745338543) 173 336 2
(0.1415226312 0.003069825239 0.4261688591 0.4292386844) 352 632 2
(0.1180625543 0.2285937747 0.2123749482 0.4409687229) 32 1256 1
(0.699840096 0.150079952 0.0129325784 0.1371473736) 353 692 1
(0.5703143088 0.1158147018 0.2148428456 0.09902814377) 112 219 2
(0.5527200391 0.2236399804 0.03631320439 0.1873267761) 231 453 1
(0.02915701431 0.4854214928 0.4081077475 0.0773137453) 233 456 1
(0.4622254383 0.1747595656 0.2688872808 0.09412771528) 5 9 2
(0.2547319232 0.06960446205 0.3030295764 0.3726340384) 382 749 1
(0.01365993722 0.4931700314 0.1073555636 0.3858144678) 531 984 1
(0.2966782877 0.1082677248 0.3516608562 0.2433931313) 288 562 1
(0.2647406664 0.3676296668 0.2627940743 0.1048355925) 80 99 1
(0.080329058 0.459835471 0.1073877703 0.3524477007) 233 454 2
(0.1885140813 0.349207105 0.4057429593 0.05653585437) 233 456 2
(0.06316246209 0.468418769 0.01472078276 0.4536979862) 109 213 1
(0.2675207547 0.1191930703 0.3662396226 0.2470465523) 53 100 1
(0.2994469562 0.1518354745 0.1984410474 0.3502765219) 233 397 2
(0.218108514 0.1953531624 0.1955925806 0.390945743) 233 397 2
(0.02999699329 0.3226622632 0.1623392401 0.4850015034) 83 1258 1
(0.6125240076 0.05842076963 0.1353172266 0.1937379962) 263 1264 1
(0.05709384025 0.4714530799 0.3368882088 0.1345648711) 471 924 2
(0.6725474257 0.1637262872 0.1237920432 0.03993424401) 352 690 2
(0.6926024271 0.1206382655 0.1536987864 0.03306052092) 202 393 1
(0.05822850237 0.02936854525 0.4708857488 0.4415172036) 383 749 1
(0.1832573662 0.1071589112 0.3012124057 0.4083713169) 83 104 2
(0.3154162169 0.3422918916 0.1692277284 0.1730641632) 503 1272 2
(0.1901911704 0.4049044148 0.2897097603 0.1151946545) 289 508 1
(0.288421707 0.3557891465 0.06480421206 0.2909849344) 233 456 1
(0.1855256242 0.2390835555 0.1681536324 0.4072371879) 375 677 2
(0.5078876528 0.2358189995 0.2460561736 0.01023717414) 201 391 1
(0.3441911281 0.2405614341 0.3279044359 0.08734300183) 232 452 1
(0.2661183448 0.3669408276 0.2486453303 0.1182954972) 381 689 1
(0.3758176906 0.1418392962 0.3120911547 0.1702518585) 383 751 2
(0.5751363644 0.002160913152 0.2102709047 0.2124318178) 201 335 2
(0.3356654719 0.09969498556 0.2324722785 0.3321672641) 383 1268 1
(0.3936726811 0.06040381155 0.2427598479 0.3031636595) 501 925 2
(0.1568479209 0.4215760395 0.1075155926 0.3140604469) 290 569 1
(0.06990842221 0.4650457889 0.1653627285 0.2996830604) 381 745 2
(0.03794414147 0.03718163339 0.4438462959 0.4810279293) 143 220 2
(0.3214319761 0.03069661399 0.339284012 0.308587398) 142 278 2
(0.5022867571 0.06147902907 0.2488566215 0.1873775924) 259 508 2
(0.03270773681 0.3827930357 0.4836461316 0.1008530959) 200 392 2
(0.3122272168 0.3438863916 0.0681382295 0.2757481621) 83 161 1
(0.5487887466 0.2256056267 0.07719051264 0.1484151141) 83 1258 2
(0.09240490837 0.4537975458 0.06690003715 0.3868975087) 260 451 1
(0.7784951129 0.1107524436 0.07376155117 0.03699089238) 501 981 2
(0.2701494016 0.1187392015 0.3649252992 0.2461860977) 323 633 2
(0.4248160463 0.1277948981 0.2875919769 0.1597970787) 201 394 2
(0.285969515 0.2232978149 0.3570152425 0.1337174277) 50 97 2
(0.4271398448 0.2797095927 0.2864300776 0.006720484879) 170 330 1
(0.3467032998 0.1157320887 0.3266483501 0.2109162614) 529 1036 1
(0.3010428648 0.1478358281 0.3494785676 0.2016427395) 467 917 2
(0.3154440626 0.0645627301 0.3422779687 0.2777152386) 172 334 1
(0.9319000739 0.03277450688 0.03404996304 0.001275456152) 232 455 2
(0.009194415819 0.4954027921 0.1586702942 0.3367324979) 263 456 1
(0.1902740631 0.4048629685 0.2113499129 0.1935130555) 560 1099 2
(0.1541389861 0.4229305069 0.3676531194 0.05527738758) 409 802 2
(0.5320802736 0.2339598632 0.164843057 0.06911680618) 173 279 1
(0.03339529221 0.01164667077 0.4833023539 0.4716556831) 382 750 2
(0.7906032134 0.1046983933 0.08154173514 0.02315665818) 413 1269 2
(0.7386956659 0.02154552469 0.1091066423 0.130652167) 112 160 2
(0.1024863962 0.4487568019 0.01077061508 0.4379861868) 203 397 1
(0.3772656592 0.08162129693 0.2297458734 0.3113671704) 323 574 2
(0.7531417832 0.08760211926 0.1234291084 0.03582698913) 232 455 2
(0.1991067655 0.4004466173 0.03149975412 0.3689468631) 233 397 1
(0.5303922559 0.04602240494 0.234803872 0.1887814671) 293 572 1
(0.770809668 0.1137433337 0.114595166 0.000851832239) 291 571 2
(0.1326018736 0.4336990632 0.1335946868 0.3001043764) 171 276 1
(0.7655302982 0.1172348509 0.1044142397 0.01282061123) 52 98 2
(0.2749832008 0.3625083996 0.3295566933 0.03295170628) 473 928 1
(0.3366449494 0.3316775253 0.2794478091 0.0522297162) 53 102 2
(0.2795145537 0.3602427232 0.1098033473 0.2504393759) 292 570 2
(0.5283207997 0.2358396001 0.2127736776 0.0230659225) 439 859 2
(0.1085696134 0.4457151933 0.4392595274 0.006455665919) 318 623 2
(0.1784148624 0.4107925688 0.3832722645 0.02752030433) 263 456 1
(0.9018966641 0.04905166794 0.0480496544 0.001002013545) 289 567 1
(0.7850366013 0.07478864374 0.03269305562 0.1074816994) 229 390 2
(0.4981741367 0.1986579304 0.05225500124 0.2509129317) 318 565 2
(0.2702353757 0.338205936 0.02667637618 0.3648823122) 470 864 2
(0.7487866294 0.125224869 0.1256066853 0.0003818162436) 142 278 2
(0.4054068064 0.2972965968 0.169864692 0.1274319048) 232 396 1
(0.3681143439 0.315942828 0.2672494326 0.04869339541) 531 1042 2
(0.1751447596 0.4124276202 0.05015224713 0.3622753731) 472 926 2
(0.8982537944 0.05087310281 0.02644804995 0.02442505285) 383 1268 2
(0.03951073734 0.2848795814 0.19536505 0.4802446313) 198 387 1
(0.5210325673 0.2394837164 0.1298674231 0.1096162933) 411 804 2
(0.3530279535 0.3234860232 0.1624669592 0.1610190641) 110 214 2
(0.2835725784 0.3582137108 0.3444827979 0.01373091296) 230 448 2
(0.4667413641 0.1319470178 0.1346823002 0.266629318) 443 810 2
(0.2467806393 0.3766096803 0.3541766034 0.0224330769) 230 392 1
(0.1254660615 0.1847834325 0.4372669692 0.2524835367) 203 397 2
(0.2530239713 0.1469228321 0.2265651822 0.3734880144) 533 987 2
(0.3926168162 0.1947172428 0.3036915919 0.1089743491) 413 810 2
(0.009239197856 0.4953804011 0.359826569 0.1355538321) 471 925 1
(0.3317041397 0.2775076221 0.3341479301 0.05664030801) 228 444 1
(0.4631087585 0.2684456207 0.1452048722 0.1232407485) 262 511 2
(0.2446535391 0.08351463771 0.3776732304 0.2941585927) 112 216 1
(0.1874713792 0.0128723667 0.4062643104 0.3933919437) 103 201 2
(0.1847105287 0.4076447357 0.3772463681 0.03039836758) 473 1271 2
(0.3557358941 0.322132053 0.1715473027 0.1505847503) 292 572 2
(0.6027669881 0.001246130427 0.198616506 0.1973703755) 113 220 2
(0.5421197144 0.2289401428 0.1280124771 0.1009276657) 467 916 2
(0.3746822528 0.1553095028 0.1573493708 0.3126588736) 142 219 2
(0.4935499285 0.2128067846 0.2532250358 0.04041825121) 561 1102 2
(0.3823489006 0.005048097941 0.3088255497 0.3037774518) 232 455 2
(0.4041101974 0.1781824874 0.2979449013 0.1197624139) 621 1220 2
(0.3017000165 0.3491499917 0.04724187223 0.3019081195) 351 630 1
(0.6706970306 0.07690154974 0.1646514847 0.08774993495) 413 808 1
(0.4374599882 0.2812700059 0.2058686271 0.07540137874) 473 928 1
(0.0418475172 0.05185100907 0.4272252323 0.4790762414) 263 1264 1
(0.395636857 0.3021815715 0.2602877993 0.04189377221) 383 751 1
(0.8770517796 0.06147411019 0.02339180355 0.03808230664) 261 512 1
(0.3011613527 0.3494193237 0.3415303132 0.00788901044) 291 568 2
(0.08933941411 0.4553302929 0.3366082266 0.1187220664) 170 333 1
(0.2758137391 0.3441845908 0.3620931304 0.01790853961) 230 451 2
(0.07642862845 0.0005134547013 0.4617856858 0.4612722311) 137 268 2
(0.06905753749 0.1920823811 0.2733888501 0.4654712313) 110 156 2
(0.4152215127 0.2923892436 0.01454399344 0.2778452502) 409 744 1
(0.01157729001 0.494211355 0.1496653876 0.3445459674) 199 331 1
(0.37950738 0.2523178208 0.05792848921 0.31024631) 83 104 2
(0.1270895241 0.4364552379 0.1114792451 0.3249759929) 498 975 2
(0.492625055 0.03864242452 0.2536874725 0.215045048) 562 1101 1
(0.7931458688 0.08076864286 0.1034270656 0.02265842273) 473 926 1
(0.2654089258 0.3672955371 0.1177310627 0.2495644743) 143 279 1
(0.5272679523 0.1811971792 0.05516884465 0.2363660239) 260 509 1
(0.08326082556 0.06332690788 0.4583695872 0.3950426793) 650 1249 1
(0.1828158396 0.02671166714 0.3818804131 0.4085920802) 141 217 2
(0.8958398153 0.02369294964 0.05208009237 0.02838714273) 3 3 1
(0.36553315 0.317233425 0.3141918406 0.003041584348) 322 631 2
(0.6358463428 0.1820768286 0.02671436169 0.1553624669) 81 155 2
(0.03366439743 0.4831678013 0.2626021792 0.220565622) 142 278 1
(0.09481417387 0.2712358444 0.4525929131 0.1813570686) 471 925 2
(0.04580664429 0.4770966779 0.140146852 0.3369498259) 202 337 1
(0.3753298105 0.306544345 0.005790749815 0.3123350948) 623 1164 2
(0.2395943692 0.3802028154 0.03495801729 0.3452447981) 353 633 1
(0.07949708128 0.4591838196 0.4602514594 0.001067639726) 80 156 2
(0.3647030942 0.1420607366 0.3176484529 0.1755877164) 653 1252 1
(0.1975508444 0.4012245778 0.3517022481 0.04952232973) 349 626 1
(0.3045199365 0.03161642588 0.3161236059 0.3477400317) 111 158 2
(0.3503387384 0.3248306308 0.263161537 0.06166909376) 142 277 2
(0.08507856409 0.2044516432 0.457460718 0.2530090748) 137 265 1
(0.05992151778 0.3780624904 0.09197675071 0.4700392411) 593 1275 1
(0.2584306892 0.09204830246 0.2787363529 0.3707846554) 503 928 2
(0.4683710456 0.2658144772 0.155403228 0.1104112492) 353 690 2
(0.0642623824 0.4678688088 0.2112654708 0.256603338) 172 334 2
(0.002894726559 0.4985526367 0.2946770183 0.2038756184) 442 865 2
(0.5238170029 0.02025314981 0.2380914986 0.2178383487) 379 744 2
(0.04761690155 0.2343231478 0.4761915492 0.2418684015) 413 810 2
(0.1001856414 0.2095646041 0.2403425752 0.4499071793) 561 1101 1
(0.2500233885 0.3749883057 0.3242085258 0.05077977997) 473 926 2
(0.01736715808 0.4427364866 0.04857993438 0.491316421) 83 1258 1
(0.4104906189 0.2947546906 0.2605265287 0.03422816184) 263 1264 2
(0.02174801826 0.3817789796 0.1073470113 0.4891259909) 532 986 2
(0.01176832574 0.4941158371 0.4481911924 0.04592464473) 588 1154 2
(0.2409421719 0.379528914 0.1282156916 0.2513132225) 653 1277 2
(0.5949472132 0.173004685 0.2025263934 0.02952170841) 23 41 1
(0.7894046159 0.1052976921 0.02908501816 0.07621267392) 411 806 2
(0.6145490015 0.07865007847 0.1927254992 0.1140754208) 413 808 1
(0.2761153524 0.2532699548 0.108672369 0.3619423238) 352 690 1
(0.1969888893 0.4015055554 0.3612827854 0.04022276996) 530 1040 2
(0.02794941586 0.02103467809 0.4860252921 0.464990614) 107 209 2
(0.7266716314 0.1366641843 0.1235264631 0.01313772121) 648 1214 1
(0.02434784694 0.3622085417 0.1256175349 0.4878260765) 203 338 2
(0.8268259487 0.0530111306 0.08658702563 0.03357589503) 142 278 2
(0.3881576613 0.3059211694 0.1717976467 0.1341235227) 196 384 1
(0.3527787206 0.2852469845 0.3236106397 0.03836365519) 53 100 1
(0.238104212 0.2781276819 0.102820212 0.380947894) 622 1163 2
(0.3559488872 0.3220255564 0.2408475971 0.08117795934) 439 861 2
(0.02517068395 0.2444818587 0.2429327993 0.487414658) 48 92 1
(0.1947030007 0.2508366734 0.1518118263 0.4026484996) 83 104 2
(0.3234719643 0.02642754465 0.3118364732 0.3382640178) 348 682 1
(0.2800254362 0.2278374034 0.1321498785 0.3599872819) 252 493 1
(0.09654356495 0.4374764228 0.01425179468 0.4517282175) 260 451 2
(0.3016799454 0.1619926553 0.187167372 0.3491600273) 293 515 2
(0.02642650224 0.3320342554 0.4867867489 0.1547524935) 142 278 2
(0.2016717912 0.3991641044 0.2105663704 0.188597734) 230 451 1
(0.7811003378 0.1094498311 0.08573607465 0.02371375646) 113 220 1
(0.0710164481 0.4462722992 0.464491776 0.01821947672) 288 565 2
(0.3286037386 0.3356981307 0.03450141779 0.3011967129) 54 104 1
(0.04435874733 0.4778206263 0.419450018 0.0583706083) 440 863 2
(0.4359459339 0.2820270331 0.04643100796 0.2355960251) 559 1098 1
(0.1738530599 0.3149287425 0.09814472756 0.4130734701) 202 395 1
(0.4419207787 0.2790396107 0.2002030582 0.0788365525) 411 748 1
(0.1027983334 0.4486008333 0.1067745119 0.3418263214) 321 571 1
(0.1565458317 0.4217270841 0.1108998639 0.3108272203) 319 567 1
(0.03768438521 0.2463268217 0.2348309857 0.4811578074) 533 1273 1
(0.1960335256 0.4019832372 0.0510260307 0.3509572065) 110 212 2
(0.3830006138 0.2004725827 0.1080271104 0.3084996931) 23 43 1
(0.6836654091 0.1581672954 0.04679613568 0.1113711598) 143 1260 2
(0.5466075008 0.1989839537 0.2266962496 0.02771229584) 353 690 1
(0.3001999065 0.3499000467 0.002722581807 0.3471774649) 140 273 2
(0.2019444547 0.3990277726 0.1725544122 0.2264733604) 279 488 1
(0.4852092681 0.09422048663 0.1631748793 0.2573953659) 593 1275 1
(0.7172716833 0.1413641583 0.02509761965 0.1162665387) 230 392 1
(0.2265327111 0.01624334347 0.3867336445 0.370490301) 321 627 1
(0.2403424996 0.3798287502 0.0086834668 0.3711452834) 137 209 1
(0.4429869505 0.2785065247 0.2017663325 0.07674019224) 109 154 1
(0.08811929457 0.3744101314 0.4559403527 0.08153022126) 231 450 1
(0.103010218 0.448494891 0.002146399089 0.4463484919) 353 633 1
(0.4323605197 0.02756353033 0.2838197401 0.2562562098) 203 397 2
(0.2699106417 0.3650446791 0.3050507735 0.05999390563) 291 568 2
(0.6576367218 0.1711816391 0.07968399415 0.09149764494) 502 927 1
(0.513254981 0.1070189595 0.13635355 0.2433725095) 262 513 1
(0.1558731459 0.422063427 0.2461209922 0.1759424348) 440 863 2
(0.7097079021 0.145146049 0.0712013735 0.07394467547) 470 923 1
(0.2696291324 0.2813957394 0.08378969444 0.3651854338) 353 633 2
(0.3921070929 0.3039464535 0.06324335197 0.2407031016) 443 1270 2
(0.009268323331 0.4953658383 0.3675604836 0.1278053547) 258 505 2
(0.5675242757 0.05040422433 0.1658336378 0.2162378622) 413 751 2
(0.3575973875 0.1016273191 0.2195739871 0.3212013063) 139 271 1
(0.3009510276 0.3495244862 0.1033349865 0.2461894997) 113 1259 2
(0.2604804826 0.06381807569 0.3697597587 0.305941683) 531 1043 2
(0.6071110706 0.1964444647 0.05694610352 0.1394983612) 590 1156 2
(0.2972560837 0.3513719582 0.1534997862 0.197872172) 172 336 2
(0.3041118738 0.2723462185 0.3479440631 0.07559784457) 78 152 2
(0.6620155075 0.1689922463 0.1569475309 0.0120447154) 526 974 1
(0.09772246342 0.4511387683 0.3165314121 0.1346073561) 561 1099 2
(0.182452159 0.4087739205 0.04384640888 0.3649275116) 47 88 2
(0.3254156936 0.3372921532 0.2751291908 0.06216296239) 383 751 1
(0.2881625847 0.2066674799 0.1492512277 0.3559187076) 256 501 1
(0.5160426608 0.2419786696 0.1174051406 0.124573529) 141 276 1
(0.172368455 0.4138157725 0.3834780296 0.03033774289) 320 627 2
(0.09510391295 0.4524480435 0.08247199916 0.3699760444) 261 511 2
(0.3261147475 0.3369426262 0.1335898905 0.2033527357) 651 1305 1
(0.09488146629 0.3052107758 0.147348491 0.4525592669) 441 865 1
(0.1843617544 0.4078191228 0.1003726509 0.3074464719) 318 621 2
(0.1171272757 0.4414363622 0.1419747416 0.2994616206) 381 748 1
(0.4651827514 0.1230615645 0.1443470598 0.2674086243) 227 386 2
(0.2012309724 0.3993845138 0.3555079291 0.04387658466) 442 809 1
(0.6253444725 0.1873277637 0.1035880282 0.08373973549) 351 630 1
(0.1317515201 0.19844221 0.43412424 0.2356820299) 263 513 1
(0.8595759001 0.03824517914 0.03196687079 0.07021204993) 78 151 1
(0.5618831946 0.2190584027 0.0137239876 0.2053344151) 471 925 1
(0.5542665187 0.2228667406 0.2113194572 0.01154728346) 13 22 2
(0.4947092742 0.2526453629 0.1073155734 0.1453297895) 232 452 2
(0.4084707056 0.2731573921 0.0226072551 0.2957646472) 621 1161 2
(0.2891113884 0.3554443058 0.1913652815 0.1640790243) 29 55 2
(0.2959051719 0.3520474141 0.193270457 0.1587769571) 78 151 2
(0.5120186055 0.2439906972 0.2260464664 0.0179442308) 200 392 1
(0.3522207794 0.002854395592 0.3210352147 0.3238896103) 473 869 2
(0.6510603677 0.1018124979 0.1744698162 0.07265731832) 142 275 1
(0.03520275609 0.2315181368 0.482398622 0.2508804852) 262 514 2
(0.1522277428 0.2576281769 0.1662579517 0.4238861286) 653 1223 2
(0.03887604325 0.4805619784 0.4042326161 0.0763293623) 383 1268 2
(0.6332896549 0.1272795174 0.1833551725 0.05607565518) 142 275 1
(0.1342380873 0.4328809564 0.09531176933 0.337569187) 496 971 2
(0.002655735466 0.4986721323 0.01208116021 0.4865909721) 79 153 2
(0.6296202576 0.05488226907 0.1851898712 0.1303076021) 471 922 1
(0.4019428084 0.2990285958 0.0810290015 0.2179995943) 32 1256 2
(0.07835243143 0.1787903597 0.4608237843 0.2820334246) 439 859 1
(0.06487828181 0.4675608591 0.3991832504 0.0683776087) 290 569 1
(0.1838273953 0.4080863023 0.1455149099 0.2625713925) 230 448 2
(0.6495665674 0.08557857465 0.08963814167 0.1752167163) 621 1161 2
(0.2306376402 0.3846811799 0.01978968622 0.3648914937) 170 332 2
(0.2906439908 0.3546780046 0.07473818077 0.2799398238) 382 750 1
(0.2309535792 0.08651718459 0.3845232104 0.2980060258) 443 867 1
(0.5121422327 0.2439288837 0.03840177745 0.2055271062) 380 746 1
(0.1439154125 0.0631227082 0.3649195856 0.4280422938) 532 1044 1
(0.4722177999 0.2638911001 0.1586281697 0.1052629304) 109 213 1
(0.3679022508 0.3160488746 0.05137073876 0.2646781358) 290 568 2
(0.3484626353 0.2366560969 0.08911258546 0.3257686824) 323 574 2
(0.2963517455 0.3518241273 0.2737487886 0.07807533872) 80 153 2
(0.2744362048 0.3627818976 0.002425048864 0.3603568487) 51 56 1
(0.478092054 0.260953973 0.09377494892 0.1671790241) 648 1248 2
(0.6417599455 0.1467333252 0.1791200272 0.03238670204) 199 387 1
(0.3247972504 0.1905940468 0.3376013748 0.147007328) 412 806 1
(0.1645450252 0.1225964711 0.2951310163 0.4177274874) 30 57 1
(0.08539439387 0.1929084553 0.2643943477 0.4573028031) 411 748 2
(0.3732125615 0.3133937192 0.1570865202 0.156307199) 171 276 1
(0.1384106607 0.04177378003 0.4307946697 0.3890208896) 381 745 1
(0.03220444279 0.3108553506 0.173042428 0.4838977786) 532 1044 1
(0.1268672063 0.3090081674 0.1275582295 0.4365663968) 440 863 1
(0.2237700696 0.3881149652 0.1188303017 0.2692846636) 231 394 1
(0.7592578185 0.1203710908 0.05534076824 0.06503032252) 288 564 2
(0.5025981395 0.2487009303 0.1677149306 0.08098599967) 378 742 1
(0.2986457829 0.2618287288 0.3506771085 0.08884837971) 352 691 2
(0.3703451078 0.2931749929 0.02165245322 0.3148274461) 617 1153 2
(0.0445659467 0.3760067782 0.1017102485 0.4777170266) 261 511 1
(0.3222345749 0.08731942356 0.251563289 0.3388827125) 200 391 1
(0.3779244469 0.277385024 0.3110377766 0.03365275255) 473 926 1
(0.6776211481 0.161189426 0.1544240204 0.00676540557) 80 155 2
(0.2970721444 0.08397195143 0.2674919764 0.3514639278) 412 750 2
(0.2424528695 0.3787735653 0.008082731223 0.3706908341) 15 26 2
(0.1448126401 0.42759368 0.1298168387 0.2977768413) 52 58 1
(0.1291783681 0.1842036808 0.4354108159 0.2512071351) 437 858 2
(0.2410020468 0.3794989766 0.1893447111 0.1901542655) 620 1217 2
(0.6760746787 0.03456108796 0.1619626606 0.1274015727) 260 510 2
(0.06819199157 0.4659040042 0.2356151748 0.2302888295) 200 391 2
(0.09047441659 0.3322864755 0.1224763162 0.4547627917) 228 388 2
(0.000891961973 0.499554019 0.1253235379 0.3742304811) 260 507 2
(0.5102480955 0.09798360123 0.146892351 0.2448759522) 12 2 2
(0.4406411998 0.1960290009 0.08365039919 0.2796794001) 261 511 1
(0.1429186703 0.4285406649 0.04785847058 0.3806821943) 411 804 2
(0.04057949529 0.1272187623 0.4797102524 0.3524914901) 651 1250 1
(0.3389204446 0.1902568213 0.1402829564 0.3305397777) 349 684 1
(0.2964364915 0.2319417703 0.119839984 0.3517817543) 201 335 2
(0.2016598387 0.2365168071 0.3991700807 0.1626532735) 261 512 2
(0.4096879415 0.2951560292 0.214734155 0.08042187428) 650 1304 1
(0.5612232291 0.2193883855 0.1633613253 0.05602706012) 351 686 2
(0.1918001009 0.3820574625 0.02204248707 0.4040999495) 259 449 2
(0.6879309027 0.1560345487 0.03030546171 0.125729087) 259 507 2
(0.6186953007 0.1576047175 0.1906523496 0.03304763219) 350 684 1
(0.08127890012 0.4593605499 0.1385153565 0.3208451934) 347 678 2
(0.006868371137 0.4965658144 0.1511350334 0.345430781) 203 397 1
(0.4514117304 0.2286043725 0.2742941348 0.04568976232) 407 796 1
(0.4565572366 0.0181007532 0.2536206285 0.2717213817) 559 1039 2
(0.6859006335 0.1570496832 0.04052159112 0.1165280921) 440 864 1
(0.3627695238 0.3186152381 0.08918037848 0.2294348596) 289 564 2
(0.625446855 0.1642941854 0.1872765725 0.02298238708) 141 276 2
(0.2167127481 0.3916436259 0.3709958932 0.02064773269) 351 630 1
(0.3974628254 0.02866180874 0.3012685873 0.2726067786) 171 335 2
(0.2584841062 0.3707579469 0.1872974423 0.1834605046) 413 810 1
(0.352557641 0.2125901818 0.3237211795 0.1111309977) 15 29 2
(0.4197270251 0.2771466707 0.01298981678 0.2901364875) 172 278 2
(0.03098510246 0.06053319509 0.4845074488 0.4239742537) 293 574 2
(0.2455170754 0.3772414623 0.2894241301 0.08781733222) 292 570 2
(0.8842351164 0.05788244182 0.05172695497 0.006155486848) 142 278 1
(0.3293347096 0.3353326452 0.3333664316 0.001966213628) 383 749 2
(0.2380178492 0.3809910754 0.06466000644 0.316331069) 110 214 2
(0.1718440698 0.004280374145 0.409797591 0.4140779651) 435 853 1
(0.6326242389 0.1564685494 0.02721933114 0.1836878805) 562 1045 2
(0.193766151 0.1299837872 0.2731331373 0.4031169245) 170 274 2
(0.432522633 0.2837386835 0.257111378 0.02662730552) 383 749 2
(0.9015632312 0.01778718579 0.04921838439 0.03143119861) 410 805 2
(0.4063600518 0.212084126 0.2968199741 0.08473584807) 259 505 1
(0.4788636993 0.03603675373 0.2605681503 0.2245313966) 409 800 1
(0.2011498805 0.1235142217 0.2759108381 0.3994250598) 531 1042 1
(0.372961512 0.313519244 0.2380724864 0.07544675762) 618 1155 1
(0.1519948023 0.4240025989 0.1563859943 0.2676166046) 141 273 2
(0.1569161614 0.4215419193 0.2058565421 0.2156853772) 377 737 2
(0.4708599491 0.2645700255 0.07954621937 0.1850238061) 143 279 1
(0.1010051413 0.05111951372 0.3983779156 0.4494974294) 53 102 1
(0.01186261644 0.4940686918 0.1888947961 0.3051738956) 498 977 2
(0.09158638721 0.4542068064 0.2573962968 0.1968105096) 440 864 1
(0.08129127933 0.1921423278 0.4593543603 0.2672120325) 412 806 1
(0.6239265045 0.09514336228 0.1880367477 0.09289338546) 381 745 1
(0.08866090365 0.4556695482 0.3140172272 0.141652321) 375 736 1
(0.5414716244 0.1555656018 0.2292641878 0.07369858596) 348 680 1
(0.3548066302 0.3225966849 0.1226870875 0.1999095974) 142 277 2
(0.008605402916 0.4078976921 0.4956972985 0.08779960647) 560 1097 1
(0.6132138239 0.193393088 0.1142993854 0.07909370262) 612 1199 2
(0.252107518 0.373946241 0.1992340661 0.1747121749) 441 807 1
(0.009755762349 0.2672349195 0.2278871993 0.4951221188) 381 689 2
(0.3330135449 0.3334932275 0.2539526907 0.07954053684) 407 799 1
(0.3190056194 0.3404971903 0.02406032893 0.3164368614) 412 808 2
(0.5778557307 0.03560446455 0.2110721346 0.1754676701) 352 691 2
(0.2395847587 0.159643967 0.3802076207 0.2205636536) 201 391 1
(0.2978805138 0.3510597431 0.02506758703 0.325992156) 293 574 1
(0.01365884725 0.3718998645 0.1212707119 0.4931705764) 231 394 2
(0.575941026 0.03447828026 0.212029487 0.1775512067) 322 632 2
(0.3198400208 0.3400799896 0.1021698608 0.2379101288) 500 982 1
(0.1578970611 0.4210514695 0.03051524276 0.3905362267) 200 333 1
(0.1198780959 0.07592670032 0.4400609521 0.3641342517) 263 513 1
(0.127269201 0.08622931427 0.4363653995 0.3501360852) 29 56 2
(0.2252823955 0.3873588023 0.004760943294 0.382597859) 443 869 1
(0.5333561219 0.233321939 0.2205557909 0.01276614816) 530 1040 2
(0.1197347746 0.4401326127 0.2518148896 0.1883177231) 382 750 1
(0.1188286 0.01128051642 0.4405857 0.4293051836) 167 327 2
(0.03604079312 0.4819796034 0.0739058068 0.4080737966) 203 338 1
(0.1492317893 0.1528386894 0.4253841053 0.272545416) 171 335 2
(0.1710962682 0.4144518659 0.07987066055 0.3345812054) 289 566 2
(0.6227889646 0.1886055177 0.1062023184 0.08240319931) 291 568 2
(0.1384270706 0.2005827867 0.4307864647 0.230203678) 52 101 2
(0.4807172656 0.2596413672 0.2341269663 0.02551440093) 16 9 1
(0.7400169444 0.09731395643 0.1299915278 0.03267757137) 112 216 1
(0.06994932442 0.453403656 0.4650253378 0.01162168182) 408 801 2
(0.5447618911 0.2276190545 0.01200968656 0.2156093679) 231 453 1
(0.1821939189 0.4089030405 0.4057606981 0.003142342425) 341 666 2
(0.03855122245 0.4807243888 0.1620684762 0.3186559126) 349 685 1
(0.132246431 0.4046813453 0.4338767845 0.02919543922) 258 503 1
(0.7919140461 0.08334045799 0.104042977 0.02070251898) 527 1032 1
(0.3393339819 0.2265995491 0.10373346 0.3303330091) 257 503 1
(0.4254316993 0.002418372666 0.2848657777 0.2872841504) 262 455 2
(0.827604858 0.08619757102 0.05221026905 0.03398730197) 81 101 1
(0.705410442 0.147294779 0.09914520583 0.04814957319) 31 29 1
(0.5622677796 0.2188661102 0.204711516 0.01415459415) 257 501 2
(0.06138585405 0.2510174802 0.2182895928 0.469307073) 590 1158 1
(0.6432961911 0.1565911391 0.1783519044 0.02176076532) 292 570 1
(0.3089965654 0.3455017173 0.02454968155 0.3209520358) 377 739 2
(0.8446089235 0.07769553823 0.04540313164 0.03229240659) 531 984 1
(0.163183491 0.2158417605 0.202566494 0.4184082545) 500 981 1
(0.1863895409 0.1298256812 0.4068052296 0.2769795484) 319 623 1
(0.7389350924 0.1305324538 0.1184074543 0.01212499953) 293 572 2
(0.4177314796 0.2911342602 0.09372377313 0.1974104871) 502 985 2
(0.3965872318 0.3017063841 0.1568852613 0.1448211228) 49 52 1
(0.7295749709 0.1060394326 0.02917308191 0.1352125145) 168 328 1
(0.1891931575 0.4054034212 0.2830582435 0.1223451778) 442 867 2
(0.7838874758 0.1080562621 0.01624325796 0.09181300414) 470 920 2
(0.08141291354 0.102897893 0.3563956502 0.4592935432) 472 868 2
(0.5126905243 0.2436547379 0.07990263715 0.1637521007) 562 1104 1
(0.5074189416 0.2462905292 0.07781351607 0.1684770131) 257 504 1
(0.6534278145 0.1412018363 0.1732860928 0.03208425649) 412 809 2
(0.03393186512 0.4830340674 0.3928677075 0.09016635993) 314 615 2
(0.5693462811 0.04082893626 0.2153268595 0.1744979232) 143 279 2
(0.5906070658 0.2046964671 0.1407456136 0.06395085343) 380 687 1
(0.5817555665 0.2091222167 0.02490748985 0.1842147269) 201 393 2
(0.2580130358 0.3364501965 0.03454328556 0.3709934821) 499 979 1
(0.1327912893 0.3064650183 0.4336043553 0.127139337) 233 456 2
(0.2705432922 0.1622794515 0.3647283539 0.2024489024) 79 154 2
(0.5993286754 0.2003356623 0.06181816732 0.138517495) 196 325 1
(0.405153817 0.06506599723 0.2323570943 0.2974230915) 351 688 1
(0.06273953626 0.1638457761 0.4686302319 0.3047844558) 140 274 2
(0.05701434335 0.4714928283 0.2980055158 0.1734873125) 73 142 1
(0.00201145903 0.3364156259 0.4989942705 0.1625786446) 532 1042 1
(0.3319821869 0.3340089065 0.07283239783 0.2611765087) 411 748 1
(0.4375005582 0.2812497209 0.03070711781 0.2505426031) 498 975 2
(0.04916358525 0.4754182074 0.2537372834 0.221680924) 262 455 1
(0.1875237229 0.03740518418 0.3688329544 0.4062381385) 349 626 2
(0.04296918572 0.4785154071 0.4549014982 0.02361390897) 438 860 1
(0.1419370644 0.2980683766 0.1309630913 0.4290314678) 197 385 1
(0.002505003832 0.4114472002 0.08730029791 0.4987474981) 260 509 1
(0.2250184134 0.3874907933 0.274683693 0.1128071003) 196 381 2
(0.5000739126 0.01015586435 0.2499630437 0.2398071793) 352 688 1
(0.05871824388 0.1374251011 0.333215777 0.4706408781) 139 213 2
(0.4494996408 0.2664638138 0.2752501796 0.008786365831) 382 747 1
(0.3696204877 0.3151897562 0.08541194218 0.229777814) 31 57 2
(0.1257811602 0.4371094199 0.007419637414 0.4296897825) 140 271 2
(0.166523949 0.4167380255 0.04817168798 0.3685663375) 171 276 1
(0.3385377511 0.3307311245 0.09465986809 0.2360712564) 231 453 1
(0.154618489 0.1695809728 0.2531097827 0.4226907555) 108 210 1
(0.1883239668 0.3305975518 0.4058380166 0.07524046482) 110 212 1
(0.5387880542 0.2306059729 0.04407358549 0.1865323874) 111 158 1
(0.1160223486 0.4419888257 0.4195924374 0.02239638831) 347 622 1
(0.2450349109 0.3774825445 0.1999564657 0.1775260788) 259 505 2
(0.5585386083 0.1533826906 0.0673480052 0.2207306958) 293 515 2
(0.3693938602 0.1886384648 0.1266646051 0.3153030699) 441 807 2
(0.1011971207 0.4494014397 0.1486862383 0.3007152014) 107 209 1
(0.01661968364 0.4916901582 0.3975740981 0.09411606007) 532 1045 1
(0.2078173976 0.3960913012 0.05196911751 0.3441221837) 5 1254 2
(0.288184738 0.355907631 0.1877354945 0.1681721365) 200 392 1
(0.5963626765 0.1290182732 0.07280038849 0.2018186617) 225 440 1
(0.3144180123 0.1090306926 0.3427909938 0.2337603012) 232 455 2
(0.2058061105 0.3970969447 0.05159677948 0.3455001653) 263 515 1
(0.8184094825 0.05531747074 0.035477788 0.09079525874) 139 271 1
(0.08222661104 0.4588866945 0.1179454999 0.3409411946) 436 855 2
(0.2430415215 0.2705318082 0.3784792393 0.107947431) 172 337 2
(0.4602423353 0.1497830245 0.1200958078 0.2698788323) 25 47 1