/*--------------------------------*- C++ -*----------------------------------*\
| =========                 |                                                 |
| \\      /  F ield         | OpenFOAM: The Open Source CFD Toolbox           |
|  \\    /   O peration     | Version:  2406                                  |
|   \\  /    A nd           | Website:  www.openfoam.com                      |
|    \\/     M anipulation  |                                                 |
\*---------------------------------------------------------------------------*/
FoamFile
{
    version     2.0;
    format      ascii;
    arch        "LSB;label=32;scalar=64";
    class       scalarField;
    location    "0.003/lagrangian/dsmc";
    object      Ei;
}
// * * * * * * * * * * * * * * * * * * * * * * * * * * * * * * * * * * * * * //


6146
(
9.105285162e-21
4.119657733e-21
7.462828094e-21
3.036455756e-21
7.354765976e-22
4.233624449e-21
1.733513973e-21
5.72803516e-21
2.350566984e-20
3.249484881e-23
1.212849294e-20
1.549465452e-21
2.099035547e-21
1.107565701e-20
1.35908122e-21
1.529447166e-21
9.691353356e-21
2.419145241e-21
7.130433016e-21
2.136577982e-21
4.913834631e-21
2.107954485e-20
9.773674055e-22
6.020935234e-21
2.931778099e-22
1.218436709e-21
1.698497668e-20
1.642945829e-20
1.794507919e-20
3.86938766e-21
4.899039852e-21
7.070057347e-21
6.253100237e-21
3.395270962e-21
1.024560768e-20
5.32371336e-21
3.767539038e-21
7.757246977e-21
1.53400928e-21
2.585710845e-21
9.994068953e-22
9.346212471e-22
3.059692896e-21
1.554501172e-21
5.684553399e-21
4.212975459e-21
2.994873035e-21
6.295128663e-22
5.330838561e-21
8.436840981e-23
7.929642235e-21
1.031535341e-20
1.519135628e-20
6.091518531e-21
3.290090044e-20
5.61996366e-21
2.91804719e-21
7.336461591e-21
1.294631525e-20
9.51044418e-22
1.00378141e-20
2.10513904e-21
4.985135215e-21
9.528823773e-21
4.607372941e-21
1.657305799e-20
1.870789779e-21
1.942484922e-21
2.323654843e-20
4.058918621e-21
1.203856743e-20
1.547550877e-21
5.490889534e-21
4.095408888e-21
9.234579516e-21
1.860199135e-21
3.477486407e-22
3.698612004e-21
2.332995376e-21
1.57729672e-21
2.084625875e-21
8.175671222e-22
1.569089578e-21
4.830621087e-21
1.016310425e-21
1.13766051e-21
4.287244724e-21
8.499993379e-21
1.249178558e-20
1.696463623e-21
2.527917522e-22
4.335943368e-21
4.368175962e-21
7.983499499e-22
5.976844387e-21
2.545752476e-21
1.933705351e-20
1.503401951e-20
7.953133032e-22
7.833090966e-21
5.397177015e-21
5.78927407e-21
3.416153394e-23
2.198552377e-21
5.325856912e-22
1.790238326e-21
6.161154525e-21
5.241427052e-21
4.547766283e-21
1.02145689e-21
7.630729241e-22
1.40832878e-20
9.694839525e-22
1.62284746e-21
1.111399141e-20
1.357054986e-20
1.114476426e-20
5.381675894e-24
2.622707688e-21
1.69095826e-20
4.168559762e-21
2.674263013e-21
4.413840439e-21
5.979649494e-22
2.813583211e-21
1.023709551e-20
7.60849706e-21
2.286508096e-20
8.021662597e-21
1.388043126e-20
2.172915617e-20
1.04732237e-20
8.55649738e-22
3.000298749e-20
3.341696733e-21
1.169139637e-20
1.834967977e-20
4.011930254e-21
6.359109194e-22
6.413898392e-22
6.177818748e-21
3.282200369e-21
2.144856184e-21
1.890668859e-21
2.263318658e-21
2.756835237e-21
1.817749325e-22
1.544282824e-21
1.797788573e-20
4.716622902e-21
8.988318457e-22
2.308282114e-21
3.868487563e-21
1.098243349e-20
6.10563304e-20
2.51427601e-21
2.812657778e-22
3.812060244e-21
1.712143971e-20
2.071038436e-21
5.068476262e-21
5.081937477e-21
5.734842197e-21
1.384576595e-21
2.249230033e-22
6.869257956e-22
3.166388176e-21
2.954548634e-21
2.051106437e-21
8.166721811e-21
3.503400021e-21
1.257058341e-21
1.916689668e-21
2.772397604e-21
2.491513427e-21
8.841303983e-21
8.297265127e-21
1.43125643e-20
3.775605706e-22
7.611447126e-21
3.138029549e-21
1.737066106e-20
1.081749524e-20
1.197153382e-22
5.076377712e-21
8.86915525e-21
1.276500105e-20
1.607914197e-22
8.965802539e-21
5.676714233e-21
8.02867913e-21
2.426781388e-21
9.738350477e-21
3.968978573e-21
4.392452888e-21
1.128080323e-20
1.630847384e-21
5.709085691e-21
3.851412049e-21
1.051190949e-20
1.09958492e-21
4.169038312e-21
9.325830004e-22
1.520987475e-22
1.948688314e-20
1.651406611e-20
1.020083088e-21
8.924257719e-21
1.556824892e-23
1.016705586e-20
7.334752895e-21
1.579814289e-21
8.419658153e-22
9.118602454e-21
8.904151887e-22
5.423345293e-22
7.796166677e-21
2.971079306e-21
3.90494505e-21
2.299795728e-23
2.506452042e-21
2.211848314e-22
9.944923568e-22
2.279785588e-20
1.818233666e-21
7.237094051e-21
1.825852408e-21
1.340305803e-20
1.342183054e-21
6.044996663e-21
2.259236123e-20
5.111460384e-21
6.09480389e-21
8.681404065e-21
2.947490675e-21
1.176025872e-21
5.90841055e-21
1.450346732e-20
8.20960178e-21
1.801596592e-20
4.283045283e-21
1.114545318e-21
1.495096557e-21
4.562126316e-22
7.145007687e-24
2.802740771e-21
7.717982075e-21
1.099121628e-20
1.820575863e-20
4.142612952e-21
1.486893273e-21
3.482871021e-21
4.62153173e-21
2.276766904e-21
1.084112166e-21
1.487615272e-21
4.889459781e-21
4.815520389e-21
3.359708196e-21
5.446674496e-23
6.966550877e-21
1.183416075e-20
2.518976344e-21
3.338476526e-21
2.014935254e-21
3.456780268e-21
7.449578035e-21
5.957162782e-22
4.076817899e-21
4.53401821e-21
2.840130044e-21
4.566641954e-21
1.87088814e-20
9.046349815e-21
3.91147791e-21
3.416248622e-21
6.934002357e-22
9.088637608e-21
1.484962232e-20
1.486563274e-20
1.092392903e-20
9.122754959e-21
2.869887241e-21
4.527862135e-21
2.633186678e-21
3.96071015e-21
3.070534325e-21
2.006003529e-21
7.831692862e-21
6.12044567e-21
6.473939045e-21
4.53625394e-21
1.129450897e-21
1.096029313e-21
2.01915048e-21
2.464400163e-21
1.005853972e-20
1.994155607e-21
2.255191183e-22
2.58201027e-21
1.040268296e-21
6.387907144e-23
3.093408708e-21
5.415617014e-21
3.65344335e-21
1.085441235e-22
8.081281403e-21
6.962220411e-23
1.427689413e-21
6.15740304e-21
8.152360106e-21
6.86315469e-22
1.430632306e-21
4.691329502e-22
4.422671592e-21
2.43972386e-21
1.654250599e-21
3.808903231e-21
2.054256966e-20
8.827542849e-22
2.554859134e-21
3.265446377e-21
2.518984718e-22
4.94743437e-21
6.818006581e-21
9.440160396e-21
1.763269166e-20
1.867236097e-21
1.615241553e-22
2.497446242e-21
9.79138534e-21
1.270396287e-20
1.587329109e-21
7.514013082e-22
3.29205697e-21
6.796041686e-21
4.722832006e-21
6.658656506e-21
6.360672581e-22
1.817336898e-22
9.771210669e-22
1.926127011e-21
2.309279801e-22
3.334351821e-21
9.520084512e-24
5.896016302e-21
1.449398624e-21
4.83752353e-21
2.359683556e-22
1.761013872e-21
1.687904844e-20
5.424550092e-21
7.176438119e-21
7.586931799e-22
1.120390428e-21
8.777603224e-22
4.255601383e-21
5.628773538e-21
3.87750777e-22
1.384835999e-20
2.45301207e-21
6.2416134e-21
9.091611948e-22
4.813284217e-22
2.048228994e-21
2.6166278e-22
3.29664841e-22
5.854840421e-21
5.009196411e-21
1.4795947e-21
2.801820603e-21
5.241747876e-21
2.467922911e-21
2.13842094e-20
5.337748016e-21
3.126627002e-21
9.648215358e-21
2.088238864e-21
4.444387922e-21
1.151159658e-20
8.434125796e-23
8.239671605e-22
2.734844017e-21
7.317643586e-22
2.24911907e-21
5.25261758e-21
4.577259469e-21
1.301650401e-21
1.331346881e-21
2.648862698e-21
2.358252531e-21
3.444331796e-21
5.074711224e-21
1.83347984e-21
1.876691764e-21
4.86292624e-22
9.747474871e-21
2.148037588e-21
7.688356228e-22
3.677003087e-21
3.665555872e-21
7.808768468e-23
2.326495145e-21
1.597244491e-21
4.912884622e-21
8.780799682e-21
4.827535869e-22
6.557220633e-22
2.59510492e-20
3.0110287e-22
2.899856912e-21
9.196872025e-22
2.495344296e-20
2.010464243e-21
4.595030489e-21
3.531078149e-21
1.566585879e-20
2.531436246e-21
6.868106854e-21
9.006400863e-22
3.767546807e-21
2.352442333e-21
9.306808471e-22
2.892318021e-21
8.216233806e-21
5.885186732e-21
4.938921612e-22
5.706728156e-21
1.756352362e-21
5.659567444e-21
1.176078288e-20
1.889671425e-21
3.476280713e-21
2.009599992e-22
9.3241821e-21
2.339006679e-21
1.537971223e-24
1.089919486e-20
8.39255007e-21
1.858992799e-20
7.044341344e-21
3.78513708e-22
2.252563155e-20
5.168904759e-22
2.268513612e-21
1.848973351e-21
3.034464411e-21
1.950228739e-23
2.935146759e-21
2.465929799e-22
9.170554135e-22
2.637418881e-21
8.578820511e-21
2.837276794e-21
1.516947173e-20
4.174907826e-21
3.997212962e-21
2.738806772e-22
8.569174964e-21
4.809876259e-21
2.546886715e-21
1.365621081e-21
2.342543921e-20
1.016275703e-21
1.121975249e-20
3.396846586e-21
5.913904759e-22
1.443852562e-21
6.686100624e-21
8.879299482e-21
2.068736532e-21
7.702296453e-21
9.144694204e-21
1.461393422e-21
2.040253257e-21
4.164939782e-21
2.984812307e-21
7.045743818e-22
1.968734795e-21
1.014314657e-20
3.428319109e-21
1.553129508e-22
7.568352503e-21
8.771200884e-21
2.53579671e-21
3.958676325e-21
3.345710285e-22
9.286561765e-21
2.386418473e-21
1.80981725e-20
1.370578566e-22
1.396005911e-20
1.806854071e-20
2.643342216e-21
6.403361938e-21
3.439883011e-21
5.309208389e-21
1.627816183e-21
4.124940315e-21
2.117388948e-21
3.041937724e-22
1.831848179e-21
1.679372591e-21
5.473703616e-21
6.420976627e-21
1.342799196e-21
1.169405347e-20
1.563184166e-21
6.55705202e-21
8.680389472e-21
4.158250415e-21
8.767712919e-22
9.206105881e-21
6.371861962e-21
1.442646931e-20
1.248444509e-21
1.332943516e-22
8.871559375e-21
3.079003531e-21
3.91906638e-22
2.72626384e-21
7.559933125e-21
4.871873864e-22
3.111636594e-21
1.427224873e-20
5.901959017e-22
5.545448307e-21
4.826974585e-21
4.387263737e-21
1.419015772e-20
2.761226502e-21
6.941164816e-21
3.065644739e-21
1.723522649e-20
4.810769832e-21
1.971421999e-21
2.736257689e-21
1.531450901e-21
2.796642691e-23
3.059444104e-21
9.225379127e-21
4.664171853e-21
7.001934678e-21
6.371622764e-21
1.07257941e-22
4.961483011e-21
4.361270213e-21
4.350943405e-21
1.850948966e-20
2.17068679e-21
4.647849306e-22
2.861104203e-21
2.341565533e-21
7.764123142e-21
1.53907497e-21
3.685483523e-21
1.030310877e-21
9.326549445e-21
1.468630176e-22
7.625832528e-21
1.69805389e-21
5.587981202e-23
2.274229887e-21
5.993272271e-22
5.514496466e-21
8.979231862e-22
6.074944158e-21
1.377109974e-20
5.368573932e-21
1.229180342e-21
5.444639725e-22
1.760742222e-21
3.855857831e-22
9.11334658e-22
3.324938697e-22
1.604316896e-22
7.187684951e-22
5.217843381e-21
1.73486541e-21
3.921662739e-22
2.319397183e-21
4.837334434e-21
8.074651817e-21
9.724837782e-23
5.818448713e-21
7.962697853e-22
1.05703443e-21
2.864307746e-22
1.226837643e-20
9.872136424e-21
2.688917733e-21
2.852927948e-21
6.888822581e-21
5.00784895e-21
3.937985221e-20
4.177392536e-22
1.018085919e-20
2.614336432e-21
4.191770309e-20
5.159445768e-22
3.591073382e-22
6.418583028e-22
1.611972741e-20
7.077021936e-21
4.533461606e-21
1.581587496e-21
3.432989271e-22
2.642895469e-21
2.800755018e-21
1.497194355e-21
3.869419697e-21
1.5478485e-21
3.080207053e-21
7.21079046e-21
1.559959483e-20
3.335290553e-21
1.311423898e-21
2.814511389e-22
4.004533514e-21
2.4188056e-21
5.458812714e-21
2.344738324e-21
3.158772244e-21
4.905699915e-21
1.087768867e-21
1.411970881e-20
1.757599459e-20
4.413278425e-21
1.260028119e-21
5.83677742e-22
9.43441046e-21
6.455048579e-22
2.876978024e-21
2.691186459e-21
5.289703683e-21
2.65463279e-22
1.273480682e-21
9.700448603e-22
4.326619582e-21
5.123664644e-21
1.698930025e-21
2.69964735e-21
8.163854721e-21
2.819909891e-21
3.832256849e-21
3.281550815e-21
3.870127934e-21
6.31462594e-21
6.061945342e-21
1.265153749e-21
6.688149781e-21
2.647107243e-21
9.738049474e-22
9.263336974e-22
8.691922019e-21
7.756119599e-21
2.656444552e-21
7.690520485e-21
4.498170141e-21
7.498503509e-21
5.572383377e-21
1.836189743e-20
6.94743097e-22
4.065703767e-22
3.701367884e-21
2.051527973e-21
7.138090691e-21
1.222222073e-20
4.717508764e-21
8.156405884e-21
4.334240493e-21
4.292883397e-21
1.229293101e-20
7.254200797e-22
7.892230999e-22
1.707103532e-21
4.245599432e-21
3.894157533e-21
1.928133166e-21
5.856225032e-22
3.834397964e-22
8.027054011e-21
2.81457058e-21
3.088708261e-21
8.022272615e-21
1.475093923e-21
1.762275459e-20
1.696420831e-21
1.149199595e-21
3.620841774e-21
2.214371514e-20
8.503913394e-22
7.905609483e-22
4.81447848e-21
2.859031134e-21
1.285936005e-20
4.103720099e-21
3.698548473e-21
5.595642505e-21
5.90593201e-21
8.573601312e-21
3.720602591e-23
1.065762865e-21
4.060711959e-21
3.274338671e-21
5.017660604e-21
4.640876066e-21
2.20738512e-21
5.202643318e-22
1.814638029e-21
9.672882732e-21
8.806994357e-22
1.793287097e-21
8.017246275e-22
1.286440502e-20
2.88267881e-21
6.14311905e-21
1.528558138e-20
9.74328887e-22
8.188233179e-21
1.681749302e-21
8.621421563e-21
3.201166697e-21
2.257333878e-21
4.521136879e-21
8.117506951e-22
1.51197438e-20
2.73283259e-22
4.451367572e-21
2.562768651e-21
9.616488707e-21
7.676515497e-21
4.566704518e-21
7.403266197e-22
9.304206449e-21
1.632952001e-20
2.453209896e-22
7.785742828e-22
1.025339813e-20
1.488731862e-21
1.365551528e-21
1.1361396e-21
1.141403777e-21
1.809149252e-21
1.1201151e-20
1.737346613e-21
9.508084785e-21
3.541723936e-21
4.953511475e-21
2.237819505e-21
2.390581293e-21
3.515955307e-21
5.836089548e-21
2.182716245e-21
1.308550655e-20
2.695810404e-21
1.660218623e-23
1.330195029e-21
8.13799019e-22
4.013128626e-21
1.15629271e-20
3.95584799e-21
5.685367731e-21
1.828408742e-21
1.441819751e-20
3.909209059e-21
3.858721098e-21
1.271276605e-20
2.761262766e-20
7.246143888e-22
9.707680318e-21
5.163218584e-21
3.730955398e-21
1.891332614e-20
1.693801647e-21
4.566016033e-21
3.777074434e-21
5.195827711e-21
2.383537317e-21
4.261070426e-21
9.306190642e-22
1.159958116e-20
9.473108731e-22
2.239473367e-21
7.344384919e-21
5.465268206e-22
5.718064719e-21
1.024853945e-21
6.747247116e-22
4.555817791e-21
5.232818843e-21
2.341912255e-21
8.006085526e-21
7.956197362e-21
4.408071579e-21
1.936953266e-21
4.702731891e-21
2.409188274e-21
3.092994107e-21
2.501107718e-21
2.182162041e-21
2.354381655e-21
5.702716162e-21
2.74673351e-21
3.345111658e-22
9.10254962e-22
3.454785375e-22
4.11034431e-22
1.009570986e-21
1.766987601e-20
2.984302995e-21
3.657118533e-21
1.639899058e-20
7.792180784e-21
4.190477764e-21
5.414214103e-21
1.732862479e-21
3.033428481e-21
3.351897516e-21
9.718041128e-22
1.197989751e-21
4.930351699e-21
9.00618246e-21
1.42884053e-21
5.741245882e-21
5.703794655e-21
5.536572084e-22
1.389936662e-22
1.652097635e-21
2.214859663e-21
8.657682148e-22
2.464072447e-21
2.787838911e-22
1.592850054e-21
3.015962987e-21
1.053898439e-20
6.924931526e-21
4.473063793e-21
4.625796602e-21
1.400368728e-21
1.182353107e-21
1.666775055e-21
1.039729316e-20
2.594069171e-20
6.23321963e-21
2.419989332e-21
8.81263145e-22
4.343671588e-21
1.456425153e-21
1.357031872e-20
2.625882284e-21
1.544196491e-21
3.400476329e-21
1.17733642e-20
8.69059015e-21
4.871299949e-21
9.080181188e-21
3.087189439e-21
7.224570578e-22
2.279953059e-22
3.924234677e-22
4.496384051e-21
1.2722708e-20
5.004032757e-21
9.390804489e-21
1.877407721e-21
1.161707571e-22
2.491744067e-20
2.125357772e-21
2.150516403e-21
7.905691998e-23
2.376054236e-22
5.962541957e-21
9.446320532e-22
2.053650983e-21
2.73566756e-21
5.127610197e-21
2.19176071e-21
2.964975997e-21
1.701510579e-20
2.338672264e-21
2.720366848e-21
1.665116092e-21
2.217995256e-20
8.220266325e-21
5.849277354e-22
6.293883949e-22
3.331142342e-21
7.797325806e-22
2.621578955e-21
2.870735318e-21
7.721946871e-23
5.860071177e-21
1.589341735e-21
7.495078408e-21
4.765188892e-21
6.186139869e-21
1.116142137e-21
2.65188322e-21
1.937636224e-21
1.943390186e-21
4.99955058e-21
5.742340382e-21
1.110103425e-20
2.469017473e-22
7.023751344e-21
1.077657596e-22
2.704583051e-21
2.505962686e-21
1.472412263e-21
2.718772638e-21
5.985999965e-21
8.991555127e-21
6.138887241e-21
6.694369897e-21
5.420083863e-21
1.334869631e-20
4.383212405e-22
5.366204583e-23
2.543041878e-21
1.077558017e-21
1.539735117e-21
1.817181378e-20
1.237243389e-21
1.103419628e-21
3.15148991e-21
3.808631539e-21
2.023242893e-21
1.027900166e-20
1.284960418e-21
3.49901743e-21
5.854775902e-22
8.124624692e-22
1.229211439e-21
2.167768134e-21
3.798039893e-21
4.873101356e-21
3.123168038e-21
4.286651128e-23
1.516202237e-20
7.246404165e-22
6.108384754e-21
2.791020075e-22
1.254936972e-20
5.068871291e-22
1.888320013e-21
9.531453667e-22
8.908750881e-21
9.842552515e-21
3.833213795e-21
3.313546751e-21
1.195079983e-21
1.068550397e-20
6.409938736e-21
4.034840395e-20
5.003338476e-21
9.109716084e-21
9.642951615e-21
2.93029269e-21
6.700089234e-21
2.509595082e-21
3.505730903e-21
1.148209095e-21
1.376162812e-21
1.139078288e-21
2.905050375e-21
1.392274718e-21
2.217577091e-21
7.423874958e-21
9.671430011e-21
5.573088342e-21
7.177412884e-21
2.392277379e-21
1.917861889e-22
2.952794068e-23
1.872253385e-21
6.336877735e-22
3.239070581e-21
4.161075534e-22
8.55684686e-21
1.712774301e-21
6.023893513e-21
1.336563991e-21
2.6095749e-22
2.30218058e-21
1.818525784e-21
6.759344629e-21
7.187956277e-21
7.174368684e-21
5.546561994e-21
2.822665369e-22
1.677551031e-20
3.136107769e-22
8.766441561e-21
9.311934307e-21
9.307517566e-22
1.156930913e-20
5.124028143e-21
1.993698813e-20
3.235679067e-21
6.359695481e-22
9.406240401e-22
1.04489946e-20
8.723908741e-22
2.280600475e-21
6.293345827e-21
1.803533362e-20
3.441335866e-21
6.500266611e-21
4.948054688e-21
2.15725765e-21
9.279235857e-22
3.831569883e-22
2.135553044e-21
2.816769367e-21
2.258942545e-22
2.609821569e-22
6.170269005e-22
9.989168014e-22
6.310839922e-22
3.258418595e-21
1.44013629e-20
1.956908083e-21
1.138605134e-21
1.773191811e-21
1.010636735e-20
3.269128748e-21
7.433068533e-22
3.907806859e-21
1.576230424e-21
3.018325756e-24
4.626156568e-22
3.106827999e-21
2.790061358e-21
2.387340399e-21
1.91761396e-21
7.017960101e-22
3.770563831e-21
1.297875145e-20
8.796974828e-21
2.031583658e-21
2.083047238e-21
2.19361256e-21
2.144087739e-20
1.141076117e-21
6.198625993e-21
3.180329767e-21
2.696734638e-21
7.14790862e-21
1.106488232e-21
6.076160508e-22
4.297396512e-21
5.962474905e-21
3.03756088e-21
2.691394979e-22
3.781679622e-22
8.350216176e-22
1.917273818e-21
8.147637177e-21
3.633995634e-21
2.185667303e-21
1.869220989e-21
6.248917976e-21
2.659174472e-22
4.5925592e-22
4.677191181e-21
3.314996553e-21
9.05772774e-22
1.014363595e-20
6.913904155e-21
9.922676079e-21
8.065695739e-21
1.028067245e-21
4.444588957e-22
4.944027632e-21
8.151253205e-21
5.689081015e-21
7.376881613e-21
1.013538984e-21
7.403488327e-21
6.89254834e-21
8.612868223e-21
1.971192347e-21
1.820243969e-21
2.622960147e-21
1.55990283e-21
7.827821167e-21
2.272827906e-21
9.059139592e-21
1.288995741e-20
3.214766463e-21
4.109324986e-22
3.125827716e-21
8.112883847e-23
8.545435635e-21
9.848490726e-22
8.670187961e-21
7.874835405e-22
1.821717688e-21
1.85411585e-21
3.251071857e-21
7.716498707e-21
1.573120106e-21
9.760903348e-22
1.583764415e-21
2.545793224e-20
8.110393238e-22
1.177698292e-21
7.475988446e-21
1.936970375e-21
6.331667775e-22
3.769529454e-21
5.497097971e-22
2.672210222e-21
8.186016178e-21
5.432418691e-21
1.797880308e-21
2.612161769e-21
1.105250748e-20
2.480354052e-21
6.976246798e-21
9.22564447e-23
8.817823905e-21
2.821627113e-21
1.517557972e-20
7.901719393e-23
3.18024988e-21
1.041783429e-20
1.818838128e-21
9.525865612e-22
3.662606019e-21
1.706061702e-21
1.617654148e-20
1.660274704e-21
1.529972944e-20
2.262177674e-21
4.039628254e-21
2.941621599e-21
7.066692074e-21
1.846519776e-20
2.011780024e-21
6.087042255e-22
4.717394372e-21
7.044751242e-22
1.432007258e-23
3.954546266e-21
3.446018043e-21
1.590315166e-20
5.948906415e-21
3.642330142e-21
6.123505548e-22
1.439741021e-20
3.763896129e-22
2.061233981e-22
3.685683122e-21
8.476794609e-22
1.714094171e-21
3.644234154e-21
2.410432232e-21
1.510136725e-21
1.942667962e-21
1.076607148e-20
9.119806304e-24
3.901694714e-21
1.507529273e-21
2.138900927e-20
4.187653519e-21
1.215254198e-21
1.519462632e-21
4.76531556e-21
4.592612308e-22
4.702193381e-21
2.057932619e-21
1.42857161e-21
2.57841811e-21
1.048554508e-20
6.114305006e-21
4.161852558e-21
3.841285114e-21
1.150606228e-20
7.062661679e-21
5.20761244e-21
8.224419853e-22
2.132548316e-21
5.034099508e-21
3.055991749e-21
5.980632668e-22
2.229718735e-22
1.314082365e-21
9.822839578e-22
5.646769843e-21
4.336771073e-21
1.385126145e-20
1.182571705e-21
5.911908803e-21
7.111530485e-25
6.498091616e-22
2.366565524e-22
7.290340662e-21
8.621771876e-21
1.499465462e-21
1.635283471e-21
1.747480501e-21
9.05468457e-21
1.899632769e-21
1.405719295e-21
2.175397754e-21
2.469740688e-21
3.945965683e-21
2.242463828e-21
1.090022663e-21
7.663695339e-21
1.167679975e-20
1.034780417e-20
6.390200972e-22
6.157648614e-21
6.025679791e-21
1.204215979e-20
3.706627555e-21
1.517312913e-21
1.609451476e-20
4.201855259e-21
3.263624341e-21
8.255044318e-22
2.664648621e-21
1.031109357e-21
3.884269044e-22
2.579819234e-22
1.994923295e-21
1.373555834e-20
4.834266533e-21
4.735873194e-21
2.57509844e-21
1.721644503e-21
2.464628551e-21
1.893943535e-21
6.969992618e-21
9.867443493e-21
3.529380253e-21
3.40554534e-21
1.77599064e-21
2.41281313e-21
5.334413182e-21
1.122096579e-22
7.295936427e-21
1.434141247e-20
7.787972561e-23
1.070286694e-21
1.141320313e-20
3.497822734e-21
7.061098266e-21
2.235180355e-20
7.788883046e-22
4.924486088e-21
2.359884207e-21
1.739556929e-20
5.896192442e-21
1.64767335e-20
4.769692085e-21
2.885400346e-21
3.171210488e-23
4.522889031e-21
1.997775328e-21
6.358627413e-21
4.560692684e-21
5.137596773e-21
1.44156672e-20
2.020043954e-21
1.612976552e-21
7.149108089e-22
6.180761515e-21
1.461824561e-20
4.214619781e-21
7.787918994e-21
2.911129402e-22
1.418575089e-20
3.224105312e-21
2.294088173e-21
1.527808515e-20
2.250982802e-21
5.917429609e-21
2.637323381e-21
7.002455163e-21
7.137301705e-21
3.494196772e-21
4.4335896e-21
5.84034745e-21
8.630759788e-21
2.700609827e-21
8.525897245e-22
8.683643527e-21
2.857418832e-21
4.299536549e-23
2.935024542e-20
2.685123769e-21
9.88585563e-21
1.86519512e-21
1.703708765e-21
6.680674647e-21
3.027890793e-21
7.09120166e-22
2.8488876e-20
3.954686984e-21
2.000728428e-21
1.630476245e-21
3.408101919e-22
4.698035591e-22
2.030198992e-21
1.150021542e-21
2.484232084e-21
1.616689661e-22
6.39820144e-21
2.09371751e-22
2.649047154e-21
9.541861387e-21
1.071681603e-21
7.179014267e-21
4.621047919e-21
6.122434339e-22
1.560706219e-21
5.55586048e-21
1.341972025e-20
7.434151808e-21
4.351446857e-21
4.527789764e-21
1.231544046e-20
3.114171355e-21
1.531775838e-20
1.855754402e-21
9.820038132e-21
1.038558998e-20
2.921007945e-21
2.275030137e-21
4.317211037e-21
1.96658168e-22
1.231020322e-21
8.692445071e-21
1.218283846e-21
7.631408743e-21
1.331388817e-21
8.834152696e-21
9.633042815e-21
2.616679017e-20
8.675042773e-22
1.741364205e-21
5.049820205e-21
6.95369073e-21
3.977913199e-21
1.251692252e-20
5.343636495e-21
3.245975457e-22
6.747742624e-21
5.059360818e-21
9.821685444e-22
7.277670454e-21
3.62534333e-21
1.517760212e-21
2.26550686e-21
5.792393225e-21
6.576577208e-22
3.501688437e-21
3.022198376e-21
2.061560255e-20
1.070484056e-21
2.656615083e-21
1.28191709e-20
6.191995997e-23
5.955302126e-22
3.608588575e-22
1.313731745e-22
2.672611725e-21
4.767900563e-21
1.891885805e-20
8.592019187e-22
3.541458718e-21
3.867506361e-23
5.101657574e-21
9.16998642e-21
1.648948155e-22
3.727978278e-21
8.061942105e-21
4.257832126e-21
2.185292006e-21
4.335030793e-21
3.947794201e-21
3.472607503e-21
4.871091851e-21
3.869129704e-21
2.055662269e-22
1.064763189e-21
3.146647654e-21
8.466816774e-21
4.109236318e-22
8.617158938e-21
2.764822921e-22
2.309228309e-21
2.605305043e-21
4.601146512e-21
7.922608446e-22
2.711646558e-22
2.814813153e-21
3.583461915e-21
9.918720582e-22
6.971245473e-22
8.99832607e-21
8.380976949e-22
1.727171605e-21
1.997772447e-21
8.208414385e-21
7.777355042e-21
8.794961503e-21
5.005286721e-21
6.010868693e-21
4.492016782e-21
2.86426824e-23
2.014105286e-22
7.868205816e-21
1.349693018e-20
1.191700338e-20
1.058086662e-21
1.557892156e-21
4.628926459e-21
1.044144438e-20
8.036872173e-22
6.654493061e-21
6.096825604e-21
1.289087194e-21
3.656420105e-21
6.319505822e-21
1.463173388e-20
1.321091451e-23
3.853788662e-21
5.040131551e-22
5.979220575e-23
1.307047549e-20
2.56397542e-21
2.408124035e-21
8.786600341e-21
4.328781623e-22
6.848330332e-21
4.094211496e-21
4.876651589e-21
2.730314092e-21
5.645461548e-21
5.852105879e-21
3.798132041e-22
2.504783456e-21
6.860377887e-22
2.662101273e-21
2.290610349e-21
1.10827006e-21
9.777752894e-22
6.911632242e-21
8.681277299e-22
1.021205172e-20
3.076021037e-21
4.782416253e-21
2.16433624e-21
3.664038761e-21
5.14770062e-21
1.373333153e-22
5.857725631e-21
1.413903418e-22
1.399031544e-21
1.150843738e-21
5.0163278e-21
4.992403108e-21
3.15827311e-21
4.503954891e-21
5.939769557e-21
2.718299244e-22
1.727923944e-21
9.331048291e-21
4.566859259e-21
2.273309666e-21
4.177709874e-20
1.051371624e-20
1.992362369e-20
1.8236632e-21
8.647962844e-21
1.159668017e-22
3.181865963e-21
7.01698088e-21
6.764858318e-22
1.890411305e-22
6.515457199e-22
3.127921764e-21
4.685536681e-21
1.303597937e-20
1.474440494e-20
1.115624696e-20
3.685256306e-21
3.092648326e-23
1.354293221e-21
7.386599522e-21
1.118726085e-20
2.879710792e-21
3.221127437e-22
8.440719612e-21
1.188965601e-22
5.891937334e-21
5.641290066e-21
5.466684905e-22
1.940081312e-20
2.17724352e-21
4.840551069e-21
3.334385206e-21
1.714778973e-20
6.185360229e-21
6.598625426e-21
7.14490631e-22
8.962090022e-21
1.713599161e-21
8.967141033e-22
4.029796173e-21
5.452542173e-21
9.341770331e-22
3.79665576e-21
9.411324389e-22
1.51322245e-21
4.402297258e-21
6.527055354e-21
8.215412534e-21
7.255877105e-22
1.036763362e-21
7.174823382e-21
3.739057092e-21
2.079197695e-20
1.453804865e-20
8.129998938e-21
4.906300264e-21
4.573576497e-21
1.200598409e-22
4.214251388e-21
2.174252725e-20
4.258097639e-22
5.564335325e-21
1.425307913e-21
1.725980284e-21
6.926138866e-21
4.383360994e-21
4.455150387e-21
1.553722791e-22
2.334546965e-21
3.146679667e-21
8.181254514e-21
5.112852711e-21
1.214929838e-20
1.049579549e-20
9.260412784e-22
6.460436825e-21
3.576120944e-21
1.164469156e-20
5.12109054e-21
3.98741952e-21
7.612526515e-21
1.053435946e-20
3.430414293e-21
1.766091173e-21
1.66237695e-20
4.808168841e-21
1.724224794e-21
7.526330976e-22
4.565152255e-21
3.025786276e-21
5.156080016e-21
2.391730026e-21
2.485184675e-21
1.025477468e-20
1.434164065e-21
4.493952867e-21
1.035230464e-20
1.036841183e-21
7.74592909e-21
6.664634229e-21
2.525019785e-21
4.489628465e-22
1.122564173e-20
1.976218939e-21
4.005383175e-21
2.74441166e-20
4.839712863e-21
3.963590771e-22
1.179556114e-22
4.705403306e-22
2.271713701e-22
1.015616161e-21
2.498219685e-21
6.49744431e-21
1.944398607e-20
2.882064911e-21
2.411386738e-21
1.13265448e-20
3.296940325e-21
1.815467399e-22
2.197296164e-21
2.236056878e-21
1.400002712e-21
1.149497954e-20
1.796361069e-21
5.861915055e-23
7.884475062e-22
5.881198503e-21
1.061743886e-21
1.20030366e-21
1.400151617e-21
3.005551434e-21
3.151526021e-21
1.309830873e-20
9.2815922e-21
2.850056203e-21
4.547302803e-22
7.400618826e-21
1.922307623e-20
1.148145384e-22
4.693253473e-21
4.477776251e-21
3.686943627e-21
5.731073611e-21
1.343397457e-20
8.790051013e-21
5.481382388e-21
8.741936716e-21
7.223109663e-22
8.21588893e-22
3.444098727e-22
1.324811225e-21
5.982052759e-21
3.21045309e-21
6.13179991e-21
1.049209983e-21
1.466007147e-22
8.813318925e-21
1.390347813e-21
4.370763006e-21
6.31650987e-22
3.141913558e-21
8.912165522e-21
4.686297148e-21
2.009774947e-21
6.173191965e-21
1.548994374e-20
1.310516734e-21
4.788368536e-21
9.077144572e-21
1.451717169e-21
1.352210665e-25
2.459533035e-21
8.96363671e-21
2.823725677e-22
2.419562022e-21
7.981302245e-21
8.085918702e-21
8.497567185e-21
6.502768648e-21
6.98746142e-22
2.971795027e-21
6.781394565e-21
6.609223478e-21
4.417171368e-21
1.375819767e-20
7.984281093e-21
9.783090722e-21
4.878137431e-21
5.263039573e-21
2.269405262e-21
1.343643642e-21
4.358080027e-21
4.27394007e-21
5.636277318e-21
1.462481386e-21
1.108365048e-20
2.053275569e-21
2.994638297e-21
9.073188078e-21
2.199882881e-20
4.821633938e-21
2.685134424e-23
1.020265041e-20
6.318298513e-21
1.463212814e-21
3.05622418e-21
3.11299519e-21
3.377578978e-21
2.671083263e-21
7.75294683e-22
1.359595885e-21
3.63730713e-21
6.564383805e-22
1.520810517e-21
7.010322875e-21
1.291265451e-21
2.460645182e-20
1.070216597e-21
2.904059142e-20
3.022552965e-21
2.636868376e-21
4.440279433e-21
2.12950613e-21
2.960321715e-21
1.218188641e-21
5.848114836e-21
1.775649115e-21
5.462764376e-21
1.864906948e-21
3.159125055e-21
3.458207503e-21
1.069750294e-20
9.648699666e-21
2.884927612e-21
1.657175724e-21
9.024449895e-23
6.55551239e-21
1.206645511e-20
1.165633041e-22
1.252943444e-20
4.786289139e-21
6.73777867e-23
3.781876691e-21
5.917836857e-21
5.66402908e-21
5.644048093e-21
5.856459135e-22
1.053309715e-22
6.239153217e-22
3.830315304e-21
1.784662913e-21
4.162666341e-21
1.17214158e-22
9.326332066e-22
2.69262435e-21
8.047845856e-22
7.853570978e-21
4.996543332e-23
6.133041661e-21
6.810247294e-21
1.476356902e-21
7.571579508e-22
5.541001046e-21
7.76489807e-21
8.652621631e-22
6.975192428e-21
2.643212998e-20
2.655194572e-22
2.36939391e-21
1.054373923e-21
3.339196006e-21
1.818023562e-21
8.35487781e-21
3.890544723e-21
3.266729922e-21
6.64965432e-21
3.074571419e-20
3.126404759e-21
7.845880946e-22
1.672609099e-21
3.881138573e-21
8.00596197e-21
8.851544697e-21
4.991141256e-21
1.32131446e-22
7.590387453e-22
4.57705689e-21
2.471632871e-21
8.320808501e-22
2.196520015e-21
3.477253559e-21
3.232366341e-20
2.544946496e-21
1.723584527e-20
3.931874482e-21
3.990818167e-21
1.846588448e-21
1.93600122e-20
1.217045892e-20
1.207596503e-21
1.753437401e-21
2.669895347e-21
1.976917041e-21
2.277042813e-21
1.301441051e-20
4.593282435e-21
6.718568064e-21
5.539778054e-22
1.893506141e-21
4.188435907e-21
1.172200971e-21
3.049217433e-22
3.094459962e-21
2.216853005e-21
5.114767253e-21
3.770435782e-21
1.711570472e-20
2.199601527e-21
3.473999021e-21
2.139573013e-20
7.681846933e-21
1.031110025e-20
9.680891643e-21
5.410555909e-21
4.165782542e-21
3.123900649e-21
5.134857175e-21
1.168426364e-21
1.220563624e-21
3.245941387e-21
3.546955716e-21
2.044537019e-21
2.587119535e-21
9.191746379e-22
1.898478194e-20
5.690909996e-21
1.017022803e-21
1.681659789e-21
1.935662023e-21
7.299456441e-22
6.882763295e-21
6.416235484e-22
3.834853831e-21
1.133857424e-20
1.629796633e-21
4.36551114e-21
6.504520751e-22
1.801826254e-21
1.030344474e-21
1.720073874e-22
2.046044775e-21
6.690905034e-22
6.333589885e-22
7.082785578e-21
6.042422237e-22
5.062499563e-21
1.352039192e-21
7.548902505e-21
9.27552801e-21
3.696124549e-21