/*--------------------------------*- C++ -*----------------------------------*\
| =========                 |                                                 |
| \\      /  F ield         | OpenFOAM: The Open Source CFD Toolbox           |
|  \\    /   O peration     | Version:  2406                                  |
|   \\  /    A nd           | Website:  www.openfoam.com                      |
|    \\/     M anipulation  |                                                 |
\*---------------------------------------------------------------------------*/
FoamFile
{
    version     2.0;
    format      ascii;
    arch        "LSB;label=32;scalar=64";
    class       Cloud<dsmcParcel>;
    location    "0.003/lagrangian/dsmc";
    object      positions;
}
// * * * * * * * * * * * * * * * * * * * * * * * * * * * * * * * * * * * * * //

6146
(
(0.285912502 0.2111766238 -2.168404345e-19) 201
(0.3042770253 0.2409678445 0) 353
(0.2917097059 0.2059907044 3.252606517e-19) 172
(0.3010733769 0.2216024501 2.846030703e-19) 233
(0.2616874841 0.2325995832 1.084202172e-19) 318
(0.3039156972 0.2308151728 -2.168404345e-19) 293
(0.3036748343 0.2193060778 0) 233
(0.2835219267 0.1963619111 0) 111
(0.2946292127 0.2930629327 1.084202172e-19) 622
(0.2973596517 0.2616591003 -2.032879073e-19) 473
(0.3033947916 0.2698619089 -1.829591166e-19) 503
(0.2754346839 0.2378297501 -2.168404345e-19) 350
(0.2694151573 0.2393254617 0) 349
(0.3033386161 0.2215751351 -2.168404345e-19) 233
(0.2986440389 0.2090768323 -4.33680869e-19) 173
(0.2966165779 0.2397481495 4.33680869e-19) 352
(0.3043494838 0.1837424224 -2.168404345e-19) 32
(0.3008873172 0.2432367408 0) 353
(0.2941212546 0.1988860015 -1.084202172e-19) 112
(0.2854700861 0.2202283047 2.168404345e-19) 231
(0.2978800466 0.2228559059 -3.252606517e-19) 233
(0.3017045211 0.1727164793 -1.626303259e-19) 5
(0.2962079796 0.2492695358 0) 382
(0.2828100145 0.2720104907 -2.168404345e-19) 531
(0.2602086687 0.2294413826 0) 288
(0.2773296305 0.1879012863 -2.710505431e-19) 80
(0.2974855789 0.2195536166 0) 233
(0.3014196889 0.2227509211 0) 233
(0.2703974677 0.1974241194 0) 109
(0.2905776874 0.1875269359 0) 53
(0.3025003508 0.2187165737 -2.168404345e-19) 233
(0.3024791263 0.2184914196 0) 233
(0.3046855342 0.1944357028 0) 83
(0.3024626631 0.2268411535 1.084202172e-19) 263
(0.2893421412 0.2631002382 0) 471
(0.2946136557 0.2417521328 -5.421010862e-20) 352
(0.2921947592 0.2142725 0) 202
(0.2974015064 0.2501084553 4.33680869e-19) 383
(0.3032841553 0.1911348446 2.168404345e-19) 83
(0.3035963999 0.2689907829 1.084202172e-19) 503
(0.2696311329 0.2265213197 -3.252606517e-19) 289
(0.3004944871 0.2223902174 0) 233
(0.2413103101 0.2417112973 0) 375
(0.2838721048 0.2132819737 -3.117081246e-19) 201
(0.2908693525 0.2199882552 -1.626303259e-19) 232
(0.2848470441 0.244824386 0) 381
(0.3022850978 0.2496938833 -4.33680869e-19) 383
(0.2873489269 0.2124042856 -3.252606517e-19) 201
(0.3035191305 0.2493342167 -6.505213035e-19) 383
(0.2875975457 0.2676587331 0) 501
(0.2773098293 0.2318494138 4.33680869e-19) 290
(0.2822059454 0.2457810933 0) 381
(0.3043718845 0.2018043291 0) 143
(0.2957195536 0.2052865355 4.33680869e-19) 142
(0.2719349549 0.2247525496 2.168404345e-19) 259
(0.2788983125 0.2154317811 -1.626303259e-19) 200
(0.3004689412 0.1948863508 0) 83
(0.3027058711 0.192480941 1.084202172e-19) 83
(0.2751813096 0.221067553 -2.168404345e-19) 260
(0.284901549 0.2688327291 -4.065758147e-19) 501
(0.3028643413 0.2390761492 2.168404345e-19) 323
(0.2869651886 0.2151480489 0) 201
(0.2715272972 0.1855644677 1.084202172e-19) 50
(0.2759449467 0.2067879847 2.371692252e-19) 170
(0.2680189639 0.2755342991 2.168404345e-19) 529
(0.2568048324 0.2644500701 1.084202172e-19) 467
(0.2907599946 0.2099316081 4.33680869e-19) 172
(0.2933742615 0.2199343332 9.31736242e-21) 232
(0.298424044 0.2230120787 -4.33680869e-19) 263
(0.2812139617 0.2792573457 -3.252606517e-19) 560
(0.2737318521 0.2515230707 -8.131516294e-20) 409
(0.3004601849 0.2081748351 -2.168404345e-19) 173
(0.2969638207 0.2503111049 4.33680869e-19) 382
(0.3017831287 0.2533068966 8.131516294e-20) 413
(0.2941970666 0.1969884651 1.084202172e-19) 112
(0.3009073221 0.2174544459 0) 203
(0.3027384336 0.2353699783 0) 323
(0.2936385911 0.2204538213 2.710505431e-20) 232
(0.298177448 0.2180070822 0) 233
(0.2991976595 0.2323431019 2.168404345e-19) 293
(0.2857520181 0.2308172828 1.12655382e-19) 291
(0.2834624352 0.2051505994 4.33680869e-19) 171
(0.2848522283 0.1847811304 -1.355252716e-20) 52
(0.2984771526 0.2662425319 -3.252606517e-19) 473
(0.2958954113 0.1865957823 -3.252606517e-19) 53
(0.2906233135 0.2299745469 2.168404345e-19) 292
(0.2687098916 0.2560344407 2.168404345e-19) 439
(0.2662857366 0.2342265422 -1.694065895e-20) 318
(0.3007792407 0.2236969389 1.355252716e-19) 263
(0.2701387221 0.2291500575 3.659182332e-19) 289
(0.2707546475 0.2169383137 0) 229
(0.2632853695 0.2325936435 0) 318
(0.2783317201 0.2613129306 -2.168404345e-19) 470
(0.2933685244 0.2038361357 1.024909866e-19) 142
(0.2923965947 0.2180022163 0) 232
(0.2881553483 0.274665486 -2.710505431e-20) 531
(0.2965116728 0.2621647619 4.33680869e-19) 472
(0.3013723437 0.2477953956 -4.065758147e-20) 383
(0.2665492409 0.2125420991 4.33680869e-19) 198
(0.2839221107 0.2516875659 5.421010862e-20) 411
(0.2805929335 0.1951193647 1.084202172e-19) 110
(0.2753987809 0.2160493184 -8.809142651e-20) 230
(0.3020135203 0.2574646113 4.33680869e-19) 443
(0.2779576409 0.2161249885 5.421010862e-20) 230
(0.3029131829 0.2175929888 0) 203
(0.3027149311 0.2733327927 0) 533
(0.3018180639 0.2550978674 -5.421010862e-20) 413
(0.2830080679 0.266348963 2.168404345e-19) 471
(0.2603419193 0.2168639252 -1.084202172e-19) 228
(0.2913217323 0.2242876703 0) 262
(0.2904906972 0.1988851105 0) 112
(0.2277866329 0.1919039868 -2.168404345e-19) 103
(0.3040951611 0.2643249124 1.355252716e-19) 473
(0.295822563 0.2301908305 2.168404345e-19) 292
(0.3024903994 0.1998207027 -1.084202172e-19) 113
(0.257011489 0.2618589316 2.168404345e-19) 467
(0.294566808 0.2015549241 -6.505213035e-19) 142
(0.2860551231 0.2818701634 -8.131516294e-20) 561
(0.2956825451 0.2216716461 0) 232
(0.2866602446 0.2932916046 0) 621
(0.2834477094 0.2392287654 2.168404345e-19) 351
(0.2997313914 0.2537999049 5.421010862e-20) 413
(0.2994186953 0.2658348806 1.626303259e-19) 473
(0.3046403136 0.2286313849 0) 263
(0.2990042685 0.2494417447 3.252606517e-19) 383
(0.2855666652 0.2249185896 0) 261
(0.2830856772 0.2280374812 1.355252716e-19) 291
(0.2755645316 0.2092831179 0) 170
(0.2782648771 0.2203189271 -2.710505431e-20) 230
(0.2587844665 0.2017486998 -2.168404345e-19) 137
(0.2802128259 0.1933589662 0) 110
(0.268390453 0.2498617589 0) 409
(0.2678844938 0.2087446991 2.168404345e-19) 199
(0.3014291719 0.1914244208 2.168404345e-19) 83
(0.2595634933 0.2676704801 -2.168404345e-19) 498
(0.2914340165 0.2817785504 -4.33680869e-19) 562
(0.3001971977 0.2644459409 2.032879073e-19) 473
(0.3000913205 0.2059461982 -2.168404345e-19) 143
(0.2799280772 0.2243742668 -2.168404345e-19) 260
(0.274636745 0.2994067501 -2.168404345e-19) 650
(0.2886588679 0.2003162532 0) 141
(0.2853479514 0.168828808 1.76182853e-19) 3
(0.295785178 0.2365191705 8.978549241e-20) 322
(0.2843588849 0.1907445412 2.168404345e-19) 81
(0.2913687742 0.2055874484 2.168404345e-19) 142
(0.2871313907 0.2662756835 -3.252606517e-19) 471
(0.2908021741 0.2112948492 0) 202
(0.301031907 0.2900621776 2.168404345e-19) 623
(0.2983578185 0.240141745 0) 353
(0.2781376783 0.1926761546 4.048817488e-19) 80
(0.2985673631 0.2982173714 -3.252606517e-19) 653
(0.2701315141 0.2379667494 1.626303259e-19) 349
(0.2881570948 0.1950259494 0) 111
(0.2958431577 0.2030912824 -3.252606517e-19) 142
(0.2517836731 0.1997374227 4.33680869e-19) 137
(0.3045713448 0.2868526329 4.33680869e-19) 593
(0.3031124435 0.2678913999 -2.168404345e-19) 503
(0.2989617253 0.2414218116 -1.084202172e-19) 353
(0.2898044633 0.207107107 -2.168404345e-19) 172
(0.289571012 0.2566596875 1.084202172e-19) 442
(0.2721669432 0.247418829 0) 379
(0.3028327558 0.256098198 0) 413
(0.2891777114 0.2818663123 0) 561
(0.2981311113 0.2624449957 2.710505431e-20) 473
(0.3047337285 0.1938210741 0) 83
(0.3032336044 0.2259854547 -1.897353802e-19) 263
(0.2941878569 0.2724136106 4.33680869e-19) 532
(0.2666550962 0.285453238 0) 588
(0.3038805862 0.2958960823 6.505213035e-19) 653
(0.2308635041 0.1721757884 3.252606517e-19) 23
(0.2865477877 0.2521420362 -2.710505431e-19) 411
(0.2995177992 0.2539327773 -5.421010862e-20) 413
(0.2961263835 0.2426772473 -2.168404345e-19) 352
(0.2811883396 0.2745005167 2.710505431e-19) 530
(0.258813072 0.1961260248 0) 107
(0.2627857864 0.2963455184 2.642742795e-19) 648
(0.3019470617 0.2124293477 0) 203
(0.2936210062 0.2036489207 8.131516294e-20) 142
(0.246338748 0.2111187175 0) 196
(0.290902021 0.1864111319 8.131516294e-20) 53
(0.2941520956 0.2895998244 6.505213035e-19) 622
(0.2729618063 0.257004068 2.168404345e-19) 439
(0.2589839588 0.1832150875 0) 48
(0.3021456553 0.1910136972 -4.33680869e-19) 83
(0.2654657449 0.2417036363 0) 348
(0.2199116017 0.219432738 2.168404345e-19) 252
(0.2782380435 0.2213658849 4.33680869e-19) 260
(0.3024144322 0.229662478 0) 293
(0.2945490592 0.2059696444 2.168404345e-19) 142
(0.2765243246 0.2203646604 -4.33680869e-19) 230
(0.3003320742 0.1990714869 2.303929617e-19) 113
(0.2630284313 0.2309396947 -2.439454888e-19) 288
(0.3007251569 0.1893885347 0) 54
(0.2817707381 0.2575787568 3.252606517e-19) 440
(0.2701537114 0.2816892376 0) 559
(0.2965166017 0.2150781173 2.168404345e-19) 202
(0.2851467011 0.2509253439 -1.084202172e-19) 411
(0.2831446869 0.2330476265 -2.168404345e-19) 321
(0.2681406045 0.2319996311 0) 319
(0.3046561997 0.2767154039 -4.33680869e-19) 533
(0.2750657605 0.1950490074 2.168404345e-19) 110
(0.2347586788 0.1731998407 2.168404345e-19) 23
(0.3021911938 0.2035673112 -1.084202172e-19) 143
(0.2992593437 0.2424515782 -5.421010862e-20) 353
(0.2807945122 0.1997187772 -2.168404345e-19) 140
(0.192583217 0.2198966849 1.084202172e-19) 279
(0.3029484847 0.2872140707 2.168404345e-19) 593
(0.2772399245 0.217378932 -1.084202172e-19) 230
(0.2828017751 0.2376147003 2.168404345e-19) 321
(0.2524405275 0.1961343539 -2.168404345e-19) 137
(0.2699227153 0.1931144946 0) 109
(0.2822752232 0.2191253345 -2.710505431e-19) 231
(0.2975882156 0.2397105367 2.168404345e-19) 353
(0.3029401167 0.216754223 0) 203
(0.2829667933 0.2282322264 -5.421010862e-20) 291
(0.2926689367 0.2685830154 -4.878909776e-19) 502
(0.2952214928 0.2261989304 -2.168404345e-19) 262
(0.281345227 0.2568976411 -1.084202172e-19) 440
(0.2775833646 0.2641564521 2.710505431e-19) 470
(0.3016268838 0.2404649816 -2.168404345e-19) 353
(0.3033037543 0.2576743121 -6.505213035e-19) 443
(0.2666646353 0.2221350343 0) 258
(0.3022502978 0.2522783294 2.168404345e-19) 413
(0.2729555162 0.2019912836 2.168404345e-19) 139
(0.3036515977 0.197536722 -2.168404345e-19) 113
(0.2880797641 0.2769915681 -4.33680869e-19) 531
(0.2766296022 0.2855602155 2.168404345e-19) 590
(0.2960457135 0.2078815175 -2.168404345e-19) 172
(0.263464338 0.1901600016 3.252606517e-19) 78
(0.2475545456 0.2727249534 -9.486769009e-20) 526
(0.2823117555 0.2785927838 -2.168404345e-19) 561
(0.2445341303 0.1795731668 0) 47
(0.2988915921 0.2496274907 5.421010862e-20) 383
(0.2503605015 0.2222587904 0) 256
(0.2848523784 0.2034972597 -2.168404345e-19) 141
(0.281282285 0.2352484553 -8.131516294e-20) 320
(0.2891971022 0.2228457353 -2.168404345e-19) 261
(0.2847301527 0.2990891816 0) 651
(0.289197951 0.2590987461 2.168404345e-19) 441
(0.259781377 0.233183763 4.33680869e-19) 318
(0.2846674728 0.2493350651 2.168404345e-19) 381
(0.2563673205 0.2146067475 6.505213035e-19) 227
(0.293034482 0.2562605604 8.131516294e-20) 442
(0.2851082745 0.2402550448 0) 351
(0.2976811945 0.2269685958 0) 263
(0.263420161 0.1883419606 -1.084202172e-19) 78
(0.2856421628 0.2649113329 0) 471
(0.2764285683 0.1717171303 -3.726944968e-19) 13
(0.2914419452 0.2189615088 2.168404345e-19) 232
(0.285919897 0.2899714338 0) 621
(0.2808368232 0.1782761685 -3.252606517e-19) 29
(0.2655709301 0.1875331002 -3.252606517e-19) 78
(0.2764045817 0.21383029 4.065758147e-20) 200
(0.3034342064 0.2626941185 -2.168404345e-19) 473
(0.2920367272 0.2033888124 0) 142
(0.2952815031 0.2281167224 2.168404345e-19) 262
(0.3022559858 0.2949421235 -2.168404345e-19) 653
(0.3046516525 0.2477207785 5.421010862e-20) 383
(0.2919691249 0.2032886883 1.355252716e-19) 142
(0.2443507022 0.2671934621 2.168404345e-19) 496
(0.2743098665 0.1868265149 0) 79
(0.2843351997 0.2643616533 2.168404345e-19) 471
(0.3032662221 0.1812373261 1.084202172e-19) 32
(0.2669980763 0.2587754933 2.168404345e-19) 439
(0.2750878506 0.2319300133 5.421010862e-20) 290
(0.2750193253 0.2171390979 2.168404345e-19) 230
(0.2864292734 0.2906516241 0) 621
(0.2810599444 0.2052677488 0) 170
(0.292798793 0.249348087 4.33680869e-19) 382
(0.298058568 0.2603663997 0) 443
(0.2778344335 0.2478067876 0) 380
(0.2966308395 0.2772021654 -2.168404345e-19) 532
(0.2692985624 0.1961282704 -1.084202172e-19) 109
(0.2805361769 0.2282552463 0) 290
(0.3016669782 0.2352048747 0) 323
(0.2754473961 0.1881803035 -5.421010862e-20) 80
(0.2753825028 0.1820124602 0) 51
(0.2648757691 0.2961819968 -1.084202172e-19) 648
(0.2691414483 0.2118800803 -5.421010862e-20) 199
(0.2907955754 0.2536250756 2.168404345e-19) 412
(0.2889321286 0.1820038043 -4.33680869e-19) 30
(0.2877641894 0.2500873922 0) 411
(0.2845567735 0.2059472317 5.421010862e-19) 171
(0.2824665415 0.2489085232 0) 381
(0.2970571125 0.2761579117 0) 532
(0.2814559064 0.2586062532 2.168404345e-19) 440
(0.2836967524 0.2166310944 -4.33680869e-19) 231
(0.2638029395 0.2279677603 1.626303259e-19) 288
(0.2616091736 0.246829835 -2.168404345e-19) 378
(0.2940452757 0.2438708213 -5.421010862e-20) 352
(0.2554329185 0.289494311 -4.33680869e-19) 617
(0.2893899451 0.2254858994 -4.33680869e-19) 261
(0.2807104334 0.2143078641 0) 200
(0.2986176583 0.2644377357 2.439454888e-19) 473
(0.279354367 0.1902027657 -3.015437292e-19) 80
(0.2954065491 0.2511317602 -4.33680869e-19) 412
(0.2904823256 0.1749869663 2.168404345e-19) 15
(0.2834801002 0.1827825413 2.168404345e-19) 52
(0.2571834752 0.2591856435 0) 437
(0.2810203964 0.2905066955 5.421010862e-19) 620
(0.2790969124 0.2248992428 1.084202172e-19) 260
(0.2816797964 0.2117046676 2.168404345e-19) 200
(0.2638227585 0.2142687774 -4.33680869e-19) 228
(0.2743233932 0.2228482144 4.33680869e-19) 260
(0.271626412 0.1708008313 0) 12
(0.2878786001 0.2252488056 0) 261
(0.2824836908 0.2520658452 -2.168404345e-19) 411
(0.2820943724 0.2991727937 -2.168404345e-19) 651
(0.2730267817 0.2412481316 2.168404345e-19) 349
(0.2866614605 0.2115522116 0) 201
(0.2869882478 0.226928714 -1.084202172e-19) 261
(0.27649137 0.2988453108 -3.794707604e-19) 650
(0.2840750039 0.2403142086 -1.355252716e-19) 351
(0.2706768708 0.2209301533 2.168404345e-19) 259
(0.271695063 0.2226082306 -2.168404345e-19) 259
(0.2766736715 0.2408974318 -1.897353802e-19) 350
(0.2517692176 0.2381530654 2.168404345e-19) 347
(0.2998383104 0.2176092051 0) 203
(0.2531773516 0.2509314273 8.131516294e-20) 407
(0.2724399875 0.2785984482 -2.168404345e-19) 559
(0.2778172814 0.2585939766 0) 440
(0.2680800846 0.2281879231 -2.168404345e-19) 289
(0.2859214965 0.20331345 5.421010862e-20) 141
(0.2855914068 0.2391493617 -2.168404345e-19) 351
(0.2878249573 0.2097388968 -2.168404345e-19) 171
(0.2995612657 0.2553447037 1.084202172e-19) 413
(0.2942147535 0.1773833593 2.168404345e-19) 15
(0.2934665244 0.2070810597 4.33680869e-19) 172
(0.3042205007 0.2343697334 0) 293
(0.2904939823 0.2289649692 1.084202172e-19) 292
(0.2929706623 0.2034159855 -6.776263578e-21) 142
(0.2984328186 0.2459050416 -3.015437292e-19) 383
(0.2810317833 0.1943022382 -2.168404345e-19) 110
(0.2431843288 0.2583718069 4.33680869e-19) 435
(0.2935737065 0.2796170185 2.168404345e-19) 562
(0.2802101603 0.2049560088 -2.168404345e-19) 170
(0.2988253547 0.2463501316 1.355252716e-19) 383
(0.2783643216 0.2523764788 2.710505431e-20) 410
(0.2682459161 0.2234923773 -1.626303259e-19) 259
(0.2685217418 0.2528222627 0) 409
(0.2887924517 0.2764895931 -6.505213035e-19) 531
(0.2623129893 0.2895845424 -5.421010862e-20) 618
(0.2825182182 0.2009914431 -2.168404345e-19) 141
(0.2520569721 0.2435932184 1.084202172e-19) 377
(0.3003810747 0.2054158699 0) 143
(0.2967945789 0.1892017793 0) 53
(0.2666547364 0.2668307687 -2.168404345e-19) 498
(0.2761681136 0.2601916964 3.252606517e-19) 440
(0.2898692437 0.2542407071 2.168404345e-19) 412
(0.2843135395 0.2473643842 -1.626303259e-19) 381
(0.237636701 0.2465655752 3.252606517e-19) 375
(0.2611399487 0.2400425476 2.710505431e-19) 348
(0.2958261089 0.2023276793 -4.33680869e-19) 142
(0.2743527371 0.2806795089 3.252606517e-19) 560
(0.2156930568 0.2902234202 5.421010862e-20) 612
(0.2844172303 0.2559459942 0) 441
(0.2874864438 0.2442851873 0) 381
(0.2533330163 0.2526119925 3.252606517e-19) 407
(0.2959627204 0.2513585449 0) 412
(0.2947036796 0.2431422358 -1.084202172e-19) 352
(0.2828514277 0.2143562141 0) 201
(0.3007972243 0.2333627551 0) 293
(0.2866740036 0.2163434237 -4.33680869e-19) 231
(0.2947195673 0.2376228456 1.084202172e-19) 322
(0.2773496265 0.2708879946 2.168404345e-19) 500
(0.275153206 0.2099358584 0) 200
(0.297636027 0.2276721893 2.168404345e-19) 263
(0.2807973051 0.1816419876 2.168404345e-19) 29
(0.30095239 0.2609942907 0) 443
(0.2799048463 0.2746158957 8.131516294e-20) 530
(0.2914504693 0.2497397755 4.33680869e-19) 382
(0.2585406403 0.2073662904 -2.168404345e-19) 167
(0.2978802646 0.2120255306 -4.33680869e-19) 203
(0.2878259301 0.210432295 2.168404345e-19) 171
(0.2736671482 0.2272707444 -4.33680869e-19) 289
(0.2843092121 0.229460443 1.084202172e-19) 291
(0.2875033488 0.1881315268 1.084202172e-19) 52
(0.3007927389 0.1751614496 -2.981555974e-19) 16
(0.2923751308 0.1976647247 2.168404345e-19) 112
(0.2629781621 0.2538922374 -3.388131789e-20) 408
(0.2856553251 0.2202679034 0) 231
(0.2064331901 0.2332858345 -2.015938414e-19) 341
(0.2692748185 0.2429283535 0) 349
(0.259583112 0.2223931382 -1.355252716e-19) 258
(0.2544727593 0.2740412954 -5.421010862e-20) 527
(0.2577852379 0.2226602252 0) 257
(0.2955381858 0.2238935731 2.168404345e-19) 262
(0.2854862144 0.1905593497 8.131516294e-20) 81
(0.2929989692 0.1801320249 2.981555974e-19) 31
(0.2535990926 0.2204931819 5.421010862e-20) 257
(0.2817057669 0.2871925786 4.33680869e-19) 590
(0.2920071912 0.2308219627 1.355252716e-20) 292
(0.2579009933 0.2433121604 -2.168404345e-19) 377
(0.2854990308 0.274421345 -4.33680869e-19) 531
(0.2813173326 0.2702512519 0) 500
(0.267409082 0.2359324721 0) 319
(0.299990975 0.2307171423 -5.421010862e-20) 293
(0.2955859967 0.2685526911 -1.084202172e-19) 502
(0.2617842232 0.1804640662 -2.168404345e-19) 49
(0.2639161988 0.2055870835 0) 168
(0.2964580661 0.2579701608 0) 442
(0.2773021038 0.2632322413 2.168404345e-19) 470
(0.2960852581 0.2616090695 -4.33680869e-19) 472
(0.2927581395 0.2819644948 1.084202172e-19) 562
(0.2546742204 0.2232089281 -1.084202172e-19) 257
(0.2936106554 0.2539262407 2.168404345e-19) 412
(0.2360905345 0.2314037563 -1.084202172e-19) 314
(0.3023163089 0.2053662122 0) 143
(0.2776392984 0.2452629091 1.084202172e-19) 380
(0.2873401355 0.2125603239 0) 201
(0.2733355 0.2690161017 0) 499
(0.3019580168 0.2229541927 -2.168404345e-19) 233
(0.2720511189 0.1913561215 0) 79
(0.2465911709 0.2081799304 0) 196
(0.288014013 0.2427999234 -2.168404345e-19) 351
(0.2804520968 0.204260609 -4.33680869e-19) 140
(0.2225188897 0.185650406 -3.252606517e-19) 73
(0.2895676519 0.2758827982 3.252606517e-19) 532
(0.2837579086 0.2505345638 -2.168404345e-19) 411
(0.2607444062 0.2681795988 -2.168404345e-19) 498
(0.2916805034 0.2224905005 -3.252606517e-19) 262
(0.2733194385 0.238173138 -2.168404345e-19) 349
(0.2594234079 0.2595413509 1.355252716e-20) 438
(0.2585384252 0.2113490612 0) 197
(0.2819304415 0.2247356475 4.33680869e-19) 260
(0.2446960715 0.2075454151 2.710505431e-19) 196
(0.291462353 0.2430838929 2.168404345e-19) 352
(0.2730487696 0.1980904324 4.33680869e-19) 139
(0.2912699612 0.2473346733 6.09863722e-20) 382
(0.2909660895 0.1801808018 1.084202172e-19) 31
(0.274798503 0.2009220031 -2.168404345e-19) 140
(0.2829405582 0.2051859111 0) 171
(0.2850267274 0.2207849234 -2.168404345e-19) 231
(0.2661100303 0.1956742148 4.33680869e-19) 108
(0.2750364314 0.1957603447 -2.168404345e-19) 110
(0.2843254968 0.1951925758 -2.168404345e-19) 111
(0.25509869 0.236633097 -1.76182853e-19) 347
(0.2676321867 0.221810301 0) 259
(0.3014998904 0.2302871159 -1.084202172e-19) 293
(0.2867130408 0.2563965998 0) 441
(0.2541364444 0.1953500764 2.168404345e-19) 107
(0.290340388 0.2777336537 -5.421010862e-20) 532
(0.3040069874 0.1697285287 -2.168404345e-19) 5
(0.2766977984 0.2144906196 -2.168404345e-19) 200
(0.2415645775 0.2151406391 -1.084202172e-19) 225
(0.2951494122 0.2218096408 4.33680869e-19) 232
(0.3005956161 0.2281126159 2.168404345e-19) 263
(0.2711971961 0.2007427325 5.421010862e-20) 139
(0.2511462603 0.2543849508 2.168404345e-19) 436
(0.2941911361 0.2108587138 2.168404345e-19) 172
(0.2497039227 0.1754114526 -2.168404345e-19) 25
(0.275378238 0.2471058267 -3.252606517e-19) 380
(0.2848504132 0.2748855433 6.776263578e-20) 531
(0.2968324052 0.2893565727 0) 622
(0.2910431206 0.2198390932 -5.421010862e-20) 232
(0.3000972708 0.2591060283 -1.084202172e-19) 443
(0.2703975342 0.1777725804 -3.184843882e-19) 28
(0.3011071673 0.2488791464 1.897353802e-19) 383
(0.3013020561 0.2357074689 -1.084202172e-19) 323
(0.2567656738 0.282762056 0) 587
(0.2550356568 0.2481165147 -2.981555974e-19) 407
(0.2513423814 0.2284914352 0) 286
(0.2779888381 0.2021970595 -2.168404345e-19) 140
(0.2781275258 0.2989381308 -2.168404345e-19) 650
(0.1821378732 0.1938356275 -2.168404345e-19) 157
(0.2818159656 0.2468028433 4.33680869e-19) 380
(0.2572635997 0.2486692158 0) 407
(0.2784700562 0.1976091105 2.710505431e-20) 110
(0.2898178631 0.2512476841 -1.084202172e-19) 412
(0.2321100841 0.2240527017 2.710505431e-19) 284
(0.2763756318 0.266052352 -4.33680869e-19) 470
(0.2569899915 0.2954236467 2.168404345e-19) 647
(0.2735995414 0.2431812284 -2.168404345e-19) 349
(0.2359709158 0.2012484844 2.168404345e-19) 164
(0.2620887898 0.2170455406 0) 228
(0.2736119866 0.2693995263 -2.168404345e-19) 499
(0.2371463834 0.1942359747 0) 135
(0.2708265471 0.2116198911 2.710505431e-20) 199
(0.2469180134 0.2239147948 2.168404345e-19) 256
(0.2418600443 0.2043478414 -2.168404345e-19) 165
(0.261945432 0.2852107883 -2.710505431e-20) 588
(0.278255047 0.1935372176 2.168404345e-19) 110
(0.2846511295 0.2338759687 4.33680869e-19) 321
(0.2651580205 0.2049029522 1.084202172e-19) 168
(0.297915525 0.2385724695 2.168404345e-19) 323
(0.2610175108 0.2106858889 0) 198
(0.2950208605 0.2731000643 -4.33680869e-19) 532
(0.2842121058 0.213045722 2.168404345e-19) 201
(0.2924769322 0.2975305319 -5.421010862e-20) 652
(0.3046187771 0.2406837278 0) 353
(0.2811107463 0.2908928212 -4.33680869e-19) 620
(0.2867811699 0.2641135822 1.084202172e-19) 471
(0.2928755033 0.1819317001 0) 31
(0.3011414646 0.2306100495 -1.084202172e-19) 293
(0.2851883541 0.2524309332 -2.168404345e-19) 411
(0.2751249789 0.210697344 1.626303259e-19) 200
(0.2946072765 0.1734470685 2.168404345e-19) 15
(0.2926005223 0.23514458 -4.33680869e-19) 322
(0.2559519616 0.1967920295 2.168404345e-19) 137
(0.2832102226 0.2628050877 0) 471
(0.2846260028 0.2096623528 4.33680869e-19) 171
(0.2901347292 0.2379710334 0) 322
(0.2765763307 0.2492436353 0) 410
(0.2661042351 0.1730761351 2.168404345e-19) 11
(0.2929979387 0.1887896207 2.168404345e-19) 53
(0.3032244841 0.2288747934 -4.33680869e-19) 263
(0.2926513716 0.2698714612 5.421010862e-20) 502
(0.2834333726 0.280229765 4.33680869e-19) 561
(0.2961401659 0.2174908421 2.168404345e-19) 232
(0.2874599265 0.2005810705 -4.33680869e-19) 141
(0.2738493062 0.2089731997 4.33680869e-19) 169
(0.2814672678 0.1860708719 0) 51
(0.2649686855 0.2873891352 6.505213035e-19) 588
(0.2310106048 0.1644972075 3.252606517e-19) 7
(0.250799997 0.2221721966 0) 256
(0.2524426038 0.2803865669 0) 557
(0.2879426962 0.2547598843 2.168404345e-19) 411
(0.2859113548 0.2749128221 8.131516294e-20) 531
(0.2835514872 0.2525550854 4.065758147e-20) 411
(0.2651074419 0.2901642511 -6.505213035e-19) 618
(0.2462648397 0.2047896426 -2.710505431e-20) 166
(0.2932763523 0.2698736775 3.794707604e-19) 502
(0.2791354559 0.2039535159 0) 140
(0.2974768897 0.2206383202 1.084202172e-19) 233
(0.2844279485 0.2737898641 0) 531
(0.2787136646 0.254428858 -1.084202172e-19) 410
(0.2802691919 0.2966572805 -1.084202172e-19) 650
(0.2733320958 0.2980485436 2.168404345e-19) 649
(0.2723992019 0.208525248 0) 169
(0.2961508056 0.1905364416 0) 82
(0.2686109181 0.2184118624 0) 229
(0.299960282 0.2182669015 3.252606517e-19) 233
(0.2441635628 0.1732102735 2.168404345e-19) 25
(0.2858907029 0.2614803588 0) 471
(0.2872679703 0.2425116441 0) 351
(0.2740483797 0.1770938418 0) 28
(0.274582679 0.2625319341 -2.168404345e-19) 470
(0.2731248514 0.1965230554 -6.505213035e-19) 109
(0.2729496697 0.2327119981 0) 319
(0.2754356242 0.2538538175 0) 410
(0.2334466439 0.2125213668 0) 224
(0.2620074854 0.2899740583 -1.084202172e-19) 618
(0.2751816295 0.1927598795 2.168404345e-19) 110
(0.2669185561 0.2159045913 2.168404345e-19) 229
(0.2905903464 0.2377102765 -2.168404345e-19) 322
(0.2902781356 0.2110139628 -1.084202172e-19) 172
(0.2807014087 0.2501155433 -6.505213035e-19) 410
(0.276131677 0.1949109783 0) 110
(0.2941404499 0.1925988513 0) 82
(0.2514690619 0.2416354976 0) 347
(0.3027225169 0.2084569641 0) 173
(0.267871721 0.1975486379 -2.168404345e-19) 139
(0.285472263 0.271714341 2.168404345e-19) 501
(0.3028028116 0.2592643609 4.33680869e-19) 443
(0.2907578119 0.2268918717 -2.168404345e-19) 262
(0.2845482907 0.2539273755 -1.084202172e-19) 411
(0.2865451975 0.2480993765 -1.626303259e-19) 381
(0.2933403923 0.2492701266 -2.168404345e-19) 382
(0.3005214988 0.2845640235 0) 593
(0.2957295593 0.2718802146 -2.168404345e-19) 502
(0.2804254695 0.2708960835 -4.33680869e-19) 500
(0.2676727667 0.2020562994 0) 139
(0.2761767928 0.2815136087 0) 560
(0.3021751756 0.2682900455 -2.168404345e-19) 503
(0.2950309397 0.2191144994 2.168404345e-19) 232
(0.2729044988 0.2074666262 2.168404345e-19) 169
(0.2391096053 0.2147309583 -3.523657061e-19) 225
(0.2684884168 0.271985467 -2.168404345e-19) 529
(0.290385663 0.2176803532 -2.168404345e-19) 232
(0.2679907446 0.2577916406 -5.421010862e-20) 439
(0.2872798446 0.2710286423 0) 501
(0.2652248563 0.2758161376 2.168404345e-19) 528
(0.2442710692 0.2353517973 8.131516294e-20) 316
(0.2911157146 0.2582865981 -2.168404345e-19) 442
(0.3021487337 0.263089653 0) 473
(0.2634821562 0.2127365034 1.084202172e-19) 198
(0.2856262555 0.2717660528 -2.168404345e-19) 501
(0.2797724432 0.2047371113 -4.33680869e-19) 170
(0.2608843798 0.199289714 0) 138
(0.2780559908 0.1984527057 0) 110
(0.2354031061 0.2618408109 2.168404345e-19) 464
(0.2776684284 0.2183201987 4.201283418e-19) 230
(0.2980870375 0.2338682638 3.252606517e-19) 293
(0.2621652694 0.2446607795 -5.421010862e-20) 378
(0.2524892107 0.1959854221 0) 137
(0.2423945587 0.2755724452 2.168404345e-19) 525
(0.2774807737 0.2209870381 -4.33680869e-19) 230
(0.2434776961 0.2735585079 1.93123512e-19) 525
(0.268848876 0.2786041077 -1.084202172e-19) 559
(0.2877127373 0.2401035136 0) 351
(0.2708668665 0.1822482361 -2.168404345e-19) 50
(0.298523238 0.2925274916 -3.252606517e-19) 623
(0.2993845854 0.2504884016 0) 383
(0.2653988512 0.2065968944 4.33680869e-19) 168
(0.2775382444 0.2057030259 -4.33680869e-19) 170
(0.2689940457 0.2015199855 -8.131516294e-20) 139
(0.2749036998 0.2122384174 -2.168404345e-19) 200
(0.2790160223 0.2701864395 -2.168404345e-19) 500
(0.2823550887 0.235873127 0) 321
(0.2673265704 0.2430527975 -4.33680869e-19) 379
(0.2749016698 0.1836310136 0) 51
(0.2813707266 0.2936162356 2.168404345e-19) 620
(0.2684092803 0.2355489888 0) 319
(0.2868460638 0.2106229013 -2.168404345e-19) 171
(0.196785487 0.2805775134 0) 549
(0.2954150491 0.2833772512 -4.33680869e-19) 562
(0.2891780484 0.2604862853 2.168404345e-19) 441
(0.2830300592 0.2734994107 1.084202172e-19) 531
(0.2553439622 0.293708567 2.642742795e-19) 617
(0.264412175 0.2463800968 1.084202172e-19) 378
(0.238625517 0.2279388284 2.168404345e-19) 285
(0.2980371505 0.2793315586 -1.084202172e-19) 563
(0.2725595565 0.1875272718 0) 79
(0.2477236218 0.1695844463 2.507217524e-19) 9
(0.295855568 0.1910668015 -2.168404345e-19) 82
(0.2769701221 0.1727257211 2.168404345e-19) 13
(0.2285222094 0.1967739242 0) 133
(0.254088742 0.2156248765 -3.794707604e-19) 227
(0.22741857 0.2200944198 0) 253
(0.2549384764 0.2936044299 0) 617
(0.2773039175 0.2836746054 3.794707604e-19) 590
(0.2548053933 0.2156341651 1.626303259e-19) 227
(0.2804951291 0.2479878203 4.33680869e-19) 380
(0.2701479925 0.2705321185 0) 499
(0.2814540294 0.2168249261 -2.168404345e-19) 230
(0.275333044 0.2032365422 1.490777987e-19) 140
(0.27972927 0.2258300775 0) 260
(0.2495565098 0.1997496088 2.168404345e-19) 136
(0.3043929578 0.2797271974 1.084202172e-19) 563
(0.2645172178 0.2176854895 1.084202172e-19) 228
(0.2772294788 0.2570455671 -1.28749008e-19) 440
(0.2807445447 0.2749689485 2.168404345e-19) 530
(0.2513359803 0.1994909246 0) 136
(0.2621960651 0.1921019713 -5.421010862e-20) 108
(0.253444245 0.272300172 -2.168404345e-19) 527
(0.2607680859 0.1934165315 0) 108
(0.2812635786 0.2831611016 0) 590
(0.2465555534 0.251197742 6.09863722e-20) 406
(0.3002971567 0.2936052748 0) 623
(0.2537035925 0.2062750906 0) 167
(0.2644440882 0.2651626604 0) 468
(0.2723648856 0.2593111174 0) 439
(0.2879622416 0.2664858975 0) 471
(0.2831836401 0.2835797482 4.33680869e-19) 591
(0.2658068658 0.2722608728 0) 528
(0.2658750805 0.1880964813 -2.168404345e-19) 78
(0.2913685603 0.176999444 -1.084202172e-19) 15
(0.2475771321 0.2208716665 9.486769009e-20) 256
(0.2660930814 0.1997837916 5.149960319e-19) 138
(0.2388487625 0.2214578271 -2.439454888e-19) 255
(0.2715855583 0.2135317764 2.168404345e-19) 199
(0.2987198666 0.2318975896 4.33680869e-19) 293
(0.2971376933 0.2737672662 0) 532
(0.2737404328 0.2612363381 -2.168404345e-19) 469
(0.2368767903 0.2908416012 2.168404345e-19) 615
(0.240300496 0.2775721304 -2.168404345e-19) 555
(0.3030244805 0.293849114 6.505213035e-19) 623
(0.248535068 0.2275043879 1.084202172e-19) 286
(0.2667061743 0.2738985568 0) 529