/*--------------------------------*- C++ -*----------------------------------*\
| =========                 |                                                 |
| \\      /  F ield         | OpenFOAM: The Open Source CFD Toolbox           |
|  \\    /   O peration     | Version:  2406                                  |
|   \\  /    A nd           | Website:  www.openfoam.com                      |
|    \\/     M anipulation  |                                                 |
\*---------------------------------------------------------------------------*/
FoamFile
{
    version     2.0;
    format      ascii;
    arch        "LSB;label=32;scalar=64";
    class       vectorField;
    location    "0.003/lagrangian/dsmc";
    object      U;
}
// * * * * * * * * * * * * * * * * * * * * * * * * * * * * * * * * * * * * * //


6146
(
(1094.51096 -618.4217456 -537.3466245)
(758.1461827 178.1909651 -106.6537458)
(2190.146795 153.8354639 468.3153743)
(1033.619189 -128.5313884 245.1986713)
(1151.788346 596.7878898 119.7563122)
(1027.965763 -393.9073369 -164.7585988)
(1866.620277 1334.452522 -128.622178)
(1330.82868 1245.705813 593.0409449)
(1378.977085 914.7792012 603.8359417)
(1555.762504 589.5543647 265.7025112)
(1117.662529 -151.8258309 343.0118357)
(1825.538006 60.31560091 -159.7956028)
(497.0856761 385.6941725 389.9347564)
(1767.038276 930.7949753 11.72564486)
(871.2423264 44.88111367 282.9091782)
(1376.193626 702.3191228 -764.9664758)
(1725.207519 237.0673826 -628.3922644)
(1330.847894 -346.4830124 607.444949)
(1300.739847 654.8966107 909.2437725)
(1656.528565 521.9394469 152.1437983)
(1744.216351 464.7917876 -727.4992262)
(491.1329296 182.4089618 -11.79031876)
(863.5220332 576.5436367 -234.3167554)
(1181.296335 3.867810845 50.7453649)
(1170.395463 527.2556198 -362.997421)
(1526.701528 337.8689777 -62.64375598)
(1683.958043 -46.21728057 1016.701929)
(1450.277233 -170.5000883 -204.2943206)
(1936.155044 113.0797448 -908.4856919)
(499.5637085 -723.9667706 -282.5345167)
(1499.041254 327.9773119 -55.66072764)
(723.0932191 393.4170441 -308.5685412)
(1493.499341 328.8024179 527.663266)
(1324.363093 312.4906116 -113.1995552)
(865.050834 1341.933281 869.8966237)
(1413.676332 298.9596941 394.6442013)
(1251.612472 284.8594544 -149.9010242)
(996.2173283 496.2605999 587.4385408)
(1900.531488 290.2607387 -386.6142899)
(1682.065278 -208.2791801 -251.8505641)
(1403.53487 554.7800552 -301.2012233)
(1255.477915 -54.5650388 -82.0215012)
(1849.19809 127.6130609 394.1746382)
(899.5698633 356.5948602 61.0628433)
(2502.732835 542.1263716 236.9493316)
(1292.997048 -85.21339804 -308.8022038)
(1296.770133 372.3136906 -455.3785028)
(1421.87516 371.6422313 -633.1508221)
(1127.91858 -462.3880374 257.5832771)
(2024.456844 101.7990757 -171.1171858)
(1418.273701 -530.1830952 -33.88591137)
(2019.87782 87.50933949 228.9171135)
(591.1722331 -418.360436 136.3969243)
(2021.022615 283.3070585 386.0976316)
(973.6641915 481.0527201 396.6347251)
(1352.719898 82.83636096 84.51618289)
(767.986449 217.3810195 492.782909)
(1566.507045 216.3717022 -21.38389204)
(1601.436739 -48.70010145 196.3043743)
(1684.21776 -181.6849125 -253.5226597)
(717.6255072 228.5766461 -463.21851)
(1868.135699 -442.5874519 -383.8645952)
(1192.72616 300.9529204 -315.3053577)
(1260.218844 378.5478527 387.9016986)
(1210.663201 -255.0960708 76.97549277)
(689.3993551 729.7551819 14.61765136)
(674.725497 413.0924381 -212.2749399)
(1329.154221 -129.667011 -393.8995482)
(2050.470753 435.21484 52.01555327)
(1479.331698 619.9346139 -631.6800095)
(1279.550795 286.9863001 433.0716898)
(790.3198215 -106.4718355 206.693741)
(1053.354392 653.3527162 -495.3402618)
(1637.64878 -330.903527 390.1863106)
(1523.484892 84.71086216 31.68387867)
(1800.705276 407.9659843 259.4041359)
(1278.05697 -200.7127992 -740.8059524)
(1553.868215 535.1654721 -402.3309253)
(1590.72379 17.58529643 1133.244151)
(1294.255301 42.94031489 107.2576103)
(1509.759226 -59.61246936 599.7654023)
(1430.43342 -87.66903674 135.8365036)
(1342.837378 59.21510785 -137.6619852)
(792.8457946 -49.24241673 155.7177747)
(1272.401897 75.14104422 411.4784891)
(1799.634889 -77.54089895 408.0138596)
(1397.132571 -202.5071569 403.2345948)
(1211.55419 -545.3396938 -209.4293486)
(1868.428697 465.7975363 272.3085812)
(1387.236328 -380.2941696 110.3559845)
(1090.146083 899.3797366 68.95884221)
(1521.306429 -119.8117169 -266.2517845)
(1492.266826 -59.83331631 329.1661662)
(1866.573247 292.2923683 -524.9944154)
(1789.497341 721.825924 -333.2606161)
(1359.8497 81.98268743 187.3208769)
(2067.514637 -229.505931 353.7171637)
(2184.292237 -143.0125322 -129.0964501)
(1452.030763 -163.2994185 -1308.16094)
(1651.045285 216.0735584 -206.3593421)
(1004.334289 222.0912699 15.92014607)
(1009.794493 -127.2394508 759.1926398)
(1373.501907 -117.6889971 160.1368459)
(909.9082712 -227.9379309 540.994133)
(1345.701796 300.8237348 74.39210118)
(1545.808619 -40.39229946 -242.3453787)
(1483.316789 219.5883615 -12.26758727)
(1015.025796 567.8363745 666.1099108)
(1529.810928 -174.096781 135.4451262)
(1330.528715 47.81976661 -148.2220696)
(1284.25768 1189.993635 -275.2382742)
(1037.241711 557.2334576 28.16186026)
(1892.569879 163.0669573 31.98781435)
(1332.260602 393.9875165 -336.0059891)
(1048.96305 111.2298865 311.445554)
(1811.633674 -124.9915842 517.7363319)
(917.2002747 104.4821592 395.9715527)
(1745.608095 293.3828303 680.0364179)
(1277.960724 -149.3561638 701.3501257)
(1543.742427 -175.8976218 -616.8869485)
(931.5887802 347.8410599 328.5903661)
(2292.812581 442.5795267 355.5906311)
(1676.31218 456.0287652 -258.4385031)
(1468.834117 -477.4160486 -429.4439121)
(1675.360812 -526.8445472 126.5475449)
(180.4665341 839.0672464 214.2043413)
(1671.894859 250.6953133 195.5679523)
(357.0170984 511.6455342 287.8295597)
(1429.898623 -353.4649015 43.88764089)
(1109.47761 295.2553512 -178.0450707)
(1388.238889 594.1039376 -115.832539)
(1044.734246 -85.4963897 213.4602232)
(397.4361369 -247.6793031 -30.21686587)
(1432.448014 332.6247682 259.0698695)
(1894.315411 368.4231039 -234.9062858)
(1191.995342 68.59078416 -184.0752747)
(1674.926579 1561.720361 417.7093367)
(1863.854789 455.1519824 -109.8516487)
(1378.074668 -454.467509 782.1201837)
(1082.1531 21.55840617 9.445026923)
(1590.80804 483.0411649 253.4790898)
(578.8705688 -164.523905 -481.6970427)
(1899.655871 66.06906209 -185.92725)
(1233.877295 348.8003866 -132.3738154)
(1410.503526 305.4988083 -504.2261855)
(1539.391793 -168.7838646 -235.3917295)
(1179.072924 339.437575 -1024.065837)
(1540.760258 -118.2103654 -388.8675838)
(1420.770782 335.6867345 138.2358471)
(619.2833055 252.8920123 -178.9592878)
(1554.485062 437.2358957 49.47660014)
(1694.982976 132.8852201 156.8667107)
(1144.770268 -195.5147597 -701.5614916)
(1284.192384 -407.0976088 -6.331076258)
(943.3693929 1492.473353 -176.3216203)
(1724.271041 429.7909429 -89.92795226)
(1639.283793 252.7313202 229.9042705)
(1842.373552 282.7382251 -184.276467)
(1223.235667 305.5684141 356.5962197)
(1699.716569 171.712124 -164.5343872)
(1253.395697 645.1507939 -406.5724841)
(1607.961052 361.858067 89.83525464)
(1803.33742 444.0243793 222.7149831)
(2134.599854 746.4859035 320.7551772)
(1713.70946 -113.634288 -271.5502741)
(1227.37637 1068.897805 -175.522304)
(2227.151962 4.789957876 450.8490439)
(1234.162954 -79.5880977 -542.4580898)
(1631.492498 183.2016541 -403.5516992)
(753.2678145 -556.636113 274.4390211)
(1623.789608 72.68999954 116.6722165)
(1281.817386 -12.71070606 73.51698385)
(1029.421212 1164.863381 -1161.958073)
(1565.654731 -70.72682178 -151.5924066)
(1441.365826 -104.2809392 414.7165658)
(1844.359707 690.257866 452.5979397)
(1436.618763 465.4782739 236.5235806)
(1008.917004 640.7792285 -265.0515264)
(813.333627 666.9867334 -102.2278277)
(1277.460938 217.4005429 -102.1651536)
(1786.856165 323.5096951 48.44387802)
(918.1429447 181.4682992 -432.3923059)
(1436.769026 -444.9620366 -146.6958637)
(1042.030536 -417.9579917 619.4561888)
(1603.324908 44.9482579 -160.0797943)
(1437.135232 -570.3179329 56.9801342)
(1838.653681 359.5476278 28.92742115)
(1216.610452 566.40124 301.5223241)
(1097.069271 1141.985991 331.327477)
(1292.203553 317.3949433 -69.02771436)
(1798.601189 -217.3635365 241.9841258)
(1045.448187 -3.600273485 -399.2630719)
(2053.466384 170.1457475 366.5896177)
(1527.704011 106.1885284 -17.64657061)
(1218.835616 306.1714565 20.10494613)
(1596.621827 959.2787283 435.2413184)
(1897.250898 368.5072093 220.1756117)
(1182.90749 -80.10498095 169.1547708)
(1483.200235 -256.5233968 -51.43111285)
(1067.035605 747.9625914 -18.99108885)
(1407.966052 -1007.024082 151.9367796)
(1402.036021 -9.927569916 -408.3324543)
(1669.864465 -126.7454788 -28.56031397)
(2135.99966 -454.1172328 -276.7689207)
(1700.339312 -499.9293679 432.2559723)
(825.6140741 -138.7400989 400.6463755)
(1976.792735 234.6657582 -383.4607614)
(1481.599343 -3.856269241 214.6683248)
(1795.380639 556.0221211 288.2934633)
(1033.038639 114.0654744 271.7397708)
(623.1127129 66.72600512 -471.598149)
(1568.825761 146.8451536 -384.9242185)
(1969.551936 135.3211259 191.2082897)
(1399.012768 96.83379571 728.314252)
(1798.165233 -361.8179184 -158.2996039)
(1450.150235 18.14897753 -100.8633648)
(1403.704993 423.7815969 -482.7081363)
(1377.428959 104.5915697 112.3511095)
(1273.632776 816.3599785 111.9558353)
(1686.410029 884.8259638 188.9304586)
(1275.052947 -158.5638831 -29.49153792)
(1220.708784 251.6686404 -810.6047744)
(1389.315072 41.55889416 -310.3643748)
(1801.832019 -339.077951 -61.04993576)
(744.6141674 103.4755235 -313.6191404)
(2068.256512 -195.26691 -143.9421177)
(1493.232339 278.6931646 514.9219196)
(2402.52439 834.1712338 13.95620612)
(933.7875601 207.877025 -93.6036565)
(1895.515538 -8.191000176 -105.3133068)
(1738.343048 -779.8128563 -250.0403697)
(1225.505596 125.2953788 -384.2586708)
(1293.675915 221.4418675 71.85243707)
(1877.917365 -206.2672404 227.761267)
(1531.346142 168.4299046 562.2421344)
(1332.493136 210.5403999 511.0826336)
(1570.354281 1072.752525 454.812752)
(1684.200218 101.2678747 -339.5809266)
(1294.928415 -214.9482561 242.7239765)
(1211.891049 76.88057474 -426.2380158)
(1578.318585 352.1280488 100.168623)
(1314.70605 272.8304073 194.2924894)
(1234.288478 439.3029802 -27.50757481)
(2127.812307 164.6370097 201.4035289)
(1386.428949 -81.32670269 110.9697232)
(1039.108901 732.7293301 -218.206131)
(2240.989964 -333.5591203 -313.3866633)
(1961.400777 158.4173623 -513.7174349)
(1314.976859 -133.3624318 291.9904829)
(1161.001036 73.09949567 -369.0335548)
(1737.239163 -282.193014 -224.0779739)
(1804.89642 152.9224397 -301.7587711)
(1685.06198 296.2061191 -187.4595425)
(2091.365528 -123.2484737 -15.18993276)
(1655.986811 -250.3378003 -786.7765397)
(1923.902238 320.1382234 -71.98559328)
(2180.554664 -36.93418029 489.8448485)
(1415.648797 130.5258313 -75.69403515)
(1566.354405 465.5846833 33.62485847)
(1303.478513 169.8792169 702.8539044)
(697.980303 870.8819807 -43.18562434)
(917.4909711 123.2873154 25.48085834)
(1493.954615 -286.743334 120.2268136)
(1500.310103 458.8632836 -223.5712367)
(874.7730915 -25.93440685 -133.6335448)
(1325.903036 -4.537949465 -304.0983504)
(1906.402364 434.597627 165.2090884)
(1734.487992 915.996402 325.5335103)
(1779.612487 78.6120231 -260.1235733)
(1704.803774 -14.37079059 -377.0667745)
(1281.936272 216.6792622 -268.1754322)
(1800.411756 -395.6148389 518.9571439)
(2355.185524 605.9903245 -46.72238579)
(1357.305909 -1.491731007 -374.7723602)
(2360.582797 305.0860905 478.5940505)
(1518.590509 721.5793328 -113.1300937)
(1249.041241 -293.8400164 395.4468765)
(1118.973668 6.414195931 -109.8380903)
(1938.598478 630.8675927 169.465665)
(1875.070785 343.3279232 -417.8574094)
(1587.439866 -96.82574787 168.8406835)
(1775.245606 283.1904166 118.520181)
(1940.105164 148.3079552 -358.7354271)
(1472.931323 -52.59224752 -8.295249984)
(2594.010413 -76.19187461 -100.6625157)
(1862.706612 247.5448692 230.1923707)
(1691.048637 408.5775662 -728.4944726)
(1443.082381 -65.51701505 129.7979157)
(1395.998715 -81.31422508 42.27094)
(1764.261534 -279.3618039 -311.6547248)
(1491.891357 601.8842607 643.6169833)
(1638.758084 243.4819084 -355.3659667)
(1822.793532 -15.24308239 -2.094941143)
(1842.497495 43.85871522 -242.5979226)
(1724.729647 1155.825397 -256.3886889)
(981.8787529 -424.7287409 106.7089351)
(1449.340698 -114.1022079 -321.6254508)
(1278.101467 -234.5810238 -373.7654036)
(1732.265276 126.6874123 152.508454)
(1593.577461 496.3170007 33.94652181)
(1483.274615 -86.73026123 -313.5430857)
(1481.290534 87.17269059 -95.86178453)
(1229.10243 220.7155229 -453.1387727)
(1177.923944 493.8672021 -214.3634855)
(1327.924594 -107.6036616 77.00181708)
(1499.729241 398.8338179 776.6737958)
(1708.894823 -63.31367477 488.1584633)
(1370.908053 193.9945482 -127.8492734)
(1595.021177 401.9666178 -261.076799)
(1218.922691 699.1680883 200.1144804)
(2182.351303 716.2446345 370.5788906)
(1594.679092 343.6269986 -296.265862)
(1485.044908 540.3727155 235.5245399)
(1347.069958 104.8649899 344.8985975)
(2155.064993 -201.1713995 -408.5836606)
(893.9455485 -166.2532639 350.2553245)
(1730.000504 412.4916731 -166.1779026)
(1681.51309 -555.1764869 236.9154506)
(1457.892226 308.4249055 235.9384614)
(1572.886625 559.4741357 116.3484092)
(1260.821953 809.3986109 40.32072563)
(1580.41595 342.8259678 -132.8492596)
(1465.055243 -124.3203247 -438.0971638)
(1722.041014 500.4266715 -218.1509452)
(292.5440013 396.4260431 -434.629213)
(1424.812881 850.6355766 32.05812231)
(579.0218082 859.6496047 -243.0189462)
(1631.748449 252.6567248 -460.2195851)
(1308.634469 247.0911122 193.1969956)
(1783.637018 30.16019617 58.9582399)
(1530.232751 360.0011455 416.1915336)
(1746.564176 500.971713 -495.7925622)
(851.2996304 -38.06356493 -189.2006038)
(1121.443704 236.4466733 -121.1854355)
(1715.249975 184.5925765 -217.3838532)
(1761.309131 295.4994284 1065.764266)
(1765.101937 407.0229024 -69.89092664)
(1437.677297 -407.4914109 -63.74988066)
(1308.170386 -106.6056181 -815.8874319)
(1532.804359 -334.0809162 50.55959631)
(2511.994834 93.55936625 317.8037032)
(1384.382784 324.3475593 112.6046903)
(669.3766638 -42.26981844 -268.9008915)
(1349.396397 -216.9779244 80.78076738)
(1123.533511 458.8443102 306.59756)
(481.2932808 -231.781897 -337.1495511)
(1783.547331 -431.3678399 308.4547215)
(1531.011089 108.8962361 419.3581996)
(1690.824577 79.79099621 -282.6894694)
(1579.029048 -121.297043 274.9530275)
(1159.857728 -30.04388533 24.32250993)
(1469.331043 421.7674077 -2.820406585)
(1727.723941 591.1506282 560.2949335)
(1584.730032 -28.62742808 90.46581745)
(1050.839856 623.7211813 -621.1372271)
(1700.092419 -277.4900214 -24.19765878)
(1134.183741 -157.6383439 -207.2714508)
(1577.394769 57.92989536 -446.104768)
(1351.164688 217.460329 -128.5300658)
(1498.215591 316.4031084 -86.98032949)
(1532.060342 -212.8268977 601.7288694)
(1708.078991 727.7228965 -261.7788354)
(321.4845893 1224.453543 284.5199401)
(1965.613414 515.4246258 414.6052042)
(1768.892055 64.22396048 -415.5096399)
(1675.787908 114.5985349 321.6700964)
(1565.886391 112.5819124 58.63843878)
(1364.539358 154.789562 -443.1137953)
(964.1210307 -49.29844174 -224.980771)
(1852.848449 197.4229472 4.412466031)
(1385.599191 -263.0594342 -396.6088907)
(787.5437072 807.4592301 -1105.64932)
(2031.832267 892.9194275 543.77492)
(1185.152482 203.1530069 -152.3745079)
(1145.181353 218.7162793 -609.7435279)
(1106.470928 648.8106161 -415.1956362)
(1666.767613 59.21582671 244.4725283)
(1688.834953 -124.5201542 -95.23381127)
(1610.701929 272.8823048 -622.5095911)
(2048.827472 646.0410284 -273.0678065)
(1715.595879 336.558707 -38.82638958)
(737.8133386 25.24689368 -208.3451358)
(1599.11967 -200.0163237 223.9239754)
(1500.081274 217.7112713 -587.9854116)
(1701.413497 54.81261174 152.4042805)
(1616.696606 171.5551477 420.5518478)
(1324.930409 -64.24645228 622.400038)
(1495.184335 195.3211496 -55.35880973)
(1437.05891 -368.7473236 -500.2671542)
(1583.583613 89.23450332 84.31638428)
(2137.552467 -201.1114358 93.39360583)
(1530.775455 68.96057401 71.90559755)
(1442.661801 -70.37344083 241.3276709)
(1695.198401 187.9394269 260.3202099)
(1877.585607 256.7341654 -165.0234541)
(1597.814872 71.35385882 659.3248666)
(1013.921067 227.1782603 314.6102484)
(2058.655657 -104.2702994 -371.7075661)
(1560.845155 713.3756638 -644.731576)
(1807.184098 668.7405486 -158.2473639)
(1909.695263 135.5375535 105.6779216)
(1307.075374 -267.4221928 451.2468318)
(682.5431668 673.8507125 -825.534063)
(1454.461085 246.0512423 2.837885315)
(1224.957043 -500.7637038 -531.4661083)
(1645.132858 -204.3468901 -141.2359696)
(1260.91642 22.80175734 772.0010573)
(1538.10929 -19.8288144 21.98740752)
(1404.817098 -150.0103566 -779.8969327)
(1675.505222 -273.9061608 -416.0650794)
(1815.144369 -497.32385 291.8704839)
(686.6215421 322.0826516 217.3942939)
(1354.233039 1024.718976 251.5982367)
(1595.283743 305.883617 737.3713913)
(1595.442124 200.6126855 -438.264637)
(480.0868347 -450.3831502 231.0719202)
(1234.458542 13.1439382 -445.9430051)
(2124.866234 -426.4948112 76.08872965)
(1370.645292 -494.3369593 410.0480219)
(1549.14211 293.0319093 -178.4046757)
(2005.848986 484.0385706 147.8380734)
(1595.658001 -52.66054611 -103.5637885)
(1756.992951 54.05514525 -7.042131311)
(405.8567986 118.898673 54.4985272)
(1547.884403 121.2716513 -454.5645776)
(1282.24253 701.3377067 -185.739899)
(2323.071327 42.24190938 254.19995)
(1371.561867 -85.85934168 1287.557275)
(1528.88608 624.1074921 435.8172512)
(1231.911477 149.3334903 -148.6467164)
(1276.728891 746.402264 310.9561724)
(1759.242266 -347.8452316 148.0575632)
(1694.048875 12.75757124 492.9299198)
(1236.447828 475.1671897 -98.39425124)
(1260.993787 70.50808238 -633.1689584)
(1290.249949 968.9739914 124.891992)
(1725.31647 891.9445068 -198.5673668)
(892.5124244 -393.3797148 600.2556477)
(1853.784339 -84.60169985 159.796352)
(1716.01519 -77.25747678 47.31944774)
(985.4110063 -122.9509849 152.9189448)
(1693.877845 -217.3984523 -613.6816104)
(683.9321573 200.5858576 181.2079554)
(1523.210641 5.76954458 191.1143356)
(1066.911396 433.3466117 -25.28398446)
(1734.663192 -152.3903025 -283.0775957)
(1494.951572 65.47330043 -140.0176493)
(1211.811144 853.6071604 612.2734206)
(2471.329955 106.0685225 379.6225805)
(1764.662924 921.5852406 -81.43557563)
(968.5689378 1126.654316 64.25336639)
(1616.574392 -110.6997459 275.7626521)
(1498.712971 -210.5146921 254.7220808)
(1791.999787 236.0338285 56.85533095)
(756.8535309 569.4411338 343.1125488)
(1417.930164 -578.5241304 279.3824648)
(1234.330691 49.75156316 -47.31669048)
(1360.426807 302.1885508 96.1314933)
(1349.923327 453.5904901 -431.1959897)
(1271.15803 -316.1203111 -12.1409291)
(1504.137274 -17.1370127 -411.6564535)
(1438.503622 -468.8476726 -402.7064847)
(1429.088942 977.501135 101.1628796)
(1733.648537 203.6731037 -89.14187763)
(73.56697298 324.1345312 576.1128104)
(1653.927358 150.1560497 316.2156642)
(1717.32784 -273.0906033 -500.0892765)
(1512.314666 -245.8635417 243.7020613)
(1747.27876 213.9404748 -279.7137804)
(1310.602339 479.6373125 -377.7387258)
(1930.422112 -155.1483401 -247.4742709)
(1878.814493 219.0902981 -685.8616772)
(1748.790262 473.0801029 240.8056516)
(2216.882105 -614.5793475 -557.6622682)
(1419.989225 655.6792094 -180.5768219)
(1632.833874 4.318053309 -149.858493)
(1016.232605 408.6967146 -436.951818)
(1383.593881 13.66606263 -323.410409)
(767.8043117 788.7330013 -344.3852234)
(1548.139779 -232.4945991 -19.66991927)
(1701.460413 90.89162505 94.20108799)
(1515.286757 -0.6095579164 -71.39258671)
(1523.457025 -51.53521642 370.9326226)
(428.194867 756.2094304 -115.6978146)
(1971.208396 -21.45613514 56.01750388)
(1252.655445 -220.4528053 -238.5469438)
(2309.102841 41.61046724 45.81386952)
(1661.009789 799.4379473 -250.4849935)
(1742.335783 470.590322 -430.1504157)
(1894.600121 -73.08552663 7.613775168)
(1775.898584 247.7078718 -411.3532747)
(1943.580267 -187.0040873 256.138271)
(1485.451342 -281.0562282 -363.5448573)
(1827.347233 486.5654882 -80.18983854)
(1525.465441 552.3175868 -164.921198)
(1708.050482 88.3796448 319.9970126)
(1589.048656 253.1091613 182.4000833)
(1679.599088 -198.7986548 -168.3894593)
(1079.188169 592.7178192 -674.343531)
(1176.439181 844.2122605 -279.293356)
(1894.875139 465.7130695 484.2872299)
(1728.635739 -698.7437237 213.4290079)
(2042.797785 260.0696833 -241.2830488)
(1429.276943 -205.2633406 -429.9566536)
(925.3821488 509.1027151 -542.4077249)
(1745.315146 202.5733488 133.1429266)
(1733.617814 275.1426195 -343.0531193)
(1372.200135 -544.3011229 -162.9300292)
(1571.234392 309.59047 -150.0239859)
(1846.370442 660.9436302 267.8544642)
(1731.461401 486.492384 355.878516)
(2143.680017 77.86969906 -138.7674991)
(1695.646656 -305.8516734 269.8302033)
(949.1923869 -535.4446472 -181.2885319)
(1275.126381 556.6555984 680.9820087)
(1063.557285 570.5063201 6.472938017)
(1685.883863 -156.6271868 290.9334816)
(1950.11689 45.46755418 -322.4926798)
(2142.748682 21.75963606 -198.5970882)
(1745.725043 226.600277 -16.54343108)
(1821.621679 173.0861954 599.803723)
(1659.905515 1688.859853 1019.253467)
(1162.07522 369.7071667 -713.3349728)
(1698.455665 -328.8224672 99.90457661)
(1797.044495 334.54582 321.1761123)
(1399.652266 -144.9558127 514.1225559)
(1525.993364 234.2681302 -121.5806712)
(1675.962177 165.0053231 -109.216905)
(1956.733399 591.4077057 326.255459)
(1883.152582 -211.5971602 -187.8054518)
(954.3410774 753.4361516 -62.46597902)
(1836.982541 1053.222108 491.9519999)
(1665.884658 765.2843587 155.8160859)
(1691.125676 367.7152818 105.8641386)
(1995.95918 -236.9792563 192.8206545)
(1940.593898 -1.658937823 106.4049847)
(1394.322874 -328.9108693 -546.2666401)
(1324.306543 -435.1094944 -880.946223)
(1837.997147 -108.9008682 -12.44732427)
(1647.016258 -24.75811608 -250.0045086)
(793.7963585 396.5372525 125.6462844)
(1731.067442 134.2464378 189.441574)
(1497.307085 -130.9955391 14.74377519)
(1326.397583 201.5476097 271.3502813)
(1325.876325 602.4847631 -97.23567523)
(2082.497185 -61.37880089 1139.546473)
(1599.937043 -248.3733957 -348.9284587)
(1114.746356 1090.826235 -494.1078996)
(780.5943258 449.033847 319.3540432)
(1626.701489 719.3474949 -443.6512483)
(1266.923937 -80.48168304 -488.058293)
(1476.622357 198.9729583 45.7266943)
(1018.923276 -73.80743629 -378.7494992)
(1371.911234 -188.1233712 -165.5287122)
(1607.558175 -233.1384941 424.6346784)
(1465.573892 -138.187322 -295.8072248)
(1583.791308 294.0142303 -272.1313272)
(1761.817839 341.3975481 -13.31514312)
(1632.616817 -330.7466293 -215.8772492)
(1993.576191 4.856474812 24.80347839)
(1715.97922 158.2621161 41.09229411)
(1320.926794 292.018693 480.1882683)
(1420.497614 91.46771271 246.4961175)
(1431.898574 55.46907042 -230.1596148)
(1823.57168 70.45115719 -419.7549469)
(1691.781204 318.1419829 222.5173234)
(1189.702375 374.2464202 -261.0076289)
(1739.880319 309.2718549 384.6131468)
(1772.565417 177.660955 170.396086)
(1551.331371 -264.0664153 242.6736327)
(1549.389623 553.699438 -202.763448)
(1547.675996 -117.4349196 -249.7772283)
(1361.618954 20.56833767 -49.31889467)
(1919.178188 201.7837157 -31.634108)
(2088.3171 144.5094939 345.8514908)
(1491.149594 61.67206976 -178.9721278)
(1945.577578 -118.2424557 388.6318222)
(1725.973073 79.16305978 -928.5885127)
(1617.321742 -424.8635575 -174.0221947)
(1980.855684 -468.8798271 540.6034086)
(1497.37543 -309.6801812 -237.125438)
(1826.291691 -30.24771774 359.4199448)
(2132.736578 -82.71526776 351.2407991)
(1628.512243 429.8535643 180.2762363)
(1670.842472 30.58028736 -277.4976996)
(1231.985697 206.3853483 -225.0528361)
(617.9161835 353.1671095 -98.88456951)
(1694.726989 21.28481468 72.34932827)
(1716.446774 -8.420913333 -476.7874803)
(1433.160679 744.967901 43.11064552)
(1661.58655 -92.30184488 -58.29128081)
(2039.243318 233.317603 8.401785868)
(2056.173881 -374.3057132 -6.811506106)
(1298.627013 318.7652741 9.57013919)
(1571.687831 1252.037489 91.27510273)
(1551.526282 -26.67700735 302.5920017)
(1248.764153 221.6568694 -763.4925303)
(1558.599605 180.0942528 -429.2040658)
(1458.762578 326.3505247 -676.6939195)
(1728.890302 226.0148623 232.7656308)
(1166.409866 62.22186731 -329.0826645)
(1731.675564 294.0864968 -479.0425511)
(1326.950604 232.988277 -502.6870711)
(1972.014615 -85.84505296 -7.887595392)
(977.8798402 1420.426067 440.3844311)
(1526.347155 98.37134154 722.8490547)
(2565.044583 330.5600094 9.66387279)
(1524.625417 -58.4301598 104.3819131)
(1982.937817 -135.0070623 -500.5272845)
(2119.341934 -265.2992466 -63.43930459)
(1834.070905 809.3276691 362.3223804)
(2257.432402 130.8658668 -102.7744554)
(742.5006234 521.4326118 -133.63349)
(1357.227683 220.5144968 76.27880057)
(1266.936288 812.9808592 503.2139914)
(1413.851602 62.18348313 545.1114596)
(1485.002183 -438.9856605 57.38578949)
(1683.549657 -50.38706178 420.8586318)
(1189.157916 144.7992038 -400.0164554)
(1800.053671 332.8966125 363.825768)
(2156.215114 129.8905553 -347.8937931)
(1763.595252 -380.9344896 251.8954404)
(1982.80406 271.3898935 -656.4364719)
(860.990483 1426.091887 -35.66603187)
(1691.20033 563.6767318 -704.5612272)
(1321.945586 1143.145836 -28.83913596)
(1372.340828 1059.723874 -724.5976875)
(1013.125351 186.2131031 208.872509)
(2080.109028 196.6099281 -397.5240422)
(1518.519385 26.08076168 291.4515345)
(1738.300726 151.4037748 66.70317725)
(1873.591295 11.01080033 614.7489062)
(1005.206465 283.0801608 627.0345128)
(1996.041495 -129.4308836 -194.2608803)
(1729.360638 84.18395359 28.16519461)
(1687.939794 -334.9180597 -576.7795223)
(1764.022554 402.3922361 57.77433888)
(1222.453538 -94.6420039 48.24006227)
(1614.004297 62.00625396 -224.8511825)
(1041.498379 670.2264724 1034.746243)
(1706.459878 225.760813 312.6013241)
(1644.800923 -214.585914 -132.2610815)
(2221.442709 -27.94254061 -349.2134576)
(1682.792888 595.9598909 -36.89314049)
(1488.790816 85.91141212 158.8401786)
(642.9651619 996.5959435 -30.62449174)
(1626.297001 -199.8515757 -207.5119419)
(2128.425057 -182.7705306 68.76071439)
(1651.61642 198.4677641 369.2858207)
(1416.817801 232.5147343 -225.1198478)
(1710.433282 532.8530664 15.68497598)
(2203.743225 -149.6912341 10.57912415)
(1330.784474 237.248144 285.8835787)
(1618.247268 -13.59774978 -83.59726238)
(1896.469633 130.0245932 -251.8918279)
(1492.537182 -7.759587796 105.7925519)
(1953.023386 308.465682 -671.8355007)
(1603.940366 575.6295691 -63.51449511)
(1709.619231 -131.1236973 -349.2174975)
(1068.397812 772.393743 86.47732276)
(1679.817618 -289.2256361 465.4660203)
(1744.435154 1.627315515 716.7814457)
(1659.642854 804.922287 -87.8670544)
(1531.217656 100.1759447 -96.90220514)
(755.4404117 211.9434623 789.6422709)
(1908.189566 -80.32825059 94.97161776)
(1059.015394 -32.23003301 258.727341)
(1834.784349 -9.705870502 -107.5266013)
(1720.716286 167.4472462 502.2745637)
(1660.473394 -132.9443174 26.78034878)
(1700.250782 1414.308632 -14.45634356)
(2091.743897 -255.9617495 394.9024909)
(1657.678573 893.3961831 155.9155041)
(1341.579668 -75.21205513 737.7171588)
(1813.041016 168.6801063 -300.3249342)
(2101.462829 -157.9456675 -55.01643853)
(1477.166167 470.5351688 533.4594977)
(741.7463662 440.432031 164.1819444)
(1781.192677 -214.1173139 -151.6118132)
(1264.384098 -404.6254553 -235.5171675)
(1347.071332 507.6860302 -493.1986018)
(1547.635931 -210.3979182 -409.1060028)
(1739.858388 20.57744665 -35.24906501)
(2061.646899 -391.516799 446.4854319)
(1596.538764 393.1872878 634.9991087)
(1702.819199 362.5297998 -111.5902147)
(1503.267519 748.2401715 -120.5645242)
(1370.917259 -302.4768824 10.46522818)
(629.5131691 -94.71969686 398.6700749)
(1919.894361 -281.8348225 -488.918365)
(1170.016973 495.2485765 -796.1128268)
(1150.107151 266.2403434 -258.0492764)
(1737.793374 128.7118135 -210.4310123)
(1478.521965 246.5457827 689.1641283)
(1165.650167 -445.4581506 341.5120382)
(1489.64027 45.64279032 -197.6239874)
(1512.007023 -91.99713353 2.507244501)
(1778.904298 389.2935064 -206.1907932)
(2112.192011 200.925439 -476.3106055)
(1554.225979 324.9874222 -436.2736637)
(1160.543392 76.68655559 -140.8993553)
(1394.274558 -373.6242931 39.94154074)
(1854.829027 942.3995479 167.2576343)
(1620.073568 290.7684525 -206.1289747)
(1851.421374 -572.2062555 146.6185644)
(1759.833193 617.3462152 -80.42150206)
(1330.907955 152.9789207 -455.6413967)
(1518.277544 151.2245798 283.4824758)
(2032.370458 295.3203397 -514.4156713)
(1975.56828 -486.7960454 110.1563827)
(1718.388171 233.7017624 186.3002638)
(1989.313146 -330.3042265 -251.1522028)
(1808.583763 850.5583044 -98.84489122)
(1663.730732 626.5026771 -639.6718491)
(1378.294893 -439.7767988 489.0645329)
(1755.60199 429.8823083 166.3304919)
(1849.618043 254.8152901 -700.6009797)
(1984.730204 455.8785709 312.4349819)
(1908.098151 194.9095849 432.7005707)
(1673.594205 -234.8287266 26.39348558)
(1721.151603 375.1282821 139.7427577)
(1766.305691 46.38828064 30.13759758)
(2009.818642 58.78786354 -376.9120619)
(1384.223422 -114.6288935 60.59387493)
(1919.997759 430.3608916 20.2956757)
(1681.973691 345.7031342 -471.6568648)
(1485.68672 43.2098142 -204.8662107)
(1620.206444 -17.29383421 -375.3353551)
(1702.408575 887.5426194 1208.279215)
(1573.64861 350.7853333 380.1088318)
(1888.454849 164.2929983 -139.885805)
(1730.418373 -126.8409679 -349.4153771)
(1829.235172 -120.2678527 7.99047863)
(1149.585066 -100.4098278 -5.102756475)
(1580.909961 -9.794819978 383.1216971)
(807.6413676 911.2831536 402.1185735)
(1560.59006 457.7736921 404.2843488)
(1729.830047 306.6829659 -128.3794532)
(1213.487465 170.2853131 -546.4460439)
(1753.002811 -488.9491548 -245.0366945)
(1689.137061 344.929461 -225.8049405)
(1663.080437 1397.308251 212.4477919)
(1844.967609 361.5590682 21.71752654)
(1321.479042 145.3071039 54.58132429)
(2316.633156 455.0307748 -332.1819759)
(2286.068985 1172.665356 -184.201836)
(1789.871223 -78.05931535 342.4611506)
(1190.231956 -45.6251074 -160.9346725)
(1742.269833 -15.85083608 -233.8359998)
(1312.322365 148.6726882 -75.71874486)
(1798.983806 -590.9474511 -526.8383666)
(1601.004016 0.6509151836 -36.26019289)
(1820.853208 93.08568395 2.220914077)
(1722.407573 -103.0265402 -23.54967796)
(1338.85711 690.6764952 272.5323613)
(1717.372488 -290.4273087 -6.962842258)