/*--------------------------------*- C++ -*----------------------------------*\
| =========                 |                                                 |
| \\      /  F ield         | OpenFOAM: The Open Source CFD Toolbox           |
|  \\    /   O peration     | Version:  2406                                  |
|   \\  /    A nd           | Website:  www.openfoam.com                      |
|    \\/     M anipulation  |                                                 |
\*---------------------------------------------------------------------------*/
FoamFile
{
    version     2.0;
    format      ascii;
    arch        "LSB;label=32;scalar=64";
    class       Cloud<dsmcParcel>;
    location    "0.006/lagrangian/dsmc";
    object      coordinates;
}
// * * * * * * * * * * * * * * * * * * * * * * * * * * * * * * * * * * * * * //

5151
(
(0.367668078 0.316165961 0.02940285507 0.2867631059) 385 746 2
(0.02779368198 0.3284008773 0.1577022818 0.486103159) 513 973 2
(0.3815393664 0.2613781531 0.3092303168 0.04785216367) 444 861 2
(0.354441753 0.3227791235 0.0393877457 0.2833913778) 414 801 2
(0.1095719974 0.4452140013 0.2854456558 0.1597683456) 375 2215 2
(0.8467186524 0.0731439208 0.07664067379 0.003496752993) 385 748 2
(0.1678899746 0.4160550127 0.05962082681 0.3564341859) 413 802 1
(0.3446785636 0.1728764613 0.1547842569 0.3276607182) 495 938 2
(0.194628289 0.4026858555 0.2035592145 0.199126641) 421 816 2
(0.1668560195 0.4165719902 0.05800984815 0.3585621421) 443 859 1
(0.6145041143 0.1045895537 0.1927479428 0.08815838916) 403 783 2
(0.3337926748 0.3331036626 0.06398814622 0.2691155164) 385 748 1
(0.8050773796 0.09746131018 0.04156968177 0.0558916284) 384 728 1
(0.5468543362 0.1813464048 0.04522642713 0.2265728319) 433 821 2
(0.5513787987 0.1177823141 0.2243106007 0.1065282866) 423 818 1
(0.0480749921 0.475962504 0.3705777184 0.1053847855) 385 748 1
(0.2610378693 0.3694810654 0.3584106491 0.0110704163) 385 729 1
(0.5801263767 0.2099368117 0.06846850155 0.1414683101) 423 802 1
(0.3721320887 0.02943969515 0.2844942605 0.3139339557) 455 2223 1
(0.03900345323 0.4804982734 0.3756852217 0.1048130517) 462 892 2
(0.3317325579 0.334133721 0.1301545421 0.203979179) 465 2224 2
(0.4085755262 0.1492810459 0.146431191 0.2957122369) 415 786 2
(0.5248430764 0.2375784618 0.01745844241 0.2201200194) 525 1014 1
(0.8546215673 0.07268921633 0.01352410094 0.05916511539) 483 934 2
(0.1759375911 0.05370781867 0.3583233858 0.4120312044) 525 995 2
(0.00219121471 0.4989043926 0.2029520526 0.2959523401) 532 1025 2
(0.7340331997 0.1329834001 0.09193973391 0.04104366622) 463 878 1
(0.4974508559 0.2512745721 0.2039996345 0.04727493761) 474 918 1
(0.1567519459 0.178890885 0.421624027 0.242733142) 380 739 2
(0.2417377361 0.3791311319 0.3035385041 0.07559262787) 423 802 1
(0.4070150808 0.1475149968 0.2964924596 0.1489774628) 393 764 2
(0.2860321166 0.3569839417 0.215036851 0.1419470907) 385 748 1
(0.528610628 0.2247493033 0.235694686 0.01094538266) 444 858 1
(0.8372035215 0.007979308433 0.07341893082 0.08139823925) 385 2216 1
(0.4094330445 0.155378553 0.1399049248 0.2952834777) 444 860 1
(0.7329892493 0.1335053754 0.01530073062 0.1182046447) 412 781 1
(0.8813293872 0.03586871111 0.0234665953 0.0593353064) 375 2215 1
(0.1267407922 0.4366296039 0.3958225243 0.04080707964) 464 880 1
(0.42221246 0.1926734587 0.09622031127 0.28889377) 504 974 1
(0.2767082421 0.1930410357 0.1686048433 0.361645879) 425 2220 1
(0.5473850577 0.2263074711 0.02352227196 0.2027851992) 544 1042 2
(0.04218979585 0.4789051021 0.3384483018 0.1404568003) 494 956 1
(0.5888529623 0.162982969 0.2055735189 0.04259054984) 543 1088 2
(0.1370055833 0.291649979 0.1398472294 0.4314972084) 532 1009 2
(0.8949707838 0.0525146081 0.04313215673 0.009382451374) 395 748 1
(0.05905870837 0.1191352268 0.351335419 0.4704706458) 485 919 2
(0.1059603295 0.4470198353 0.1849656281 0.2620542072) 525 1014 1
(0.1613982779 0.419300861 0.201058285 0.218242576) 545 1042 2
(0.2299583127 0.3850208437 0.05404409457 0.3309767491) 454 880 1
(0.04746078639 0.4762696068 0.4736503678 0.002619238955) 495 2227 2
(0.3667393189 0.3166303406 0.1963468744 0.1202834661) 505 957 1
(0.4174171796 0.03002836325 0.261263047 0.2912914102) 524 1012 1
(0.3314413074 0.1711326457 0.1631467006 0.3342793463) 372 723 1
(0.7382049969 0.07454586167 0.1308975015 0.05635163987) 412 800 2
(0.8123243177 0.09383784114 0.07396964969 0.01986819145) 475 917 2
(0.3102029284 0.2199240076 0.1249745282 0.3448985358) 422 800 2
(0.1486651106 0.3667737687 0.05889367601 0.4256674447) 404 784 1
(0.007976330407 0.1818669736 0.3141448612 0.4960118348) 401 778 1
(0.3465456503 0.3267271749 0.1564558609 0.170271314) 525 995 1
(0.04235368608 0.007322269576 0.4715008874 0.478823157) 475 900 2
(0.4758775793 0.2620612103 0.1424400144 0.1196211959) 485 919 1
(0.2227635271 0.3886182364 0.3848844401 0.00373379631) 524 994 1
(0.1026732026 0.259122937 0.1895404617 0.4486633987) 455 2223 1
(0.1284887981 0.4357556009 0.4237689401 0.01198666082) 525 1012 2
(0.7403141218 0.02100931196 0.1088336271 0.1298429391) 374 727 1
(0.08670174136 0.1502007384 0.3064483909 0.4566491293) 370 701 2
(0.6186182786 0.1315509808 0.05913987993 0.1906908607) 395 748 2
(0.2035987797 0.3982006101 0.3663361573 0.03186445283) 405 2218 2
(0.2598031738 0.3700984131 0.2404751232 0.1296232899) 463 896 2
(0.8872706273 0.04987769893 0.006486987422 0.05636468635) 393 745 2
(0.2612507408 0.08126442691 0.2881102027 0.3693746296) 440 834 2
(0.4049162759 0.02728669008 0.297541862 0.2702551719) 495 955 1
(0.04187812288 0.4790609386 0.1479699204 0.3310910182) 475 900 1
(0.1138876021 0.2358463704 0.2072098285 0.4430561989) 502 970 1
(0.9413683963 0.02931580184 0.0002842555567 0.02903154628) 444 860 2
(0.1527789189 0.4236105406 0.2977633299 0.1258472107) 515 993 2
(0.2773450566 0.3613274717 0.09227436815 0.2690531036) 444 842 1
(0.7418754558 0.01077516139 0.1290622721 0.1182871107) 454 880 2
(0.2772442894 0.1215322258 0.3613778553 0.2398456296) 485 938 2
(0.4506168636 0.1729956685 0.2746915682 0.1016958997) 422 816 1
(0.05794655187 0.4463068282 0.4710267241 0.02471989583) 424 820 1
(0.001479307072 0.2873267818 0.2119335646 0.4992603465) 434 823 2
(0.5304188134 0.2347905933 0.1659074024 0.06888319091) 445 2222 2
(0.3152047882 0.2432426905 0.09915491539 0.3423976059) 377 714 2
(0.3523749973 0.1294043913 0.3238125014 0.1944081101) 454 877 1
(0.2866499376 0.3553589109 0.3566750312 0.001316120334) 444 858 1
(0.230605008 0.384697496 0.1600198974 0.2246775986) 514 993 2
(0.4530660033 0.09066096274 0.1828060356 0.2734669983) 524 1012 1
(0.06083216648 0.4695839168 0.04644380079 0.423140116) 509 965 1
(0.05709258927 0.4498024813 0.4714537054 0.02165122403) 534 1032 2
(0.02140409082 0.4892979546 0.05444045784 0.4348574968) 364 709 1
(0.1261148198 0.2899599602 0.1469826299 0.4369425901) 364 2207 1
(0.6763512585 0.1618243707 0.1336996003 0.02812477038) 363 2206 2
(0.5689288357 0.2155355821 0.05775332597 0.1577822562) 472 913 2
(0.1071062254 0.4464468873 0.3462560872 0.1001908001) 423 818 2
(0.04608012015 0.4769599399 0.4131110235 0.06384891647) 434 841 2
(0.7105417634 0.0723720677 0.1447291183 0.07235705059) 485 936 1
(0.3094217137 0.3398770198 0.3452891431 0.005412123293) 493 951 1
(0.1748796138 0.4125601931 0.383664793 0.0288954001) 475 2225 2
(0.3623125018 0.2241091913 0.3188437491 0.09473455782) 502 971 2
(0.4422947554 0.02476460645 0.2788526223 0.2540880158) 462 895 2
(0.01209190502 0.2894578312 0.2044962162 0.4939540475) 364 2207 1
(0.1141159788 0.4429420106 0.2546614526 0.188280558) 412 797 2
(0.5790028716 0.1605807177 0.2104985642 0.04991784654) 387 749 1
(0.1476374152 0.4261812924 0.2457042574 0.180477035) 432 838 1
(0.34330132 0.32834934 0.07551526919 0.2528340708) 465 881 1
(0.06605560424 0.4669721979 0.2935394807 0.1734327172) 393 764 1
(0.2536904376 0.3731547812 0.1608530862 0.212301695) 474 917 2
(0.05697540485 0.4715122976 0.3278366695 0.1436756281) 373 726 1
(0.4213066553 0.1294414586 0.1599052138 0.2893466723) 423 820 1
(0.2347286905 0.3826356547 0.03962026611 0.3430153886) 424 822 2
(0.5134419027 0.2432790486 0.0452087107 0.1980703379) 475 917 2
(0.9446986575 0.01075558054 0.01689509073 0.02765067127) 414 803 1
(0.0370546393 0.4814726804 0.3616325841 0.1198400963) 514 994 1
(0.1091522275 0.4454238862 0.1073094385 0.3381144477) 495 938 1
(0.6545004359 0.0266236921 0.172749782 0.1461260899) 444 861 2
(0.2196807363 0.1743274287 0.2158322032 0.3901596318) 494 955 1
(0.1184642839 0.4157275748 0.440767858 0.02504028327) 425 824 2
(0.3039598724 0.3480200638 0.09738415064 0.2506359132) 491 950 1
(0.08536139094 0.4573193045 0.4450778475 0.01224145699) 482 930 2
(0.1454731017 0.4272634492 0.04544940457 0.3818140446) 515 993 2
(0.1259845005 0.4370077498 0.2385988284 0.1984089214) 464 896 2
(0.1269332015 0.4365333993 0.2760710413 0.160462358) 444 861 1
(0.410953748 0.06700252205 0.294523126 0.227520604) 259 518 2
(0.6973472285 0.1513263858 0.01826702219 0.1330593636) 504 956 1
(0.4098138918 0.2948364942 0.000256559955 0.2950930541) 505 2228 1
(0.2465491722 0.3767254139 0.1728051036 0.2039203103) 495 955 2
(0.08554904556 0.4422975802 0.01492789704 0.4572254772) 503 954 2
(0.0395245027 0.4802377486 0.09883893766 0.381398811) 405 767 1
(0.3106032833 0.3446983584 0.03524540572 0.3094529526) 403 764 1
(0.1783213977 0.3182938817 0.0925454194 0.4108393011) 372 723 1
(0.1530238286 0.1381788194 0.2853092663 0.4234880857) 402 762 2
(0.1632215038 0.1489607789 0.4183892481 0.2694284692) 363 704 1
(0.1145076751 0.4427461624 0.08685802426 0.3558881382) 457 882 2
(0.3982353855 0.0488417235 0.3008823072 0.2520405837) 473 913 1
(0.5900670687 0.06194370982 0.2049664656 0.1430227558) 433 840 2
(0.6133388899 0.1933305551 0.09728572175 0.09604483332) 412 781 1
(0.6001060074 0.1999469963 0.05676958471 0.1431774116) 365 2208 2
(0.2159063213 0.3920468394 0.05928057921 0.3327662601) 455 879 2
(0.6709775454 0.1645112273 0.0717816145 0.09272961279) 424 822 2
(0.5227840544 0.1884900414 0.2386079728 0.05011793139) 442 854 1
(0.1435948789 0.4282025605 0.3373626094 0.0908399511) 500 966 2
(0.06951076939 0.09803009612 0.4652446153 0.3672145192) 470 907 1
(0.03326950273 0.4833652486 0.1644616824 0.3189035663) 522 990 1
(0.2035759186 0.2823448815 0.1158671593 0.3982120407) 424 804 2
(0.2902789439 0.129353617 0.3548605281 0.2255069111) 454 877 1
(0.2168309578 0.2322709045 0.3915845211 0.1593136166) 483 932 1
(0.211964295 0.3728725288 0.02114532375 0.3940178525) 505 2228 1
(0.5861952684 0.2069023658 0.08902753989 0.1178748259) 524 994 1
(0.2409605189 0.3795197405 0.004779383082 0.3747403575) 483 932 2
(0.4656503141 0.267174843 0.08091060125 0.1862642417) 499 965 1
(0.1630672507 0.4184663746 0.2930082065 0.1254581681) 385 2216 2
(0.2302805494 0.142992693 0.2418670323 0.3848597253) 414 803 1
(0.6006043604 0.1996978198 0.1713702228 0.02832759699) 473 916 1
(0.3632402117 0.3183798942 0.1294265421 0.188953352) 420 815 1
(0.1702103707 0.1142390701 0.4148948146 0.3006557445) 385 746 1
(0.7517188129 0.1241405935 0.1224745608 0.001666032795) 465 881 1
(0.04011235974 0.4799438201 0.2745512971 0.2053925231) 493 953 2
(0.8125127686 0.0937436157 0.01722822105 0.07651539465) 431 833 2
(0.5852891007 0.1913191862 0.2073554497 0.01603626344) 452 873 1
(0.4213723624 0.2866846697 0.2893138188 0.002629149134) 505 976 2
(0.1680165351 0.3468919753 0.4159917324 0.06909975719) 525 1012 1
(0.3302512779 0.1877471807 0.1471271804 0.3348743611) 493 935 2
(0.2852048278 0.1125105575 0.3573975861 0.2448870286) 532 1025 1
(0.04028768914 0.2062214744 0.4798561554 0.2736346811) 505 974 1
(0.02744402977 0.2507206011 0.4862779851 0.235557384) 463 894 1
(0.4050414159 0.297479292 0.1035559229 0.1939233692) 490 947 2
(0.3514396012 0.3242801994 0.09601677137 0.228263428) 474 899 1
(0.3213132481 0.3393433759 0.1736219905 0.1657213854) 483 932 2
(0.1467148284 0.05060547044 0.4266425858 0.3760371154) 543 1040 1
(0.4570737908 0.2714631046 0.06409933619 0.2073637684) 514 975 1
(0.3407622231 0.3296188885 0.1596228545 0.169996034) 511 985 2
(0.02761538616 0.1986367026 0.4861923069 0.2875556043) 513 992 2
(0.3359613214 0.3320193393 0.005439968537 0.3265793708) 395 765 2
(0.1928360867 0.2738698158 0.1297121409 0.4035819566) 382 742 1
(0.429263359 0.2853683205 0.02322213968 0.2621461808) 394 765 2
(0.4760638798 0.121523707 0.1404443531 0.2619680601) 424 822 1
(0.3189390959 0.3405304521 0.1379928762 0.2025375758) 399 756 1
(0.1197897773 0.3118326154 0.1282724959 0.4401051113) 413 783 2
(0.3154497237 0.2182709631 0.3422751381 0.1240041751) 464 896 1
(0.6225473102 0.1887263449 0.04054518876 0.1481811561) 482 930 2
(0.1216640458 0.4391679771 0.3925834065 0.04658457065) 451 871 2
(0.2384542583 0.3807728709 0.01384905626 0.3669238146) 474 899 1
(0.3119684655 0.3440157673 0.1344629116 0.2095528556) 422 819 1
(0.5609659466 0.1271721043 0.09234492241 0.2195170267) 420 796 2
(0.1463038267 0.4268480867 0.4123674595 0.01448062713) 469 908 1
(0.3103187966 0.3448406017 0.01185852611 0.3329820756) 514 991 2
(0.4725546655 0.07508585338 0.1886368139 0.2637226672) 543 1041 1
(0.2212752723 0.3478172561 0.3893623638 0.04154510774) 533 1030 2
(0.09663520256 0.4516823987 0.02518215484 0.4265002439) 475 919 1
(0.05525613931 0.3760353086 0.4723719303 0.09633662174) 505 974 1
(0.4568323774 0.08968630549 0.2715838113 0.1818975058) 499 965 2
(0.03900784004 0.177033293 0.303462787 0.48049608) 475 2225 1
(0.5705237957 0.2147381022 0.1118607086 0.1028773936) 525 1014 1
(0.1322024557 0.3901409837 0.04375778847 0.4338987722) 514 975 2
(0.03200281777 0.4839985911 0.2871518885 0.1968467026) 491 950 1
(0.2617095938 0.3691452031 0.3491356164 0.02000958666) 545 1090 1
(0.6484377478 0.1757811261 0.005897721656 0.1698834044) 505 974 2
(0.1763364975 0.2889495028 0.1228822484 0.4118317512) 381 740 1
(0.255174086 0.372412957 0.3568274841 0.01558547287) 398 772 2
(0.3016423253 0.1974288057 0.1517500316 0.3491788374) 384 728 2
(0.4063226802 0.2968386599 0.03226742765 0.2645712322) 430 834 1
(0.3630422296 0.3184788852 0.01537235375 0.3031065314) 403 764 1
(0.02426400868 0.4878679957 0.0918897184 0.3959782773) 374 728 1
(0.6985829129 0.1507085435 0.06790855787 0.08279998566) 412 797 2
(0.1549878623 0.1830163405 0.2394897283 0.4225060688) 505 957 2
(0.5906251704 0.2046874148 0.09709270382 0.107594711) 384 728 1
(0.3703483342 0.3148258329 0.1186194024 0.1962064305) 403 783 1
(0.7871358024 0.06437197968 0.1064320988 0.04206011914) 363 704 1
(0.3638755868 0.3180622066 0.2500711301 0.06799107645) 420 796 1
(0.09565071721 0.4521746414 0.405263129 0.04691151239) 405 767 1
(0.2929117167 0.3535441417 0.1026892846 0.250854857) 444 861 1
(0.4796019871 0.09156748122 0.1686315252 0.2601990064) 425 805 2
(0.09083432659 0.4240417455 0.03054109118 0.4545828367) 524 994 2
(0.4377469009 0.2811265495 0.2381885385 0.04293801105) 453 859 1
(0.02877496331 0.4856125183 0.3077428815 0.1778696368) 408 773 1
(0.8880501117 0.05597494414 0.006599582478 0.04937536166) 479 924 2
(0.1708800184 0.2824738101 0.1320861807 0.4145599908) 435 2221 1
(0.3882660026 0.2284231652 0.07744383346 0.3058669987) 455 862 2
(0.34484918 0.3096712725 0.01790413753 0.32757541) 442 838 2
(0.9939871699 0.002488626999 0.0005177880609 0.00300641506) 504 974 1
(0.1313286458 0.007480932219 0.4343356771 0.4268547449) 470 910 2
(0.05096028731 0.4745198563 0.009387579796 0.4651322765) 485 936 2
(0.4120085038 0.2826646486 0.01133109946 0.2939957481) 523 992 2
(0.03185129279 0.0756531903 0.4084211633 0.4840743536) 464 880 2
(0.2258358015 0.3313683649 0.3870820993 0.0557137344) 461 893 2
(0.2363701018 0.3818149491 0.08063530963 0.3011796395) 473 897 1
(0.2579794391 0.3710102805 0.1762120676 0.1947982129) 515 993 2
(0.2321947638 0.3839026181 0.06462555857 0.3192770595) 465 2224 2
(0.6325101259 0.1837449371 0.1711594482 0.01258548886) 495 938 1
(0.08226696049 0.2117693748 0.4588665198 0.247097145) 410 793 1
(0.2988166809 0.08791855221 0.3505916595 0.2626731073) 502 971 2
(0.3504216421 0.324789179 0.03905785164 0.2857313273) 531 1025 2
(0.4639578495 0.2680210753 0.1276490674 0.1403720078) 512 989 2
(0.1925440311 0.09762652982 0.3061014546 0.4037279845) 432 837 1
(0.2317859737 0.3841070131 0.192135721 0.1919712922) 541 1039 2
(0.2627581249 0.3686209375 0.04828141105 0.3203395265) 471 912 1
(0.4961847627 0.2487618907 0.003145727935 0.2519076187) 488 943 1
(0.7812332308 0.1093833846 0.06212647411 0.0472569105) 387 751 2
(0.2199758577 0.3900120712 0.110416566 0.2795955051) 370 719 2
(0.01182613847 0.05607234475 0.4940869308 0.438014586) 374 725 1
(0.05638139877 0.4718093006 0.3151312963 0.1566780043) 411 798 1
(0.8672870484 0.06635647579 0.0108515698 0.05550490599) 389 756 1
(0.2334179948 0.283372339 0.3832910026 0.09991866357) 394 763 1
(0.3907264665 0.2364728123 0.3046367667 0.0681639544) 413 799 1
(0.08804082613 0.4559795869 0.3339959733 0.1219836136) 393 763 2
(0.04723300147 0.4763834993 0.2759742152 0.2004092841) 400 776 2
(0.1998312109 0.4000843946 0.211312429 0.1887719656) 405 767 1
(0.09088241094 0.4545587945 0.13424295 0.3203158445) 413 799 2
(0.4271378042 0.08577469013 0.2864310979 0.2006564078) 435 841 1
(0.07690058616 0.4154115464 0.0461381605 0.4615497069) 493 935 2
(0.314948402 0.1922708546 0.1502549444 0.342525799) 419 794 2
(0.4806556322 0.2596721839 0.1734904175 0.0861817664) 463 896 2
(0.009916557915 0.383026089 0.1120156321 0.495041721) 518 1000 1
(0.5853607778 0.2073196111 0.03087142002 0.1764481911) 485 938 1
(0.2523202092 0.3738398954 0.1939456097 0.1798942857) 475 919 1
(0.7411610154 0.05567163476 0.07374785752 0.1294194923) 430 833 1
(0.1891946738 0.001794253997 0.4036084091 0.4054026631) 487 923 2
(0.3404373087 0.3297813456 0.2532982881 0.07648305749) 483 916 1
(0.04214530387 0.4789273481 0.06714097694 0.4117863711) 473 897 1
(0.3330377078 0.1297127584 0.3334811461 0.2037683877) 504 972 1
(0.1711615644 0.4144192178 0.006253757033 0.4081654608) 444 842 1
(0.5711636386 0.1813115369 0.03310664382 0.2144181807) 444 860 1
(0.5858027758 0.2070986121 0.1592991898 0.04779942229) 524 994 1
(0.1371487272 0.1999138912 0.2315117452 0.4314256364) 504 974 1
(0.2035014405 0.3982492797 0.1532040623 0.2450452175) 474 918 1
(0.6342317789 0.1828841106 0.03957535164 0.1433087589) 502 952 1
(0.03958610689 0.4802069466 0.463574783 0.01663216352) 521 1006 2
(0.6800931728 0.134860581 0.0250928326 0.1599534136) 384 746 1
(0.1269385737 0.4365307132 0.1191377003 0.3173930128) 364 708 2
(0.08323030565 0.1108280612 0.4583848472 0.347556786) 368 713 1
(0.008654230636 0.03471170405 0.4609611806 0.4956728847) 381 722 2
(0.6804576983 0.150113867 0.009657283794 0.1597711508) 397 752 2
(0.156881698 0.421559151 0.3714225269 0.05013662409) 435 841 2
(0.4594337342 0.02129983943 0.2702831329 0.2489832935) 382 740 1
(0.4417483218 0.2791258391 0.08831591363 0.1908099255) 372 721 2
(0.361503655 0.03802890144 0.3192481725 0.281219271) 404 782 1
(0.2102271114 0.3948864443 0.1232292538 0.2716571905) 464 898 2
(0.08594872755 0.2266164043 0.4570256362 0.2304092319) 453 878 2
(0.3189852792 0.2385661466 0.1019412138 0.3405073604) 451 873 1
(0.7431244801 0.1284377599 0.09867869368 0.02975906625) 474 918 1
(0.05873107422 0.2032869876 0.4706344629 0.2673474753) 424 823 2
(0.3394611417 0.06786319518 0.262406234 0.3302694292) 441 854 1
(0.1489114491 0.4255442755 0.2166872978 0.2088569777) 431 836 1
(0.5916931916 0.1999765719 0.2041534042 0.004176832295) 433 840 2
(0.4630306352 0.1375404121 0.2684846824 0.1309442703) 448 868 2
(0.291180453 0.1260357186 0.3544097735 0.2283740548) 463 897 2
(0.1283255304 0.1512063095 0.4358372348 0.2846309253) 457 885 2
(0.4216265836 0.2891867082 0.1733875418 0.1157991664) 424 820 2
(0.05607947381 0.4719602631 0.4342924463 0.03766781683) 460 891 1
(0.7326911587 0.1336544206 0.06688939579 0.06676502486) 451 874 1
(0.9458836652 0.008928536365 0.02705816738 0.01812963102) 452 873 1
(0.386614409 0.3066927955 0.2814430635 0.02524973196) 475 917 2
(0.1907218291 0.09435530762 0.3102837778 0.4046390854) 384 746 1
(0.7059131662 0.03660910863 0.1470434169 0.1104343083) 402 781 2
(0.2458851125 0.3770574437 0.1643189439 0.2127384999) 448 868 1
(0.01161491521 0.4941925424 0.01962546614 0.4745670763) 435 843 1
(0.5821530207 0.2089234896 0.02968976077 0.1792337289) 501 950 1
(0.04502583305 0.4774870835 0.1232240618 0.3542630217) 418 811 1
(0.4421179871 0.2789410064 0.1752763713 0.1036646351) 521 1004 2
(0.05082539399 0.474587303 0.2523140034 0.2222732996) 490 948 1
(0.5303001633 0.03063833033 0.2348499184 0.204211588) 473 913 1
(0.135701748 0.299284363 0.432149126 0.132864763) 444 858 1
(0.713374767 0.1433126165 0.001212182429 0.1421004341) 521 1006 2
(0.1139622996 0.3013810594 0.1416377908 0.4430188502) 511 987 1
(0.5341469846 0.06445295722 0.2329265077 0.1684735505) 490 948 2
(0.4919968826 0.1693581894 0.08464336931 0.2540015587) 544 1042 1
(0.5930409793 0.1337431858 0.06973632456 0.2034795104) 509 965 2
(0.1719890716 0.4140054642 0.3430237006 0.07098176361) 503 970 2
(0.7107457086 0.04451066807 0.1001164776 0.1446271457) 535 1014 2
(0.1235393264 0.2908949087 0.4382303368 0.147335428) 504 975 2
(0.686382955 0.1568085225 0.1021643458 0.05464417672) 502 971 1
(0.1456787418 0.3508885949 0.07627203419 0.4271606291) 523 1010 1
(0.5733086222 0.2133456889 0.1775716096 0.03577407933) 503 972 2
(0.5191837008 0.1650552605 0.07535288915 0.2404081496) 522 990 2
(0.03984778937 0.3780842448 0.1019918605 0.4800761053) 363 2206 1
(0.4345148379 0.0167501955 0.282742581 0.2659923855) 373 726 2
(0.2590108399 0.1368944635 0.37049458 0.2336001165) 414 804 2
(0.3670023999 0.05630638491 0.2601924151 0.3164988) 373 725 1
(0.4626377861 0.2686811069 0.178736891 0.08994421591) 362 704 2
(0.02679405924 0.4808563731 0.005746597236 0.4866029704) 381 722 2
(0.363732339 0.2884325369 0.3181338305 0.02970129357) 444 861 2
(0.5674004844 0.04319982413 0.1730999337 0.2162997578) 424 804 2
(0.1314392708 0.4342803646 0.3310946351 0.1031857295) 425 805 1
(0.4200427354 0.1858058788 0.2899786323 0.1041727535) 444 861 2
(0.4341073215 0.2490423858 0.2829463393 0.03390395348) 409 794 2
(0.5804544032 0.2097727984 0.2068030452 0.002969753143) 462 892 2
(0.05472103138 0.2230370424 0.2496024419 0.4726394843) 424 822 1
(0.373480157 0.3132599215 0.09185781054 0.221402111) 455 879 2
(0.3203284147 0.3398357927 0.2768829296 0.06295286309) 415 786 1
(0.6103461286 0.1939525454 0.1948269357 0.000874390235) 423 821 2
(0.1017468642 0.4491265679 0.3451545849 0.103971983) 421 798 1
(0.231134149 0.2661813983 0.1182515272 0.3844329255) 451 873 1
(0.2187482353 0.1512307982 0.2393950841 0.3906258824) 405 2218 1
(0.7408546533 0.08087305175 0.1295726733 0.04869962159) 545 1042 1
(0.3512930286 0.3243534857 0.3099667188 0.01438676691) 439 851 1
(0.8582841635 0.02475868018 0.07085791826 0.04609923808) 470 907 1
(0.05423389924 0.4728830504 0.3482822054 0.124600845) 515 993 2
(0.2383972038 0.3808013981 0.2277519859 0.1530494122) 429 813 1
(0.1813937893 0.4093031054 0.1990805593 0.2102225461) 411 797 2
(0.04078038314 0.09652592418 0.3830838843 0.4796098084) 434 823 2
(0.44671155 0.09219743683 0.276644225 0.1844467882) 504 972 1
(0.2713466888 0.3643266556 0.3572670549 0.007059600673) 482 914 1
(0.2318737606 0.3840631197 0.3301857705 0.05387734916) 475 919 1
(0.1421698163 0.4289150919 0.1306248008 0.2982902911) 503 970 2
(0.1582159554 0.1112343558 0.3096576664 0.4208920223) 502 970 1
(0.6141764742 0.09974188981 0.1929117629 0.09316987311) 483 935 2
(0.09781987968 0.3247551786 0.1263348815 0.4510900602) 490 947 1
(0.508609476 0.04014784211 0.245695262 0.2055474199) 452 876 2
(0.3290071715 0.1690617437 0.3354964143 0.1664346705) 472 911 1
(0.113603433 0.4431982835 0.4047121964 0.0384860871) 433 839 2
(0.2362279817 0.3818860092 0.2195212397 0.1623647695) 514 991 2
(0.309015384 0.345492308 0.1075868825 0.2379054255) 493 953 2
(0.6446413709 0.1741361879 0.003543126644 0.1776793146) 514 993 1
(0.7249339689 0.09412866383 0.1375330155 0.04340435171) 529 1019 1
(0.3512178103 0.3243910949 0.2807700592 0.04362103566) 473 915 2
(0.7503124828 0.04819248325 0.07665127537 0.1248437586) 493 935 2
(0.06708701278 0.4334783356 0.4664564936 0.03297815797) 465 898 1
(0.3095312896 0.2652399165 0.3452343552 0.07999443869) 533 1027 1
(0.005428237513 0.4972858812 0.07781417541 0.4194717058) 540 1037 2
(0.08190793474 0.1830773648 0.4590460326 0.2759686678) 472 914 2
(0.2299649591 0.3850175205 0.2053408697 0.1796766508) 509 981 2
(0.1323685102 0.1841845496 0.4338157449 0.2496311953) 538 1035 1
(0.002066054436 0.1433998747 0.3555670981 0.4989669728) 509 965 2
(0.5042583941 0.2103376962 0.247870803 0.03753310681) 511 988 2
(0.4542254213 0.2452649602 0.02762232914 0.2728872893) 277 554 1
(0.01189113883 0.4940544306 0.3277027055 0.166351725) 371 721 2
(0.1676495582 0.4161752209 0.3004146464 0.1157605745) 401 760 1
(0.1664458229 0.02270238224 0.4167770886 0.3940747063) 382 740 1
(0.4607570779 0.02369249766 0.2696214611 0.2459289634) 403 780 1
(0.3469458376 0.3265270812 0.00800487077 0.3185222104) 374 709 1
(0.01621120598 0.491894397 0.1501389571 0.3417554399) 405 767 1
(0.6874740807 0.1502671702 0.1562629597 0.005995789494) 391 760 2
(0.6857854719 0.1571072641 0.1316830975 0.02542416656) 451 873 2
(0.1352184091 0.2823464266 0.4323907954 0.1500443688) 372 724 2
(0.1876410461 0.4061794769 0.2216756966 0.1845037803) 381 722 1
(0.3848871157 0.05233857726 0.3075564421 0.2552178649) 393 764 2
(0.2279344408 0.1323561203 0.2536766593 0.3860327796) 367 713 1
(0.288582767 0.2669789136 0.3557086165 0.08872970286) 414 801 1
(0.3888950312 0.3038672228 0.3055524844 0.001685261654) 394 763 1
(0.2487513095 0.3397636409 0.3756243453 0.0358607044) 433 837 1
(0.7206743416 0.07341085087 0.06625197831 0.1396628292) 412 781 2
(0.1761498078 0.4119250961 0.3042353321 0.107689764) 430 815 1
(0.3409438503 0.2716757463 0.3295280748 0.05785232853) 450 872 2
(0.2257716806 0.3871141597 0.1136777405 0.2734364192) 381 722 1
(0.01326676411 0.3915302316 0.4933666179 0.1018363864) 464 899 2
(0.134301882 0.432849059 0.07520042012 0.3576486389) 451 871 2
(0.1769126057 0.2402399352 0.4115436972 0.171303762) 474 918 2
(0.1139133184 0.4430433408 0.3011151496 0.1419281913) 423 802 1
(0.7808268835 0.03329309196 0.07629346628 0.1095865582) 482 914 2
(0.1899587137 0.4050206432 0.3995946562 0.005425986977) 460 891 1
(0.2220172333 0.3889913834 0.2172793114 0.171712072) 475 2225 2
(0.0539653236 0.09177805595 0.3812392822 0.4730173382) 469 889 2
(0.7135083201 0.14324584 0.1013361797 0.0419096603) 470 891 1
(0.1206256838 0.4396871581 0.1864502312 0.2532369269) 483 935 1
(0.3290015281 0.335499236 0.1319265573 0.2035726787) 483 934 2
(0.08004080923 0.2565040327 0.4599795954 0.2034755627) 474 915 1
(0.6394078968 0.166728833 0.01356721863 0.1802960516) 412 781 2
(0.254209509 0.3728952455 0.3612800386 0.01161520688) 494 953 2
(0.730817892 0.04180573944 0.134591054 0.09278531457) 491 950 2
(0.257930219 0.001936467131 0.3690984234 0.3710348905) 512 971 2
(0.1127948331 0.4436025834 0.1270207605 0.3165818229) 502 968 2
(0.7465857555 0.02176114722 0.104945975 0.1267071222) 484 936 1
(0.1752629716 0.4123685142 0.1289024889 0.2834660253) 461 893 1
(0.6920850283 0.1539574858 0.01009566178 0.1438618241) 484 934 2
(0.05836824215 0.1175068872 0.4708158789 0.3533089918) 520 1005 2
(0.08080275659 0.144466215 0.4595986217 0.3151324067) 478 925 2
(0.3633978823 0.3183010589 0.3060560947 0.01224496411) 514 993 2
(0.6826976488 0.1586511756 0.006752127632 0.151899048) 515 995 1
(0.0726710655 0.4636644673 0.3761341589 0.08753030836) 523 1010 2
(0.2434996134 0.3401097029 0.03814049041 0.3782501933) 381 740 1
(0.07688584946 0.06898236676 0.4615570753 0.3925747085) 420 812 1
(0.1339773546 0.4330113227 0.258353745 0.1746575777) 371 719 2
(0.1692120529 0.298480683 0.1169132906 0.4153939736) 362 704 1
(0.03037014947 0.1644877295 0.4848149253 0.3203271958) 439 848 1
(0.01221202487 0.03671781662 0.4938939876 0.4571761709) 501 969 2
(0.06685767938 0.2051497752 0.2614213851 0.4665711603) 392 761 1
(0.4628762868 0.2685618566 0.06342243489 0.2051394217) 393 763 2
(0.3291573938 0.3354213031 0.2891355273 0.04628577586) 363 706 2
(0.8094653131 0.05330950766 0.09526734345 0.04195783578) 434 842 2
(0.511988093 0.2440059535 0.158732555 0.08527339854) 385 729 1
(0.5035057935 0.1521524443 0.096094659 0.2482471033) 470 891 2
(0.1645444859 0.2075708732 0.417727757 0.2101568839) 419 810 1
(0.05606980854 0.4719650957 0.07037921279 0.4015858829) 389 753 2
(0.2587234283 0.3539427032 0.3706382858 0.01669558265) 438 849 2
(0.4100401936 0.2029704613 0.2949799032 0.09200944197) 451 871 1
(0.4142351768 0.1773634145 0.2928824116 0.1155189971) 395 765 1
(0.1503729841 0.2858840923 0.1389294157 0.4248135079) 421 816 1
(0.2632338219 0.1627091898 0.2056738992 0.368383089) 383 744 1
(0.001905637505 0.04263201384 0.4564151674 0.4990471812) 409 775 2
(0.3076627366 0.1304049798 0.2157636519 0.3461686317) 514 975 2
(0.6241004083 0.1879497958 0.1028426083 0.08510718758) 424 823 1
(0.2369257521 0.3583625213 0.02317460269 0.381537124) 481 930 1
(0.1660677302 0.4169661349 0.01755579946 0.3994103354) 461 874 1
(0.71898759 0.1371314757 0.140506205 0.003374729262) 487 939 1
(0.1621677203 0.4189161399 0.003940017312 0.4149761226) 504 974 2
(0.4642964395 0.02468125493 0.2678517802 0.2431705253) 413 799 1
(0.02008323653 0.2727299209 0.4899583817 0.2172284609) 454 880 2
(0.0962481629 0.4518759185 0.03785149991 0.4140244186) 456 882 2
(0.02478760851 0.4876061957 0.234151339 0.2534548567) 500 967 1
(0.09535476964 0.4242726089 0.4523226152 0.02805000625) 444 858 1
(0.3860176942 0.3069911529 0.2169693586 0.09002179426) 499 964 2
(0.7708534038 0.1022848612 0.1145732981 0.01228843689) 482 933 2
(0.7089548868 0.02459160071 0.1455225566 0.1209309559) 485 938 2
(0.5708157751 0.2030658517 0.01152626077 0.2145921125) 482 914 2
(0.1788299739 0.1255796851 0.285005328 0.4105850131) 522 990 2
(0.4518956 0.03082637994 0.2740522 0.24322582) 508 979 1
(0.4929735139 0.08334340044 0.2535132431 0.1701698426) 465 898 1
(0.05125672726 0.4743716364 0.1908576846 0.2835139518) 512 971 1
(0.1599357511 0.05706524978 0.4200321244 0.3629668747) 502 971 2