/*--------------------------------*- C++ -*----------------------------------*\
| =========                 |                                                 |
| \\      /  F ield         | OpenFOAM: The Open Source CFD Toolbox           |
|  \\    /   O peration     | Version:  2406                                  |
|   \\  /    A nd           | Website:  www.openfoam.com                      |
|    \\/     M anipulation  |                                                 |
\*---------------------------------------------------------------------------*/
FoamFile
{
    version     2.0;
    format      ascii;
    arch        "LSB;label=32;scalar=64";
    class       scalarField;
    location    "0.006/lagrangian/dsmc";
    object      Ei;
}
// * * * * * * * * * * * * * * * * * * * * * * * * * * * * * * * * * * * * * //


5151
(
1.730686997e-20
2.656189992e-21
2.339399869e-21
9.774705188e-21
9.2815787e-21
2.842532808e-21
9.285153631e-22
6.604453262e-21
3.099101283e-21
7.268097247e-21
4.85639249e-21
1.500283775e-22
5.794410365e-22
9.050311099e-22
3.30783566e-22
3.018054414e-20
1.034290762e-20
1.856148521e-20
3.637415114e-21
1.10299867e-20
1.815055077e-21
6.614146397e-21
5.199327941e-22
5.099182665e-21
3.695091443e-21
1.306588639e-21
1.115414515e-21
7.342069873e-22
4.090776212e-21
8.56856171e-22
3.593993609e-21
1.649381867e-21
4.884889492e-21
6.464028435e-21
2.935820094e-21
7.368567661e-21
4.006522125e-22
1.690525749e-20
7.988234963e-21
5.503060879e-21
6.070091005e-22
3.147069999e-21
7.609598127e-22
6.991591629e-22
2.700860904e-21
4.198754078e-21
1.798266215e-21
8.018144675e-22
2.230128519e-21
2.214565217e-22
8.567063006e-21
1.037219387e-21
1.198825643e-21
1.692164395e-22
2.503699271e-21
6.206241454e-22
1.557570694e-23
1.598519145e-22
8.694753231e-21
1.87309003e-21
1.596021847e-21
2.961089081e-21
1.704945831e-20
1.204615595e-21
1.607704439e-21
2.095975441e-21
1.838133603e-21
2.955931384e-21
7.417785296e-21
2.815080397e-21
6.799790977e-21
1.372859042e-21
8.354075049e-21
1.242608802e-20
6.188092626e-21
1.658835732e-21
4.333981332e-23
3.475402019e-21
2.616860867e-21
1.169091507e-20
3.478164119e-21
1.421552453e-21
5.797435547e-21
1.161073215e-21
4.267445954e-22
5.410617355e-21
6.874797566e-21
2.855798801e-21
1.358266472e-20
8.188408497e-21
2.619023513e-21
2.333584242e-21
8.996131052e-21
5.867459246e-21
2.806829774e-21
1.18521259e-21
2.438385542e-21
5.607589324e-21
3.569138178e-21
1.137008907e-22
1.118745967e-21
1.02996486e-21
4.127989828e-21
3.761514662e-21
1.012026834e-21
1.880155885e-21
1.181313162e-21
1.430853418e-21
2.323694968e-21
8.324629332e-21
2.395364638e-22
2.750589663e-21
3.150889409e-21
7.151092136e-21
4.845982611e-23
1.285687752e-21
1.186996004e-21
1.416153057e-23
9.237475361e-21
7.971502067e-21
2.852364746e-21
3.635722629e-21
1.547842344e-21
2.003292929e-21
1.629446582e-21
9.94032256e-22
3.691206581e-21
6.735342262e-21
9.454938405e-21
3.505046558e-21
1.600363795e-21
1.124824188e-21
1.826120313e-21
1.582815997e-20
1.212895678e-20
8.070182583e-21
8.102866878e-21
1.436167796e-21
7.186650884e-21
2.274820481e-21
1.240556051e-20
1.658042481e-20
1.377151925e-21
1.791666517e-21
1.898855214e-21
3.025974743e-21
4.98386041e-22
1.376357311e-20
1.637711502e-21
2.079105677e-21
5.83355679e-21
1.094815807e-20
3.417123518e-21
2.146581353e-21
2.383599208e-21
9.720064436e-21
7.722164541e-21
5.58304182e-21
5.575117216e-22
2.465154568e-21
4.889544462e-21
1.55122467e-21
1.822954579e-21
1.313728086e-22
3.475409343e-21
3.331064004e-21
8.256563361e-21
1.360140093e-20
3.547846644e-22
1.170653681e-22
5.265868843e-21
3.235581205e-22
6.978427215e-22
5.771657035e-22
6.225819731e-21
1.970603645e-21
4.321316242e-22
8.943879946e-22
5.233981374e-21
1.367736468e-21
1.078061999e-20
1.99206291e-21
3.239702477e-21
6.64061992e-22
4.121659598e-21
7.23285802e-21
4.070126524e-21
2.788265829e-21
1.76133201e-21
5.74478643e-22
4.349197646e-22
1.568532174e-21
8.469086075e-22
4.057941144e-21
5.669606105e-21
6.229493495e-22
6.240548933e-21
8.603565538e-21
2.731132674e-21
2.318762882e-21
3.1066152e-21
6.328012898e-21
1.535358558e-21
3.768625553e-21
6.895398778e-22
1.09442259e-21
3.145159277e-21
5.579339561e-22
3.42815552e-21
6.061263931e-21
1.909351299e-21
1.398066595e-21
6.290053362e-21
1.419493436e-20
7.530854917e-22
1.117082317e-21
2.069583098e-21
1.246840764e-20
6.560686449e-22
8.135770043e-21
4.719014033e-22
3.873376332e-21
8.06234628e-22
2.73787228e-21
5.681936964e-21
4.799814402e-21
8.257884149e-21
1.873013269e-21
4.035513239e-22
6.270168007e-22
1.09289515e-20
2.235199795e-21
3.558186928e-22
7.331455691e-21
1.992181655e-21
3.221601407e-23
2.63988034e-21
1.317405107e-20
1.040718446e-21
6.0080462e-21
6.365878369e-21
7.718670445e-21
4.045271895e-21
1.432539529e-20
1.404831744e-20
7.218876373e-22
2.043854077e-21
4.156527942e-21
1.31272887e-20
4.337209665e-21
3.093952295e-21
2.314283662e-21
2.454936905e-21
3.407078397e-21
2.691123083e-21
2.906698688e-21
1.402154326e-21
1.843431134e-21
1.924628356e-21
4.708733505e-21
3.556409688e-21
5.052752378e-22
1.202114734e-20
2.004677811e-20
1.383954701e-21
4.424371349e-21
2.761843623e-21
3.128388886e-23
7.738329509e-21
6.963960217e-22
9.28377447e-21
1.013844295e-20
3.958997038e-23
5.347136917e-21
4.963625041e-21
4.903120614e-21
1.660844909e-21
5.587217364e-21
2.433412479e-21
1.858556751e-21
7.195577872e-21
2.305288497e-21
6.237276887e-22
3.637950275e-21
1.730574891e-22
5.311524865e-21
1.020258535e-20
4.270311504e-21
3.96337269e-21
2.065696821e-21
9.053858529e-22
3.209606669e-21
1.004141795e-21
2.165994495e-21
6.825093621e-21
1.083470358e-20
3.361140686e-21
5.82868747e-21
8.135616749e-22
5.564110853e-21
2.906891332e-21
4.303273185e-21
4.215800423e-21
7.024630803e-21
2.486726879e-21
2.328238713e-22
9.130251946e-22
1.144538276e-20
5.591538506e-21
5.14905709e-21
5.853821239e-22
8.991548149e-22
1.144741003e-21
7.664321024e-21
3.553452902e-21
9.554707428e-21
1.096741417e-20
5.502962781e-21
3.918718591e-21
4.11613205e-21
1.177153998e-21
5.959904267e-21
6.031750501e-23
8.253764858e-22
3.214080825e-21
8.941616818e-22
1.312267358e-20
1.471407826e-20
7.780725586e-21
3.996211368e-21
5.182720767e-22
4.564978921e-21
5.139766315e-21
9.051720051e-21
1.863444942e-21
2.45199077e-22
7.048043518e-21
1.249478796e-21
3.129277228e-21
2.325861759e-21
2.862007256e-21
1.875113309e-22
5.132697378e-23
6.140265654e-22
8.576006346e-21
3.815474148e-22
4.261258327e-21
7.335565808e-22
2.555494806e-21
2.857071923e-21
3.180173796e-21
1.037268131e-21
9.635096353e-21
3.474799036e-21
5.549197982e-21
6.050350663e-21
5.800504909e-22
5.858247379e-21
9.99043598e-22
7.174064198e-22
1.569957316e-20
4.192577306e-22
3.125598334e-21
1.167170723e-21
4.639336073e-21
5.750629857e-21
2.340216498e-21
1.772467508e-20
6.813125344e-21
2.408155735e-21
1.755624714e-20
8.067655807e-22
6.818689635e-22
7.104986744e-21
6.946171236e-21
8.561024539e-21
1.167648411e-21
2.45725184e-21
1.653393816e-21
1.602728799e-20
3.34643777e-22
9.305377649e-21
2.001419688e-21
2.258145561e-21
3.233580437e-21
1.481675788e-22
4.293451089e-21
3.831473102e-21
1.921734652e-22
1.188073274e-21
1.173341709e-20
3.30666405e-21
1.11989714e-21
1.397865714e-22
1.177232784e-20
2.151539599e-21
2.348023157e-21
6.450049088e-21
1.500151741e-20
5.96479398e-21
1.001125591e-21
4.71669043e-21
3.415803819e-22
6.795303421e-21
4.957092976e-22
3.658549527e-21
7.723400422e-21
4.472309027e-21
1.256548477e-21
6.912980421e-21
3.066906942e-21
4.146387589e-21
8.808161288e-21
4.242581855e-23
2.084581325e-21
2.9973939e-21
1.549302839e-21
1.975157306e-21
7.165065962e-22
6.503856203e-21
5.723207169e-21
4.637766321e-21
8.638709992e-21
4.786929279e-21
2.426917316e-21
2.759771723e-21
2.787231313e-21
9.764345376e-22
1.307795599e-21
5.84172719e-22
1.331510027e-21
7.658458102e-22
1.654796234e-21
6.665349381e-21
2.986506308e-21
2.269994662e-21
2.572590642e-21
1.093004364e-21
6.599734726e-22
1.316247942e-21
6.453793667e-21
2.884640554e-21
8.474453327e-21
1.535405706e-20
6.186014284e-21
7.794393364e-21
4.855156565e-21
4.97375781e-22
2.979209188e-21
3.556676022e-22
1.020720959e-20
3.630548005e-21
9.445811742e-21
1.358174269e-21
5.511314805e-22
1.048406372e-23
3.668039538e-21
1.687435364e-21
3.145458997e-21
6.371911589e-21
8.29076632e-22
1.13792204e-21
1.952565538e-20
4.145247643e-22
2.408537088e-21
3.112427794e-21
1.013654488e-21
3.355306164e-22
6.358411677e-21
2.436661177e-22
1.062130117e-21
4.57167859e-21
4.533435337e-22
3.684909408e-22
5.29545508e-21
3.633725555e-22
3.471545526e-21
2.700492976e-21
5.550636731e-21
5.694536092e-21
7.007288238e-21
1.105661602e-22
3.26435383e-21
6.59450132e-21
4.995410928e-21
1.620395056e-21
1.130274591e-21
5.667293791e-21
3.705197474e-21
5.298160921e-21
3.151745136e-21
3.42467325e-21
2.354497055e-21
6.335867e-21
8.400108488e-21
3.678808142e-22
6.021383689e-21
9.401911085e-22
1.631840683e-20
1.772743855e-23
9.037332973e-21
5.66369119e-21
8.779981411e-22
8.172579833e-22
4.044631804e-21
7.707096679e-21
9.534695918e-22
1.468829701e-20
1.078538247e-20
1.016174511e-20
5.046267918e-23
1.876947766e-21
2.464717061e-21
1.03448841e-20
6.486138644e-21
8.17012676e-21
4.843992368e-21
2.653957951e-22
3.54874387e-21
1.534867071e-21
2.868683877e-21
2.485275194e-21
1.077045127e-21
1.585752165e-21
2.048815401e-21
9.123849238e-23
1.79372094e-21
4.742583965e-21
1.406123176e-22
3.477893473e-21
2.102950669e-21
2.033687332e-21
4.365171746e-21
5.323232827e-21
3.996712638e-22
1.878343687e-21
4.808106863e-21
1.567171634e-21
2.407617065e-21
5.169194715e-21
1.462081456e-21
6.427243545e-21
2.190328154e-23
2.526753845e-21
8.243425269e-22
7.869681887e-21
8.18900013e-21
1.681000989e-21
5.261949835e-21
1.957465215e-21
2.352881345e-21
2.596189853e-21
2.04985765e-21
8.066481203e-21
6.881954971e-21
1.622561112e-21
6.719447555e-21
5.764479931e-21
2.527598098e-22
1.160564972e-21
2.451016128e-21
5.87458756e-22
9.795798813e-22
1.233737986e-21
4.803080357e-21
2.035661856e-21
1.925840527e-22
8.840273248e-22
4.143916507e-21
3.005213481e-21
2.597010331e-21
3.492028335e-21
7.986929582e-21
8.963985887e-23
2.247418247e-21
2.69034767e-21
6.372353652e-22
2.089073169e-21
8.611830801e-21
1.239781783e-21
5.707783159e-21
1.942817769e-21
6.74640708e-21
3.394867543e-22
2.136356879e-21
5.448285625e-21
2.643422618e-21
2.864275312e-21
2.529051889e-22
2.448299643e-21
5.535167703e-21
2.386361678e-21
2.501106499e-22
9.934101857e-26
1.105749203e-20
5.960437605e-21
1.333834668e-21
1.835092869e-21
1.862134172e-21
2.02553538e-21
1.368366266e-21
1.174950821e-20
1.086346269e-21
4.0280699e-23
5.24317966e-21
4.410412269e-21
2.999161412e-21
3.983933153e-21
3.736854375e-21
9.587500668e-21
2.184620787e-21
2.834113911e-21
1.682638033e-21
9.791426429e-22
2.265949638e-21
2.032575396e-21
5.738255864e-21
4.131164363e-21
5.45483089e-21
2.254004205e-22
2.352905463e-21
9.76037472e-21
3.570849525e-21
4.646198844e-21
6.163164258e-21
9.346183018e-21
7.128681174e-22
7.593052665e-21
2.20891932e-21
5.774884115e-21
3.821670804e-25
3.336659299e-22
3.487642002e-21
1.870882046e-21
2.09466233e-21
6.405956987e-21
1.782186121e-21
7.159693641e-21
1.399856341e-20
4.138497444e-21
1.226706021e-21
4.956584383e-22
7.928441031e-21
4.056914368e-23
7.606767849e-22
1.156081287e-21
2.429985265e-21
6.361299848e-21
4.59091937e-21
1.051971036e-21
4.738135988e-21
2.736415663e-21
3.856507027e-21
3.186108019e-21
4.986216909e-21
1.081341166e-21
4.288863797e-21
1.14467746e-20
2.057726922e-21
1.668862603e-21
2.690727814e-22
4.563892593e-21
1.851034279e-21
1.05568598e-20
6.931114053e-22
1.842835204e-21
3.906831556e-21
6.554805646e-22
4.250460473e-21
5.140095928e-22
4.281341847e-21
1.657459937e-21
2.548576159e-22
5.509088061e-21
2.558350015e-21
1.139840986e-20
2.096654137e-21
4.301751893e-21
2.193480311e-23
1.736872552e-20
5.874907333e-22
7.53574726e-21
8.546495318e-22
3.326917437e-21
2.238822312e-21
5.035358497e-21
2.129494065e-21
4.347006882e-21
3.313751261e-21
3.913199774e-21
1.416554609e-21
1.961655129e-21
1.035826076e-21
7.363794779e-21
4.377206831e-22
6.388474923e-21
1.106084698e-20
2.29514878e-21
3.376514945e-20
6.955042264e-22
9.139207374e-22
9.833096946e-21
5.763237458e-21
6.200963097e-21
2.267992887e-21
2.026093813e-21
1.234948955e-21
3.832936605e-21
4.090045597e-21
6.714910952e-21
2.531284336e-21
3.794579343e-21
3.143627842e-21
9.055733892e-22
2.127926194e-21
3.114994816e-23
4.943326722e-21
2.464771832e-21
9.747849259e-22
3.986756134e-21
1.200630827e-20
2.647876731e-21
1.574901619e-22
1.575683896e-21
2.739657578e-21
1.085238321e-20
1.170332863e-20
1.224081902e-21
2.120922338e-21
5.84388467e-21
2.747880368e-21
6.034982149e-21
2.069505009e-22
3.770691157e-21
2.884164897e-21
1.068340144e-22
2.250864503e-21
1.161558268e-21
2.997194146e-21
2.964096475e-21
7.523680056e-21
6.356954852e-21
1.382690173e-21
1.168558883e-20
4.090323189e-21
2.846322784e-21
6.408694989e-21
2.532697233e-21
1.113751703e-21
4.597251366e-21
3.083945266e-21
1.338002231e-21
5.946015189e-22
5.934682004e-21
8.704502648e-22
1.038723196e-21
1.098248637e-21
8.265190483e-21
8.175812791e-21
3.018161532e-21
2.339143389e-21
4.493947006e-21
3.437123513e-21
2.685418467e-21
4.172183171e-21
2.165614572e-20
5.606172011e-21
7.57301251e-21
3.048861451e-21
2.264302953e-21
3.514037761e-21
2.608824686e-21
1.042809525e-21
1.140928192e-21
2.01872041e-21
1.493303744e-23
1.565779232e-22
1.309010832e-23
1.078131476e-21
4.232850981e-21
3.318137596e-22
6.730018834e-22
4.463149938e-22
3.115441704e-21
7.745062422e-22
1.875645013e-20
4.965053125e-21
8.730547118e-22
1.945533127e-21
6.703721796e-21
1.49959852e-20
8.587118143e-21
1.41590868e-20
1.921531403e-21
2.130335471e-21
2.213683192e-21
1.910488921e-22
9.722542741e-22
8.139117978e-21
2.509825307e-21
3.480849367e-21
8.287777771e-21
2.201863339e-21
1.286944037e-20
1.217266387e-20
1.531795855e-21
1.407501807e-21
4.886065343e-22
3.336640696e-22
9.976887606e-22
6.826388985e-21
6.82425252e-21
4.05506229e-22
2.9222239e-21
1.399510808e-22
1.054512976e-20
6.32765109e-22
1.029395129e-21
5.562760333e-21
7.665761204e-23
1.00011578e-20
5.968443506e-21
6.913683596e-22
6.125326271e-21
7.612136689e-21
9.45696199e-21
4.006527397e-21
5.514676574e-21
4.911170922e-21
5.973821917e-22
4.557718444e-21
3.266842265e-21
2.867225992e-21
7.663486888e-22
2.570024273e-21
9.824396095e-22
3.937605257e-21
2.384583254e-21
5.257097928e-22
6.583366119e-22
4.089122658e-22
3.777767271e-21
8.521050395e-22
3.287127455e-21
4.241703621e-21
5.791736905e-21
7.510638863e-21
2.462199965e-21
5.182176677e-21
1.4064419e-20
3.895739456e-21
4.04438761e-21
7.919392383e-21
3.086410099e-21
1.808866541e-21
1.746473607e-21
2.955836216e-21
6.57662158e-21
8.539123571e-21
3.446046293e-21
1.233018308e-20
3.770812653e-21
3.806044069e-22
2.206609328e-22
6.659138501e-21
9.290784606e-21
4.865910315e-21
1.185890516e-21
8.073467341e-21
3.50162034e-21
2.471389714e-21
2.963793886e-21
1.046878466e-20
9.522811432e-21
6.929394623e-21
4.394837868e-21
1.104682013e-20
3.352744168e-21
5.095307464e-22
3.716439958e-21
2.803051062e-21
8.92478759e-21
4.25124645e-21
5.294696613e-21
1.659752355e-22
3.247128518e-22
4.440290798e-21
1.20159185e-21
1.211938495e-20
2.626830528e-21
3.240395806e-21
2.373863156e-21
1.07117126e-21
1.953119542e-22
1.58480811e-21
1.220282728e-20
2.244589365e-21
2.505931792e-21
5.165523674e-21
3.015926143e-21
2.601506674e-21
6.963746678e-21
3.501729784e-21
3.485050024e-21
4.692297122e-21
4.1179029e-21
9.585619787e-22
4.999805994e-21
3.911240402e-23
6.633249722e-21
5.615715114e-21
2.110983309e-21
3.081489555e-21
6.125351486e-22
4.556133386e-21
1.03961359e-20
7.944342336e-22
2.186480168e-21
3.937848608e-21
8.607584352e-21
1.068998438e-21
1.708145492e-21
5.642597367e-22
2.199621823e-21
2.775355813e-21
1.827430562e-21
4.552136592e-21
2.944288489e-21
2.288394634e-21
3.105558694e-21
2.450461081e-21
4.17507665e-21
3.991126479e-22
5.566619876e-21
3.860156947e-21
8.935941722e-22
2.797245909e-21
8.055119643e-21
2.097942127e-21
3.761273112e-22
5.305318588e-21
2.850646652e-21
1.840096201e-21
1.011077826e-20
1.540269538e-21
8.507106584e-21
3.821242128e-21
4.57278504e-22
7.265399688e-22
9.628626667e-21
6.627345898e-21
3.594295528e-21
1.257561062e-21
4.625032026e-21
4.482750565e-21
2.667824215e-21
2.835734116e-21
3.577892715e-21
3.216171254e-21
7.8198149e-22
4.815839911e-22
3.606672017e-21
1.79763495e-22
6.535594363e-22
6.671755103e-21
1.29228044e-20
3.818756266e-21
1.235234369e-21
3.999062194e-21
7.850079711e-21
1.119386402e-21
4.579113036e-21
2.002409755e-22
4.133517732e-21
4.498232341e-21
1.599371421e-21
1.356041111e-24
1.138604237e-22
5.889214944e-21
6.398959096e-21
9.32257642e-22
5.426729151e-22
1.447177068e-21
1.92992561e-21
5.500952118e-21
1.788615204e-21
1.558382926e-20
2.769733628e-21
1.276591248e-21
1.497724633e-21
3.226741634e-21
4.194666437e-21
1.776792436e-21
4.378221515e-21
2.807845105e-21
1.321009454e-20
5.736522992e-21
2.901688129e-21
3.912178087e-22
4.566854953e-22
2.829056245e-21
7.282029825e-21
8.529804388e-21
4.799022237e-22
5.360870101e-21
1.208769636e-21
2.350285706e-21
1.099412795e-21
4.096368523e-21
1.503485982e-20
4.688587549e-22
9.775389539e-22
1.5368101e-21
1.232436109e-22
4.203239825e-21
4.837069315e-21
8.395358403e-22
4.242442201e-21
2.507563337e-22
8.001936584e-22
9.674527181e-21
1.145486434e-21
8.863538175e-21
1.304899442e-21
6.862364006e-22
6.393798955e-21
9.880959831e-21
9.054859275e-21
3.844239921e-22
2.670872423e-22
8.317327048e-21
5.764308011e-21
5.946146239e-22
3.94369558e-21
2.092590509e-21
1.018494325e-20
1.277557962e-21
5.703447483e-21
1.695657669e-22
2.695666922e-21
1.1153688e-20
5.920629004e-21
3.641072317e-21
8.362567659e-22
5.839085568e-21
2.844913279e-21
3.396246124e-21
1.228807783e-22
1.032658233e-21
3.984719104e-21
3.563458169e-21
4.443630456e-22
3.273263919e-22
3.264763201e-21
1.177775481e-21
4.88569186e-21
3.42954402e-22
8.03035447e-21
2.096587779e-21
4.309744596e-22
5.577146679e-21
3.314416284e-21
4.925146844e-22
5.046969858e-21
2.154231266e-21
7.368898157e-22
9.07489576e-21
1.094786308e-21
6.844191977e-23
3.128951201e-21
6.061548914e-21
9.621016001e-22
4.558645974e-21
2.995331553e-22
1.046663928e-20
4.138144568e-21
5.686505478e-21
5.22816167e-21
3.019450503e-21
4.543247531e-21
3.134113631e-21
2.431556372e-21
5.075795333e-22
1.49351984e-21
9.187466437e-22
2.015161845e-21
8.119877094e-22
2.912415436e-21
5.590664824e-21
5.802396168e-21
6.969745224e-21
2.461817793e-23
5.600707198e-21
4.268743844e-21
7.050940425e-22
2.667776751e-21
9.351666969e-21
1.507849073e-21
1.655684059e-20
1.243645816e-21
1.341679797e-20
8.624073225e-21
4.668981748e-22
9.397662723e-21
1.747841255e-20
1.436496864e-21
5.245606404e-21
2.00989906e-20
6.484856489e-21
6.840914853e-21
3.027182459e-21
2.501252646e-23
5.745396828e-21
5.736557375e-21
3.172712373e-22
8.497671848e-22
7.943490764e-21
2.150286216e-22
2.920277542e-21
3.257184112e-21
4.569204635e-24
4.355948675e-21
4.868228056e-21
6.32678405e-21
6.386462247e-21
1.46621223e-21
2.764407075e-21
2.494416149e-22
1.279140152e-21
6.529496652e-23
5.299445824e-21
1.928809949e-21
2.972504182e-21
5.217491711e-22
9.63049451e-21
3.345520761e-21
2.026108382e-21
6.235372748e-21
9.396798734e-21
2.359523383e-21
3.795382941e-21
2.109811661e-22
1.343088372e-22
8.855130939e-22
7.202555422e-21
1.302250598e-21
1.567221718e-21
6.978913971e-21
1.625630466e-21
8.51796703e-21
2.387709048e-22
4.428232806e-21
2.670439512e-20
2.31047836e-21
1.210132936e-21
4.418535256e-21
1.654571056e-20
4.389354618e-22
5.345506372e-22
5.903262783e-21
1.498210315e-21
3.582688652e-21
2.813287918e-21
1.467575525e-21
1.601985591e-22
5.882104527e-21
4.282231956e-22
1.839430985e-22
1.025021489e-20
4.668532092e-21
3.643859634e-22
1.078260604e-20
1.975894592e-21
3.894669763e-21
3.395281222e-21
3.525606084e-21
1.450308159e-21
6.302352164e-22
5.832867343e-21
2.507996476e-21
7.718005077e-21
5.987134118e-21
1.41984506e-21
1.13912805e-20
7.947406744e-22
5.117700782e-22
4.762245003e-21
4.502711662e-21
3.409496048e-21
3.464661004e-21
4.662202438e-21
7.413484617e-21
5.695617201e-21
2.445990448e-21
3.669439574e-22
5.749064383e-22
2.898378955e-21
4.224178525e-21
4.233213832e-21
1.312537607e-20
7.298548626e-21
4.879332261e-21
9.960092276e-22
2.951300466e-21
7.191646745e-22
4.428061943e-21
2.493551186e-23
2.509291671e-22
7.136140797e-22
3.366316526e-21
5.761741234e-25
1.016521446e-20
3.116219029e-21
4.618173892e-21
5.937130489e-22
9.948236514e-21
4.703746393e-21
2.008343225e-21
1.065422736e-20
9.281249678e-22
8.129377339e-21
2.481833812e-21
1.770548006e-21
5.189351383e-21
1.679093988e-21
3.612499282e-21
6.294101797e-21
6.086764435e-21
1.390660828e-21
1.197053129e-21
5.572077882e-21
1.222823028e-21
1.233322566e-20
5.745741321e-21
2.953369045e-22
3.626365576e-21
1.453514582e-20
4.329091859e-21
3.863878311e-21
1.654325182e-21
1.296830089e-20
3.091574187e-22
1.50023439e-21
1.24578428e-21
4.792157526e-22
7.926141895e-22
9.3446927e-21
5.955457802e-21
8.188209318e-22
2.771362313e-21
5.01452931e-21
5.079043262e-21
8.827393778e-21
4.894785013e-22
1.861602115e-21
3.71448522e-21
1.017688516e-20
1.050731594e-20
6.621945842e-22
8.512092539e-22
6.384767888e-21
1.276321282e-21
1.951721625e-21
2.18678129e-22
3.426185106e-21
8.441824579e-23
2.179487057e-20
3.174102044e-21
3.096557464e-21
3.962696863e-21
6.324719268e-21
3.72938928e-21
1.042069398e-20
5.187583272e-21
5.158038045e-21
2.259911417e-21
8.82094522e-21
7.517857864e-21
2.492350787e-21
1.20053279e-20
5.466255676e-21
3.711060797e-21
5.756337655e-21
4.64695317e-22
5.044184549e-21
1.22868092e-21
3.933809344e-21
2.837879779e-21
8.495364315e-21
7.029108761e-23
5.312649304e-21
1.438949969e-22
3.379269483e-21
1.597002732e-21
6.996155733e-22
2.117568216e-21
5.35019955e-21
2.849605817e-21
4.646657612e-21
8.281732283e-21
4.088468797e-21
1.926371549e-21
6.620722524e-22
3.025393502e-21
6.332980224e-22
1.514902796e-21
4.304355197e-22
6.066175576e-21
3.622306044e-21
1.744436113e-20
3.319947206e-21
2.115084682e-20
5.112542852e-21
2.579576443e-21
5.764978207e-21
2.564443247e-21
2.457918722e-21
2.332637284e-21
2.349912614e-20
4.723929906e-22
1.375129872e-21
6.658964393e-21
3.921721986e-21
7.654736703e-22
2.266458175e-21
6.718332066e-22
6.481967942e-21
1.396285369e-21
1.384638085e-20
1.35673746e-21
2.968695969e-21
2.845378704e-20
1.898729407e-20
5.920494375e-21
4.675679447e-21
4.26656094e-22
2.899416046e-21
2.490551916e-21
8.313562253e-21
2.246116131e-21
1.579226178e-21
1.891254718e-22
2.625947766e-21
2.200494482e-21
5.330946285e-21
4.967464146e-21
5.246093799e-21
3.198857026e-21
3.759834e-21
1.414216992e-20
6.382898007e-21
9.364151302e-21
4.009818044e-21
7.309896721e-21
1.249803563e-20
3.24060114e-22
3.986531883e-21
1.157428122e-21
2.780816384e-21
3.688669117e-21
2.497126767e-21
2.355814782e-21
3.837348637e-22
4.363164659e-21
9.37564871e-23
2.324818303e-21
4.77383184e-21
5.076626593e-23
2.473146585e-21
3.092609604e-21
6.337356365e-22
3.39752079e-22
1.053983253e-21
3.788736923e-22
1.167309891e-21
6.955787984e-22
2.479198606e-21
2.767859239e-22
2.915911958e-21
7.935868861e-21
1.421052168e-20
1.256208048e-21
7.24554651e-21
3.750070654e-21
2.788873967e-21
3.44783912e-21
5.183982579e-21
2.302428042e-21
1.414079892e-21
3.98848932e-21
2.952217158e-21
5.33919671e-21
4.343689584e-21
1.102269251e-21
1.849372243e-21
3.865899802e-21
3.187094015e-21
3.148542038e-21
2.610878687e-21
1.150563495e-21
5.902899044e-21
4.486764602e-21
9.72767448e-22
4.891815812e-21
6.408887029e-22
2.274937882e-21
2.87439394e-22
3.064628461e-21
3.897330016e-21
5.508210733e-21
1.301280987e-21
2.403445559e-21
1.546416906e-21
2.702992221e-21
2.968775158e-21
2.387213891e-21
1.310578295e-21
8.664469345e-21
7.137673116e-21
4.654023669e-21
1.094014344e-22
4.090014537e-21
2.130195497e-21
1.501809266e-20
1.050911129e-20
3.191569555e-21
5.488890551e-21
1.950879177e-23
1.083153618e-20
4.676564279e-21
7.171024266e-21
3.766149837e-21
3.847500809e-21
4.555483907e-21
7.656160854e-22
1.331312698e-21
1.113467634e-20
2.127536198e-22
8.918913889e-22
1.165094236e-21
5.768748162e-21
2.071890248e-21
1.219655383e-20
6.282033959e-21
4.767499703e-21
7.93784006e-22
3.702653817e-21
3.984683775e-21
2.419778972e-21
4.563771082e-21
2.470143029e-21
1.615944463e-20
3.274531685e-21
7.191110254e-21
4.366601479e-21
1.416009625e-21
1.666710739e-21
6.644599996e-22
3.565505831e-21
3.931420324e-21
8.489485377e-21
1.634484695e-21
1.023090799e-21
1.01817434e-20
4.334395271e-21
4.964677719e-21
5.60216743e-21
3.119397302e-21
3.165722891e-21
2.68065851e-21
1.453371421e-21
5.039999184e-21
3.537080068e-21
3.224489809e-21
6.404611629e-21
7.365895263e-21
4.95331097e-21
1.641466189e-21
1.894402057e-20
2.001977266e-21
1.544073276e-21
6.391658231e-21
3.457510686e-22
3.478947169e-22
1.28161299e-22
2.705607317e-21
1.037055178e-20
8.575410615e-24
4.797059438e-21
6.601757593e-21
4.020258844e-21
2.293679489e-23
1.884094862e-20
2.978908338e-22
3.263439611e-21
7.373598147e-21
5.403818696e-21
4.206208201e-22
1.109916477e-20
6.92914292e-21
8.342870219e-22
3.481241759e-21
1.511660688e-21
7.408936753e-21
4.71997545e-21
1.964109544e-21
4.477609228e-21
1.495654797e-20
1.341100042e-21
1.816212677e-21
6.5881296e-21
1.331578185e-21
1.026747772e-20
6.371821963e-21
2.651899265e-21
2.713609651e-21
4.684261389e-22
2.882718126e-21
2.834120711e-21
7.698160413e-21
1.176115349e-21
3.135903644e-22
3.017370935e-21
4.573872659e-21
3.067636113e-22
3.002285129e-21
5.962264399e-21
2.885592924e-21
3.421597761e-21
7.263252077e-21
1.646057488e-22
2.640197951e-21
1.095359734e-20
1.936723566e-21
8.901609977e-21
5.869108707e-22
6.383786925e-22
4.023716083e-21
1.183707703e-21
3.021453055e-21
1.86810993e-21
7.468867527e-21
2.83551805e-21
2.365775478e-20
1.293137035e-22
1.164968508e-20
4.606599867e-21
3.65300805e-22
8.297797076e-22
1.150021251e-22
4.920831966e-22
1.304725255e-21
3.789299384e-21
1.07462233e-20
2.837915088e-21
2.245103064e-21
3.841322349e-21
9.33391888e-23
1.010916199e-20
2.313572181e-21
1.081836212e-20
6.854137833e-21
1.643875643e-22
3.512081985e-21
9.915076804e-21
6.509911289e-22
1.630049129e-21
2.669767523e-21
2.590756317e-21
8.18121325e-22
2.726140315e-22
2.279117931e-22
1.441651265e-20
2.138488361e-21
1.452624472e-22
2.102788707e-23
5.735801611e-21
2.574145125e-22
9.550339396e-22
2.665401892e-20
2.13593336e-21
7.792090161e-21
7.347478054e-22
8.889200589e-22
4.367151527e-21
2.757446508e-21
1.202591181e-20
6.06991223e-21
4.353207727e-21
4.701111172e-21
1.809179704e-20
6.742124496e-22
4.02678788e-21
9.785856704e-22
4.734318586e-21
1.278585618e-20
2.425422637e-21
2.521459122e-23
2.436225323e-21
1.22602105e-21
4.360679612e-22
1.220234274e-21
3.881956788e-21
7.686887197e-22
1.298924504e-20
1.710973777e-21
2.714491151e-21
3.172184727e-21
1.155304782e-21
2.793563204e-21
1.814125862e-20
9.263035122e-21
1.028808928e-20
1.76316391e-21
2.6394324e-21
1.501056185e-21
9.298225441e-22
2.011767583e-21
1.936700426e-20
7.713471084e-21
8.725267448e-21
2.903550023e-22
9.665440075e-22
3.276170743e-21
4.473748497e-22
8.67559703e-21
5.279720105e-23
4.812109797e-21
4.411519138e-21
8.27114325e-22
9.766530071e-22
9.919701596e-22
3.929442901e-22
1.192528701e-20
1.508232316e-20
4.23658743e-21
2.95174571e-21
2.161060888e-22
2.148126657e-21
8.45167732e-21
1.634772984e-21
6.150830093e-22
1.994267576e-20
6.023304798e-21
1.582870294e-21
4.723072095e-22
8.804975025e-22
1.957066523e-21
6.330717855e-21
2.013668617e-21
4.43784584e-21
5.345650434e-22
5.612095535e-21
9.627776868e-22
4.079331246e-21
1.507333043e-22
9.961380488e-22
3.430712386e-21
3.237326836e-21
1.777472151e-21
1.587988739e-22
1.090648376e-20
7.788958762e-21
7.112336011e-21
2.088912234e-21
1.272063156e-22
2.266733463e-21
9.513963179e-21
7.203883663e-22
3.14231887e-22
7.289341294e-22
3.672966885e-21
2.239969956e-22
1.23282768e-20
1.309488296e-21
1.167803915e-20
2.639720798e-21
2.96600565e-21
2.891371719e-22
1.878290402e-21
3.344370676e-22
8.437837804e-21
9.370158971e-21
1.625934346e-21
2.454212165e-21
2.434820622e-21
3.497079537e-22
3.251253369e-20
3.047864093e-21
4.934655537e-22
4.050015981e-21
3.323018748e-21
3.83224345e-21
1.360522099e-20
7.901140666e-22
5.611697075e-22
1.007249455e-21
3.508790128e-21
2.522009452e-21
1.035432535e-20
1.129017207e-20
1.539939145e-23
1.136543318e-20
3.00394178e-21
1.150960555e-21
1.362449991e-20
9.403623014e-22
6.235778589e-21
7.459130138e-22
1.119310439e-21
1.975836643e-22
2.176631417e-22
3.802239664e-21
1.436831276e-21
1.144789199e-21
3.033125627e-23
3.692700713e-22
5.653827628e-22
3.330572998e-21
2.314241395e-21
1.706521702e-22
7.620946992e-22
3.825683835e-21
3.423461398e-21
7.184797399e-22
8.13796346e-22
4.793637325e-21
1.074066399e-21
5.592574751e-21
4.904159462e-21
2.949562277e-21
1.252430661e-21
5.340336414e-21
1.384994407e-22
2.823942166e-21
2.779395561e-21
1.350072708e-20
2.753137034e-21
4.471918922e-21
2.223560981e-21
3.414156505e-21
5.899439197e-21
4.223779951e-21
9.918943921e-22
2.16387263e-21
5.205272417e-22
4.362612599e-21
1.073660645e-21
1.676271386e-21
2.386084825e-21
3.885241742e-22
9.888961859e-22
1.11410977e-20
1.468175225e-20
1.421886125e-23
9.56282601e-21
2.044957717e-21
3.191277175e-21
5.063863798e-21
1.814681698e-21
8.196128319e-21
8.15990688e-21
3.925768883e-21
1.077631022e-21
1.332140235e-21
2.840309091e-21
7.809403672e-22
6.460914212e-21
6.001589905e-22
3.978545855e-21
6.640025915e-24
4.081522463e-21
2.756299837e-21
1.265449462e-20
5.63757092e-21
6.292639536e-21
7.475328442e-22
5.365355979e-21
3.8305847e-21
3.836010239e-21
5.793403062e-22
2.663253896e-21
3.083849812e-21
6.80372496e-21
1.622009514e-20
5.547457501e-22
1.344646084e-21
5.331145096e-22
5.990800602e-21
2.920722094e-21
1.254597655e-21
4.621499197e-21
3.360214673e-22
1.35309992e-21
9.504190481e-21
4.261540466e-21
4.578951018e-21
1.289066145e-20
9.920830243e-21
2.223882346e-20
1.18726756e-20
9.464258371e-22
8.301521023e-21
2.457124638e-21
1.83435726e-21
8.027554967e-22
1.288321186e-20
8.820679521e-21
2.406241276e-21
3.13506643e-21
2.694916872e-21
5.52109039e-21
8.169922861e-22
1.261442667e-20
2.920228079e-21
3.974327203e-21
5.883106102e-21
1.176043386e-22
7.167909371e-21
2.126068708e-21
1.568424066e-21
3.782877996e-21
3.362840428e-21
4.455698109e-22
2.567955298e-21
2.09686032e-21
8.472349667e-22
4.701097134e-22
2.022969669e-21
8.53771508e-21
8.493265206e-21
1.238971623e-20
1.064597705e-21
3.472195574e-21
1.335927248e-21