/*--------------------------------*- C++ -*----------------------------------*\
| =========                 |                                                 |
| \\      /  F ield         | OpenFOAM: The Open Source CFD Toolbox           |
|  \\    /   O peration     | Version:  2406                                  |
|   \\  /    A nd           | Website:  www.openfoam.com                      |
|    \\/     M anipulation  |                                                 |
\*---------------------------------------------------------------------------*/
FoamFile
{
    version     2.0;
    format      ascii;
    arch        "LSB;label=32;scalar=64";
    class       labelField;
    location    "0.006/lagrangian/dsmc";
    object      origId;
}
// * * * * * * * * * * * * * * * * * * * * * * * * * * * * * * * * * * * * * //


5151
(
260146
260372
261052
261066
261078
261202
261225
261241
261264
261318
261322
261366
261383
261414
261460
261461
261475
261490
261562
261565
261575
261576
261580
261590
261593
261597
261599
261605
261638
261650
261719
261721
261728
261744
261746
261812
261815
261829
261836
261841
261863
261868
261873
261881
261900
261918
261930
261936
261939
261941
261957
261966
261989
261990
261997
261999
262008
262009
262018
262021
262022
262037
262042
262049
305164
262075
262086
262088
262100
262103
262105
262107
262111
262124
262126
262131
262132
262137
262138
262170
262177
262178
262179
262185
262189
262197
262201
262214
262220
262224
262254
262258
262259
262269
262278
262281
262294
262299
262301
262302
262303
262304
262338
262342
262348
262351
262355
262357
262365
262366
262369
262371
262373
262374
262377
262382
262385
262386
262388
262390
262391
262396
262397
262398
262400
262406
262415
262416
262432
262442
262443
262444
262445
262446
262449
262452
262458
262459
262462
262463
262465
262467
262469
262473
262474
262477
262482
262488
262491
262497
262500
262515
262518
262521
262527
262529
262532
262542
262547
262550
262556
262560
262561
262563
262572
262573
262575
262581
262583
262585
262586
262587
262595
262600
262614
262615
262618
262623
262624
262632
262637
262642
262644
262645
262646
262648
262650
262655
262656
262657
262658
262660
262661
262662
262665
262666
262673
262684
262689
262693
262695
262696
262697
262698
262700
262702
262703
262704
262706
262707
262708
262710
262711
262712
262714
262716
262717
262718
262720
262721
262722
262724
262725
262728
262730
262731
262735
262736
262741
262742
262744
262746
262748
262751
262756
262758
262759
262761
262771
262776
262780
262782
262785
262787
262790
262791
262794
262796
262798
262799
262800
262807
262809
262810
262812
262813
262814
262816
262817
262819
262820
262825
262830
262831
262837
262839
262840
262845
262854
262855
262857
262859
262860
262864
262865
262867
262869
262873
262874
262876
262877
262880
262881
262882
262884
262885
262886
262887
262889
262890
262892
262893
262895
262897
262899
262900
262901
262903
262904
262906
262910
262911
262912
262914
262915
262916
262918
262922
262926
262927
262928
262929
262932
262935
262939
306503
306604
262945
262949
262954
262955
262958
262959
262960
262961
262964
262966
262967
262968
262969
262971
262972
262973
262976
262977
262978
262980
262983
262984
262985
262987
262988
262989
262990
262991
262992
262993
262995
262996
262997
262999
263000
263001
263002
263003
263005
263006
263007
263008
263009
263011
263013
263014
263016
263018
263019
263026
263027
263029
263031
263032
263034
263035
263036
263037
263038
263039
263042
263045
263046
263048
263049
263050
263051
263052
263054
263055
263056
263058
263061
263062
263063
263064
263065
263066
263068
263069
263070
263071
263073
263075
263076
263077
263079
263080
263081
263083
263084
263089
263091
263116
263117
263122
263124
263125
263127
263128
263131
263132
263133
263135
263137
263139
263141
263142
263143
263144
263146
263147
263148
263149
263150
263152
263153
263155
263156
263157
263158
263159
263160
263161
263162
263163
263166
263167
263168
263169
263171
263172
263174
263175
263177
263178
263179
263180
263181
263182
263184
263185
263188
263189
263193
263201
263206
263209
263212
263214
263215
263219
263220
263222
263223
263224
263225
263227
263228
263230
263231
263232
263234
263235
263236
263237
263239
263240
263241
263242
263243
263244
263245
263246
263247
263248
263249
263250
263251
263252
263253
263254
263255
263256
263257
263258
263259
263260
263261
263263
263264
263265
263266
263267
263268
263269
263273
263274
263275
263278
263302
263304
263307
263308
263311
263312
263315
263316
263318
263319
263320
263321
263322
263323
263324
263326
263327
263328
263329
263330
263331
263332
263335
263336
263337
263338
263340
263341
263342
263343
263345
263346
263347
263348
263350
263351
263352
263353
263354
263355
263356
263357
263358
263359
263361
263362
263363
263366
263368
263369
263370
263371
263373
263375
263376
307001
263385
263388
263390
263392
263394
263395
263396
263397
263398
263399
263400
263401
263403
263405
263406
263407
263408
263409
263410
263412
263413
263414
263415
263418
263419
263420
263421
263422
263423
263424
263425
263426
263427
263428
263429
263430
263431
263432
263433
263434
263435
263436
263437
263438
263439
263440
263441
263442
263443
263445
263446
263447
263448
263449
263450
263451
263453
263454
263455
263457
263459
263460
263461
263462
263463
263464
305672
305782
306399
263482
263483
263484
263485
263491
263492
263493
263494
263495
263496
263497
263498
263499
263500
263501
263502
263503
263505
263506
263507
263508
263509
263510
263511
263512
263513
263514
263515
263516
263517
263518
263520
263521
263522
263523
263525
263526
263527
263528
263531
263532
263533
263534
263535
263536
263537
263538
263539
263540
263541
263542
263544
263545
263546
263548
263550
263553
306398
263571
263573
263574
263576
263577
263578
263582
263583
263584
263585
263586
263588
263589
263590
263591
263592
263593
263594
263595
263596
263597
263598
263599
263600
263601
263602
263604
263605
263606
263607
263608
263609
263611
263612
263613
263614
263615
263616
263618
263619
263620
263621
263622
263624
263626
263627
263628
263629
263630
263631
263632
263633
263634
263635
263636
263638
263640
263642
263643
263645
307110
263661
263662
263663
263664
263665
263666
263667
263668
263669
263673
263674
263675
263676
263677
263678
263679
263680
263681
263682
263683
263685
263686
263687
263688
263690
263691
263692
263693
263694
263695
263696
263697
263698
263699
263700
263701
263702
263703
263704
263705
263706
263707
263708
263709
263710
263711
263712
263713
263714
263715
263716
263717
263718
263719
263720
263721
263722
263723
263724
263725
263727
263728
263729
263730
263731
263732
306698
307418
263739
263740
263742
263743
263744
263749
263751
263752
263754
263755
263758
263759
263760
263761
263762
263763
263764
263765
263766
263767
263768
263769
263770
263771
263772
263773
263774
263775
263776
263777
263778
263779
263780
263781
263782
263783
263784
263785
263786
263787
263788
263789
263790
263791
263792
263793
263794
263795
263797
263798
263799
263800
263802
263803
263804
263805
263806
263807
263809
263810
263811
263812
263814
263819
263820
263821
263822
307002
307209
307626
263830
263832
263833
263834
263835
263838
263840
263842
263843
263844
263845
263847
263849
263850
263851
263852
263853
263854
263855
263856
263857
263858
263859
263860
263861
263862
263863
263864
263865
263866
263867
263868
263869
263870
263871
263872
263873
263874
263875
263876
263877
263878
263879
263880
263881
263882
263883
263884
263885
263886
263887
263888
263889
263890
263891
263894
263895
263896
263897
263898
263899
263901
263903
263905
263906
263908
306905
263922
263927
263929
263930
263931
263932
263933
263934
263935
263936
263937
263938
263939
263940
263941
263942
263944
263945
263946
263947
263948
263949
263950
263951
263952
263953
263954
263955
263956
263957
263958
263959
263960
263961
263962
263963
263964
263965
263966
263967
263968
263969
263970
263971
263972
263973
263974
263975
263976
263977
263978
263979
263981
263983
263984
263985
263986
263987
263990
263991
263994
263995
263996
306595
264004
264006
264007
264011
264015
264016
264017
264018
264019
264020
264021
264022
264023
264024
264025
264026
264027
264028
264029
264030
264031
264032
264033
264034
264035
264036
264038
264040
264041
264042
264043
264044
264045
264046
264047
264048
264049
264050
264051
264052
264053
264054
264055
264056
264057
264058
264059
264060
264061
264062
264063
264064
264065
264066
264067
264068
264070
264071
264073
264074
264075
264076
264077
264078
264080
264081
264082
264083
307526
307824
264089
264090
264094
264095
264097
264098
264099
264102
264103
264104
264105
264106
264108
264109
264110
264111
264112
264113
264114
264115
264116
264117
264118
264119
264120
264121
264122
264123
264124
264125
264126
264127
264128
264129
264130
264131
264132
264133
264134
264135
264136
264137
264138
264139
264140
264141
264143
264144
264145
264146
264148
264149
264150
264151
264152
264153
264154
264155
264156
264157
264159
264160
264165
264166
264175
264176
264178
264180
264181
264182
264185
264187
264188
264189
264190
264192
264193
264194
264195
264196
264197
264198
264199
264200
264201
264202
264203
264204
264205
264206
264207
264208
264209
264210
264211
264212
264213
264214
264215
264216
264217
264218
264219
264220
264221
264222
264223
264224
264225
264226
264227
264228
264229
264230
264231
264232
264233
264235
264236
264237
264238
264239
264240
264241
264242
264243
264245
264246
264249
264250
264252
264253
264255
264257
264259
306597
308034
264268
264269
264271
264272
264273
264274
264275
264276
264277
264278
264279
264281
264282
264283
264285
264286
264287
264288
264289
264290
264291
264292
264293
264294
264295
264296
264297
264298
264299
264300
264301
264302
264303
264304
264305
264306
264307
264308
264309
264310
264311
264312
264313
264314
264315
264316
264317
264318
264319
264320
264321
264322
264323
264324
264325
264326
264327
264328
264329
264330
264331
264332
264333
264335
264336
264338
264339
264340
264341
264343
264344
264345
264346
264347
307000
307313
308130
264355
264356
264357
264358
264360
264362
264363
264365
264366
264367
264369
264370
264371
264372
264373
264374
264375
264376
264377
264378
264379
264380
264381
264382
264383
264384
264385
264386
264387
264388
264389
264390
264391
264392
264393
264394
264395
264396
264397
264398
264399
264400
264401
264402
264403
264404
264405
264406
264407
264408
264409
264410
264411
264412
264413
264414
264415
264416
264417
264418
264419
264420
264421
264422
264423
264424
264425
264426
264427
264429
264433
264436
264438
264439
264440
264441
264442
264443
264444
264445
264446
264448
264449
264450
264452
264453
264454
264455
264456
264457
264458
264459
264460
264461
264462
264463
264464
264465
264466
264467
264468
264469
264470
264471
264472
264473
264474
264475
264476
264477
264478
264479
264480
264481
264482
264483
264484
264485
264486
264487
264488
264489
264490
264491
264492
264493
264494
264495
264496
264497
264498
264499
264500
264501
264503
264504
264505
264508
264509
264510
264511
264512
264513
264514
264515
307823
263204
264522
264525
264527
264528
264529
264530
264532
264533
264534
264535
264536
264539
264540
264541
264542
264543
264544
264545
264546
264547
264548
264549
264550
264551
264552
264553
264554
264555
264556
264557
264558
264559
264560
264561
264562
264563
264564
264565
264566
264567
264568
264569
264570
264571
264572
264573
264574
264575
264576
264577
264578
264579
264580
264581
264583
264584
264585
264586
264587
264588
264589
264590
264594
264595
264596
264597
264598
305563
307719
264611
264615
264619
264621
264622
264623
264624
264625
264626
264627
264628
264629
264630
264631
264632
264633
264634
264635
264636
264637
264638
264639
264640
264641
264642
264643
264644
264645
264646
264647
264648
264649
264650
264651
264652
264653
264654
264655
264656
264657
264658
264659
264660
264661
264662
264663
264664
264665
264666
264667
264668
264669
264670
264671
264672
264673
264674
264675
264676
264678
264679
264680
264681
264682
264685
264686
264687
264690
264691
264692
264696
264697
264698
264699
264700
306997
307102
308749
264711
264712
264715
264716
264717
264718
264719
264720
264721
264722
264723
264724
264725
264726
264727
264728
264729
264730
264731
264732
264733
264734
264735
264736
264737
264738
264739
264740
264741
264742
264743
264744
264745
264746
264747
264748
264749
264750
264751
264752
264753
264754
264755
264756
264757
264758
264759
264760
264761
264762
264763
264765
264766
264767
264768
264769
264770
264771
264772
264773
264774
264775
264776
264777
264778
264779
264780
264781
264783
264784
264786
264787
264788
264789
264791
307411
307622
263659
264795
264798
264799
264800
264801
264802
264804
264806
264807
264808
264809
264810
264811
264812
264813
264814
264815
264816
264817
264818
264819
264820
264821
264822
264823
264824
264825
264826
264827
264828
264829
264830
264831
264832
264833
264834
264835
264836
264837
264838
264839
264840
264841
264842
264843
264844
264845
264846
264847
264848
264849
264850
264851
264852
264853
264854
264855
264856
264857
264858
264859
264860
264862
264864
264867
264869
264871
264872
307211
307416
308033
308127
262950
308748
264880
264882
264883
264884
264885
264886
264887
264889
264890
264892
264893
264894
264896
264897
264898
264899
264900
264901
264902
264903
264904
264905
264906
264907
264908
264909
264910
264911
264912
264913
264914
264915
264916
264917
264918
264919
264920
264921
264922
264923
264924
264925
264926
264927
264928
264929
264930
264931
264932
264933
264934
264935
264936
264937
264938
264939
264940
264941
264942
264943
264944
264945
264947
264949
264950
264951
264952
264957
264958
264961
264962
264963
264964
264965
307933
308429
308435
264976
264980
264981
264982
264983
264984
264985
264986
264987
264988
264990
264992
264993
264994
264996
264997
264998
264999
265000
265001
265002
265003
265004
265005
265006
265007
265008
265009
265010
265011
265012
265013
265014
265015
265016
265017
265018
265019
265020
265021
265022
265023
265024
265025
265026
265027
265028
265029
265030
265031
265032
265033
265034
265035
265036
265037
265038
265039
265040
265041
265042
265043
265044
265045
265047
265049
265050
265051
265052
265055
265057
265058
306985
265067
265068
265069
265071
265073
265074
265075
265076
265077
265078
265079
265080
265081
265082
265083
265084
265085
265086
265087
265088
265089
265090
265091
265092
265093
265094
265095
265096
265097
265098
265099
265100
265101
265102
265103
265104
265105
265106
265107
265108
265109
265110
265111
265112
265113
265114
265115
265116
265117
265118
265119
265120
265121
265122
265123
265124
265125
265126
265127
265128
265129
265130
265131
265132
265133
265134
265136
265137
265139
265142
265143
265144
308330
308634
265151
265152
265153
265154
265156
265157
265159
265160
265162
265163
265164
265165
265166
265167
265168
265169
265170
265171
265172
265173
265174
265175
265176
265177
265178
265179
265180
265181
265182
265183
265184
265185
265186
265187
265188
265189
265190
265191
265192
265193
265194
265195
265196
265197
265198
265199
265200
265201
265202
265203
265204
265205
265206
265207
265208
265209
265210
265211
265212
265213
265214
265215
265217
265218
265219
265220
265221
265222
265223
265227
265229
265232
265233
306693
308947
308950
265237
265240
265241
265242
265243
265244
265245
265246
265247
265248
265249
265250
265251
265252
265253
265254
265255
265256
265257
265258
265259
265260
265261
265262
265263
265264
265265
265266
265267
265268
265269
265270
265271
265272
265273
265274
265275
265276
265277
265278
265279
265280
265281
265282
265283
265284
265285
265286
265287
265288
265289
265290
265291
265292
265293
265294
265295
265296
265297
265298
265299
265300
265301
265302
265303
265306
265307
265308
265309
265310
265311
265312
265313
308036
308226
265319
265320
265323
265324
265325
265326
265327
265329
265330
265331
265332
265333
265334
265335
265336
265337
265338
265339
265340
265341
265342
265343
265344
265345
265346
265347
265348
265349
265350
265351
265352
265353
265354
265355
265356
265357
265358
265359
265360
265361
265362
265363
265364
265365
265366
265367
265368
265369
265370
265371
265372
265373
265374
265375
265376
265377
265378
265379
265380
265381
265383
265384
265385
265386
265387
265388
265390
265391
265392
265395
265396
265398
265401
307112
308336
265408
265411
265414
265415
265416
265417
265418
265419
265420
265421
265422
265423
265424
265426
265427
265428
265429
265430
265431
265432
265433
265434
265435
265436
265437
265438
265439
265440
265441
265442
265443
265444
265445
265446
265447
265448
265449
265450
265451
265452
265453
265454
265455
265456
265457
265458
265459
265460
265461
265462
265463
265464
265465
265466
265467
265468
265469
265470
265471
265472
265473
265474
265475
265476
265478
265479
265480
265481
265482
265483
265484
265486
307298
307726
262943
265490
265491
265492
265493
265494
265495
265496
265497
265499
265500
265501
265502
265503
265504
265505
265506
265507
265508
265509
265510
265511
265512
265513
265514
265515
265516
265517
265518
265519
265520
265521
265522
265523
265524
265525
265526
265527
265528
265529
265530
265531
265532
265533
265534
265535
265536
265537
265538
265539
265540
265541
265542
265543
265544
265545
265546
265547
265548
265549
265550
265551
265552
265553
265554
265555
265556
265557
265558
265559
265560
265562
265564
265565
265566
265567
265568
265570
265572
265574
306797
308131
308132
309052
265579
265581
265582
265583
265584
265585
265586
265588
265589
265590
265591
265592
265593
265594
265595
265596
265597
265598
265599
265600
265601
265602
265603
265604
265605
265606
265607
265608
265609
265610
265611
265612
265613
265614
265615
265616
265617
265618
265619
265620
265621
265622
265623
265624
265625
265626
265627
265628
265629
265630
265631
265632
265633
265634
265635
265636
265637
265638
265639
265640
265641
265642
265643
265644
265645
265646
265648
265650
265651
265652
265653
265654
265655
265656
265657
265659
265660
306389
306701
306992
309566
309570
309771
265667
265668
265669
265670
265671
265673
265674
265675
265677
265678
265679
265680
265681
265682
265683
265684
265685
265686
265687
265688
265689
265690
265691
265692
265693
265694
265695
265696
265697
265698
265699
265700
265701
265702
265703
265704
265705
265706
265707
265708
265709
265710
265711
265712
265713
265714
265715
265716
265717
265718
265719
265720
265721
265722
265723
265724
265725
265726
265727
265728
265729
265730
265731
265732
265733
265734
265735
265736
265737
265738
265739
265740
265741
265748
265749
265750
265751
265753
306991
307204
307624
307924
309266
309767
265761
265764
265765
265766
265767
265768
265770
265772
265773
265774
265775
265776
265777
265778
265779
265780
265781
265782
265783
265784
265785
265786
265787
265788
265789
265790
265791
265792
265793
265794
265795
265796
265797
265798
265799
265800
265801
265802
265803
265804
265805
265806
265807
265808
265809
265810
265811
265812
265813
265814
265815
265816
265817
265818
265819
265820
265821
265822
265823
265824
265825
265827
265828
265829
265830
265831
265832
265833
265834
265835
265836
265839
265840
265841
262947
307934
308540
309361
265846
265848
265849
265851
265852
265853
265854
265855
265856
265857
265858
265859
265860
265861
265862
265863
265864
265865
265866
265867
265868
265869
265870
265871
265872
265873
265874
265875
265876
265877
265878
265879
265880
265881
265882
265883
265884
265885
265886
265887
265888
265889
265890
265891
265892
265893
265894
265895
265896
265897
265898
265899
265900
265901
265902
265903
265904
265905
265906
265907
265908
265909
265910
265911
265914
265915
305652
305884
264521
265918
265921
265922
265923
265924
265925
265926
265927
265928
265929
265931
265932
265933
265934
265935
265937
265938
265939
265940
265941
265942
265943
265944
265945
265946
265947
265948
265949
265950
265951
265952
265953
265954
265955
265956
265957
265958
265959
265960
265961
265962
265963
265964
265965
265966
265967
265968
265969
265970
265971
265972
265973
265974
265975
265976
265977
265978
265979
265980
265981
265982
265983
265984
265985
265986
265987
265988
265989
265990
265991
265994
265995
265996
265997
265999
266000
266002
266004
307604
307821
307926
309053
309260
310269
266013
266014
266015
266016
266017
266018
266020
266021
266022
266023
266024
266025
266026
266027
266028
266029
266030
266031
266032
266033
266034
266035
266036
266037
266038
266039
266040
266041
266042
266043
266044
266045
266046
266047
266048
266049
266050
266051
266052
266053
266054
266055
266056
266057
266058
266059
266060
266061
266062
266063
266064
266065
266066
266067
266068
266069
266070
266071
266072
266073
266074
266075
266076
266077
266078
266079
266082
266083
266085
266086
266088
266089
266092
266093
266094
266095
266096
266097
266098
266099
266100
307203
307817
263581
266109
266110
266111
266112
266113
266114
266115
266116
266118
266119
266120
266121
266122
266123
266124
266125
266126
266127
266128
266129
266130
266131
266132
266133
266134
266135
266136
266137
266138
266139
266140
266141
266142
266143
266144
266145
266146
266147
266148
266149
266150
266151
266152
266153
266154
266155
266156
266157
266158
266159
266160
266161
266162
266163
266164
266165
266166
266167
266168
266169
266170
266171
266172
266173
266174
266175
266176
266177
266178
266179
266180
266182
266188
266189
266191
266192
266193
266194
266195
266196
307930
308625
263836
309969
309366
310174
266204
266205
266206
266207
266208
266212
266213
266214
266215
266216
266217
266218
266219
266220
266221
266222
266223
266224
266225
266226
266227
266228
266229
266230
266231
266232
266233
266234
266235
266236
266237
266238
266239
266240
266241
266242
266243
266244
266245
266246
266247
266248
266249
266250
266251
266252
266253
266254
266255
266256
266257
266258
266259
266260
266261
266262
266263
266264
266265
266266
266267
266268
266269
266271
266273
266274
266276
266278
266279
266282
266283
266284
306077
306578
306899
308427
309762
266285
266286
266287
266289
266290
266291
266292
266293
266294
266295
266296
266297
266298
266299
266300
266301
266302
266303
266304
266305
266306
266307
266308
266309
266310
266311
266312
266313
266314
266315
266316
266317
266318
266319
266320
266321
266322
266323
266324
266325
266326
266327
266328
266329
266330
266331
266332
266333
266334
266335
266336
266337
266338
266339
266340
266341
266342
266343
266344
266345
266346
266347
266348
266349
266350
266351
266352
266353
266354
266355
266356
266359
266360
266361
266362
266363
266364
266365
266366
266367
266368
306282
262166
306996
307716
308121
308327
308746
308846
266378
266381
266383
266384
266386
266387
266388
266389
266390
266391
266392
266393
266394
266395
266396
266397
266398
266399
266400
266401
266402
266403
266404
266405
266406
266407
266408
266409
266410
266411
266412
266413
266414
266415
266416
266417
266418
266419
266420
266421
266422
266423
266424
266425
266426
266427
266428
266429
266430
266431
266432
266433
266434
266435
266436
266437
266438
266439
266441
266442
266443
266445
266446
266447
266448
266449
266450
266453
266454
266456
266459
266460
308229
266465
266466
266468
266469
266470
266471
266472
266473
266474
266475
266476
266477
266479
266480
266481
266482
266483
266484
266485
266486
266487
266488
266489
266490
266491
266492
266493
266494
266495
266496
266497
266498
266499
266500
266501
266502
266503
266504
266505
266506
266507
266508
266509
266510
266511
266512
266513
266514
266515
266516
266517
266518
266519
266520
266521
266522
266523
266524
266525
266526
266527
266528
266529
266530
266531
266532
266533
266534
266536
266537
266539
266540
266541
266542
266544
266546
266547
266548
266549
266550
266551
266552
266554
266555
266556
310592
266564
266565
266566
266567
266568
266569
266570
266571
266572
266573
266574
266575
266576
266577
266578
266579
266580
266581
266582
266583
266584
266585
266586
266587
266588
266589
266590
266591
266592
266593
266594
266595
266596
266597
266598
266599
266600
266601
266602
266603
266604
266605
266606
266607
266608
266609
266610
266611
266612
266613
266614
266615
266616
266617
266618
266619
266620
266621
266622
266623
266624
266625
266626
266628
266629
266630
266631
266632
266633
266634
266637
266638
266639
266640
308532
309460
309965
310381
266642
266643
266644
266645
266646
266648
266649
266650
266652
266653
266654
266655
266656
266657
266658
266659
266660
266661
266662
266663
266664
266665
266666
266667
266668
266669
266670
266671
266672
266673
266674
266675
266676
266677
266678
266679
266680
266681
266682
266683
266684
266685
266686
266687
266688
266689
266690
266691
266692
266693
266694
266695
266696
266697
266698
266699
266700
266701
266702
266703
266704
266705
266706
266707
266709
266710
266713
266714
266715
266717
266718
266719
266720
266721
266722
266723
266724
307818
309562
309964
265665
266728
266729
266732
266733
266734
266735
266736
266737
266738
266739
266740
266741
266742
266743
266744
266745
266746
266747
266748
266749
266750
266751
266752
266753
266754
266755
266756
266757
266758
266759
266760
266761
266762
266763
266764
266765
266766
266767
266768
266769
266770
266771
266772
266773
266774
266775
266776
266777
266778
266779
266780
266781
266782
266783
266784
266785
266786
266787
266788
266789
266790
266791
266792
266793
266794
266795
266796
266797
266799
266800
266802
266803
266804
266806
266807
266808
266809
266810
266811
305567
308329
309046
309161
309352
309565
309968
310270
310793
266814
266815
266817
266818
266819
266820
266821
266822
266823
266824
266825
266826
266827
266828
266829
266830
266831
266832
266833
266834
266835
266836
266837
266838
266839
266840
266841
266842
266843
266844
266845
266846
266847
266848
266849
266850
266851
266852
266853
266854
266855
266856
266857
266858
266859
266860
266861
266862
266863
266864
266865
266866
266867
266868
266869
266870
266871
266872
266873
266874
266875
266876
266877
266878
266879
266880
266881
266882
266883
266884
266886
266888
266889
266890
266891
266892
266893
266896
266897
266898
266900
306290
306904
307303
264005
308948
264977
310794
266907
266908
266909
266910
266913
266914
266915
266916
266917
266918
266919
266920
266921
266922
266923
266924
266925
266926
266927
266928
266929
266930
266931
266932
266933
266934
266935
266936
266937
266938
266939
266940
266941
266942
266943
266944
266945
266946
266947
266948
266949
266950
266951
266952
266953
266954
266955
266956
266957
266958
266959
266960
266961
266962
266963
266964
266965
266966
266967
266969
266970
266971
266972
266973
266974
266975
266978
266979
266980
308834
309660
310065
310173
264354
310896
266985
266986
266987
266988
266989
266990
266991
266992
266993
266994
266995
266996
266997
266998
266999
267000
267001
267002
267003
267004
267005
267006
267007
267008
267009
267010
267011
267012
267013
267014
267015
267016
267017
267018
267019
267020
267021
267022
267023
267024
267025
267026
267027
267028
267029
267030
267031
267032
267033
267034
267035
267036
267037
267038
267039
267040
267041
267042
267043
267044
267045
267046
267047
267048
267049
267050
267052
267053
267054
267055
267056
267057
267058
267059
267060
267061
308029
308941
310264
310691
311301
267062
267063
267064
267066
267067
267068
267069
267070
267071
267072
267073
267074
267075
267076
267077
267078
267079
267080
267081
267082
267083
267084
267085
267086
267087
267088
267089
267090
267091
267092
267093
267094
267095
267096
267097
267098
267099
267100
267101
267102
267103
267104
267105
267106
267107
267108
267109
267110
267111
267112
267113
267114
267115
267116
267117
267118
267119
267120
267121
267122
267123
267124
267125
267126
267127
267128
267129
267130
267131
267132
267133
267134
267135
267136
267137
267138
267139
267140
267142
267143
267144
267146
267147
267149
267150
267152
267153
267154
267155
267156
267157
311200
267163
267164
267165
267166
267167
267168
267169
267170
267171
267172
267173
267174
267175
267176
267177
267178
267179
267180
267181
267182
267183
267184
267185
267186
267187
267188
267189
267190
267191
267192
267193
267194
267195
267196
267197
267198
267199
267200
267201
267202
267203
267204
267205
267206
267207
267208
267209
267210
267211
267212
267213
267214
267215
267216
267217
267218
267219
267220
267221
267222
267223
267224
267225
267226
267227
267228
267229
267230
267231
267232
267233
267234
267235
267236
267237
267239
267240
267241
267243
267244
267245
267246
306086
309154
309665
309959
267249
267250
267252
267253
267254
267255
267256
267257
267258
267259
267260
267261
267262
267263
267264
267265
267266
267267
267268
267269
267270
267271
267272
267273
267274
267275
267276
267277
267278
267279
267280
267281
267282
267283
267284
267285
267286
267287
267288
267289
267290
267291
267292
267293
267294
267295
267296
267297
267298
267299
267300
267301
267302
267303
267304
267305
267306
267307
267308
267309
267310
267311
267312
267313
267314
267315
267316
267317
267318
267319
267320
267321
267322
267323
267324
267325
267327
267328
267329
267330
267331
267332
267333
306293
308626
308830
309147
309157
309267
309564
309757
262690
310790
307621
266203
311709
267336
267337
267338
267339
267340
267341
267342
267343
267344
267345
267346
267347
267348
267349
267350
267351
267352
267353
267354
267355
267356
267357
267358
267359
267360
267361
267362
267363
267364
267365
267366
267367
267368
267369
267370
267371
267372
267373
267374
267375
267376
267377
267378
267379
267380
267381
267382
267383
267384
267385
267386
267387
267388
267389
267390
267391
267392
267393
267394
267395
267396
267397
267398
267399
267400
267401
267402
267403
267404
267405
267406
267408
267410
267411
267412
267413
267414
267416
307709
261987
308742
308933
309259
309364
309765
311299
263487
267419
267420
267421
267423
267424
267425
267426
267427
267428
267429
267430
267431
267432
267433
267434
267435
267436
267437
267438
267439
267440
267441
267442
267443
267444
267445
267446
267447
267448
267449
267450
267451
267452
267453
267454
267455
267456
267457
267458
267459
267460
267461
267462
267463
267464
267465
267466
267467
267468
267469
267470
267471