/*--------------------------------*- C++ -*----------------------------------*\
| =========                 |                                                 |
| \\      /  F ield         | OpenFOAM: The Open Source CFD Toolbox           |
|  \\    /   O peration     | Version:  2406                                  |
|   \\  /    A nd           | Website:  www.openfoam.com                      |
|    \\/     M anipulation  |                                                 |
\*---------------------------------------------------------------------------*/
FoamFile
{
    version     2.0;
    format      ascii;
    arch        "LSB;label=32;scalar=64";
    class       Cloud<dsmcParcel>;
    location    "0.006/lagrangian/dsmc";
    object      positions;
}
// * * * * * * * * * * * * * * * * * * * * * * * * * * * * * * * * * * * * * //

5151
(
(0.06997911657 0.1837777109 4.33680869e-19) 385
(0.05835156481 0.2716624321 0) 513
(0.06513288332 0.2280150679 2.710505431e-20) 444
(0.06230879721 0.2041054384 0) 414
(0.07578202441 0.1765170479 -2.168404345e-19) 375
(0.072412733 0.1847912611 8.978549241e-20) 385
(0.05669492469 0.2068397387 2.168404345e-19) 413
(0.07356786345 0.2591658465 0) 495
(0.04497759237 0.2085836952 5.421010862e-19) 421
(0.05670720506 0.2282048888 0) 443
(0.05781896834 0.1982356173 1.084202172e-19) 403
(0.07190086804 0.1865355156 2.168404345e-19) 385
(0.06434041281 0.1826713841 -1.084202172e-19) 384
(0.05749213489 0.2165675267 -2.168404345e-19) 433
(0.05543824212 0.2116529711 -2.168404345e-19) 423
(0.06956597566 0.1872874331 1.626303259e-19) 385
(0.0723044373 0.1816495188 5.421010862e-19) 385
(0.05606936945 0.2094471534 1.084202172e-19) 423
(0.07478045731 0.2354973625 2.168404345e-19) 455
(0.04586842679 0.2361591321 1.084202172e-19) 462
(0.07493456619 0.2390909904 -2.168404345e-19) 465
(0.07350391785 0.2033264615 2.168404345e-19) 415
(0.07225454163 0.2841271114 3.252606517e-19) 525
(0.05769999969 0.2533427806 2.168404345e-19) 483
(0.07511961128 0.2796267287 -6.505213035e-19) 525
(0.04572833862 0.2877494996 0) 532
(0.05683390432 0.2385385646 -2.710505431e-20) 463
(0.06321324092 0.2487066068 -3.523657061e-19) 474
(0.03613892769 0.1833035394 2.168404345e-19) 380
(0.05657288325 0.2082868116 1.626303259e-19) 423
(0.05828335463 0.1919079632 -4.33680869e-19) 393
(0.07075009759 0.1865796992 3.252606517e-19) 385
(0.06297158169 0.2257568317 1.084202172e-19) 444
(0.07300638629 0.1848324917 -5.421010862e-20) 385
(0.06701818198 0.2269488501 -2.168404345e-19) 444
(0.04862596618 0.2021873732 -4.33680869e-19) 412
(0.07283806286 0.1774526649 1.626303259e-19) 375
(0.06445846868 0.2368338938 -5.421010862e-19) 464
(0.06696943379 0.2689461945 0) 504
(0.07514446307 0.2137206288 2.168404345e-19) 425
(0.06649195201 0.2950449761 -1.084202172e-19) 544
(0.06219083041 0.264433938 -1.084202172e-19) 494
(0.05747185822 0.2979045084 8.131516294e-20) 543
(0.05059501638 0.2861688893 0) 532
(0.07231437051 0.1908897901 0) 395
(0.07506690301 0.251227122 -4.33680869e-19) 485
(0.07098007233 0.285579291 2.168404345e-19) 525
(0.0691941817 0.2950661854 0) 545
(0.06435712915 0.2355675387 4.33680869e-19) 454
(0.07601895511 0.2615324601 -4.743384505e-20) 495
(0.07147174547 0.2661802079 0) 505
(0.0669877258 0.2842112806 0) 524
(0.05207570991 0.1760200257 0) 372
(0.04995606148 0.204204532 -1.084202172e-19) 412
(0.07167120231 0.2468300043 -1.355252716e-19) 475
(0.05048090324 0.208007858 -2.168404345e-19) 422
(0.06801290398 0.1982708479 2.168404345e-19) 404
(0.04568957437 0.1979477753 4.33680869e-19) 401
(0.07109093138 0.2801441847 -2.168404345e-19) 525
(0.07598264107 0.2442204554 0) 475
(0.0714762877 0.2525207691 -3.252606517e-19) 485
(0.06474052663 0.2795880786 1.592421941e-19) 524
(0.0758083407 0.2348990899 -2.168404345e-19) 455
(0.06906894864 0.2794230975 4.743384505e-20) 525
(0.06575600728 0.1772246843 -2.168404345e-19) 374
(0.0366247502 0.1697312827 2.168404345e-19) 370
(0.07283778756 0.1899765682 -1.084202172e-19) 395
(0.07542334792 0.1983532708 8.131516294e-20) 405
(0.05996896671 0.2387453428 -1.084202172e-19) 463
(0.05719539002 0.1892876238 0) 393
(0.03648423501 0.221138068 0) 440
(0.07012086009 0.2632362227 0) 495
(0.06986689294 0.2438910453 -2.168404345e-19) 475
(0.05290557326 0.2693248361 0) 502
(0.06498906824 0.2256167147 1.355252716e-20) 444
(0.06916138177 0.2732750941 -3.252606517e-19) 515
(0.06271854314 0.2231013618 2.168404345e-19) 444
(0.06566794471 0.2338379233 0) 454
(0.07421634269 0.2570104818 -4.33680869e-19) 485
(0.04743481266 0.2109534857 -1.626303259e-19) 422
(0.06118051056 0.2115482011 6.776263578e-20) 424
(0.06638492698 0.2153415628 0) 434
(0.07417665352 0.2259858753 5.421010862e-20) 445
(0.01218418417 0.175057471 2.168404345e-19) 377
(0.06230093235 0.2340933759 -1.084202172e-19) 454
(0.06205082137 0.2256237812 1.651714247e-19) 444
(0.06770033711 0.2737554066 -1.084202172e-19) 514
(0.06685174026 0.2836566188 0) 524
(0.023445403 0.2708509053 -4.33680869e-19) 509
(0.06493472044 0.2927332677 0) 534
(0.06435506553 0.1726841272 2.168404345e-19) 364
(0.06588942914 0.1663317075 6.505213035e-19) 364
(0.05693260899 0.1671530101 -1.76182853e-19) 363
(0.05116980856 0.2451938057 1.084202172e-19) 472
(0.05374758693 0.2082773072 -1.626303259e-19) 423
(0.06840422337 0.2185700115 1.626303259e-19) 434
(0.07128388106 0.2548632616 0) 485
(0.05451748756 0.2607972457 3.320369153e-19) 493
(0.07553290064 0.2473428427 -6.776263578e-20) 475
(0.05025023903 0.2700478792 5.421010862e-20) 502
(0.05146415072 0.2411727176 -2.168404345e-19) 462
(0.0663282057 0.1659847015 0) 364
(0.04615426587 0.2010918952 4.33680869e-19) 412
(0.009823472821 0.1851418101 2.168404345e-19) 387
(0.04765706597 0.2204825095 1.084202172e-19) 432
(0.07046181816 0.2379521904 0) 465
(0.05491292833 0.1927826376 -3.252606517e-19) 393
(0.06761227573 0.2456521412 4.33680869e-19) 474
(0.0546516251 0.1785208874 -8.67361738e-19) 373
(0.05935290292 0.2123538543 0) 423
(0.06768460696 0.2095024767 4.33680869e-19) 424
(0.07053384129 0.2469753571 -2.168404345e-19) 475
(0.06497636467 0.2047449496 -1.355252716e-20) 414
(0.06201418974 0.278615332 2.168404345e-19) 514
(0.06981306357 0.2581888105 0) 495
(0.06588047854 0.2271007548 4.33680869e-19) 444
(0.0677420087 0.2627654082 0) 494
(0.07258025959 0.2154188266 -1.626303259e-19) 425
(0.04116656805 0.2627816319 -2.168404345e-19) 491
(0.04604484091 0.250053101 8.809142651e-20) 482
(0.06913358036 0.275050884 2.168404345e-19) 515
(0.06143942304 0.2380562535 0) 464
(0.06266575641 0.2287493449 0) 444
(-0.002076565477 0.2609589234 1.084202172e-19) 259
(0.06375288883 0.2670990983 4.33680869e-19) 504
(0.07463671553 0.2685016636 0) 505
(0.06951821316 0.2600946087 0) 495
(0.05726336097 0.2647223936 -6.505213035e-19) 503
(0.06948355844 0.1946204082 -4.33680869e-19) 405
(0.05479055395 0.1941107193 0) 403
(0.05265978914 0.175584213 0) 372
(0.05170336467 0.193243659 -2.168404345e-19) 402
(0.05396113058 0.1698616581 0) 363
(0.008055774263 0.2360616878 -2.168404345e-19) 457
(0.05485546317 0.2483062121 -2.168404345e-19) 473
(0.05823714611 0.2196914519 3.252606517e-19) 433
(0.04879536498 0.2017744184 -1.626303259e-19) 412
(0.07129621534 0.1686791924 1.084202172e-19) 365
(0.06940160549 0.2327492038 2.168404345e-19) 455
(0.0660204977 0.2111252962 -5.421010862e-20) 424
(0.04770944333 0.2249662581 -3.252606517e-19) 442
(0.03755226332 0.2667238708 2.168404345e-19) 500
(0.03074452613 0.2479737516 0) 470
(0.04709980439 0.2785657685 0) 522
(0.06565197393 0.2089364523 -2.168404345e-19) 424
(0.06206463123 0.2342988799 -1.084202172e-19) 454
(0.05416513845 0.2547463723 1.084202172e-19) 483
(0.07539143665 0.2686704173 -4.33680869e-19) 505
(0.06386910488 0.2808545987 1.084202172e-19) 524
(0.05425696219 0.2535783051 2.168404345e-19) 483
(0.02605139968 0.268993445 0) 499
(0.07557796032 0.1837266626 0) 385
(0.06770157478 0.2065753358 -2.168404345e-19) 414
(0.05584142362 0.2479811562 -2.710505431e-19) 473
(0.03330215032 0.2113565471 -3.252606517e-19) 420
(0.06922771506 0.1860184701 -2.168404345e-19) 385
(0.07237383152 0.2395000097 -6.522153694e-20) 465
(0.06080698923 0.2595337418 3.252606517e-19) 493
(0.04119202562 0.2167984292 -2.710505431e-19) 431
(0.04794730492 0.231916628 9.486769009e-20) 452
(0.07240808716 0.2704621821 -3.083199928e-19) 505
(0.06921936668 0.2828957084 1.084202172e-19) 525
(0.05826960508 0.2585172259 -2.168404345e-19) 493
(0.04680534076 0.2909819566 2.168404345e-19) 532
(0.06873330995 0.2702484691 4.33680869e-19) 505
(0.05344443677 0.240975597 -2.168404345e-19) 463
(0.03655498641 0.258691864 1.084202172e-19) 490
(0.06302902058 0.2446193782 1.084202172e-19) 474
(0.05456274014 0.2523856288 1.084202172e-19) 483
(0.05389831532 0.2991164416 0) 543
(0.06318779143 0.2733079887 -2.168404345e-19) 514
(0.03939677411 0.273517247 1.084202172e-19) 511
(0.05934104794 0.2785942568 2.168404345e-19) 513
(0.06985846032 0.1909651251 0) 395
(0.05260442255 0.18299081 4.33680869e-19) 382
(0.06694253753 0.1888549978 -2.168404345e-19) 394
(0.06676401286 0.2128292387 0) 424
(0.02512525166 0.1911921454 -1.084202172e-19) 399
(0.05812689087 0.2008775525 0) 413
(0.06216041644 0.2406687583 0) 464
(0.04808909023 0.2530522116 1.084202172e-19) 482
(0.03856299376 0.2283598895 -1.084202172e-19) 451
(0.06197294672 0.2441635975 4.33680869e-19) 474
(0.04850398196 0.2127808481 2.168404345e-19) 422
(0.03499116736 0.2075863568 2.168404345e-19) 420
(0.02352711224 0.2480676398 0) 469
(0.06214089115 0.2751228312 0) 514
(0.0591574146 0.2977858852 2.168404345e-19) 543
(0.05746556599 0.2920975163 -1.355252716e-19) 533
(0.07219766548 0.2505464753 0) 475
(0.06879027058 0.2690019012 3.794707604e-19) 505
(0.0280540365 0.2690793852 1.084202172e-19) 499
(0.07605119989 0.2496919187 0) 475
(0.0715349853 0.2839572435 -4.33680869e-19) 525
(0.06510282792 0.2722115065 0) 514
(0.03972175892 0.2637149079 -2.168404345e-19) 491
(0.06972837738 0.2990820392 5.149960319e-19) 545
(0.07104755171 0.2683501541 -1.084202172e-19) 505
(0.04504736622 0.1821130244 2.168404345e-19) 381
(0.02188666484 0.193261382 6.776263578e-20) 398
(0.06592495157 0.181073154 0) 384
(0.0340423107 0.2185313926 4.33680869e-19) 430
(0.05483867486 0.1943021637 0) 403
(0.06406968904 0.1797104275 0) 374
(0.04837844205 0.2026364844 2.168404345e-19) 412
(0.07421419561 0.2655293327 -4.33680869e-19) 505
(0.06394741904 0.1818689544 -1.626303259e-19) 384
(0.05624443351 0.1989568065 -2.168404345e-19) 403
(0.05633540261 0.1685318717 -2.439454888e-19) 363
(0.03377028573 0.2067635821 1.626303259e-19) 420
(0.07203209232 0.195073353 -5.421010862e-20) 405
(0.06398616403 0.2282513806 -2.168404345e-19) 444
(0.07367275622 0.2105979109 2.168404345e-19) 425
(0.06500230645 0.2791272233 0) 524
(0.05682081876 0.2303640388 1.897353802e-19) 453
(0.01769450686 0.1967655006 1.084202172e-19) 408
(0.02623953933 0.252344029 5.421010862e-20) 479
(0.07554815758 0.2204931058 0) 435
(0.07297832803 0.2312504853 0) 455
(0.04966487019 0.2223955882 0) 442
(0.06478834934 0.268206644 -1.694065895e-21) 504
(0.03754204765 0.2487829869 0) 470
(0.06877392323 0.2541784423 0) 485
(0.0572344666 0.2801163677 -2.168404345e-19) 523
(0.06788202316 0.236705043 0) 464
(0.0423335247 0.2414534601 8.131516294e-20) 461
(0.05485393467 0.2437807599 2.168404345e-19) 473
(0.06956170967 0.274140274 2.168404345e-19) 515
(0.0753142651 0.2383067291 4.33680869e-19) 465
(0.07229117606 0.2601241184 2.710505431e-20) 495
(0.03079307035 0.2033374822 0) 410
(0.05153021789 0.2703097529 0) 502
(0.04438332021 0.2871404926 2.168404345e-19) 531
(0.05157022267 0.2739564588 0) 512
(0.0526055366 0.2199888759 0) 432
(0.04483585476 0.2950191812 1.084202172e-19) 541
(0.04154091591 0.2484994365 6.505213035e-19) 471
(0.02096735455 0.2595456118 0) 488
(0.01226009027 0.1846733666 8.131516294e-20) 387
(0.03726091127 0.1710924061 2.168404345e-19) 370
(0.06100500334 0.1790077248 -2.168404345e-19) 374
(0.03950844638 0.2057370166 2.168404345e-19) 411
(0.02658347137 0.1869962658 1.084202172e-19) 389
(0.06184825185 0.190880311 0) 394
(0.05482688838 0.2041950259 5.421010862e-20) 413
(0.0606241635 0.1891795613 -2.168404345e-19) 393
(0.03791983169 0.1934812924 3.252606517e-19) 400
(0.0709506343 0.1953301059 -1.084202172e-19) 405
(0.05368584809 0.2026461086 0) 413
(0.07020542145 0.2205710439 0) 435
(0.05750122256 0.2575847693 2.168404345e-19) 493
(0.02781354833 0.2060750284 2.168404345e-19) 419
(0.05912651303 0.239005446 5.421010862e-20) 463
(0.02282217432 0.2824551629 -4.33680869e-19) 518
(0.07215205512 0.2558467776 5.421010862e-19) 485
(0.07091096861 0.2499400669 0) 475
(0.03527287222 0.2170015465 1.084202172e-19) 430
(0.01450466999 0.256285217 -2.168404345e-19) 487
(0.05656564867 0.2513639058 -5.421010862e-20) 483
(0.05401199591 0.2430444724 0) 473
(0.06222734598 0.269570852 -1.084202172e-19) 504
(0.06165899405 0.2226481334 0) 444
(0.06640124654 0.2261535328 6.505213035e-19) 444
(0.06440308126 0.2808639428 -1.084202172e-19) 524
(0.06805683423 0.2699315064 4.33680869e-19) 504
(0.06360165156 0.2497633657 -2.168404345e-19) 474
(0.0484351194 0.2663954324 0) 502
(0.0455689992 0.2818934887 4.33680869e-19) 521
(0.06598572534 0.1837200076 -4.33680869e-19) 384
(0.06809578175 0.1674542344 2.168404345e-19) 364
(0.01555674154 0.1731448764 -4.33680869e-19) 368
(0.04542248534 0.177703879 0) 381
(0.0115006174 0.1911812691 1.084202172e-19) 397
(0.0691769944 0.2164640391 3.252606517e-19) 435
(0.04746836507 0.1832877525 -2.168404345e-19) 382
(0.04740106361 0.1736713999 1.084202172e-19) 372
(0.06233567066 0.1992990697 -2.168404345e-19) 404
(0.06777807037 0.2381965994 -6.505213035e-19) 464
(0.05890532692 0.2357454607 -1.084202172e-19) 453
(0.0445032339 0.2323154318 -4.33680869e-19) 451
(0.06401465956 0.2478762024 1.626303259e-19) 474
(0.06680691836 0.2151627565 -2.168404345e-19) 424
(0.04442512893 0.226262396 -4.33680869e-19) 441
(0.04025817421 0.2199289478 -2.168404345e-19) 431
(0.05717913277 0.2196077043 -4.743384505e-20) 433
(0.0200457596 0.2320017023 3.252606517e-19) 448
(0.0588888842 0.2421196513 0) 463
(0.01359832734 0.2402524222 -2.168404345e-19) 457
(0.06256446323 0.2102591775 -1.084202172e-19) 424
(0.03098044154 0.2414563787 -5.421010862e-19) 460
(0.04139701315 0.232351013 2.168404345e-19) 451
(0.04931953968 0.2320190133 -2.439454888e-19) 452
(0.07005121455 0.2452878778 -2.57498016e-19) 475
(0.06785247497 0.1859342533 -6.505213035e-19) 384
(0.05036831744 0.1971935742 -5.421010862e-20) 402
(0.0177968086 0.2326665601 2.168404345e-19) 448
(0.07224040028 0.2227823682 4.33680869e-19) 435
(0.04054162523 0.2659592516 0) 501
(0.01811083469 0.2112898604 -2.168404345e-19) 418
(0.0397824845 0.2806463918 1.084202172e-19) 521
(0.0323671407 0.2633993349 1.084202172e-19) 490
(0.05535802852 0.2479898336 1.084202172e-19) 473
(0.06147640118 0.2265162747 0) 444
(0.04299883922 0.2809478613 0) 521
(0.04528529197 0.2758306434 0) 511
(0.03557138707 0.261749703 3.252606517e-19) 490
(0.06670323503 0.2970693537 -2.168404345e-19) 544
(0.02719876528 0.2728997263 1.084202172e-19) 509
(0.05399449509 0.2654275135 0) 503
(0.07314960356 0.2884729985 -2.168404345e-19) 535
(0.06589212927 0.2713291004 -5.421010862e-19) 504
(0.04874840401 0.2688461299 2.710505431e-20) 502
(0.06040430054 0.2828024744 -2.168404345e-19) 523
(0.05877308318 0.2677679754 -1.084202172e-19) 503
(0.05010184138 0.2803676733 -2.168404345e-19) 522
(0.0579269965 0.165014511 -4.33680869e-19) 363
(0.05917488311 0.1776924773 0) 373
(0.06654884478 0.2073802003 0) 414
(0.05956004945 0.1775772842 -2.168404345e-19) 373
(0.05157525809 0.1669990977 -3.794707604e-19) 362
(0.04195366877 0.177374334 4.33680869e-19) 381
(0.06499465537 0.228068722 1.897353802e-19) 444
(0.06608641876 0.2102597054 -1.084202172e-19) 424
(0.07160311743 0.2091964797 2.168404345e-19) 425
(0.0655618696 0.2279077692 -1.084202172e-19) 444
(0.02692642624 0.203255716 1.626303259e-19) 409
(0.04792890658 0.2374913476 1.490777987e-19) 462
(0.06837126186 0.2137323589 0) 424
(0.07000123374 0.2325579996 1.084202172e-19) 455
(0.07190881911 0.2028673381 -5.421010862e-20) 415
(0.0571538832 0.2124223239 -1.109613161e-19) 423
(0.04111727666 0.2064479058 -1.084202172e-19) 421
(0.04483834114 0.2324540894 -2.168404345e-19) 451
(0.0753655585 0.2002436415 2.168404345e-19) 405
(0.07139923311 0.2968320167 -8.131516294e-20) 545
(0.02430649835 0.2253422527 4.133520783e-19) 439
(0.03374623618 0.2457817587 -2.710505431e-20) 470
(0.06878638057 0.2729106188 4.33680869e-19) 515
(0.02550270804 0.2129227266 1.084202172e-19) 429
(0.04502807524 0.2013097322 -1.084202172e-19) 411
(0.06768891213 0.215585237 0) 434
(0.06265992188 0.2694468697 -2.168404345e-19) 504
(0.04947497887 0.250792476 -2.032879073e-19) 482
(0.06987291306 0.2499631084 8.131516294e-20) 475
(0.05388101953 0.2669411923 2.168404345e-19) 503
(0.05273648179 0.2700514921 0) 502
(0.05785715733 0.255139809 -1.626303259e-19) 483
(0.03772687015 0.2610552398 2.168404345e-19) 490
(0.05109397152 0.2337574644 -2.168404345e-19) 452
(0.04697202962 0.2473071838 0) 472
(0.06052665355 0.2181397648 -2.710505431e-20) 433
(0.061858945 0.2736435505 -1.084202172e-19) 514
(0.05978124406 0.2592653803 2.168404345e-19) 493
(0.06612095933 0.2753251883 -2.168404345e-19) 514
(0.02561878898 0.289326306 -1.084202172e-19) 529
(0.05962026062 0.2464360052 2.710505431e-19) 473
(0.05773066563 0.2599903941 0) 493
(0.06883529154 0.2404016127 2.710505431e-19) 465
(0.05451790454 0.2898691765 1.626303259e-19) 533
(0.03050065738 0.2957844394 2.168404345e-19) 540
(0.05163251088 0.2496275377 0) 472
(0.02373514839 0.2727978717 -1.084202172e-19) 509
(0.01574374206 0.298149481 0) 538
(0.02937941214 0.2707947821 0) 509
(0.04219373825 0.2765277405 -2.981555974e-19) 511
(-0.01697282597 0.2664571675 0) 277
(0.04567464137 0.1729076464 3.252606517e-19) 371
(0.04102715171 0.1922276022 2.168404345e-19) 401
(0.04635340595 0.1842082662 0) 382
(0.05509338608 0.1983579021 0) 403
(0.06234126927 0.1737427181 2.168404345e-19) 374
(0.06978574864 0.1945689999 0) 405
(0.04195260128 0.189233901 6.437450399e-20) 391
(0.0431040783 0.2313101598 1.626303259e-19) 451
(0.05067272666 0.1777858902 0) 372
(0.04050323872 0.1777897615 1.084202172e-19) 381
(0.05909300727 0.1920680624 2.168404345e-19) 393
(0.01437057454 0.1723113079 0) 367
(0.06205817658 0.2049913375 -1.084202172e-19) 414
(0.06243990617 0.1902451062 -1.694065895e-21) 394
(0.05428660962 0.2181881322 2.710505431e-20) 433
(0.05003158133 0.2022750568 0) 412
(0.03346861867 0.2133307005 4.878909776e-19) 430
(0.03472931471 0.2333543935 2.439454888e-19) 450
(0.03982540081 0.1778502084 2.168404345e-19) 381
(0.06554593241 0.2434657234 -2.168404345e-19) 464
(0.03861108718 0.2306623194 2.168404345e-19) 451
(0.06607452315 0.2499732618 0) 474
(0.0560679884 0.2077879678 1.084202172e-19) 423
(0.05010782548 0.2526481896 -3.794707604e-19) 482
(0.03124424183 0.2409838426 5.759824041e-20) 460
(0.07535308851 0.2463355836 0) 475
(0.02957480441 0.2417824592 4.33680869e-19) 469
(0.03396746736 0.2444140317 1.355252716e-19) 470
(0.05572869988 0.2568106106 2.168404345e-19) 483
(0.05970500583 0.2524059948 1.084202172e-19) 483
(0.06126458833 0.2482709385 1.084202172e-19) 474
(0.04963049093 0.2019461728 -3.252606517e-19) 412
(0.06192737214 0.2584695211 3.388131789e-20) 494
(0.04261374285 0.2612892979 5.421010862e-20) 491
(0.05234136368 0.2723269358 -2.168404345e-19) 512
(0.04614923828 0.2667273822 0) 502
(0.0657320836 0.2548509723 0) 484
(0.04092697614 0.2415606332 2.168404345e-19) 461
(0.06359366928 0.2539473844 1.084202172e-19) 484
(0.03698195429 0.285283286 1.084202172e-18) 520
(0.02145095369 0.255564309 0) 478
(0.06719378712 0.2752391837 -2.168404345e-19) 514
(0.07233539439 0.2765590663 1.084202172e-19) 515
(0.06068279228 0.2816455101 -1.626303259e-19) 523
(0.0447911732 0.181475098 2.168404345e-19) 381
(0.03077259231 0.2116908715 0) 420
(0.03860985219 0.1714044313 0) 371
(0.05269453694 0.168615325 6.505213035e-19) 362
(0.02297557581 0.2252194266 4.33680869e-19) 439
(0.04539362759 0.2711722375 0) 501
(0.05308496992 0.1911290808 0) 392
(0.05919433331 0.18844139 0) 393
(0.05970441127 0.1683207165 2.710505431e-20) 363
(0.06508600559 0.219436026 -3.523657061e-19) 434
(0.07173785107 0.1824652185 -5.421010862e-19) 385
(0.03501999653 0.2437070427 0) 470
(0.02348618602 0.2097605899 3.252606517e-19) 419
(0.02307337774 0.1856286493 4.33680869e-19) 389
(0.01917608285 0.2253308452 3.523657061e-19) 438
(0.03966041213 0.2319404947 2.710505431e-19) 451
(0.07015632205 0.191847676 5.421010862e-19) 395
(0.04514640378 0.2110297158 6.505213035e-19) 421
(0.05995588031 0.1843354324 -2.168404345e-19) 383
(0.03014787514 0.1978343105 0) 409
(0.06641270774 0.2728665193 4.33680869e-19) 514
(0.0639834765 0.2129383015 -5.421010862e-20) 424
(0.04481624913 0.2533680896 4.33680869e-19) 481
(0.03886574763 0.2354426056 0) 461
(0.01035620338 0.259156692 -8.639736062e-20) 487
(0.0679613971 0.2653769664 -4.33680869e-19) 504
(0.05510685493 0.2054703617 2.168404345e-19) 413
(0.06642518875 0.2364337239 0) 454
(0.007252877118 0.2335789235 -2.168404345e-19) 456
(0.03250565629 0.2707808793 -2.168404345e-19) 500
(0.06132286427 0.2257621664 2.710505431e-19) 444
(0.0290075636 0.2664676292 1.084202172e-19) 499
(0.04962015225 0.25423152 -2.032879073e-20) 482
(0.07330821816 0.2554597335 1.084202172e-19) 485
(0.049615249 0.2518723869 0) 482
(0.05170093197 0.27917994 -2.168404345e-19) 522
(0.01695973545 0.2759469934 -2.168404345e-19) 508
(0.07045595131 0.2414598037 0) 465
(0.04736939192 0.2714529693 2.168404345e-19) 512
(0.05229508439 0.2708280135 -2.168404345e-19) 502
(0.03652993137 0.2822635238 0) 520
(0.03276803638 0.2802162089 3.252606517e-19) 520
(0.07611813483 0.2623164775 0) 495
(0.05271305519 0.2786288745 0) 522
(0.05583587547 0.2652805641 -2.168404345e-19) 503
(0.02093224672 0.2922088109 4.33680869e-19) 528
(0.06485088708 0.2807811707 -3.252606517e-19) 524
(0.0742223089 0.2908439071 2.168404345e-19) 535
(0.02749401263 0.2696769104 0) 499
(0.07071417181 0.2917207909 2.710505431e-19) 535
(0.07316818487 0.2539340604 -5.421010862e-20) 485
(0.05189763815 0.2786262024 -4.33680869e-19) 522
(-0.02115255156 0.1755239808 2.168404345e-19) 37
(0.05779240408 0.2082876612 0) 423
(0.04821488503 0.1761907487 -2.168404345e-19) 372
(0.06655136882 0.1992904847 2.168404345e-19) 404
(0.0672255197 0.2018988084 4.33680869e-19) 414
(0.05099770951 0.1968006143 -3.252606517e-19) 402
(0.04586147362 0.2086323974 0) 422
(0.01994811848 0.2226856679 0) 438
(0.03821182373 0.2008314628 -2.168404345e-19) 411
(0.0205448454 0.2159923417 1.084202172e-19) 428
(0.06927039137 0.2397212553 2.168404345e-19) 465
(0.06519152587 0.2106404067 -4.33680869e-19) 424
(0.07604153756 0.1969656378 0) 405
(0.05467138762 0.2132666121 -1.219727444e-19) 423
(0.07565552447 0.2276005434 2.168404345e-19) 445
(0.03378295495 0.2429228602 5.421010862e-20) 470
(0.07112287568 0.1932857562 3.252606517e-19) 395
(0.06358026686 0.2555410603 3.252606517e-19) 484
(0.05287102466 0.2498025826 2.168404345e-19) 472
(0.05640912574 0.2266185474 4.878909776e-19) 443
(0.01351410507 0.2313964487 2.168404345e-19) 447
(0.05085490445 0.2536522966 -1.084202172e-19) 482
(0.03858907202 0.2336319873 0) 451
(0.0696246573 0.2000496294 0) 405
(0.03747760364 0.2540762231 2.168404345e-19) 480
(0.04272193781 0.1992639124 -2.168404345e-19) 411
(0.06128628277 0.2425807154 0) 464
(0.0662454933 0.2518099486 2.168404345e-19) 484
(0.04262779834 0.2439957436 0) 471
(0.04807758169 0.2448082233 -3.676122991e-19) 472
(0.07350720318 0.2480764919 0) 475
(0.06106038424 0.1927153465 0) 394
(0.03503875311 0.2189227784 -5.421010862e-20) 430
(0.01594073863 0.2211734365 -2.168404345e-19) 438
(0.05402751942 0.2541354285 1.626303259e-19) 483
(0.04316857333 0.2100573873 1.084202172e-19) 421
(0.07250867636 0.232710354 5.421010862e-20) 455
(0.05800992186 0.2286651422 -4.33680869e-19) 443
(0.0750260361 0.2485700639 -2.168404345e-19) 475
(0.04784907199 0.2451631964 -3.252606517e-19) 472
(0.0481849792 0.2280989819 0) 442
(0.03892901646 0.2240226613 4.878909776e-19) 441
(0.05205609373 0.2734009851 3.252606517e-19) 512
(0.04397756121 0.2684417477 0) 501
(0.03629931888 0.2762622041 0) 510
(0.06711245178 0.2721763844 0) 514
(0.06270328104 0.2851216265 1.084202172e-19) 524
(0.04056467653 0.2628540058 -2.168404345e-19) 491
(0.04699748048 0.2606895827 -1.355252716e-19) 492
(0.02430411154 0.243738119 -2.168404345e-19) 469
(0.07341664268 0.2967062824 -1.084202172e-19) 545
(0.02067520245 0.2748988015 2.168404345e-19) 508
(0.05416573519 0.2789246266 -2.168404345e-19) 523
(0.05962101483 0.2953750621 -2.168404345e-19) 543
(0.04367590037 0.2996916925 1.084202172e-19) 541
(0.03135908437 0.1877314996 -2.168404345e-19) 390
(0.04706511525 0.1852928668 0) 392
(0.02785777623 0.2311377266 0) 449
(0.06727369623 0.1913603397 0) 394
(0.07246480596 0.1866229631 2.371692252e-19) 385
(0.04420738872 0.1679242186 -2.168404345e-19) 361
(0.0294768986 0.2229121282 1.355252716e-19) 439
(0.0626484111 0.2208062407 1.084202172e-19) 434
(0.0430295797 0.1726942568 -1.084202172e-19) 371
(0.05632738715 0.1750286161 -1.084202172e-19) 373
(0.03684866036 0.24166501 -2.168404345e-19) 460
(0.0390171986 0.1863413813 0) 391
(0.0725262658 0.209913489 2.168404345e-19) 425
(0.0295703369 0.2576238801 6.505213035e-19) 489
(0.02663925203 0.2465341031 0) 469
(0.06278352056 0.1938053579 -2.168404345e-19) 394
(0.02389824024 0.1953663539 0) 399
(0.02008300437 0.1854282053 1.897353802e-19) 388
(0.01132100025 0.2443108146 4.065758147e-20) 467
(0.04952802425 0.2364485494 -1.106966183e-19) 462
(0.03507025019 0.2170106818 2.168404345e-19) 430
(0.05123926061 0.227806667 -1.084202172e-19) 442
(-0.03035841018 0.1881740986 -1.626303259e-19) 76
(0.05518012106 0.2101712344 2.168404345e-19) 423
(0.01374313511 0.2406335479 0) 457
(0.06259505999 0.2159177839 -4.33680869e-19) 434
(0.00693473386 0.2161774204 -2.168404345e-19) 426
(0.04911442669 0.2521377819 2.439454888e-19) 482
(0.05533259764 0.2437464829 -2.168404345e-19) 473
(0.01944841001 0.2517384067 0) 478
(0.0383882898 0.2620269108 0) 491
(0.0472594857 0.2305708539 3.252606517e-19) 452
(0.06200724241 0.2347735753 0) 454
(0.04125587883 0.2697731612 2.168404345e-19) 501
(0.03227161623 0.2348969111 0) 460
(0.0588550408 0.2576238191 0) 493
(0.03635185099 0.2391154243 -2.168404345e-19) 460
(0.06211631161 0.2620587479 1.084202172e-19) 494
(0.05248104525 0.2178656509 6.505213035e-19) 432
(0.02584544608 0.2386355116 -2.032879073e-19) 459
(0.03323911794 0.2522230426 4.33680869e-19) 480
(0.040431286 0.2931778205 2.168404345e-19) 541
(0.06216893568 0.2560884213 -2.168404345e-19) 484
(0.05161510719 0.261505598 0) 492
(0.02333245487 0.2942766345 3.252606517e-19) 539
(0.04971803742 0.2621274674 -9.486769009e-20) 492
(0.06507266781 0.2757933753 -8.131516294e-20) 514
(0.0444962474 0.2711604952 -4.33680869e-19) 501
(0.02329035046 0.2940094713 2.168404345e-19) 539
(0.05056304672 0.2589188454 2.168404345e-19) 492
(0.05716187845 0.2917724167 2.422514229e-19) 533
(0.02725304612 0.2626311247 -1.626303259e-19) 489
(0.05033613789 0.2706838406 0) 502
(0.06896620182 0.2862556999 0) 535
(0.06762174638 0.2773677894 2.168404345e-19) 514
(0.01596758844 0.1728359084 -4.33680869e-19) 368
(0.03280454434 0.1794153061 1.084202172e-19) 380
(0.01695494125 0.1930793764 -3.659182332e-19) 398
(0.02347866092 0.2089792809 -1.626303259e-19) 419
(0.04373706103 0.1933357214 -2.168404345e-19) 401
(0.03245208539 0.1770805067 2.168404345e-19) 380
(0.03369386659 0.1853740309 -4.878909776e-19) 390
(0.0534835952 0.1988602952 2.168404345e-19) 403
(0.03897520808 0.2145782784 -1.626303259e-19) 431
(0.03198348967 0.1898269699 1.626303259e-19) 390
(0.02360538396 0.1963402095 -2.168404345e-19) 399
(0.02155577686 0.1997264922 2.168404345e-19) 408
(0.06430060034 0.1947695996 -2.168404345e-19) 404
(0.006469636604 0.2487654233 2.168404345e-19) 476
(0.06226762717 0.2309344113 -1.084202172e-19) 454
(0.05626000035 0.1817415352 -1.219727444e-19) 383
(0.05905964316 0.1857232693 2.168404345e-19) 383
(0.03487841982 0.2027824451 -4.878909776e-19) 410
(0.05734055083 0.2150859203 0) 433
(0.03784980448 0.2292837497 2.168404345e-19) 450
(0.03483681886 0.2178254508 2.168404345e-19) 430
(0.02738989668 0.1892093462 3.794707604e-19) 389
(0.02523075021 0.2140201291 1.084202172e-19) 429
(0.0547288205 0.2197566941 0) 433
(0.05956952967 0.2291797425 -4.33680869e-19) 453
(0.07099103913 0.2136907407 2.710505431e-20) 425
(0.04441455501 0.2024902851 -8.131516294e-20) 411
(0.02161574268 0.1977165542 0) 408
(0.06901981707 0.2399748595 -2.168404345e-19) 465
(0.03235865062 0.2170654111 3.252606517e-19) 430
(0.03089921633 0.2804891785 0) 520
(0.05588195047 0.2318680579 5.421010862e-20) 453
(0.05648870848 0.2042856555 3.252606517e-19) 413
(0.001195128411 0.2119206157 1.084202172e-19) 426
(0.03608056929 0.2446872362 -2.168404345e-19) 470
(0.06075855033 0.2640391678 0) 493
(0.05335126941 0.2392814963 0) 463
(0.03381349158 0.2470897891 -3.252606517e-19) 470
(0.06788140355 0.2740092557 -4.33680869e-19) 514
(0.04013405656 0.232484766 3.252606517e-19) 451
(0.03822723169 0.2717209359 5.421010862e-20) 511
(0.05328254394 0.2461950039 2.981555974e-19) 472
(0.03879442745 0.2545053808 2.168404345e-19) 481
(0.06136306364 0.224487312 0) 444
(0.03299073473 0.2307175758 0) 450
(0.01461152847 0.2601460491 0) 487
(0.06092003479 0.2266509495 0) 443
(0.05204276195 0.2924037604 2.168404345e-19) 532
(0.06041856645 0.2543931764 -2.168404345e-19) 483
(0.0669743786 0.2637201626 2.168404345e-19) 494
(0.04033472317 0.2862606566 1.084202172e-19) 531
(0.0741877354 0.2416380374 2.168404345e-19) 465
(0.06344396661 0.2794347365 -3.252606517e-19) 524
(0.04346834686 0.2556528761 -1.084202172e-19) 481
(0.05083574776 0.2871996228 2.168404345e-19) 532
(0.03972599285 0.2726239688 -1.101142831e-19) 511
(0.03715002449 0.2858159906 6.505213035e-19) 530
(0.02409333297 0.2505651736 -2.710505431e-19) 479
(0.05814957669 0.2883879212 0) 533
(0.05114712309 0.279522027 4.33680869e-19) 522
(0.06540356084 0.2996245479 0) 544
(0.06007766063 0.2839778467 0) 523
(0.01718103782 0.2927762776 0) 538
(0.03974984947 0.2859640164 -2.168404345e-19) 531
(0.04944801684 0.2521524084 -7.453889936e-19) 482
(0.04245706472 0.2645899457 4.33680869e-19) 501
(0.04481287486 0.2830691776 -2.168404345e-19) 521