/*--------------------------------*- C++ -*----------------------------------*\
| =========                 |                                                 |
| \\      /  F ield         | OpenFOAM: The Open Source CFD Toolbox           |
|  \\    /   O peration     | Version:  2406                                  |
|   \\  /    A nd           | Website:  www.openfoam.com                      |
|    \\/     M anipulation  |                                                 |
\*---------------------------------------------------------------------------*/
FoamFile
{
    version     2.0;
    format      ascii;
    arch        "LSB;label=32;scalar=64";
    class       vectorField;
    location    "0.006/lagrangian/dsmc";
    object      U;
}
// * * * * * * * * * * * * * * * * * * * * * * * * * * * * * * * * * * * * * //


5151
(
(1658.991509 106.1355953 -170.3232142)
(1135.761254 -158.1405057 224.7028652)
(2304.498822 129.0639359 -341.0027415)
(1455.538854 -29.39395802 48.67129494)
(1758.17637 -207.2199679 28.6121075)
(1397.077828 -462.0736246 -291.5537831)
(1521.334007 138.3150434 623.3316646)
(1369.259194 337.9279119 181.1381131)
(1521.608078 56.09222139 -226.4925315)
(1637.981494 1.299907419 307.7477658)
(1792.280849 -229.8825741 -239.0212061)
(1555.168907 -241.9280254 -97.07242491)
(1708.657288 177.470548 103.313255)
(1341.270739 -480.099391 -197.6214976)
(1353.950223 -184.1371074 381.2524841)
(1151.39491 201.4744867 16.97789244)
(1181.822493 -238.87139 54.57456853)
(1587.036527 -157.6027597 -328.9279425)
(1286.439407 154.5508106 -246.2402014)
(1661.197567 356.2305865 701.6320801)
(1424.192941 211.2254815 -102.6254183)
(1538.743931 -21.08303038 472.5192589)
(1464.712512 348.5376476 -111.3103804)
(1719.864137 243.7108088 -479.6757466)
(1546.309219 -25.35062989 213.2013856)
(1142.288678 135.681731 -46.44231686)
(1341.371182 -195.5446602 -250.784335)
(1443.537076 227.8849627 -410.3426805)
(1225.513559 -94.41225865 -181.7104728)
(1429.338886 284.5361706 -573.3147358)
(2085.94005 -563.525938 355.7111024)
(1584.933655 123.7913608 369.5877923)
(1057.467951 -71.33929407 -30.38976217)
(1865.804412 -331.5287449 10.50560196)
(1994.215444 345.330834 -104.8576191)
(1583.637415 159.9543295 -328.4782019)
(1730.703279 -97.28909153 572.5268783)
(1905.985326 245.535073 -86.07536981)
(1540.333601 275.3538699 -344.927808)
(1536.966893 -198.7865604 206.2030313)
(1699.015726 225.1337427 67.67154719)
(1937.572034 -588.3305299 199.0710703)
(992.3458044 281.2383644 -273.1790315)
(1275.368642 144.5322441 -136.3619265)
(1532.972335 9.608134322 -413.2916584)
(1408.843327 516.9349902 -82.32534037)
(1312.756672 185.368203 319.5797219)
(1957.614112 35.59161137 -204.3866837)
(1489.485232 223.3175089 100.075049)
(1872.920226 -102.2699213 630.5257565)
(1677.584456 -107.5039237 -138.1873287)
(2093.990691 -11.45065747 -370.3657249)
(1712.094595 -397.4441219 52.29909012)
(1563.23919 -126.3910329 426.0282974)
(1615.379025 240.8094643 100.5449548)
(1668.771603 524.0663026 -486.5205318)
(1393.70668 99.62301747 240.9837758)
(1221.02709 -269.5184 -289.3444745)
(1533.648082 375.9044387 -99.20808479)
(1921.967554 217.1394762 347.7863709)
(1746.077527 337.0529187 -312.5585297)
(1258.574062 53.82204953 12.24510848)
(1460.275167 -322.777917 -59.92825192)
(1957.845364 50.28049229 -6.145806348)
(1717.522983 -419.0984083 -133.0494863)
(1703.136859 -269.8404281 293.3701251)
(1388.009317 482.2887768 95.20524435)
(1932.599061 350.7761636 -597.7384111)
(1638.310139 158.0669486 -116.5446966)
(1647.503822 256.514815 -245.4559416)
(1189.007491 152.1480293 254.3392758)
(1387.022015 162.0199555 -131.3015636)
(1197.866299 82.05105486 -53.2284773)
(1760.31282 86.09182921 365.5982835)
(1959.362758 -604.9490262 -300.5293742)
(1160.232348 -101.5928019 351.7919014)
(1312.915651 174.6115101 -261.0109101)
(1551.495299 71.8530818 -169.5846857)
(1874.923245 -364.473581 124.1293107)
(1286.29416 212.3904686 311.5637751)
(1742.212819 232.3674399 -200.7285841)
(1800.972555 -47.7897379 -192.2233325)
(1672.511727 115.8225665 68.56582344)
(1097.318563 31.74965378 143.7101996)
(1708.884563 475.4112101 323.724394)
(1699.791928 -74.5198126 -201.9957369)
(1150.902891 -16.07628154 380.5524221)
(1478.425424 376.3146432 44.11025961)
(1205.649626 22.30863946 -183.8159622)
(2181.034536 608.3962762 -10.60276715)
(1507.16742 -40.82598315 -66.24482605)
(1645.340159 -409.0786793 -97.0759336)
(1339.906538 -183.4439357 453.188997)
(1291.758884 -59.10629771 2.691725841)
(1350.5751 -41.97939015 68.3835327)
(1290.610271 13.22616225 -115.2244465)
(1973.61752 148.6971854 72.16410166)
(1374.907019 93.91097476 161.1233647)
(1621.38073 364.9535653 -87.45105831)
(2002.716524 -501.9532154 -201.0034537)
(1964.429061 -265.3756522 90.95199605)
(1559.240634 -887.3232293 -13.18239662)
(1474.913327 233.7079099 117.4924074)
(1049.400349 -305.4028635 -375.5375588)
(1419.520304 222.7776485 536.6656581)
(1758.90465 346.7649069 -202.6212112)
(1327.768873 42.35199007 -177.20027)
(1261.326518 329.7327743 -38.95159471)
(1207.486323 -153.7485488 -843.4249533)
(1748.545307 -330.8826281 -261.1525042)
(1322.484304 -99.72313995 -445.8096302)
(1797.952512 458.8712001 465.2427236)
(1417.918732 -67.98012563 462.6231928)
(1647.543168 636.3219256 -192.6962289)
(1563.988134 -357.1731315 93.43364696)
(2118.512075 -231.1997841 522.7112217)
(832.457496 -19.48535741 -111.3753198)
(1925.62576 -449.1325124 173.2250942)
(1751.277675 178.9430791 535.659753)
(2119.754376 -505.7193029 56.55843666)
(1910.099533 -149.6159108 -313.9589864)
(1486.13338 -302.7167303 175.8742209)
(1492.992426 -288.1910956 -167.7020237)
(1056.564252 16.16296649 142.4706782)
(1523.928391 -16.62743455 561.0984459)
(1716.401079 -545.4392182 9.203417957)
(1426.715991 -283.8792678 65.14730012)
(1739.722518 -18.41476402 159.6337247)
(1658.699405 211.0996178 479.6775935)
(1412.933129 220.2870731 -390.2009762)
(1521.703745 -99.76417522 -206.9207307)
(1534.17368 107.5771371 -152.3939782)
(1389.592836 346.3619547 426.4266543)
(1530.244134 132.7413055 30.58044536)
(1829.191758 182.0767973 -37.38371722)
(1735.066445 -165.361517 -214.2994327)
(1531.966819 -374.8711463 31.62068784)
(1818.274204 -433.9579792 145.0221352)
(1608.789477 -452.7730446 -303.4869519)
(1239.203246 -309.1141835 -200.7574898)
(771.1458722 -159.349484 191.1938994)
(1052.227325 50.01500036 226.6014803)
(1266.683654 445.2440036 158.6878949)
(1323.944468 20.44023054 233.327984)
(1397.713371 -488.5045204 -146.0182736)
(1721.640452 -265.6391901 70.39029481)
(1727.085756 -415.6287107 16.17961917)
(1602.588555 0.445110886 -313.9017245)
(1655.534954 -63.66806798 146.7390369)
(1355.25806 -310.4674639 101.6173445)
(1721.409357 -297.3586804 327.8790657)
(1376.088908 73.4977744 -202.0907685)
(1448.499769 75.39729559 -138.5821192)
(1335.002537 425.7728197 285.4247585)
(1309.224629 123.3477581 17.11384839)
(2024.381473 250.9463509 477.5604382)
(1655.933017 434.1181402 46.88629823)
(1820.31813 -105.3967364 -314.3189866)
(1658.391774 -103.3328085 -298.6657324)
(1974.113854 164.4833397 457.0360901)
(1859.419504 255.8667612 -1.207728626)
(1709.059518 342.9085157 120.5249455)
(1400.859513 153.9669421 224.6664438)
(1543.901944 514.9529764 -82.85230766)
(1578.878124 183.8932495 192.0288883)
(1757.349882 -377.9219722 84.84748444)
(1522.746173 -118.8866021 -71.31375324)
(1586.775744 -302.6390803 299.8719294)
(1124.936497 21.61073669 -56.7639582)
(1557.622768 34.98642559 1.246966948)
(1962.001459 -169.4721936 -277.1188601)
(1410.170572 -521.1214288 352.411564)
(2052.865008 -387.2689655 -11.23008049)
(1881.122563 320.9794373 -286.4607892)
(1988.43566 -628.2546662 -408.6215592)
(1912.157651 482.3302762 -385.2700162)
(1444.982087 235.0850903 -209.938186)
(1365.338742 -216.0383462 -16.49055891)
(1609.51985 474.4973333 -686.4973725)
(1874.746458 107.2802903 -139.4788375)
(1340.15742 502.0374857 -93.13846262)
(1080.512107 -115.6251181 237.5642926)
(1659.417976 114.6491747 -232.5172148)
(1895.513372 -254.8940254 -98.47273331)
(1265.005848 -33.25910827 256.2607505)
(1461.974367 294.7605148 108.9329917)
(1812.886467 -94.84084858 7.695420151)
(1838.079464 538.2914252 273.4604921)
(1398.737054 50.16393688 236.2952695)
(1830.472523 -301.7859114 -232.7916319)
(1846.549417 -261.1607437 323.8453194)
(1417.941398 208.1927145 103.8445509)
(1706.427454 -67.3491031 -410.896261)
(1352.552604 -419.9604197 214.733211)
(1428.596056 -101.2881001 -232.4906584)
(1646.123609 44.53191389 197.7732508)
(1539.266176 68.99829777 90.0234436)
(1924.117027 412.4274802 -302.0652415)
(1623.989162 164.0544502 -47.97446352)
(1282.261378 44.94596116 -168.5397309)
(1985.539892 -265.5736822 -455.5989006)
(1527.4224 673.7993895 -20.14306287)
(1613.045268 456.2551541 -576.8063965)
(1500.099705 -444.9932257 404.3547123)
(1246.190278 -91.47975427 54.92808325)
(2148.814737 42.42837776 -160.7249568)
(1709.189364 -138.8685513 -128.6837715)
(1702.333866 -198.4551197 -66.52427104)
(1015.04418 -161.3829793 -425.923705)
(1557.547098 67.79279379 -166.0693766)
(1740.98836 -120.0603336 -345.8522061)
(1505.723424 -69.70780864 -89.39990664)
(2053.426314 175.4307028 111.8874593)
(1301.111285 102.3968748 703.3975783)
(1561.738537 250.9242274 74.55599245)
(1689.470215 283.7430765 -218.0439859)
(1344.970194 -85.30618753 19.8441246)
(1421.300914 45.21361179 285.8905413)
(1551.496296 262.5840989 486.1040909)
(1712.614828 -109.3465383 -261.7441108)
(1596.004161 121.0772505 -647.6840587)
(1534.151408 -64.50513952 310.1835385)
(1804.197572 -117.9430403 16.7699017)
(1493.012568 107.3975043 -567.0906343)
(1530.113193 -187.4141603 -259.8560183)
(1626.340006 6.669964911 599.2904756)
(1420.89998 24.60902055 -198.4685082)
(1957.993789 81.39370469 -138.9337774)
(1333.591306 -473.77583 121.1982856)
(1749.75716 169.8494237 205.0595053)
(1117.217194 -192.193525 -34.81193359)
(1558.109251 259.5353215 -575.3943981)
(1135.076956 23.85493502 17.7198848)
(1697.709497 109.8531385 -66.81539074)
(1903.064267 434.2570589 474.8244724)
(1851.339417 268.9017076 -100.9283869)
(1709.394975 15.05665853 -157.3417683)
(1314.591821 52.80725328 -270.2595986)
(1812.512112 584.127988 -559.7565088)
(1231.85617 -183.9236327 34.9067345)
(1280.948201 719.8742729 310.0347349)
(576.9590261 -404.0584087 -180.720237)
(843.6029617 63.27041352 255.3394927)
(1867.058819 -76.81776648 -510.60231)
(1652.952347 -109.7012891 -372.8295324)
(1642.885111 61.24905547 39.29233345)
(1534.214608 -173.7989701 -58.9412617)
(1733.235564 -247.6161985 12.55815649)
(1265.08348 -225.1726523 -504.9716433)
(1599.4492 77.34596227 187.4685674)
(1564.614831 373.5810579 317.602054)
(1434.818069 -346.613681 -226.0415314)
(1995.439846 565.3835349 126.4575083)
(1555.891426 406.5630375 -378.3755531)
(1846.356642 94.04116689 418.51227)
(1167.873748 124.7180183 -144.468221)
(1425.253803 -229.5757606 -47.0155426)
(1279.383471 29.17548565 113.914582)
(1519.418507 -248.4762447 -125.6300451)
(1581.578806 27.84757599 136.4524728)
(1452.414324 284.594394 592.8696697)
(1904.377956 -424.3138718 -225.2697404)
(2018.852928 -309.1347436 -273.2371078)
(1798.061431 21.75991443 369.3141529)
(1654.502154 258.2498811 -140.3150741)
(1051.912778 -105.2450172 -449.3454836)
(1680.881759 -109.6813569 -135.7943754)
(1506.199734 -272.2927282 137.5996814)
(2188.908236 156.9118367 -316.9448094)
(1785.135645 -326.1710368 -607.9500583)
(1430.864294 1.2760506 629.6234009)
(1444.212144 -201.234504 405.2443631)
(1176.936154 130.3024245 -139.3479414)
(1322.153224 155.0827288 -165.0314903)
(1936.954488 -47.28366215 -21.17816984)
(1716.29591 -726.1157579 273.0992157)
(1649.202185 175.2014772 258.9836299)
(1587.478999 508.4302151 -66.7688026)
(1713.463935 -258.0195656 -150.6214988)
(1849.788133 420.1811291 -499.4247758)
(1452.85218 135.934613 285.4541842)
(1366.327199 -184.7546403 372.966998)
(1785.656296 367.3536045 227.5981641)
(1487.403572 15.8888937 258.4757145)
(1876.829473 -205.4191268 26.09373507)
(1207.431438 120.94652 -180.0358725)
(1289.515342 -167.7312279 -390.6337902)
(1499.562814 -183.0618609 226.5423433)
(1975.24605 65.6113826 65.31709304)
(1481.075511 -53.28044509 64.84586625)
(1751.836787 -308.9531691 -308.2201928)
(1595.332445 -47.84341595 88.48603946)
(1896.395787 59.05373032 10.44628979)
(1808.75775 -468.82437 -42.99647818)
(1582.985793 58.47888371 -22.62920671)
(1295.69222 -22.33085126 -489.4909225)
(1929.289833 220.4793139 -188.0642582)
(1440.526344 176.0488758 113.7595412)
(1707.826515 92.76053138 -564.8525759)
(1154.354405 166.4142391 -38.50713085)
(1608.744223 28.0475732 130.375552)
(1650.520957 -223.3451132 387.2489465)
(1747.498264 -329.9770237 31.77186518)
(2111.543769 196.9140881 -662.7680713)
(1215.422066 -72.81141961 314.5471893)
(1336.627249 -57.25336865 19.28323259)
(1460.054103 90.93496662 -406.378018)
(1519.634663 -99.03765945 -99.07857903)
(1612.174879 -175.690378 -64.97890962)
(1689.285922 -320.0608573 127.8634125)
(1570.495904 -184.1660185 -141.7372259)
(1558.803161 -120.4610954 -122.475744)
(1680.696393 -60.36806848 266.2695884)
(1606.944627 268.2859392 450.1038262)
(1100.5451 -514.6259861 -448.9030633)
(1223.479615 -201.1117431 140.0340413)
(1386.529038 -35.86979847 -191.0692879)
(1864.913884 184.9620432 58.94058142)
(1386.179343 -214.9353755 75.82095799)
(1402.466655 -196.2825688 -418.5925855)
(1516.055878 -553.8292159 305.1002745)
(1875.567406 160.7797831 -120.6080912)
(1998.822831 -379.1219806 -526.6803579)
(1599.126266 -99.86021853 28.43820381)
(1587.904834 131.5736513 -231.2900683)
(1573.094015 -200.3814903 -365.0560885)
(1353.158785 24.82844848 -40.92260945)
(1760.57852 105.3766596 9.219482029)
(2087.701669 41.04327629 -457.6123874)
(915.0733717 1301.467459 -803.7150911)
(1998.141823 811.0629226 -221.2551115)
(1856.519446 46.63696922 349.6536667)
(1848.473799 256.9458387 -17.8238737)
(1463.724956 -15.37300774 -53.64711254)
(1640.923483 646.9275447 178.0382536)
(968.3826389 729.3720184 180.3208363)
(1182.049859 -55.02368091 -170.4835583)
(1843.431051 201.6035681 -91.88356983)
(1127.912329 78.12967498 -395.8786626)
(1294.668966 -435.5677725 175.5947273)
(1779.795515 -265.3209051 -415.795185)
(2135.634974 239.7424621 387.5450731)
(1214.717552 -62.87599198 145.556567)
(1174.94601 -69.29788703 69.94849761)
(1614.009771 -516.2808351 510.626691)
(1184.248458 157.8118825 197.1430397)
(1899.418881 242.9365031 500.1974746)
(1557.134729 113.2611498 -627.5032483)
(1763.233834 -479.6917631 305.0013381)
(1822.362353 558.6502133 -154.7189644)
(1438.956637 -279.1948269 33.80967949)
(1438.27199 -53.21293145 33.51336298)
(1185.237443 163.7088196 161.8407288)
(1898.87979 522.2595567 34.59976782)
(1244.914678 426.8861118 -228.9246829)
(1417.039813 -528.2349241 -15.02306738)
(1769.874054 0.3872721116 22.78085875)
(1824.545552 409.3029975 622.2734669)
(2157.384448 -90.59670831 -146.1034929)
(1784.797398 -380.0660742 463.3195766)
(1784.638761 405.4142397 39.87752735)
(1725.595148 432.9065815 136.4550803)
(1531.796391 -33.01759808 -351.7754849)
(944.1675202 3.442920441 398.6588567)
(1576.035594 -242.3380958 136.4189479)
(1497.60978 -323.0214873 -51.34229433)
(1350.321 0.6195912588 78.58271077)
(1470.111284 -37.98562352 256.7806162)
(1624.866618 152.4978756 -114.6287308)
(1863.120632 71.81251167 -219.5995319)
(1884.104933 -86.20830393 -93.12077919)
(1761.833093 146.6885405 -4.400481119)
(1367.23758 26.09021389 781.158401)
(1680.714984 207.5457632 384.4468132)
(1245.403193 -63.52132074 36.2288931)
(2183.744432 -70.04072571 -335.1590376)
(1714.080539 169.3261844 239.4908701)
(1528.177759 -306.9188999 -193.982927)
(1584.304941 -17.48762605 595.6368732)
(1595.78364 262.1953364 -447.4534273)
(1894.719849 298.7998851 10.4496999)
(1698.182953 168.8213733 -447.5249704)
(1957.513693 468.9109948 147.86503)
(1429.976245 -8.329967164 315.9662381)
(1424.853312 -538.0272697 -122.9312032)
(1644.328791 -114.3122137 108.3750494)
(1406.58668 9.577867634 144.7058808)
(1450.957199 449.9875809 -50.34497225)
(2174.969167 -84.4495187 -336.4929241)
(1637.037757 -231.5405584 394.3219967)
(2020.291924 -177.0772941 242.9732441)
(1384.379369 128.1490358 544.791819)
(1744.576093 -201.8893116 338.6625191)
(1484.22633 -137.6080805 124.2573881)
(1940.159255 -198.2242479 -88.49939353)
(1794.00477 324.3463449 -158.6909098)
(1822.611868 -210.5037577 502.2470229)
(1404.736928 -281.5591922 532.6987233)
(1852.735644 -47.14161582 -115.4073109)
(1244.881251 52.95275214 250.962762)
(1417.797916 208.1776819 24.0917484)
(1617.243365 134.5952164 -87.300948)
(1711.673251 165.8610704 34.74017917)
(1902.006192 -28.46316848 -509.7511311)
(1495.443529 -253.1945888 417.1838054)
(1551.893403 -72.10522653 279.5109451)
(1447.08735 52.39367629 204.1224861)
(1941.758411 249.0545263 -211.2759133)
(1775.107116 -196.027298 -123.4614787)
(1786.168269 281.561956 -1.204711549)
(1493.079075 352.1518102 337.0106103)
(1517.140017 169.4662876 267.1533343)
(1476.50648 -42.62145534 231.9491413)
(1664.875559 -125.5979329 204.4289253)
(2424.677681 147.8288979 480.9142013)
(1531.391352 761.5487425 695.6405808)
(1869.853045 -5.051794703 73.16151316)
(1093.892636 225.5873264 466.5264743)
(1734.377225 -267.6910447 273.61581)
(1977.603359 85.61221063 54.54148706)
(1607.263751 -728.6448629 -115.7934872)
(1823.805795 172.7997573 649.579942)
(1161.892106 107.6770322 -28.72588817)
(1220.921092 -55.7750535 -379.0232286)
(1432.756512 98.47518464 161.5241682)
(1443.340295 326.7159428 -206.6373514)
(1913.383673 -514.7512011 160.4460107)
(2044.379576 -264.0433532 -171.3265349)
(1837.507399 -408.0246385 -81.13189136)
(1249.989987 -440.7728129 460.1196649)
(1457.815634 299.0075903 -406.5244691)
(1937.102017 90.8520176 -1.07493583)
(1539.759643 288.1918976 -104.3923945)
(1474.63277 83.62015138 -383.5180412)
(1887.880878 -191.7459091 -356.0451895)
(1552.832083 242.0176574 -101.1866847)
(1521.333804 -265.1597239 186.0166962)
(1873.800423 -226.6580202 28.31402541)
(1412.037344 122.2801776 53.72104302)
(1408.59405 262.1277306 158.8990853)
(2087.586714 418.7559861 -332.7953603)
(1948.162374 656.599584 -335.8375108)
(1742.131502 -188.0343694 -14.23294463)
(1349.101123 100.5562501 267.9107499)
(1943.77367 124.0076859 -42.57713085)
(1893.901107 8.103188607 376.2403754)
(1672.506583 60.1227688 -518.0598461)
(1810.415903 -192.5591486 -137.4365276)
(1510.804162 97.48651527 -62.29629738)
(1295.731112 -41.5331903 -36.67437966)
(1372.232801 -497.1439778 -335.9160665)
(1464.072324 -4.711810975 -348.1886068)
(2035.385 -332.5466792 322.1771662)
(1535.293456 168.1503947 -255.4635941)
(1407.356637 -10.94610934 -97.61749142)
(1479.479079 -137.9737477 -87.24703924)
(1421.172892 -272.9593245 132.7997515)
(1990.618439 98.47839514 -273.7334157)
(1601.30893 -4.467800502 17.43999875)
(1694.018103 -97.90376781 -214.5872403)
(1643.11479 -49.40958633 119.1917482)
(1519.490116 -542.5326938 156.3284485)
(1424.64126 7.525827043 -213.5034246)
(1763.250491 81.30650185 -234.7976408)
(1629.261775 -66.34096621 -607.8267754)
(1454.193062 504.7759703 16.92668239)
(2149.917853 -161.785323 245.2993133)
(1583.665956 -11.69065341 518.1342403)
(1897.49723 -193.4624353 -98.31017552)
(1436.538681 422.6842051 242.181751)
(1559.420447 26.48267196 121.51572)
(1612.428947 279.5440914 389.1790067)
(1704.609398 396.7570217 -26.29608956)
(1952.756066 383.6655745 -26.07700518)
(2011.625638 75.0764095 -6.828495451)
(1932.652875 138.6222038 414.4818544)
(2019.029098 201.1684453 -5.098550586)
(1563.458323 -140.412851 -113.3944094)
(1819.039148 -94.00420788 207.8328166)
(1957.15824 374.0150924 -713.2828876)
(1437.809446 9.190723387 583.5321762)
(1695.163966 334.5471247 273.5741469)
(1410.390277 -99.18542419 289.4213626)
(1896.283529 468.9162648 -203.1243453)
(1691.123521 53.25597034 150.1301511)
(1659.885443 279.101884 -205.1941919)
(1494.084769 197.5480593 -28.10660688)
(1827.474313 -459.1490404 409.6036367)
(1610.71606 -55.92621846 111.5480033)
(2043.465345 23.88901929 -76.68681929)
(1679.636875 565.4244537 462.4623235)
(1981.704088 -401.1792784 101.5985262)
(2008.979735 -153.2276585 -309.3353444)
(1518.158804 282.4869811 -70.10721679)
(1467.563019 -171.8952627 154.5677649)
(1720.181965 -164.1989437 -218.0721141)
(1523.392651 -274.8270388 -200.3055469)
(1590.029927 -490.2346404 -31.19578025)
(1720.295631 70.33870937 125.4413757)
(1977.007372 -225.8109813 52.44815957)
(1634.186465 -50.79967838 -280.2824809)
(2017.777035 -553.7286804 -203.8484337)
(1991.948117 -487.1921297 265.216867)
(2150.784804 -24.62644561 291.6708493)
(1260.267623 -249.4014889 -481.9250849)
(1223.615965 -83.6692326 718.4092944)
(1401.489472 -106.4557943 -424.1347147)
(2232.907711 278.6115664 -23.34309362)
(2074.387748 417.3251418 385.624953)
(1994.865457 177.7480695 -57.96326509)
(1758.122149 -182.974492 143.5386094)
(1206.094011 -123.3935285 -189.4973531)
(1768.710977 180.3342856 -19.26322303)
(1319.521858 -117.5070382 -523.9222518)
(1638.255461 -564.1743761 201.5925752)
(2192.515468 133.231397 -53.09165746)
(1928.464805 45.74328026 -357.932441)
(2048.66004 439.0027023 -224.0593805)
(2186.226495 274.8544885 81.93718775)
(1261.267196 211.5960001 -323.0561518)
(1546.08206 -292.5484812 57.87877042)
(1958.796669 110.5837488 43.23119608)
(1680.684865 -147.8367382 30.56485007)
(1288.652563 28.87666815 -192.8262451)
(1548.092226 -165.4254165 -345.4639506)
(1684.91017 -211.2784256 -334.9508955)
(2025.070308 -529.3944328 66.63258993)
(1605.991799 6.212431155 256.1345271)
(1434.535564 -238.7253437 -443.3085369)
(2232.455187 492.0533918 30.04424901)
(1519.126507 430.2507223 -155.0537374)
(1564.005358 -363.1110885 -323.3886233)
(1685.648616 -288.2754875 446.2961265)
(1843.177618 -169.4740157 97.96023404)
(1374.878862 -442.2355899 278.3627301)
(1382.686615 161.5183873 446.879003)
(1689.8402 214.0772432 -305.149391)
(1683.850884 -142.4668671 -1.554832646)
(1922.957361 194.6630831 93.5716138)
(1164.691741 94.04927731 60.85798432)
(2141.404269 -731.5520447 -200.0158164)
(1093.103875 190.522023 -94.48980825)
(1502.772604 -180.3275858 -562.1061916)
(1470.60273 -671.0089271 -82.84408281)
(1956.659128 -78.21131186 -164.7454476)
(1974.108742 51.43451864 -71.54744845)
(1617.250389 91.47480078 36.82474426)
(1438.600161 96.68736716 299.0005752)
(1950.253559 -117.384778 224.3665358)
(1515.044027 316.7480648 -397.573659)
(1406.285882 -180.202468 -116.1891222)
(1655.525401 -72.26887287 -68.90463676)
(2003.244271 -181.7432511 -338.3171665)
(1517.7681 30.96523208 68.12805872)
(1530.454677 -69.04913302 -210.3423279)
(1608.436267 -77.9060887 111.4798902)
(1547.314149 -170.1589236 29.22375381)
(2197.577903 -11.75752524 -128.5612696)
(1338.221533 -394.1214504 135.4023758)
(1723.536629 85.886887 -688.8742039)
(1788.20993 248.4374058 -187.897076)
(2038.056904 236.4638535 397.3101844)
(1676.912768 -435.5110469 275.6233769)
(1918.352544 90.59418623 -82.62655306)
(1994.483085 422.2523569 244.159484)
(1820.789586 258.7609368 -17.76492226)
(1744.766671 -401.1640605 229.6288136)
(1850.96943 -186.7132508 108.6273142)
(2173.858787 99.73482246 490.8747962)
(1783.748001 -97.41076245 -343.9217745)
(1770.589279 -271.6365942 43.55650689)
(1582.723016 175.2991327 287.7643493)
(994.2810496 -233.3943156 -475.0994182)
(1356.316396 98.8761557 341.4404482)
(1910.039732 241.1864219 176.5008404)
(1867.396398 308.8460171 304.849513)
(1556.322992 -118.3469553 17.51021188)
(1393.375414 69.44503824 78.30008833)
(1659.265846 172.3406849 -136.2936377)
(1701.817159 252.3052079 118.5769344)
(1429.261186 28.18443459 235.2894521)
(1617.574471 62.59028867 216.86504)
(1504.752679 216.7641035 -301.7775029)
(1526.103306 100.0266715 -617.5300521)
(1972.128754 -83.61330395 120.933643)
(1480.63492 518.3498349 497.7570818)
(2248.463437 400.2884039 -192.1137412)
(1654.142019 -176.0873836 227.0382391)
(2007.120312 -221.5574702 -424.0469287)
(2102.950435 -167.0782639 34.18430052)
(1716.787097 264.7715373 144.1512449)
(2108.533633 -110.3895341 -119.9043506)
(1734.980521 40.81579169 -71.59427459)
(1591.998304 -266.2486534 -101.8073184)
(1502.779597 203.7796747 -64.90046037)
(1786.829941 -70.0813595 -117.7752332)
(2217.866189 -84.172372 -21.2274688)
(1660.189498 229.6709827 -169.1290838)
(1779.518677 82.4349373 540.842622)
(1632.463219 -521.2485365 668.916804)
(1763.93783 91.13859181 11.15404734)
(1443.580253 -241.0687713 -9.630990752)
(2169.435446 152.1223588 -89.98689726)
(1947.664189 -85.29045262 -104.1184904)
(1957.230641 -420.252386 15.58869925)
(1347.501126 -279.9586961 14.50279711)
(1491.018156 78.79194256 161.5032209)
(1869.987284 189.3843017 343.686534)
(2143.631761 -299.0886924 53.54702544)
(2054.521388 -104.4299583 238.2385279)
(2130.929043 249.6464036 223.2911703)
(1625.099658 -334.9210804 450.5803363)
(1648.428639 -207.9382826 -19.07858941)
(1479.092889 321.9755223 182.1093724)
(2028.757058 28.88486762 -433.1917731)
(1941.014867 -406.0097313 401.3724865)
(1438.91387 -45.89546615 -640.6291515)
(1622.213003 -159.7649085 172.8471266)
(1986.691076 -688.4647412 -97.98463525)
(1622.741584 261.0747557 -291.5190256)
(1502.672842 295.7468564 489.3863287)
(1474.646716 385.8747098 535.3875599)
(2196.003034 420.9438969 -8.988820221)
(2232.176782 -667.9953996 -44.64134709)
(1954.615617 206.9762312 244.6627913)
(1893.310687 53.46326453 -247.1215598)
(1862.411707 146.0968285 -376.0983759)
(1744.030445 508.8349949 -356.0253918)
(1952.346591 90.83555929 -601.237068)
(1585.706703 -460.0805741 150.5345451)
(1783.507769 330.2712771 399.5811687)
(1884.514167 50.47666548 -126.5171274)
(1399.644871 294.9806198 281.332295)
(1681.612918 -82.88492913 -210.550927)
(1257.047939 -473.9364693 91.62985557)
(1424.969726 177.6830085 310.7851519)
(1698.391756 -713.7145785 -175.1836222)
(1646.888982 -275.0789335 -439.1214164)
(1587.424574 -83.45116259 -448.5837384)
(1731.500289 54.48336465 -199.0078575)
(1662.355963 -183.7925783 16.45305512)
(1604.834998 44.50824253 -209.2276202)
(1815.143906 -30.13368152 891.3597371)
(1954.061869 418.0494026 183.9245309)
(1449.881265 497.3244861 10.56413592)
(1569.306986 115.9892668 -414.5269134)
(1727.938673 181.3823439 -173.3410845)
(1694.737805 69.20372547 -160.5275798)
(1816.827245 72.81472015 -490.4760386)
(1493.167829 135.3053688 -193.0852377)
(1419.482506 -248.5019293 70.58156573)
(2013.256613 220.0785387 -196.8653757)
(1949.15941 -290.3822594 -181.2542963)
(2104.708286 -70.17999835 198.7939386)
(1872.059735 -208.7416422 94.51660217)
(1833.524847 -447.3536336 -73.89371047)
(1603.651304 -603.4218371 -107.6896462)
(1902.179471 342.8994032 650.1432762)
(2016.253014 2.478078755 243.5726274)
(1776.040184 69.38350531 -76.10229601)
(1945.724603 -339.902036 -525.9576343)
(1045.356976 725.2366588 279.3708812)
(1847.588122 271.1998508 -186.5770115)
(1667.829499 -0.95567471 319.4095789)
(2046.046785 -80.65294864 -96.61221465)
(1595.323965 97.97850127 -376.7766187)
(1763.540603 3.964019228 544.1392258)
(1822.459428 -337.2869546 -81.08748941)
(1985.690728 -53.83415554 -293.8155698)
(1673.235691 123.0639146 -81.3622918)
(1544.57059 394.0490238 159.7344787)
(1698.121319 397.5945843 228.3624886)
(1573.494713 336.0472078 376.6413196)
(1643.3653 -111.3067652 -304.0727496)
(1785.139557 -13.61098657 -104.4049055)
(1655.808201 -207.2416755 -364.8330652)
(1907.334781 210.8692935 -371.6562792)
(1377.380963 -553.8890195 284.9641884)
(1539.038349 634.306064 137.0860048)
(1957.371958 -88.21221222 -97.49655102)
(1271.669443 -477.5898466 151.566221)
(1731.033265 132.9603112 105.6063528)
(1634.631083 11.32636838 -297.4423581)
(2134.19576 -92.09785879 245.2310094)
(1398.913819 24.90952862 -352.1461101)
(1572.078487 357.3932047 319.8947729)
(1372.577293 0.8094571911 -131.1860826)
(1670.035935 -467.037964 -150.2876392)
(1810.029186 -132.9383076 185.5221737)
(1472.420615 119.8913923 398.0226964)
(1570.260184 -93.10341023 39.43586137)
(1442.759975 102.5999956 62.66931995)
(1593.145436 -421.7127264 741.1382974)
(1445.722934 481.7391574 89.69496597)
(1886.501411 -115.0761876 -172.0733041)
(1267.885994 464.1807038 -167.2420183)
(1337.091539 -107.4890883 51.04861032)
(1798.708207 56.52368321 20.05584873)
(1560.929351 267.2229728 298.6382624)
(1233.619886 -96.22384282 -450.4877808)
(2019.166283 228.9585427 203.2053965)
(1507.247385 -549.7398208 422.8052083)
(1832.78773 -59.30453715 5.707865962)
(1583.610138 399.3678606 309.1375509)
(1296.475598 -257.7529805 148.0761516)
(1679.797403 -433.4972155 53.29959912)
(1867.908104 529.9439677 -62.86726202)
(1314.945566 -222.8000446 -183.9754768)
(1590.921181 -330.2149043 -145.2966401)
(1525.416817 111.2591268 -223.9092861)
(1285.814886 -199.865883 -17.87972554)
(712.8759339 -21.72776056 -193.763865)
(1563.63029 59.62530194 152.2043962)
(1636.626289 132.0528696 353.9454947)
(1946.842314 49.01879989 47.05650273)
(1518.516944 386.6326833 360.4772959)
(2224.805071 -289.6082699 -15.63329322)
(1860.06356 -406.5715545 -306.389312)
(1792.377019 420.9496458 178.9057636)
(2002.003926 530.3293599 -262.4255629)
(1446.40113 199.8044926 -91.35469837)
(1278.599257 97.84585443 7.611227537)
(1377.002505 -413.4641637 -110.3441126)
(1903.246958 193.0662488 -133.4410615)
(879.4217641 476.1850981 -197.0447358)
(2456.604217 207.4160196 96.16813573)
(1669.200746 -95.47534454 -351.6688458)
(1830.421378 -106.6155938 -55.40812425)
(1800.915924 247.4592238 -23.0338906)
(1779.473502 -103.840413 149.6109555)
(1811.467313 -344.4568183 -699.3641198)
(1686.47728 -305.3805166 176.0399649)
(1470.042416 226.8057202 -274.4510427)
(1645.492631 400.4413328 128.2163662)
(1539.884478 -189.3208814 -202.5205355)
(1303.732896 -309.6683011 -49.26317614)
(2195.459357 297.1884058 -160.0001456)
(1891.456617 -519.05708 398.6266344)
(1363.46011 439.1484196 45.0206862)
(1408.864233 -1.469761094 493.6415369)
(1392.737537 -371.1014912 297.7506933)
(1583.462468 -548.7335191 32.62895733)
(1360.373912 -153.8069119 308.8823292)
(1508.009233 -134.2570403 -319.9398233)
(1645.45203 195.0633827 -72.79783847)
(1950.138477 -252.1054067 301.2345354)
(2528.218126 92.53431226 -186.9615084)
(1830.957359 60.58015338 -7.592330606)
(1610.576434 416.464459 367.9942809)
(1765.001382 183.0078973 -169.3676915)
(1970.585826 -89.42924917 177.442228)
(1671.007423 -521.0956548 -100.8370398)
(1043.621959 255.7963699 25.3469422)
(1908.413237 -620.9717138 -24.15905589)