/*--------------------------------*- C++ -*----------------------------------*\
| =========                 |                                                 |
| \\      /  F ield         | OpenFOAM: The Open Source CFD Toolbox           |
|  \\    /   O peration     | Version:  2406                                  |
|   \\  /    A nd           | Website:  www.openfoam.com                      |
|    \\/     M anipulation  |                                                 |
\*---------------------------------------------------------------------------*/
FoamFile
{
    version     2.0;
    format      ascii;
    arch        "LSB;label=32;scalar=64";
    class       Cloud<dsmcParcel>;
    location    "0.01/lagrangian/dsmc";
    object      coordinates;
}
// * * * * * * * * * * * * * * * * * * * * * * * * * * * * * * * * * * * * * //

9444
(
(0.1237315102 0.04548354816 0.3926506968 0.4381342449) 175 287 2
(0.5206333291 0.2396833355 0.2034002522 0.03628308324) 57 55 1
(0.1715057265 0.3047961439 0.1094509929 0.4142471368) 149 1045 1
(0.2172026133 0.3507925069 0.0406061865 0.3913986934) 179 294 2
(0.5533909291 0.02109252268 0.2022120128 0.2233045355) 356 643 2
(0.0627696451 0.4686151775 0.3841187393 0.0844964382) 203 401 1
(0.373034029 0.3134829855 0.2039114962 0.1095714893) 107 153 1
(0.1314645263 0.4093499305 0.4342677369 0.02491780632) 20 38 1
(0.7339852835 0.1330073582 0.1131473403 0.01986001797) 229 449 2
(0.08652678891 0.4234631194 0.4567366055 0.03327348618) 175 343 1
(0.2728303556 0.3635848222 0.1238170719 0.2397677504) 59 58 1
(0.05123637565 0.4743818122 0.4534923364 0.02088947576) 88 174 2
(0.1696993674 0.09953271743 0.4151503163 0.3156175988) 52 104 2
(0.174476844 0.412761578 0.1815761873 0.2311853906) 89 1043 2
(0.1680249292 0.07102578669 0.3449617487 0.4159875354) 24 48 1
(0.07067815406 0.2486725181 0.2159884049 0.464660923) 269 471 2
(0.358661712 0.320669144 0.06726816293 0.2534009811) 419 766 1
(0.4331456566 0.2671328404 0.01629433126 0.2834271717) 297 585 1
(0.7147209746 0.1426395127 0.1391659259 0.003473586769) 54 105 2
(0.7609577645 0.06670158113 0.05281953664 0.1195211178) 178 293 2
(0.2756048961 0.3621975519 0.1366112353 0.2255863167) 171 338 1
(0.05534483588 0.4723275821 0.2537500098 0.2185775722) 59 115 2
(0.885637514 0.04459247558 0.05718124302 0.01258876744) 448 880 1
(0.6625313976 0.1687343012 0.1152802309 0.05345407035) 23 44 2
(0.1654458424 0.4172770788 0.3253005572 0.0919765216) 26 1082 2
(0.473209412 0.263395294 0.08493145815 0.1784638359) 54 108 1
(0.6516211477 0.1625835472 0.1741894261 0.01160587896) 356 699 1
(0.2849814545 0.3575092728 0.02359408998 0.3339151828) 297 585 2
(0.3004168914 0.3497915543 0.1526266701 0.1971648841) 415 818 1
(0.1531938956 0.4234030522 0.4176289378 0.005774114384) 144 226 1
(0.5357823758 0.1393948475 0.09271396463 0.2321088121) 260 454 2
(0.5928199319 0.0855836967 0.203590034 0.1180063373) 76 148 1
(0.3957497483 0.3021251259 0.09672083957 0.2054042863) 84 167 1
(0.7654624387 0.1172687807 0.01847727737 0.09879150329) 28 57 1
(0.2563824955 0.1970274875 0.1747812647 0.3718087523) 239 412 2
(0.3800643151 0.3099678425 0.1964726381 0.1134952043) 178 352 1
(0.4275110722 0.1645904933 0.1216539707 0.2862444639) 179 294 2
(0.2307301864 0.3846349068 0.2614088436 0.1232260632) 22 45 1
(0.5687191683 0.2156404158 0.175512562 0.04012785387) 86 168 2
(0.2199073762 0.02461989054 0.3900463119 0.3654264213) 27 52 1
(0.1509717046 0.2984703067 0.4245141477 0.126043841) 299 589 2
(0.1233339001 0.35703336 0.08129968997 0.4383330499) 20 1076 1
(0.3145308007 0.02561533202 0.3171192676 0.3427345997) 89 1043 1
(0.3357032253 0.1197719824 0.3321483873 0.212376405) 23 44 1
(0.1473409239 0.426329538 0.4152441052 0.01108543283) 49 39 1
(0.08297473667 0.3464127268 0.4585126317 0.1120999048) 170 336 2
(0.1451024988 0.06168298338 0.4274487506 0.3657657672) 88 175 2
(0.5358391704 0.1393208607 0.2320804148 0.09275955407) 85 169 2
(0.1974109413 0.02407437494 0.3772201544 0.4012945293) 266 466 2
(0.9730986673 0.01345066633 0.004937017673 0.008513648661) 44 87 2
(0.2144565021 0.1550161272 0.2377556217 0.3927717489) 131 258 1
(0.4144902806 0.06164556495 0.2927548597 0.2311092948) 178 352 2
(0.3451235427 0.1101602498 0.2172779788 0.3274382286) 266 466 2
(0.5377572285 0.2311213857 0.2037443079 0.02737707784) 140 274 2
(0.4158365656 0.2920817172 0.125069414 0.1670123032) 56 109 2
(0.1478459904 0.4260770048 0.2244012232 0.2016757816) 176 345 2
(0.7132541745 0.1288864455 0.01448646721 0.1433729128) 293 577 1
(0.4506616727 0.03450039803 0.2746691637 0.2401687656) 24 46 1
(0.4865809187 0.2567095406 0.213408879 0.04330066167) 25 1081 2
(0.4365682092 0.2817158954 0.182104012 0.09961188335) 89 174 2
(0.4365878198 0.2817060901 0.06719847127 0.2145076188) 237 465 2
(0.1447660886 0.1656415218 0.4276169557 0.2619754339) 169 331 1
(0.01055820898 0.4947208955 0.3403417301 0.1543791654) 204 400 2
(0.5155924666 0.140859992 0.1013437747 0.2422037667) 57 55 2
(0.03923351393 0.4322266344 0.04815660862 0.480383243) 238 411 2
(0.186767328 0.406616336 0.1595500859 0.2470662502) 146 230 1
(0.1720555632 0.4139722184 0.385373613 0.02859860538) 81 158 2
(0.6327623767 0.1317304481 0.05188836358 0.1836188116) 84 166 1
(0.4895382226 0.2552308887 0.07336719202 0.1818636967) 389 764 2
(0.3491444214 0.3254277893 0.09218217872 0.2332456106) 51 99 2
(0.4483397271 0.2758301365 0.09103472687 0.1847954096) 22 44 2
(0.9100141084 0.04499294582 0.008141097816 0.036851848) 135 267 1
(0.2121789779 0.393910511 0.1152052031 0.2787053079) 145 284 2
(0.08243873497 0.4587806325 0.2288098454 0.2299707871) 266 466 1
(0.1593455341 0.1839594285 0.2363678044 0.4203272329) 357 645 2
(0.009574201437 0.08847065221 0.4952128993 0.4067422471) 55 110 2
(0.2257445838 0.3315608988 0.05556680936 0.3871277081) 114 225 1
(0.8718045143 0.04311408986 0.020983653 0.06409774286) 149 235 2
(0.1175843449 0.4412078276 0.1893567775 0.2518510501) 297 585 2
(0.04324663317 0.3788696001 0.4783766834 0.09950708337) 357 701 1
(0.007001717838 0.3691439102 0.1273552309 0.4964991411) 381 750 1
(0.2377776291 0.1869954365 0.194115749 0.3811111854) 148 234 2
(0.1375091295 0.05876864039 0.3724767949 0.4312454353) 299 1050 1
(0.4682757995 0.09197895352 0.2658621002 0.1738831467) 149 292 1
(0.2381419795 0.3809290102 0.2404852802 0.1404437301) 199 390 2
(0.2808082013 0.1340557096 0.3595958993 0.2255401897) 477 935 1
(0.3339658571 0.3330170714 0.3166683785 0.01634869299) 87 172 2
(0.0314059059 0.4842970471 0.4641482585 0.02014878854) 113 165 1
(0.3478132111 0.3260933945 0.1472690244 0.17882437) 24 46 2
(0.3740383417 0.3129808292 0.2200203748 0.09296045432) 148 290 2
(0.4508771664 0.009945094502 0.2646163223 0.2745614168) 46 91 1
(0.573379522 0.1289702632 0.213310239 0.08433997582) 406 800 2
(0.1398327551 0.1134274114 0.316656211 0.4300836224) 440 808 2
(0.004111051939 0.08780896684 0.4101355072 0.497944474) 29 1085 1
(0.219949834 0.04070526218 0.3493198208 0.390025083) 238 411 2
(0.3894021926 0.3052989037 0.2929260494 0.01237285426) 58 116 1
(0.005025911046 0.4974870445 0.3051498214 0.192337223) 72 142 2
(0.9298436882 0.03224996648 0.03507815588 0.002828189401) 27 52 1
(0.2843228417 0.3496600485 0.3578385791 0.008178530583) 55 107 1
(0.5551769613 0.2224115193 0.1728325022 0.04957901712) 173 283 1
(0.2710458062 0.3644770969 0.2349747308 0.129502366) 107 212 1
(0.4699050827 0.1703479648 0.09469949385 0.2650474586) 234 461 1
(0.03067836818 0.4846608159 0.324291441 0.1603693749) 87 172 2
(0.3063460395 0.3468269802 0.1700417596 0.1767852206) 17 1073 2
(0.4645401858 0.2677299071 0.0926384994 0.1750914077) 116 229 2
(0.2961340361 0.2069777736 0.3519329819 0.1449552083) 85 166 1
(0.6297952927 0.1851023536 0.100550666 0.08455168765) 170 277 1
(0.1724383775 0.4137808113 0.08510143478 0.3286793765) 54 108 1
(0.04529810504 0.4773509475 0.3288782586 0.1484726888) 28 54 2
(0.02093804978 0.1821504623 0.3073805128 0.4895309751) 232 457 1
(0.06688135688 0.4665593216 0.04612746312 0.4204318584) 139 275 1
(0.3665276468 0.3167361766 0.1350746153 0.1816615613) 26 50 2
(0.4265958096 0.131582536 0.2867020952 0.1551195592) 21 40 1
(0.3489999377 0.09058410598 0.2349159252 0.3255000312) 298 529 2
(0.1228703121 0.438564844 0.03375164801 0.404813196) 54 49 1
(0.5262970582 0.03691659161 0.1999348793 0.2368514709) 52 103 1
(0.7598865118 0.1200567441 0.104665918 0.01539082608) 119 233 2
(0.3927648916 0.2686827195 0.3036175542 0.03493483466) 24 49 2
(0.5729892987 0.1649883841 0.2135053506 0.04851696657) 58 116 2
(0.1251022939 0.00981761802 0.427631235 0.4374488531) 115 169 2
(0.4500380931 0.2671337616 0.00784719187 0.2749809534) 174 343 1
(0.1661192221 0.4169403889 0.02928694995 0.387653439) 238 469 2
(0.5378095839 0.04754031475 0.1835548933 0.2310952081) 463 853 2
(0.4367715466 0.1661170822 0.2816142267 0.1154971445) 14 26 1
(0.4031306251 0.2539633037 0.2984346874 0.04447138371) 235 464 2
(0.05766357941 0.4711682103 0.4224816311 0.04868657918) 105 207 2
(0.5338045449 0.2330977276 0.2190045055 0.01409322208) 176 347 2
(0.2968624388 0.3515687806 0.3300118162 0.02155696444) 142 278 2
(0.3691060113 0.06051708499 0.3154469943 0.2549299093) 49 98 2
(0.1608970161 0.02745666501 0.419551492 0.392094827) 28 54 1
(0.3710549718 0.2761496834 0.03832283072 0.3144725141) 170 335 1
(0.4133245447 0.1472047787 0.146132949 0.2933377276) 116 229 1
(0.4286602775 0.1775208809 0.2856698613 0.1081489804) 23 44 1
(0.234106229 0.0362776997 0.3829468855 0.3466691858) 29 58 2
(0.1505684426 0.4247157787 0.04874988244 0.3759658963) 328 646 2
(0.3074573519 0.3462713241 0.126112172 0.220159152) 24 46 2
(0.06861576204 0.1218261276 0.3438659914 0.465692119) 55 51 2
(0.581565691 0.2092171545 0.2069280117 0.002289142748) 262 517 1
(0.03824452354 0.2063005527 0.2745771856 0.4808777382) 198 390 1
(0.5299565794 0.2350217103 0.1689019022 0.06611980812) 144 226 1
(0.0828497263 0.1955773135 0.4585751369 0.2629978234) 79 154 1
(0.6746826649 0.09938597722 0.1626586675 0.06327269032) 20 41 2
(0.3917599891 0.3041200054 0.06685627537 0.2372637301) 144 282 2
(0.6506339669 0.0821518018 0.1746830165 0.09253121474) 178 349 1
(0.1128242324 0.3847347983 0.4435878838 0.05885308547) 294 577 1
(0.168152537 0.1662537413 0.4159237315 0.2496699902) 118 231 1
(0.1531366444 0.1380258233 0.2854058545 0.4234316778) 52 103 1
(0.2671500745 0.2170702394 0.3664249628 0.1493547233) 149 292 1
(0.440734835 0.2796325825 0.02112027065 0.2585123119) 233 457 2
(0.2603449468 0.09766309945 0.2721644272 0.3698275266) 175 287 2
(0.2122560963 0.2099793727 0.3938719518 0.1838925791) 170 336 2
(0.1211101803 0.4394449099 0.4159455845 0.02349932533) 169 331 2
(0.07089710345 0.4645514483 0.4181015126 0.04644993569) 18 1074 2
(0.1444595106 0.3804538425 0.04731640226 0.4277702447) 389 1053 1
(0.07544390889 0.1925379991 0.4622780456 0.2697400464) 86 168 1
(0.5000243144 0.1863062475 0.2499878428 0.06368159525) 80 156 1
(0.358340551 0.3208297245 0.2432879492 0.07754177535) 174 344 1
(0.4300380608 0.116966927 0.2849809696 0.1680140426) 238 467 1
(0.6379681377 0.1810159312 0.07182846121 0.10918747) 108 214 1
(0.6253666737 0.1378361588 0.04948050437 0.1873166631) 354 697 1
(0.9373869664 0.02379884791 0.007507668895 0.03130651681) 55 109 1
(0.128687857 0.1929090794 0.2427469921 0.4356560715) 52 103 1
(0.1721397273 0.004119180555 0.4139301364 0.4098109558) 114 223 1
(0.8816081182 0.05919594091 0.005726240906 0.05346970001) 111 220 1
(0.3354029546 0.05431088615 0.2779876366 0.3322985227) 115 169 2
(0.3765366821 0.311731659 0.09097571141 0.2207559475) 25 1081 2
(0.6334698822 0.1832650589 0.1622304011 0.02103465782) 55 51 1
(0.960743119 0.01962844048 0.01332998568 0.006298454802) 21 40 2
(0.7694710539 0.06555361097 0.0497108621 0.1152644731) 135 208 2
(0.09151849369 0.1945874096 0.2596533436 0.4542407532) 324 580 2
(0.07867206255 0.1809891851 0.2796747837 0.4606639687) 202 340 2
(0.05449427513 0.2146280878 0.2581247746 0.4727528624) 353 695 1
(0.525547075 0.2372264625 0.1898567413 0.04736972123) 50 41 1
(0.03428632353 0.4828568382 0.2043453158 0.2785115224) 110 217 2
(0.09528455114 0.4523577244 0.1625900336 0.2897676908) 21 40 2
(0.2190623207 0.2423928528 0.1480759868 0.3904688397) 138 214 2
(0.1790920861 0.410453957 0.3488923013 0.06156165568) 118 231 2
(0.5268386522 0.2365806739 0.0810547906 0.1555258833) 200 336 1
(0.3134823535 0.1864077786 0.1568510447 0.3432588232) 293 519 2
(0.4449027237 0.2775486381 0.1534128212 0.1241358169) 19 39 1
(0.305842139 0.2302858452 0.1167930853 0.3470789305) 27 54 1
(0.490633727 0.2546831365 0.1068766549 0.1478064816) 89 176 1
(0.6028785964 0.02308661832 0.1754740835 0.1985607018) 85 110 2
(0.141371185 0.4239892032 0.005325204321 0.4293144075) 53 105 1
(0.3928441464 0.2464515683 0.3035779268 0.05712635849) 203 401 2
(0.2150101844 0.3924949078 0.3719336085 0.02056129927) 237 467 2
(0.1681740502 0.172910684 0.2430022909 0.4159129749) 176 347 1
(0.0800065655 0.2144937538 0.2455029634 0.4599967173) 13 26 1
(0.03882938209 0.3205983781 0.480585309 0.1599869309) 84 164 1
(0.6689749961 0.08913180892 0.1655125019 0.07638069302) 25 51 2
(0.5006050935 0.1341591481 0.2496974532 0.1155383051) 112 222 2
(0.0111668083 0.4944165959 0.06818041469 0.4262361812) 110 218 1
(0.07970877446 0.4601456128 0.3845959433 0.07554966945) 27 55 1
(0.2780628943 0.3609685528 0.2882818036 0.07268674921) 165 326 1
(0.2772663501 0.3417278669 0.01963895805 0.3613668249) 28 56 1
(0.05787100619 0.4710644969 0.1910434233 0.2800210736) 169 275 1
(0.2366803374 0.156743827 0.3816598313 0.2249160043) 170 333 1
(0.0001399123414 0.2619668796 0.2379631642 0.4999300438) 25 50 1
(0.1307141857 0.3385251311 0.09611777603 0.4346429072) 234 461 1
(0.1893317645 0.1976866638 0.4053341178 0.2076474539) 119 235 2
(0.4453006242 0.194845967 0.08250372093 0.2773496879) 144 226 2
(0.1704393929 0.4147803035 0.3012482569 0.1135320467) 291 515 1
(0.1617350126 0.1831105806 0.4191324937 0.2360219131) 269 530 2
(0.3580893437 0.1492499906 0.3209553282 0.1717053375) 57 111 1
(0.1917135882 0.2886559215 0.4041432059 0.1154872844) 83 162 1
(0.1720859895 0.3027862736 0.4139570052 0.1111707316) 262 514 1
(0.4751934911 0.1141471571 0.2624032545 0.1482560973) 179 353 2
(0.2805007816 0.3597496092 0.08479178463 0.2749578246) 114 223 2
(0.3999186636 0.1405595601 0.3000406682 0.1594811081) 58 113 1
(0.4235947231 0.2882026385 0.1522057784 0.1359968601) 256 446 1
(0.4173762035 0.009322356091 0.2819895422 0.2913118983) 105 207 1
(0.3782542451 0.2624468393 0.04842603808 0.3108728774) 268 528 1
(0.2588044016 0.3705977992 0.2401851152 0.130412684) 355 700 1
(0.4877174039 0.256141298 0.05220103621 0.2039402618) 291 515 1
(0.3752560874 0.3123719563 0.2860466537 0.02632530255) 173 341 2
(0.4672755935 0.1646603929 0.2663622033 0.1017018104) 89 176 2
(0.4763403542 0.1750267138 0.08680310912 0.2618298229) 116 229 1
(0.5576092925 0.2141492318 0.007046121891 0.2211953537) 87 172 1
(0.2412913897 0.3793543052 0.1176165205 0.2617377847) 235 461 2
(0.118712539 0.4406437305 0.09541388399 0.3452298465) 107 209 2
(0.2213320242 0.3893339879 0.1097196112 0.2796143767) 209 353 1
(0.2618181492 0.3690909254 0.3442667099 0.02482421551) 46 89 2
(0.2375735593 0.1626240049 0.2185892154 0.3812132203) 24 48 1
(0.375385091 0.2689479095 0.3123074545 0.04335954503) 20 41 2
(0.2065787037 0.3967106481 0.04517656711 0.351534081) 260 510 2
(0.2528686425 0.3735656788 0.06953117604 0.3040345027) 21 42 2
(0.03400678754 0.1514025668 0.4829966062 0.3315940394) 323 637 2
(0.4132554774 0.1620010214 0.2933722613 0.1313712398) 136 266 1
(0.5669322015 0.2165338993 0.09083547122 0.125698428) 26 52 2
(0.2939703574 0.2467248817 0.1062899396 0.3530148213) 198 332 2
(0.06510596718 0.4674470164 0.461375673 0.006071343407) 409 806 1
(0.854998533 0.07250073352 0.02828253061 0.04421820291) 136 269 1
(0.6090599294 0.1954700353 0.1490011323 0.04646890295) 297 527 1
(0.4009425408 0.2803097992 0.01921893045 0.2995287296) 23 46 1
(0.6938929447 0.05441400418 0.09863952348 0.1530535277) 355 641 2
(0.3545760515 0.3227119742 0.07368868191 0.2490232923) 19 38 2
(0.07401660703 0.4629916965 0.05985208022 0.4031396163) 84 167 1
(0.4250116248 0.2874941876 0.08555246293 0.2019417247) 82 160 2
(0.7431642703 0.1284178648 0.1134785173 0.01493934754) 26 52 2
(0.3333061674 0.1906710938 0.1426758225 0.3333469163) 207 408 1
(0.1062609285 0.4468695357 0.4140608248 0.03280871092) 268 470 1
(0.3883238925 0.3058380537 0.1640314018 0.141806652) 118 175 1
(0.6681902634 0.1151240581 0.05078081025 0.1659048683) 77 152 1
(0.8351119203 0.04666978906 0.08244403983 0.03577425077) 353 696 2
(0.7422498145 0.1288750927 0.1257093362 0.003165756514) 207 406 2
(0.1134103743 0.3674393037 0.4432948128 0.07585550912) 83 165 2
(0.2215485742 0.3892257129 0.249693084 0.1395326289) 142 222 1
(0.3808009754 0.3095995123 0.08503375705 0.2245657553) 236 465 2
(0.01720916551 0.4913954172 0.07685200366 0.4145434136) 29 1085 2
(0.2766125321 0.3616937339 0.005172776729 0.3565209572) 354 698 1
(0.9440078913 0.004527585256 0.02799605436 0.0234684691) 57 114 2
(0.241143691 0.3794281545 0.01861722276 0.3608109318) 59 115 2
(0.7392169956 0.03112052408 0.1303915022 0.0992709781) 107 212 2
(0.5847428201 0.09258197552 0.1150466144 0.2076285899) 29 1041 1
(0.3197797269 0.3401101365 0.09884174864 0.2412683879) 295 523 1
(0.4476255079 0.2761872461 0.006265781173 0.2699214649) 51 43 1
(0.6339248832 0.1830375584 0.1159183955 0.06711916287) 112 219 2
(0.7685180055 0.05810747123 0.05763352601 0.1157409972) 89 117 2
(0.7567394164 0.1216302918 0.1108099535 0.01082033828) 15 30 2
(0.6158134616 0.127015809 0.06507746016 0.1920932692) 419 1054 1
(0.381696292 0.07985340875 0.309151854 0.2292984453) 263 519 2
(0.178157297 0.1925238435 0.4109213515 0.218397508) 54 105 1
(0.7182880515 0.1408559743 0.1320729336 0.008783040663) 87 114 1
(0.4141977537 0.2929011232 0.1728207802 0.1200803429) 28 1084 2
(0.1819168651 0.06143245612 0.4090415675 0.3476091113) 79 157 2
(0.02824330344 0.2428358611 0.2430424871 0.4858783483) 87 114 2
(0.07386014783 0.2156764478 0.2473934782 0.4630699261) 21 42 1
(0.3484137455 0.3257931272 0.1702329605 0.1555601668) 138 214 1
(0.1025796472 0.4487101764 0.1044163568 0.3442938196) 174 343 2
(0.08646679354 0.4567666032 0.3403811196 0.1163854837) 11 22 2
(0.4960903648 0.04937418013 0.2025806375 0.2519548176) 29 1041 1
(0.175422277 0.2845699063 0.1277189552 0.4122888615) 207 350 2
(0.3582206863 0.3208896568 0.02625632401 0.2946333328) 440 867 1
(0.3128086681 0.3435956659 0.1269081875 0.2166874785) 178 352 1
(0.7196832479 0.140158376 0.09573351827 0.04442485777) 295 581 2
(0.5167619769 0.2416190115 0.002687518503 0.238931493) 148 234 1
(0.00928341902 0.4840536108 0.01130467972 0.4953582905) 136 210 2
(0.5779949724 0.1334253379 0.07757717593 0.2110025138) 146 230 2
(0.1465143213 0.1278880708 0.2988547686 0.4267428393) 233 401 2
(0.003422813084 0.2482766732 0.2500119202 0.4982885935) 117 231 1
(0.1166088093 0.4416955953 0.1067927224 0.334902873) 25 48 2
(0.3479231311 0.1371598906 0.3260384345 0.1888785439) 239 469 1
(0.2568754357 0.1637934954 0.2077687868 0.3715622822) 22 44 1
(0.5042015281 0.04955834602 0.2478992359 0.1983408899) 29 56 1
(0.8391846694 0.08040766531 0.06371405281 0.0166936125) 22 45 1
(0.2593892314 0.3069380802 0.3703053843 0.06336730414) 114 223 1
(0.7541455895 0.1229272053 0.05731415494 0.06561305034) 388 762 2
(0.3048555019 0.347572249 0.2657378537 0.08183439534) 143 280 2
(0.5312761394 0.04249930125 0.2343619303 0.1918626291) 113 224 2
(0.5549617024 0.2225191488 0.1872696697 0.03524947912) 239 471 1
(0.2892201133 0.3553899434 0.3409721482 0.01441779518) 28 54 2
(0.04822255565 0.2303090182 0.4758887222 0.245579704) 175 346 2
(0.2797147638 0.3601426181 0.197904653 0.1622379651) 145 228 1
(0.5189839337 0.2405080332 0.09565192778 0.1448561054) 51 102 1
(0.02633028695 0.08522006094 0.4016147956 0.4868348565) 291 515 2
(0.3022507 0.04865886798 0.300215782 0.34887465) 83 164 1
(0.1655664837 0.4172167581 0.04737148442 0.3698452737) 294 580 1
(0.09441942192 0.08705360796 0.3657366811 0.452790289) 57 113 1
(0.685458174 0.08880627039 0.06846464259 0.157270913) 23 46 1
(0.256011121 0.2916968178 0.08029762173 0.3719944395) 146 288 1
(0.3243645432 0.3378177284 0.1464422417 0.1913754867) 86 112 1
(0.05513385499 0.1313833357 0.3410497368 0.4724330725) 15 1071 1
(0.1878748174 0.3437933697 0.4060625913 0.06226922166) 19 39 2
(0.7849440712 0.08307855711 0.1075279644 0.02444940727) 81 161 2
(0.02354272474 0.4882286376 0.4851564424 0.003072195211) 358 705 2
(0.3301071817 0.03697436196 0.2979720472 0.3349464091) 86 112 2
(0.6212930885 0.08416752717 0.1893534558 0.1051859286) 179 351 1
(0.5086537125 0.07221047823 0.1734626655 0.2456731438) 145 228 2
(0.1068594507 0.1725663303 0.4465702746 0.2740039443) 263 516 1
(0.07203447374 0.4639827631 0.455673475 0.008309288134) 148 292 2
(0.3346931568 0.3326534216 0.300723879 0.03192954265) 145 284 2
(0.08120542148 0.4593972893 0.2493339089 0.2100633804) 207 350 1
(0.5678017002 0.2160991499 0.07341951577 0.1426796341) 112 221 2
(0.09017445654 0.4549127717 0.3775583209 0.07735445084) 107 212 1
(0.0135768535 0.3337523101 0.4932115732 0.1594592631) 139 275 2
(0.2281659761 0.3859170119 0.1294512453 0.2564657667) 147 288 2
(0.07858131098 0.4607093445 0.220936963 0.2397723815) 144 285 1
(0.8118935522 0.07491134033 0.01914188356 0.09405322389) 294 521 2
(0.2176366254 0.3911816873 0.3143389682 0.0768427191) 112 219 2
(0.6673231031 0.1663384485 0.1340672022 0.03227124624) 27 1083 2
(0.09695668743 0.4515216563 0.1355476293 0.315974027) 145 284 2
(0.1709908294 0.4145045853 0.0678252507 0.3466793346) 28 56 2
(0.07320674943 0.3605504997 0.1028461256 0.4633966253) 20 40 1
(0.1955276682 0.4022361659 0.3239452954 0.07829087045) 18 36 2
(0.03433968331 0.1701341113 0.4828301583 0.312696047) 356 702 2
(0.9035992128 0.0005783912846 0.04820039359 0.04762200231) 58 113 1
(0.2001527729 0.3999236135 0.1479609539 0.2519626596) 118 175 1
(0.4438752202 0.2444155974 0.03364679244 0.2780623899) 205 346 2
(0.1132638631 0.4433680685 0.2306564535 0.212711615) 284 501 1
(0.485779303 0.09459638216 0.2571103485 0.1625139663) 86 168 1
(0.6431669952 0.02790835136 0.1784165024 0.1505081511) 87 173 2
(0.776352738 0.111823631 0.07971112147 0.03211250953) 85 168 2
(0.238519237 0.1867102476 0.3807403815 0.1940301339) 50 100 2
(0.4064929473 0.2967535264 0.1546947152 0.1420588111) 266 524 2
(0.5419309902 0.2290345049 0.09220039465 0.1368341102) 25 51 1
(0.2082103965 0.3958948017 0.01744422515 0.3784505766) 386 758 2
(0.1219501079 0.4389198858 0.4390249461 0.0001050602776) 237 468 2
(0.4006353823 0.02797870665 0.2996823088 0.2717036022) 239 469 1
(0.003106907141 0.4984465464 0.4330150593 0.06543148716) 175 287 1
(0.02287753354 0.3133379434 0.1752232898 0.4885612332) 230 453 1
(0.3978616538 0.3010691731 0.2971746741 0.003894499031) 206 406 2
(0.6659281417 0.1491318003 0.1670359292 0.01790412887) 108 214 2
(0.5356760684 0.2003284727 0.03183349317 0.2321619658) 83 164 1
(0.1781775411 0.4031661519 0.00774507757 0.4109112294) 14 1070 1
(0.3485521748 0.3257239126 0.1245968046 0.201127108) 174 343 2
(0.04831241955 0.4758437902 0.161785766 0.3140580243) 385 756 2
(0.3359399103 0.09435369061 0.2376763543 0.3320300449) 171 337 1
(0.6350542566 0.1824728717 0.02278213266 0.1596907391) 239 412 1
(0.05514496193 0.472427519 0.3117549575 0.1606725615) 476 935 2
(0.1226977776 0.4386511112 0.2099151643 0.2287359469) 58 115 2
(0.3960121707 0.3019939147 0.167840399 0.1341535157) 116 227 2
(0.4887034412 0.2556482794 0.09090538391 0.1647428955) 86 170 2
(0.8086994843 0.03183216948 0.06381808836 0.09565025784) 118 233 1
(0.03476204189 0.0196842145 0.4629347645 0.4826189791) 75 148 1
(0.5647465823 0.2005733466 0.01705336226 0.2176267088) 325 640 1
(0.667756321 0.0205523723 0.1455694672 0.1661218395) 114 225 1
(0.5163879197 0.1588181875 0.2418060401 0.08298785266) 201 397 2
(0.6038116954 0.07798568686 0.1201084654 0.1980941523) 84 166 1
(0.2760611158 0.2711531695 0.3619694421 0.09081627263) 260 513 2
(0.0619532357 0.4690233821 0.2493290591 0.219694323) 118 175 1
(0.7665321408 0.02519071755 0.1167339296 0.09154321207) 178 349 1
(0.02115494521 0.4894225274 0.104254958 0.3851675694) 115 228 1
(0.2023863812 0.1300090202 0.2687977892 0.3988068094) 29 1041 1
(0.0666272335 0.4666863833 0.3132806055 0.1534057778) 82 104 1
(0.5312545113 0.2343727444 0.1227223648 0.1116503796) 83 162 2
(0.1170320075 0.4414839963 0.363671736 0.07781226025) 85 168 2
(0.1831237566 0.4084381217 0.1891977887 0.219240333) 264 462 1
(0.4029006029 0.2985496985 0.01150235401 0.2870473445) 359 1052 2
(0.1764763613 0.4117618193 0.05264116299 0.3591206564) 21 1077 2
(0.7828646517 0.02495883452 0.1085676742 0.08360883965) 115 225 1
(0.2994902935 0.05554996647 0.3502548532 0.2947048868) 148 290 1
(0.314576955 0.07461778785 0.2680937346 0.3427115225) 55 51 2
(0.5991143996 0.1203228875 0.2004428002 0.08011991273) 80 159 2
(0.02866824353 0.4856658782 0.1585181084 0.3271477699) 56 112 1
(0.4680813463 0.2659593269 0.1986255473 0.06733377959) 269 1049 2
(0.1557979198 0.09570116574 0.4221010401 0.3263998743) 178 349 1
(0.4694494901 0.2532689179 0.01200633709 0.265275255) 132 202 2
(0.7202963456 0.06606357969 0.07378824749 0.1398518272) 357 703 1
(0.6103342648 0.1948328676 0.14392191 0.05091095758) 72 140 2
(0.3001229028 0.2169122324 0.1330263162 0.3499385486) 73 86 2
(0.4444322497 0.2777838751 0.1744316747 0.1033522004) 51 102 1
(0.05313853935 0.2287318483 0.4734307303 0.2446988821) 419 823 1
(0.08292169149 0.4585391543 0.01301920075 0.4455199535) 57 55 1
(0.04989252996 0.475053735 0.153666864 0.321386871) 45 31 1
(0.9262046328 0.02710051879 0.009797164831 0.03689768362) 97 191 1
(0.3070633438 0.04956055309 0.3464683281 0.296907775) 117 229 1
(0.4027325226 0.2986337387 0.1686498584 0.1299838802) 50 97 2
(0.2547867613 0.04147369026 0.3311329291 0.3726066194) 82 104 2
(0.6128292054 0.08500535013 0.1935853973 0.1085800472) 231 456 2
(0.4004979584 0.2997510208 0.04443973135 0.2553112895) 133 262 2
(0.6766376973 0.1616811514 0.1471490718 0.01453207953) 21 1077 2
(0.1309046012 0.4345476994 0.3532890469 0.08125865252) 44 29 1
(0.3159514049 0.3420242975 0.209870352 0.1321539455) 149 294 1
(0.1491911923 0.335230955 0.4254044038 0.09017344883) 74 147 2
(0.2034128574 0.2351610674 0.1631325039 0.3982935713) 141 220 2
(0.06470556847 0.4676472158 0.02454885564 0.4430983601) 143 282 2
(0.07440033658 0.4627998317 0.438085639 0.02471419275) 298 529 1
(0.09695767808 0.451521161 0.3642931867 0.08722797425) 81 161 1
(0.1583637052 0.4208181474 0.005729982887 0.4150881645) 21 42 2
(0.5057459993 0.2471270003 0.07522339577 0.1719036046) 349 685 2
(0.402999001 0.203263137 0.2985004995 0.09523736253) 80 156 1
(0.3921790464 0.0123867683 0.3039104768 0.2915237085) 81 158 1
(0.1674069392 0.4162965304 0.3512666401 0.06502989027) 296 525 1
(0.1006222685 0.257987827 0.1917010387 0.4496888658) 234 461 1
(0.4186994073 0.1488400502 0.1418102461 0.2906502963) 177 349 1
(0.2852703394 0.1639095387 0.3573648303 0.1934552917) 117 232 2
(0.4678133583 0.2561358667 0.2660933209 0.009957454213) 45 87 1
(0.2250446946 0.06137754747 0.3261001052 0.3874776527) 294 579 1
(0.1692081887 0.008273372879 0.4071225328 0.4153959057) 14 1070 1
(0.2691617538 0.2894903453 0.07592877782 0.3654191231) 104 205 1
(0.3674798595 0.3162600702 0.2261730746 0.09008699566) 418 765 1
(0.2840067232 0.2663687649 0.09162787351 0.3579966384) 294 579 1
(0.2837378639 0.1385892509 0.358131068 0.2195418171) 27 55 2
(0.5363373318 0.2318313341 0.05458459911 0.177246735) 17 1073 2
(0.4992652463 0.05845192591 0.1919154509 0.2503673768) 410 749 2
(0.1633736706 0.2725887871 0.1457243777 0.4183131647) 162 261 2
(0.03266724063 0.4736857721 0.009980607632 0.4836663797) 78 154 1
(0.4312660195 0.2843669903 0.04512254553 0.2392444447) 389 707 1
(0.3748053112 0.1177650564 0.3125973444 0.194832288) 15 31 2
(0.1122758436 0.2757860182 0.4438620782 0.16807606) 173 342 2
(0.1889115698 0.0828795324 0.3226646827 0.4055442151) 22 1078 1
(0.3843068539 0.09932659445 0.2085199786 0.307846573) 29 1041 1
(0.7430455775 0.1232820077 0.1284772112 0.00519520355) 21 43 2
(0.07994756514 0.01801865967 0.4600262174 0.4420075578) 115 228 2
(0.04677640582 0.4766117971 0.4608937947 0.01571800241) 59 115 2
(0.3352468738 0.3202094766 0.3323765631 0.01216708647) 81 158 1
(0.1367502541 0.1428996149 0.2887252581 0.431624873) 267 526 1
(0.6913490067 0.09178879308 0.1543254967 0.06253670359) 173 339 1
(0.2040394886 0.0517678257 0.34621243 0.3979802557) 232 399 2
(0.5071950733 0.2464024633 0.01317669849 0.2332257649) 78 152 2
(0.585223017 0.1702088457 0.2073884915 0.03717964576) 70 136 1
(0.4506041477 0.2746979261 0.05444388587 0.2202540403) 78 155 1
(0.5524817483 0.05548177317 0.2237591258 0.1682773527) 22 42 1
(0.09536413806 0.452317931 0.05662531466 0.3956926163) 88 116 1
(0.1388773395 0.4305613303 0.1293402493 0.3012210809) 47 93 2
(0.4886013885 0.2555184882 0.2556993058 0.0001808175382) 51 99 1
(0.1511285147 0.01802139718 0.4064143455 0.4244357427) 82 162 1
(0.1827006148 0.4086496926 0.33672847 0.07192122256) 18 34 2
(0.03691435975 0.2475615206 0.4815428201 0.2339812996) 13 27 2
(0.01456385345 0.4927180733 0.440586586 0.05213148733) 47 94 1
(0.198051809 0.3470537263 0.4009740955 0.05392036914) 109 216 2
(0.1504892464 0.3903711481 0.4247553768 0.03438422871) 99 196 2
(0.1514247169 0.4242876416 0.09224101697 0.3320466246) 84 164 2
(0.6051472918 0.1974263541 0.02027690376 0.1771494504) 46 33 1
(0.01922776829 0.4903861159 0.1740206492 0.3163654667) 346 681 2
(0.1273940437 0.4363029781 0.3860816905 0.05022128769) 358 647 1
(0.6941091699 0.1134849261 0.03946048895 0.1529454151) 50 41 2
(0.03480092328 0.4825995384 0.323552926 0.1590466124) 53 106 1
(0.367989499 0.07874500228 0.2372602482 0.3160052505) 329 1051 1
(0.5016770865 0.2491614568 0.1649476136 0.08421384315) 165 326 1
(0.3025938213 0.1593650492 0.1893380401 0.3487030893) 26 52 1
(0.4040226767 0.2979886616 0.2547140249 0.04327463672) 356 701 2
(0.7088754828 0.1041429873 0.04141927129 0.1455622586) 22 1078 1
(0.3803054677 0.3098472661 0.2325127096 0.07733455656) 56 53 1