/*--------------------------------*- C++ -*----------------------------------*\
| =========                 |                                                 |
| \\      /  F ield         | OpenFOAM: The Open Source CFD Toolbox           |
|  \\    /   O peration     | Version:  2406                                  |
|   \\  /    A nd           | Website:  www.openfoam.com                      |
|    \\/     M anipulation  |                                                 |
\*---------------------------------------------------------------------------*/
FoamFile
{
    version     2.0;
    format      ascii;
    arch        "LSB;label=32;scalar=64";
    class       scalarField;
    location    "0.01/lagrangian/dsmc";
    object      Ei;
}
// * * * * * * * * * * * * * * * * * * * * * * * * * * * * * * * * * * * * * //


9444
(
8.657679182e-21
6.030922797e-21
2.226152786e-21
3.056252878e-21
5.860942051e-23
8.328322527e-21
1.896251513e-21
1.336252354e-20
1.760901494e-20
7.41792641e-21
1.598634656e-20
5.399976235e-21
1.212194223e-22
1.216452674e-20
2.197702162e-21
1.676946161e-21
6.24924453e-21
1.099793378e-20
3.528012047e-21
1.240597312e-20
4.619953357e-20
4.235011853e-21
3.009108329e-21
1.458575905e-21
1.841296192e-20
2.322497837e-21
9.884777246e-21
1.777729744e-20
6.804775008e-21
1.039665038e-20
3.101039943e-20
9.492598277e-21
1.804700002e-20
3.573483195e-20
9.118702918e-21
8.808330481e-21
5.487224953e-21
3.007443243e-20
1.601867078e-20
2.752951285e-21
8.941813927e-21
4.623510796e-21
3.931629675e-21
1.236351021e-21
1.133268264e-21
2.305319626e-22
4.796302664e-21
4.788418359e-20
1.71637165e-20
2.52100319e-20
1.058228635e-20
2.794577181e-21
1.417065237e-20
4.601555447e-22
1.458701678e-20
1.992254982e-20
1.919175826e-20
2.39657189e-21
2.503304794e-20
2.212173066e-21
1.565412719e-20
1.667301848e-20
3.862058037e-20
3.240621948e-21
7.406048449e-22
2.972904592e-21
8.770219472e-21
2.745132746e-20
2.828686657e-20
9.016397705e-21
3.760515714e-20
1.766255563e-20
6.502704544e-21
3.462957212e-20
4.832685662e-21
2.665030966e-21
2.406281729e-20
8.734953628e-21
6.50873151e-21
1.295664369e-20
8.845091155e-21
7.823546067e-21
2.578210896e-22
9.68382295e-21
7.867087929e-22
6.214058341e-22
9.037306387e-21
6.822868219e-21
7.296590713e-21
4.927974411e-21
6.99659328e-22
1.797396672e-20
2.409870457e-20
1.296309067e-20
6.208343202e-21
5.176572152e-21
3.494406658e-20
4.96411945e-22
1.080043566e-20
1.282780004e-20
1.062741136e-20
1.56383418e-20
4.674981967e-21
4.161175112e-21
7.032698072e-21
2.430653313e-21
2.809826914e-21
1.047980934e-20
4.083197306e-21
1.613676852e-21
1.260026739e-20
5.963768737e-21
5.732440815e-21
3.528837416e-21
9.335825639e-21
2.970859352e-22
1.096629138e-20
1.610004354e-20
5.325091238e-23
1.083696336e-21
1.594483304e-20
2.196076912e-20
2.159158807e-20
1.676623273e-20
9.890548883e-21
2.375101747e-21
8.222817623e-22
3.120167188e-21
1.548130063e-20
1.659884894e-21
5.394896723e-21
8.998824344e-22
1.966606756e-21
1.162272863e-20
2.594815369e-21
1.071788891e-21
1.314836853e-20
2.119968479e-20
1.491119295e-21
5.71662942e-21
7.025142789e-21
1.026450891e-20
5.541691902e-21
9.979586686e-21
1.552488364e-20
4.497442655e-21
3.095091532e-24
7.863901741e-21
1.198571991e-20
8.77354928e-22
2.308382963e-21
3.174763173e-20
5.208911198e-21
5.8824183e-20
1.292271897e-20
3.14142244e-21
3.257560988e-20
8.959896687e-21
3.925589594e-21
3.838515564e-21
3.313107081e-22
2.647381455e-21
9.981193026e-21
5.955671981e-22
1.027499183e-20
8.580430873e-23
5.616152333e-21
3.373422474e-21
8.71009993e-21
5.304189869e-21
1.21437271e-21
9.392580208e-21
4.194790495e-22
7.667243383e-21
1.526236517e-20
5.697178444e-22
3.160939484e-21
8.017160421e-21
3.260758867e-20
1.81656664e-21
2.277401149e-21
8.755635751e-21
1.836170442e-21
8.030209127e-21
1.295556379e-20
5.999845342e-21
3.1237653e-21
6.385077069e-21
8.379277627e-22
1.168804912e-20
4.379140652e-21
9.317953667e-21
1.218776973e-20
6.324951292e-21
7.145833272e-21
1.95044289e-20
1.386517014e-20
5.50576913e-21
5.872103133e-20
1.315785589e-20
1.476957311e-21
9.917439016e-21
2.716788572e-21
6.450124863e-21
9.403580545e-22
1.523347166e-20
8.158154393e-21
1.654969937e-21
4.904076311e-21
1.239836313e-20
3.078366045e-20
5.394803083e-21
1.224430265e-21
1.177127096e-20
3.661810206e-20
1.289718274e-20
4.323821748e-21
1.499517889e-20
1.232570674e-20
6.240964684e-21
9.781930936e-21
1.775915085e-20
3.376450366e-21
5.32864622e-21
4.044715688e-21
1.719213003e-21
1.230774098e-20
3.112078287e-23
1.176006982e-20
3.623356858e-20
2.970364573e-21
7.406762738e-22
8.970582172e-21
1.975033226e-20
1.651227766e-20
1.671995921e-20
1.817360379e-21
8.085785634e-23
1.583305647e-21
2.86637654e-20
1.844748769e-20
2.408618054e-21
1.066620679e-20
3.99349583e-20
7.444395914e-21
3.965472326e-21
1.999557848e-20
2.824818841e-20
9.534273172e-21
4.481830722e-21
1.443705747e-20
4.004560536e-21
6.626096194e-21
5.820181183e-21
1.411538592e-20
9.650732558e-21
2.909947893e-20
6.089536773e-21
2.233200631e-21
7.224660267e-21
3.123148457e-20
1.896418515e-20
1.319842333e-20
1.420832899e-22
6.666779985e-21
1.255107281e-20
1.749544644e-20
3.469994277e-21
2.154912553e-21
3.207606829e-21
8.349119985e-22
1.724124072e-21
8.646282532e-22
6.102530749e-21
1.435772861e-20
1.834073176e-22
1.870022174e-20
1.204924894e-20
1.762377121e-20
2.855551659e-21
2.230827745e-20
5.207860134e-21
1.946388107e-21
1.0636334e-20
9.571324204e-22
3.191051267e-21
2.068044198e-21
1.511890377e-20
1.584399546e-21
1.995201074e-22
1.408021605e-20
1.261706167e-20
6.045325796e-21
1.196751344e-20
3.062435932e-20
7.447702032e-21
2.384912281e-22
2.060943118e-21
1.887137441e-21
1.08646582e-21
4.056458488e-21
5.047156757e-22
1.041238566e-21
3.091660368e-21
8.196177404e-21
8.352945632e-21
1.430268789e-21
7.153479373e-21
2.98359572e-21
2.100492697e-20
2.370941387e-21
8.900162424e-21
4.202740846e-21
2.455722186e-21
2.704315508e-20
2.831610433e-20
8.926590705e-21
1.49067355e-21
2.030209821e-20
4.07745314e-21
1.456368489e-20
3.294456999e-21
4.829685126e-21
4.82953568e-21
9.859064095e-23
5.779060776e-21
8.629231828e-20
1.843678997e-20
5.363857574e-21
2.813190704e-20
1.517257531e-21
1.752282279e-21
8.136955945e-21
3.784811185e-21
1.604226241e-20
8.148245165e-21
2.128299478e-20
1.073242323e-20
3.344185335e-20
3.993811244e-20
3.295330712e-21
2.25568485e-20
3.934502038e-22
8.566429169e-21
1.328316794e-21
9.099549461e-21
3.610681718e-20
1.385252614e-20
3.063050546e-21
4.446243979e-21
2.375489379e-21
1.966583682e-20
8.308331562e-22
9.673966188e-21
4.625090543e-21
1.26050975e-20
3.640520145e-21
5.394524493e-20
1.109738237e-20
2.114919912e-21
1.874820006e-20
5.572027087e-21
1.601218598e-20
6.947603918e-21
2.631922905e-20
1.15047833e-20
1.678701423e-20
2.337646165e-20
1.997930917e-21
5.34828405e-21
3.533436968e-21
7.083670274e-21
4.236589894e-21
1.259077782e-20
1.577103244e-20
2.616881168e-21
1.462005013e-20
7.996825612e-22
1.846998433e-21
2.866279022e-20
4.359491119e-20
1.438136905e-20
2.06636744e-21
8.751070729e-21
2.651365008e-20
1.590490311e-21
2.019689111e-20
9.678301766e-21
6.433711438e-21
3.86702558e-22
2.99792453e-21
1.494975289e-21
1.001072487e-20
1.613312158e-20
8.87715857e-21
1.188193562e-20
1.206071729e-20
1.49290885e-20
3.304863321e-22
5.061212549e-21
2.772338182e-20
3.442570557e-21
9.603952105e-21
3.425306795e-20
1.987550632e-22
1.968352105e-20
3.091936301e-20
2.358652923e-21
9.646985437e-22
5.793337718e-21
2.456529702e-20
7.705423499e-21
3.30618727e-20
1.75981861e-21
2.489745018e-21
8.462603739e-21
9.980434592e-21
1.568578241e-20
4.088536116e-21
1.929384275e-20
1.16167279e-20
1.489994224e-20
5.374875758e-21
3.392976812e-21
1.049101899e-20
7.570778575e-21
3.368811182e-21
1.174012912e-20
7.615136217e-21
4.611823579e-20
8.138176355e-21
2.035917657e-22
1.495724968e-20
3.842818319e-21
8.42509135e-21
1.067135135e-20
2.495478581e-21
5.529210021e-21
1.144779346e-20
4.010159502e-21
1.601746443e-20
2.699625176e-20
1.294157239e-20
2.207605643e-20
1.625518815e-21
2.749284633e-21
1.496869676e-20
8.199625151e-22
2.292517026e-20
1.396151314e-20
1.869312556e-20
1.831844857e-20
2.337347491e-21
9.865200513e-21
1.46761244e-21
7.349417599e-22
2.745571125e-21
2.784202782e-21
2.01381045e-20
1.138979405e-20
7.515047754e-21
2.004096522e-20
1.538739518e-20
2.304195957e-23
7.324345749e-22
7.961866534e-22
5.036429719e-21
7.685831065e-21
3.674248404e-21
3.44414186e-21
2.123812808e-21
5.010088819e-20
3.089605849e-20
5.476314933e-21
7.326237958e-21
1.179137079e-20
1.064633312e-20
8.043917508e-22
2.334215426e-20
1.053064212e-20
1.696728311e-21
3.581925049e-20
5.435368672e-21
7.526455542e-21
7.205815575e-21
1.258470392e-20
3.829656942e-21
6.27732744e-21
5.514958443e-21
1.293722571e-20
1.709556508e-20
2.791114748e-21
7.037572785e-21
1.55215088e-21
2.966554616e-20
7.705732435e-21
2.296114118e-20
3.434892922e-21
9.75602476e-21
1.284589232e-20
4.592458916e-22
2.514853413e-20
3.13114019e-21
1.84571071e-20
7.740107669e-21
1.030353324e-20
1.598246156e-21
3.282990196e-20
5.681539429e-21
2.521301083e-21
5.902343204e-21
3.174810576e-21
1.284098739e-20
2.89416009e-20
4.086773633e-21
9.150133097e-21
3.783627717e-21
1.502618721e-20
2.68130359e-22
2.236658818e-21
1.094258612e-20
3.753819198e-20
3.739786146e-21
6.088154258e-22
5.308931773e-21
1.662964126e-20
5.909796617e-21
4.471882182e-20
6.139145913e-21
2.705597922e-20
1.299766107e-20
2.872046939e-21
2.273030761e-21
1.8715304e-21
1.510041069e-20
1.077324293e-21
1.208345289e-20
4.190748929e-21
1.98883685e-22
2.082036401e-21
1.562132728e-21
2.411215405e-20
3.128113401e-21
3.869823061e-21
3.366211972e-21
1.667861642e-21
1.122974234e-20
1.510538859e-20
1.215549828e-20
2.965094415e-20
9.128004176e-21
6.642419385e-21
2.219191292e-20
1.082876746e-20
8.192071794e-22
3.58860051e-21
2.395673768e-20
1.202020753e-22
1.288819271e-20
4.418887157e-21
1.642069917e-21
1.257258665e-20
3.045435201e-21
2.207656246e-21
9.846122612e-21
1.663908837e-20
3.030878951e-21
3.931091773e-21
4.600146344e-21
1.315891694e-20
5.689084209e-20
9.127075397e-21
1.18874651e-20
8.602672673e-22
4.910886361e-20
1.612896586e-20
9.176546394e-21
5.336566728e-21
5.132644878e-21
6.276748177e-21
2.06877445e-20
3.441353015e-20
6.52389671e-21
9.084974266e-21
1.166585935e-20
7.648996982e-21
7.946264312e-22
1.13443467e-20
1.876371511e-21
4.039089255e-21
2.321283239e-20
4.776872665e-22
3.593294695e-21
1.357808553e-21
5.350727259e-21
1.45959808e-20
7.931132657e-21
1.420281338e-20
1.300284023e-20
3.062323592e-22
7.543404291e-21
3.768323885e-20
1.13671865e-20
1.074795073e-20
2.25407537e-21
4.157027217e-20
3.180077108e-20
2.974842492e-21
9.027850197e-21
2.123522115e-20
1.338237396e-20
4.628719309e-21
1.136910437e-20
1.030471007e-20
5.412393845e-21
4.394801022e-21
8.219825159e-21
2.372750925e-20
9.496778052e-21
3.227191164e-21
2.448340403e-22
8.101461035e-21
6.764986724e-22
4.728036049e-21
1.56386574e-20
4.923293971e-21
3.969657576e-22
1.474430875e-20
1.103196914e-20
1.552173784e-22
1.17028927e-20
1.395707465e-20
9.518491955e-21
8.817030444e-22
4.487537397e-21
6.686693121e-22
1.967106973e-20
1.095651782e-20
1.171415393e-21
1.347612418e-20
8.616692943e-21
1.573703267e-20
3.543220211e-20
9.232784297e-21
3.301918948e-21
1.582305652e-21
2.68145585e-21
2.781370958e-20
9.352746829e-21
6.250867567e-21
1.886640297e-20
1.304444982e-20
2.679938967e-20
1.912707244e-21
1.400447245e-20
3.453718806e-23
7.315405399e-21
4.478958866e-21
2.385715621e-21
1.377227683e-20
7.682505002e-21
4.851549352e-21
6.244722123e-22
1.343990955e-21
1.063863901e-20
1.338120736e-20
3.411223018e-21
5.19403915e-21
3.031297877e-21
7.920033631e-21
9.545744819e-21
2.880888725e-20
5.002830495e-20
8.445360502e-21
2.373985425e-20
1.938302845e-20
3.205779031e-21
5.968645124e-21
1.258161843e-20
2.509237803e-20
1.223714603e-21
6.012316073e-20
2.559195253e-20
8.587827156e-21
1.02038518e-20
4.347110705e-21
9.940815971e-21
6.194421298e-21
2.811801965e-20
2.17039712e-20
8.012452271e-21
7.582682826e-21
1.595732865e-20
3.375109173e-20
1.21862562e-20
2.76269425e-21
3.287424888e-20
1.521690318e-20
1.376139133e-20
3.357703589e-21
8.548095835e-21
1.29806063e-20
7.851981389e-22
1.287208747e-20
1.170900253e-20
2.402073653e-21
1.656002198e-20
4.913038246e-21
4.224028654e-21
5.557279656e-20
1.410088787e-20
2.248183249e-21
1.283581147e-20
8.155866054e-21
1.668967322e-20
8.848483293e-21
7.215024954e-21
1.17218804e-22
3.89035042e-20
2.006016224e-20
2.650049056e-20
5.664600529e-22
3.242057798e-20
3.078706873e-20
4.748330581e-21
2.999397457e-21
3.558930763e-20
1.283392025e-20
1.077981112e-20
3.519729421e-21
4.771111215e-21
3.976645402e-21
6.221047205e-21
5.265148705e-21
2.056655143e-20
4.545834018e-20
5.047858955e-20
8.313651931e-21
7.140039723e-22
1.196184424e-21
6.210058688e-22
1.224611362e-21
1.407521888e-20
2.828368439e-22
2.075635296e-21
5.067231435e-21
7.096916281e-21
2.851633887e-21
1.825888446e-20
7.265275875e-21
7.957683345e-21
1.313100004e-20
2.533680864e-20
8.549059408e-21
9.515120508e-22
6.288308195e-21
6.424166116e-21
1.509310644e-20
1.561948632e-20
2.677248358e-20
7.001829284e-21
3.2159512e-21
3.848539684e-21
4.602415606e-21
2.534464995e-20
2.04714862e-23
1.978772247e-20
3.138463198e-20
1.119180146e-20
6.277144315e-21
9.173437679e-21
2.063841476e-21
3.045021281e-21
1.363573822e-20
3.093020972e-22
2.016409893e-20
1.610897946e-20
3.018457817e-21
5.020184748e-21
2.689599205e-21
2.96459251e-20
3.273517045e-21
4.042744326e-21
8.677951302e-21
8.654926546e-21
3.019707693e-21
7.382243338e-21
2.355956269e-21
1.801708204e-20
2.877086415e-20
3.216165809e-23
4.888307976e-21
8.373464108e-22
5.366585516e-21
2.734115421e-21
3.392798255e-21
4.12725739e-21
8.836676846e-23
6.885803656e-22
5.390516577e-20
2.144310943e-21
9.744527011e-21
4.084586768e-21
8.520757536e-21
1.08004563e-20
7.765675558e-21
8.262886754e-21
2.797141937e-21
1.285889432e-20
3.998086694e-20
3.031590061e-20
6.223038344e-21
6.337645782e-21
1.250804707e-20
9.65926461e-21
6.648098841e-22
3.262318616e-21
6.568358353e-22
2.301626585e-20
3.980574751e-21
6.465896269e-21
2.055046129e-21
1.651485285e-20
2.67690877e-22
9.602819457e-22
2.326993888e-22
4.258789577e-21
1.266629709e-20
2.847385955e-20
8.447085041e-21
3.003933107e-21
6.413997009e-21
8.866174249e-21
1.145432159e-21
3.388695981e-20
2.567113333e-20
1.303058882e-21
1.118697354e-21
1.801418992e-20
1.735421499e-20
9.784233619e-21
1.884248891e-20
1.426065758e-20
4.466452598e-22
4.640442022e-21
1.573199478e-20
2.355648742e-21
2.693328077e-21
3.156486205e-21
2.916280482e-21
1.525146297e-20
1.45258341e-21
6.052193255e-21
2.18146752e-21
1.304686691e-21
6.736090693e-21
2.957232232e-21
3.615254634e-22
2.324839963e-20
3.975421689e-21
9.988514241e-21
3.757120888e-21
1.772340296e-21
2.930803065e-21
1.613624872e-20
1.812170848e-21
3.486510467e-21
4.041144741e-21
2.888740603e-20
3.814776398e-21
7.298173039e-21
6.765363564e-21
4.3238472e-20
2.000529051e-20
3.079868939e-20
6.009030016e-22
6.205689618e-22
4.986547599e-21
1.227333089e-20
3.852351924e-21
5.569394469e-20
5.118094091e-21
2.236329919e-21
4.967050816e-21
1.718352507e-20
4.120553921e-20
1.619307597e-21
2.706629792e-20
7.332751028e-21
1.993530498e-20
1.004252475e-20
8.492149198e-21
1.142755185e-20
1.238125897e-21
3.582751519e-21
6.041201928e-21
1.147484291e-20
6.404005192e-21
8.788664878e-21
5.552452295e-21
1.059885903e-20
6.410511447e-23
1.899441684e-21
1.132864466e-23
4.713685403e-20
4.088176239e-21
1.433269804e-20
2.938407185e-20
5.314998411e-21
1.134039769e-21
8.899666899e-21
1.282119836e-21
2.901305786e-21
3.281291289e-20
2.198673851e-20
1.950416068e-21
1.469087936e-21
1.151502453e-21
9.839497801e-21
5.649694601e-21
1.691348955e-20
2.536538347e-21
1.010470553e-20
1.875568638e-20
9.945915799e-21
1.726645026e-20
8.966783295e-23
4.48421362e-21
1.328227487e-20
3.171689772e-21
7.247792881e-21
7.408442235e-22
1.088934526e-20
5.09729075e-21
3.874291216e-21
2.868387563e-21
1.3329705e-21
1.746168142e-20
4.896411387e-21
5.455056101e-21
2.561757444e-20
3.400784122e-20
1.596437279e-22
1.039855139e-20
2.21903342e-20
9.422702339e-21
1.635175e-20
1.064449015e-21
7.803900922e-21
9.491409029e-21
8.043223458e-21
1.23830923e-20
5.241167021e-21
1.280025388e-20
4.350320213e-20
4.372232053e-21
2.128828291e-20
1.272858089e-20
8.516427472e-21
1.674205776e-21
1.005307343e-21
1.081739183e-21
9.452380413e-22
7.944697517e-22
7.170168339e-21
3.380307589e-21
2.153821287e-21
5.07127713e-21
2.874626034e-21
1.590448957e-20
8.824296192e-21
8.78783972e-22
2.072790362e-21
2.324806644e-20
8.400847185e-22
4.352096995e-21
7.472465935e-21
4.0695582e-20
5.257075671e-21
5.751373089e-20
8.649240666e-21
2.019126962e-20
2.662676156e-21
1.123874213e-20
3.639633537e-21
2.248109511e-20
2.030765909e-20
5.803483111e-21
2.098042068e-20
3.063606482e-20
3.034726703e-20
9.856408693e-21
5.351507516e-21
5.576994629e-21
1.898633914e-20
1.473907143e-20
8.760656813e-21
1.02822973e-20
1.033283691e-20
1.319164584e-20
7.722774282e-21
5.092204155e-22
2.198635426e-20
4.865494963e-21
2.525051351e-20
1.113889743e-20
9.44899407e-21
9.859576008e-21
2.972304897e-20
3.110156697e-20
6.130915662e-21
8.952305112e-22
1.484823585e-21
2.714169691e-20
1.731773372e-21
5.518179917e-21
2.192201197e-20
1.609603882e-20
1.91439782e-21
3.909801619e-21
3.910425441e-20
3.524774384e-21
8.33308774e-21
7.848847829e-21
1.200428677e-21
6.933445289e-21
1.299260878e-20
1.255457956e-20
6.374420589e-22
6.086626257e-21
2.95242911e-21
1.318991065e-20
6.888025848e-21
1.053230522e-20
3.990709284e-20
2.229701356e-20
2.927544128e-20
1.123762314e-21
1.340934448e-20
4.798007582e-21
5.245987164e-21
1.002326578e-20
1.88702779e-20
1.911077139e-21
4.360823649e-22
9.781057339e-21
4.681076971e-21
1.67850212e-20
4.855469482e-21
7.576294206e-21
3.663995319e-21
4.494869685e-21
4.86752791e-21
4.807365476e-22
1.111440973e-20
1.036814608e-20
1.823975207e-20
1.104803831e-20
3.757749467e-22
4.234120384e-21
8.545843134e-21
5.199746363e-21
1.275261221e-20
6.876743922e-20
1.49757948e-22
4.128518985e-21
2.070776984e-21
5.159062993e-21
1.79474973e-20
1.496184659e-20
3.834362158e-21
1.271032711e-20
1.046746858e-20
6.20279017e-21
4.175941793e-22
5.328202821e-22
7.086156197e-21
1.357880272e-20
7.757729617e-21
8.502799188e-22
4.229946554e-21
6.241221785e-21
9.436090107e-21
7.036152652e-21
1.190466088e-20
1.193948086e-21
1.045171269e-21
5.14995945e-21
3.014201893e-20
2.83117425e-21
1.383811912e-20
2.105014782e-20
1.254244023e-20
9.266031593e-21
6.609867288e-21
6.26131175e-21
1.860168978e-21
1.773149159e-21
8.650476049e-21
4.308111075e-21
6.86987197e-22
2.803607475e-22
2.569932478e-21
1.44022649e-20
1.270983227e-20
1.360494462e-20
7.65229764e-21
9.483335084e-21
7.256323188e-21
7.888103794e-21
1.091497806e-20
6.18915378e-21
2.04368187e-20
1.523353683e-22
1.282134235e-21
1.080660643e-22
5.6740878e-22
5.507092462e-21
1.129276336e-20
2.388969557e-21
4.831820753e-21
1.482065794e-20
6.393020711e-21
1.291293986e-21
3.965996454e-21
1.000107624e-20
7.877512523e-21
1.604418209e-20
1.197190384e-20
2.596017967e-20
1.088968742e-20
2.158487591e-21
4.653140562e-21
7.210837113e-21
7.313002517e-21
3.108238326e-21
2.490921523e-22
1.005369634e-20
8.161358661e-21
5.587604557e-21
1.099525162e-20
3.151993726e-22
7.131597199e-21
3.821363015e-21
4.522830242e-21
7.810170767e-21
1.09051698e-20
8.807009515e-21
1.044579733e-21
2.306326254e-20
1.22864815e-20
1.732201397e-20
3.415265583e-21
2.521193348e-20
5.38460295e-21
1.0014988e-20
1.050063822e-20
4.907753413e-21
4.451832554e-22
5.707027095e-22
1.137649221e-20
1.26473159e-20
4.278163638e-21
2.931872461e-21
9.331581678e-21
1.722114709e-20
1.853072326e-20
8.098588431e-21
2.639489621e-21
5.105750813e-21
3.142261339e-20
4.932759948e-21
5.117119479e-23
4.007313445e-20
4.189554984e-20
4.729961427e-22
8.549379264e-21
9.98769781e-21
6.738471681e-21
6.36883894e-21
7.604614845e-21
3.305899935e-20
1.288971467e-20
9.81259197e-21
8.996907891e-21
1.296524793e-20
1.352963016e-20
2.491509917e-20
1.370996668e-20
3.584515572e-21
1.724888213e-20
2.256880918e-20
2.032022855e-20
6.535538167e-21
9.353296707e-21
2.891371724e-20
1.02247801e-20
6.919415863e-21
8.54196883e-21
2.351555744e-21
2.169412288e-22
3.490631952e-20
5.662526381e-21
1.050515826e-20
1.047800244e-20
1.515161977e-22
8.49550633e-21
2.229022693e-21
2.523333079e-20
5.705347754e-22
1.677151839e-21
2.224737386e-22
1.303338646e-21
3.500541169e-20
6.871513905e-21
8.083379103e-21
1.827407719e-20
2.006844957e-20
1.16060071e-20
3.204410612e-22
3.32418025e-20
3.096882892e-21
1.85344309e-20
1.187830469e-20
1.231135308e-21
8.764135552e-22
9.919913067e-21
5.0299832e-21
2.186499464e-21
4.332123498e-21
3.70545486e-22
4.026919151e-20
3.473939574e-21
1.016286554e-20
8.722473948e-21
8.875801721e-21
3.355814926e-21
2.112446387e-20
1.799343098e-20
9.544007239e-22
1.158507324e-20
6.909133586e-21
2.614002247e-21
7.840869694e-21
3.644303082e-21
2.065206872e-20
2.390297e-20
2.425147037e-20
2.951365143e-20
8.454564443e-21
9.24755116e-21
1.021616937e-20
1.244671344e-20
2.144781894e-20
9.04763081e-21
1.612283689e-21
1.209243488e-20
2.250130486e-21
4.344488615e-20
2.473709832e-20
1.103318941e-20
4.765168369e-22
3.063832675e-21
1.567281086e-22
1.632139746e-20
7.980207947e-21
1.544912481e-20
4.339979037e-20
1.761881261e-20
2.46022493e-22
1.819371112e-20
3.329814124e-20
2.078605813e-20
8.097539812e-21
3.951707689e-22
1.536366293e-20
1.004787868e-20
1.916656702e-21
1.171893399e-20
8.451658488e-21
3.914941336e-22
6.601792752e-20
4.233827026e-21
1.357793496e-20
2.512916016e-21
3.146294463e-21
1.136456741e-20
3.904334527e-20
1.795810005e-20
5.174359532e-21
1.349546234e-22
7.476213124e-21
6.001472907e-21
5.014685268e-21
7.126839191e-21
2.499132905e-20
8.534168646e-20
1.233636146e-20
1.242578498e-21
1.574180073e-20
3.972335315e-20
2.999172507e-21
1.724100109e-20
3.390699274e-21
3.139500756e-20
3.308943084e-21
5.74617021e-21
1.797287652e-20
1.197579647e-21
3.637193689e-21
1.54033922e-20
1.661044864e-20
3.460739059e-20
6.692428103e-21
8.010668187e-21
4.777929362e-21
1.710510431e-20
2.78786109e-20
3.04484057e-21
2.967106032e-21
3.097083387e-20
4.159095524e-20
1.524850913e-20
4.704064817e-21
3.396842077e-20
1.238970143e-20
1.517437686e-20
2.34417154e-22
2.653892378e-20
7.306556146e-21
7.560061939e-21
7.420250141e-21
2.011391028e-21
5.432704994e-21
1.228377612e-22
7.64916136e-23
1.630779038e-20
2.586703151e-20
1.011684276e-20
1.967571842e-21
5.317284329e-21
1.971748126e-21
2.444992613e-20
3.344272063e-20
1.592516103e-21
7.325188169e-21
1.900664444e-20
1.047987697e-20
9.409860781e-21
1.488882653e-20
1.655095542e-21
1.886541988e-20
8.430973672e-21
2.124333542e-20
2.740489628e-20
3.082863588e-21
1.506877368e-20
6.818377168e-21
8.782105013e-21
4.305625052e-22
4.617120238e-21
1.503383273e-20
1.929552365e-21
2.081859572e-20
2.459431598e-21
3.398981897e-21
1.821287093e-20
1.116825336e-20
1.263646207e-22
7.281463858e-21
2.575033384e-20
2.268019805e-21
3.317394127e-21
4.336008917e-20
6.518957638e-21
1.008887442e-20
9.487213438e-21
4.040820453e-22
7.582720244e-21
1.363928327e-20
3.489637865e-20
6.616406585e-21
9.599237035e-21
7.599361509e-21
2.201691193e-20
5.329733186e-20
1.522856871e-20
1.169739916e-20
1.295743583e-20
5.776284682e-21
3.571398938e-21
9.274094245e-21
9.604911778e-21
1.755622854e-21
1.530614796e-20
1.374495967e-20
7.617772804e-22
2.032968466e-21
2.449806001e-21
2.002875975e-20
2.263337382e-20
3.877854166e-23
2.554087845e-21
7.078970141e-21
3.541533379e-21
4.789896708e-21
2.77357775e-20
1.363279701e-20
2.255102401e-20
8.488776579e-22
8.366899507e-21
7.731875902e-21
6.42177708e-21
7.762850046e-21
2.080244148e-20
8.657427604e-22
2.108819265e-20
8.785035988e-21
7.885725171e-21
2.865809363e-21
6.694312948e-21
1.954525075e-21
1.362046174e-21
9.192822561e-21
1.808679547e-20
4.726696929e-22
3.808627079e-20
1.879515831e-20
1.584283875e-21
8.562961795e-21
6.272073556e-21
3.555907989e-21
3.053051753e-21
2.702373142e-20
4.538835501e-22
2.680493106e-21
7.258275773e-21
1.476078602e-22
3.37604891e-20
4.512721199e-21
1.154420251e-20
1.62770378e-20
2.036541199e-21
1.283554335e-20
1.664044065e-20
3.432877028e-21
6.705914775e-21
5.86523074e-21
4.207701673e-21
3.7109524e-21
2.633256726e-21
4.786481103e-20
1.895914906e-21
1.520068748e-21
1.084846283e-20
6.354632458e-21
1.880916446e-20
6.821375168e-21
2.049952652e-20
7.023172974e-21
1.084847817e-20
3.464428876e-21
2.403596272e-20
2.815230734e-20
3.67755913e-21
7.374818462e-21
3.532704256e-21
1.157492919e-21
2.832616834e-21
3.8600977e-21
8.001873914e-21
3.027457666e-20
7.35831924e-23
5.309136429e-21
3.439984373e-21
1.973470316e-20
7.005038997e-21
8.907041586e-21
1.914150951e-21
2.472245118e-20
3.489631199e-20
1.503361796e-20
3.26864653e-21
8.471426862e-21
5.514353115e-21
2.170439265e-20
4.527826788e-21
5.487318951e-21
2.971718974e-21
2.274330021e-20
5.64007469e-20
1.343132187e-20
4.375275512e-20
3.233811978e-20
9.554353164e-21
8.566041906e-22
7.794960538e-20
9.878346889e-21
1.940730932e-21
1.454740555e-20
5.931977496e-21
1.630970567e-20
1.152116118e-21
6.10195716e-21
2.605416861e-20
5.843099217e-21
3.7082029e-21
2.437848452e-21
9.53871576e-22
1.621101972e-20
1.470290615e-20
2.748284922e-21
1.534582709e-20
1.603879059e-20
2.410917496e-20
4.088252261e-21
1.996524168e-20
2.390006952e-21
3.413560266e-22
9.282537163e-21
2.292213922e-20
7.558805049e-21
6.51482827e-21
1.908593326e-20
1.313795344e-20
9.192087771e-21
1.211843006e-21
7.657346976e-21
1.914649028e-20
4.470643597e-21
5.716209339e-21
1.55869958e-21
8.926105985e-21
1.550071809e-20
3.229905807e-21
1.496952018e-22
2.522677861e-20
2.072516646e-21
4.665287398e-20
8.874958263e-22
1.108207534e-21
1.383797241e-20
1.336378709e-21
2.106233515e-21
5.68464379e-21
5.131455541e-21
1.427238577e-22
3.572406534e-21
2.404594234e-20
9.187660539e-22
6.167475043e-21
4.259406186e-21
1.449874527e-20
1.900329474e-20
1.909997355e-20
2.880854839e-21
8.944375809e-21
3.912060736e-21
4.557494181e-21
8.531276609e-21
4.253429262e-20
3.069282073e-21
1.337866761e-20
1.658657636e-20
9.084832467e-21
1.164909942e-20
1.719216751e-20
2.524802662e-20
6.729696612e-21
6.173040138e-21
9.373367305e-22
1.12248392e-20
1.618360335e-20
4.239016695e-21
1.055301148e-20
2.892660936e-21
3.615037517e-21
4.113091504e-21
2.246435751e-20
3.019251572e-21
3.535964615e-21
1.176760298e-20
5.524655008e-22
1.571255874e-20
2.196850011e-21
2.911458975e-21
8.657265875e-21
5.179117352e-20
8.970016019e-21
2.57731454e-20
4.041673951e-20
2.016874553e-21
6.194279598e-21
1.908510952e-21
1.517339039e-21
1.108670389e-20
4.030265316e-21
2.651311516e-21
5.321206579e-21
7.114207952e-21
3.387391619e-21
1.679026254e-20
4.688289524e-21
1.241257271e-20
1.459465851e-20
6.968825543e-21
1.19168579e-20
2.337303673e-21
5.055161535e-21
8.088855285e-21
4.379626509e-22
1.938537423e-20
2.08179706e-22
7.843719251e-22
5.309719425e-21
4.49845132e-21
3.886835569e-21
7.067348707e-22
2.456961571e-20
1.90469436e-21
1.801600443e-21
1.856710358e-21
6.471450041e-21
9.831769913e-21
1.478653078e-20
1.334254316e-21
1.803607403e-20
5.330663829e-22
1.31002712e-20
1.007201658e-20
1.289896412e-20
7.633712665e-21
6.431314704e-21
3.237837155e-20
1.618133837e-21
1.470822618e-20
1.861715072e-20
1.767458291e-20
2.49854294e-21
1.79487866e-21
1.084958526e-20
2.177259919e-20
2.941386414e-21
4.005121886e-21
1.067162818e-23
4.378543607e-21
7.428860952e-20
9.570658851e-21
1.279243352e-21
7.299690024e-21
9.049601008e-22
1.234534974e-20
3.228001603e-21
2.499134575e-20
4.727480648e-21
3.807392251e-20
4.478071918e-21
1.66122105e-21
6.181243946e-21
3.845836766e-21
7.760118764e-21
1.063219021e-20
1.222982461e-20
6.513752383e-21
5.258865801e-20
1.065004125e-21
2.084420936e-20
1.63311131e-20
1.143034359e-20
1.134869713e-20
1.084488897e-20
4.516063667e-21
1.716161842e-20
2.266763505e-20
2.126756214e-20
3.122103705e-20
9.586621846e-22
1.25905604e-20
1.593282868e-20
2.144404039e-20
1.984382541e-20
6.317942989e-21
4.425379609e-20
2.260343457e-20
6.290534959e-21
1.222427901e-20
9.338617449e-21
6.068117381e-21
1.613765797e-20
1.864673471e-20
1.035374231e-20
1.547557331e-20
1.806148093e-22
2.886876564e-22
1.213144615e-20
5.75613499e-21
4.871703958e-21
5.600255136e-21
1.942096449e-20
2.472601757e-21
9.758632864e-21
3.144040822e-21
1.292455052e-22
3.957679021e-20
1.97213325e-20
4.022254501e-20
5.861694009e-21
1.742492869e-20
6.005242748e-21
1.527795969e-20
5.475833799e-21
1.689419005e-20
2.895044161e-21
1.8876647e-20
3.796976721e-21
2.965442719e-22
2.966959308e-21
8.115239398e-21
1.142205161e-20
1.747452316e-20
1.508479812e-21
5.848259238e-20
2.426419247e-21
2.633012047e-20
1.296664777e-21
1.745397304e-20
2.004219196e-20
8.559305072e-21
8.409025871e-21
2.043663377e-21
4.817020293e-20
2.217845955e-20
3.774215227e-21
3.261930764e-21
1.098864145e-20
5.726131076e-21
6.049068278e-21
3.359363702e-20
1.147080273e-20
1.000953679e-20
4.917712906e-21
1.324951586e-21
2.08704979e-20
1.145351499e-20
1.992660646e-22
2.320915813e-20
8.642168874e-21
2.464512816e-21
3.782922765e-21
1.322089734e-21
1.377174797e-20
4.64034132e-21
8.439232328e-22
3.695192246e-22
3.53167966e-20
1.965709281e-20
1.210428216e-20
2.253135124e-20
1.610795735e-20
5.105798439e-22
3.360853907e-21
4.917669383e-21
1.336190298e-20
2.599218581e-21
3.260236979e-20
1.992393814e-20
4.788789721e-21
1.525792078e-22
2.698816587e-20
1.583909213e-20
5.498329155e-22
6.342806917e-22
3.925969439e-21
3.160282893e-21
1.255319018e-20
3.160276934e-20
5.084154922e-20
1.765702729e-20
1.206700643e-20
5.603268147e-21
1.203177411e-21
1.991923496e-20
8.139481964e-22
2.652752093e-20
1.290378918e-20
1.643938976e-20
1.463024946e-22
3.611925322e-21
2.016774799e-20
7.608776724e-21
2.01708155e-20
5.881460153e-21
3.500066822e-21
7.11411372e-21
1.09019962e-22
4.670633421e-20
1.679369168e-20
2.90834762e-21
2.584346917e-20
1.056895615e-20
8.848401914e-21
3.731962364e-22
1.31473677e-21
6.140501405e-21
3.732973215e-21
5.121836446e-21
3.685814076e-21
2.709205316e-21
8.224119902e-22
8.25725869e-22
2.592751225e-21
1.82754501e-20
2.37054176e-20
1.097674267e-20
2.986890892e-20
3.350829684e-22
3.038481307e-20
7.647848657e-21
2.639125549e-20
7.04948506e-22
9.745695273e-21
1.950287938e-21
9.815334087e-23
5.852021797e-21
4.652147808e-21
4.970914963e-21
2.142545609e-20
4.11898027e-20
4.020569497e-22
1.850193e-20
1.800064468e-20
1.131293779e-21
1.350074077e-20
1.509707084e-20
2.434791987e-20