/*--------------------------------*- C++ -*----------------------------------*\
| =========                 |                                                 |
| \\      /  F ield         | OpenFOAM: The Open Source CFD Toolbox           |
|  \\    /   O peration     | Version:  2406                                  |
|   \\  /    A nd           | Website:  www.openfoam.com                      |
|    \\/     M anipulation  |                                                 |
\*---------------------------------------------------------------------------*/
FoamFile
{
    version     2.0;
    format      ascii;
    arch        "LSB;label=32;scalar=64";
    class       labelField;
    location    "0.01/lagrangian/dsmc";
    object      origId;
}
// * * * * * * * * * * * * * * * * * * * * * * * * * * * * * * * * * * * * * //


9444
(
462151
466225
471780
471022
472810
472774
473920
470237
473700
477717
477917
474422
477286
477600
480675
481291
471646
480652
481292
481414
482059
482998
480840
481474
481081
482080
484729
481083
481281
482083
483502
483002
478309
482657
483217
481384
482511
483122
483633
483395
484051
483133
484281
485964
483814
481981
484152
479728
484872
479637
485135
483705
483855
480962
484270
485341
483802
483016
481178
483420
484435
485415
485570
484432
484886
483617
483922
485932
485479
486186
484692
481582
485054
479954
485556
484643
487330
479650
486323
484148
485978
485981
484973
485352
486702
489435
486001
486312
485775
487076
483635
486491
487634
487412
487719
480965
481676
487603
485653
487224
487429
487437
481885
482793
487733
487937
484556
485033
487311
488359
490668
485140
485265
485392
486219
486771
487085
487314
487832
490973
482911
483522
484652
487408
487511
488660
483098
485055
487091
487606
486069
487933
488134
488541
486082
486281
488119
487306
488449
488829
489248
489678
487947
488044
488254
488638
487415
484470
487495
488201
480755
487839
488209
486973
488346
488455
489132
487712
488850
486184
489063
489281
489286
485343
486890
488838
490185
486504
487422
490771
480953
489130
489454
490588
491111
484549
485972
488844
489182
486784
488314
489464
489595
490069
490186
490437
490587
492705
480854
486795
487494
488018
489776
489841
489912
490168
490270
487799
489605
490813
488123
488425
489149
490256
482695
482818
489352
489653
489880
490482
491108
492087
488037
490197
490246
490821
492193
489250
490881
491118
489252
485358
489364
489452
490390
490886
491300
491723
483643
488969
489647
490383
490685
491007
491305
491932
494146
481069
489056
489573
489786
489996
490667
490793
491114
491502
491883
484942
488105
489355
490379
490396
491592
491798
491897
492128
494645
483918
486876
488784
488871
489051
489687
491110
491712
489148
489470
489844
490918
491026
491220
491409
493013
484449
487612
489457
489459
489560
490167
491959
483815
489129
489195
491330
492144
492403
489353
487919
489660
491240
491730
491928
492012
492241
484656
489165
489567
489741
489758
490766
490802
490880
492351
487522
489547
489854
490177
491425
491609
491945
492624
487715
488722
488830
489038
489755
490556
490662
487703
488607
491799
492433
484769
486193
489656
492023
492949
493046
485891
480132
490493
492435
492448
492802
488318
489654
489957
490386
491080
491281
492107
492363
492640
492736
493626
493939
494167
489966
488446
489964
491104
491122
491488
491587
491806
492017
492233
492321
493329
494137
488034
490479
491103
491509
491727
491912
492019
492064
492518
492744
495055
487714
490892
491408
492103
492313
493293
484434
484535
486385
493442
493630
493847
486787
491314
491741
492127
492204
492554
493067
493124
490473
490561
492636
492739
492914
493133
493875
494013
490362
491931
492047
492542
492611
493846
493863
488320
489756
490265
491389
491922
491997
492327
492407
492500
493347
493553
493675
494354
488860
489843
491989
492005
492159
492738
493154
493966
491000
490387
491515
491904
492357
492424
492427
493282
493661
494163
495197
490060
483407
490272
491216
492502
492823
493125
494118
489970
493259
493436
493475
493566
493934
493996
490670
490245
493009
493039
494551
496899
484142
488841
489864
491606
491936
492314
493146
493228
493417
494506
494850
495074
495393
488525
490182
490684
491102
491685
491686
492617
492809
492948
493145
493749
493750
493855
494165
494170
494252
494904
495124
495162
489344
489668
491193
491209
491397
491581
491616
493330
493660
494264
494675
484034
491001
484033
491746
491809
492730
493368
493848
493971
494307
492197
493453
494263
495572
495775
492821
490380
490572
492024
492219
493733
494186
494386
494670
494703
482380
495712
498123
490468
491023
491309
492248
492711
493012
493225
493237
494273
494468
494491
489246
490476
490990
491406
492951
493411
493734
494879
495672
490457
491887
492419
493458
494246
494777
495193
495467
495671
495700
490916
491603
492721
493705
493761
493763
493850
493856
494153
494691
494775
494810
487524
490664
488738
492610
493324
493726
494278
494494
494784
494874
495403
490774
491906
492205
493524
493637
493963
494178
494378
494465
494582
494676
494747
494751
494954
494975
495388
495439
495496
497313
489467
492214
492609
492905
493141
495558
495677
496900
424522
489973
490360
493952
494068
494630
495188
495505
495516
495622
496382
497103
491704
487823
489257
490562
492212
492527
493546
493549
494281
494379
494596
494982
495530
495618
495689
495714
495736
491185
491188
492316
494268
494678
494715
495311
484029
492620
495925
496116
496324
497102
485783
492429
492432
494182
494272
494660
494869
495087
495093
495363
495943
496119
489357
493437
493640
494057
494294
494585
494666
494989
495291
495566
495910
496209
496415
496625
497449
492601
488430
489863
490181
494275
494648
494668
494709
494791
495121
495160
495786
495822
495894
496338
496408
496895
497033
492015
494059
494387
494583
495308
495397
495600
495799
495920
496127
496207
496299
496645
496794
487296
488419
490149
494888
495692
496107
496118
496240
496938
499656
492422
493958
494381
495309
495376
495778
496115
496239
496406
496615
496619
496822
495083
487505
493432
493034
493716
493723
494447
494478
495390
495720
496413
497171
494368
485045
491190
491404
493636
494649
494771
494894
495707
495801
495858
495900
495918
496715
497615
489948
489146
490486
491576
493129
493547
494360
495172
495297
495377
495686
495954
496379
496385
496416
496438
496446
496628
497263
498051
487710
492320
493251
494419
494693
495089
495742
496297
496301
496425
497101
497107
497716
493232
493325
495592
495879
495901
496009
496023
496215
496426
496517
497035
497345
499254
487081
491907
493729
493938
494699
494853
496519
496695
497152
500070
488730
495396
490778
493236
495715
496017
496542
496856
497118
497613
497753
489264
490348
490795
493239
493854
494044
494155
494365
494390
494453
494558
494569
494856
495472
495732
495898
496307
496611
496752
496854
496910
497170
497237
497974
499462
484546
489666
492418
493137
493545
494056
495206
496014
496424
496457
497145
497154
497734
498581
493320
493537
493944
494545
494851
494952
495191
495517
496000
496386
496503
496718
496813
496948
497223
497347
497397
497558
498161
498633
498894
493756
495711
495832
495921
496197
496258
496320
496610
496635
496952
497160
497424
497663
498037
498459
498674
492412
493519
495175
495272
495369
495509
495701
495807
496213
496509
496538
496921
496957
497150
497228
497312
497323
497431
497451
497854
497951
498048
498567
491175
494053
494570
495285
496594
496693
496724
497167
497342
497428
497649
497767
497807
497996
493144
493739
495378
495792
495989
496006
496218
496499
496723
497022
497109
497630
497754
498064
498176
498790
493057
491914
492307
492631
493020
493234
493315
494063
494269
494780
495061
495164
495205
495399
495486
495808
495917
496709
496901
497015
497365
497536
497550
497554
497849
498153
498846
490776
490970
489658
494161
495466
496099
496820
497232
497241
497425
497571
497652
497720
498468
498564
498996
499867
493520
487297
493540
494664
495157
495279
495312
495793
495896
496230
496436
496443
496644
496696
496717
496824
496942
497129
497315
497335
497441
497638
498041
498050
492325
494248
495265
495287
496796
496929
497052
497375
497430
497650
498040
498086
498235
498256
498659
498757
499278
500892
490261
492725
494977
495800
496600
496706
497226
497343
497379
497421
497651
497738
497868
498138
498264
498528
498574
498693
498887
491105
493629
494251
494867
495094
495187
495394
495893
496098
496194
496308
496323
496422
496834
497046
497240
497553
497933
498349
498358
498367
498527
498671
498679
500175
495091
495380
495597
495698
496470
497114
497133
497257
497350
497359
497442
497633
497832
497957
498061
499046
499697
491487
493623
494456
496101
496526
496804
497625
497639
497857
497865
497907
497943
498120
498149
498480
498770
498973
496225
496302
496821
496917
496920
497364
497467
498020
498368
498466
499121
499865
492312
493541
495980
496205
496601
497050
497314
497446
497728
497835
497950
497952
497953
498146
498185
498270
498552
498592
498735
498761
498792
499089
499280
499868
500382
500581
502114
502217
497104
495590
477583
493048
493873
495096
495888
496285
496811
497339
497353
497614
498168
498860
498892
499159
499192
499599
499662
500015
500197
501295
495370
495695
497031
497225
497233
497545
497680
497934
497970
498159
498232
498251
498379
498869
499380
499394
500018
493135
497105
493529
494389
494953
495364
496700
497073
497749
498463
498561
498677
498877
498977
499088
499372
501183
495067
495679
496202
496314
496792
496951
497654
497846
497862
498052
498059
498140
498240
498382
498682
498738
498876
498958
498981
499211
499217
499268
499497
499503
500071
500080
491319
493831
494359
495902
496384
496498
496818
497201
497538
497839
498053
498148
498259
498294
498365
498370
498758
498795
498988
499405
499498
499510
499524
499724
501296
499251
490870
493751
495292
495476
496008
496188
496496
496982
497324
497626
498293
498570
498637
498658
498696
498978
498984
499019
499077
499180
499319
500221
500279
500414
500796
496392
494463
495284
495809
496495
496614
496810
497123
497147
497173
497202
497572
497717
497928
497932
498039
498144
498560
498579
498585
499119
499348
499396
499424
499486
499530
493950
494267
495465
496108
496405
496508
497517
497634
497642
497930
498062
498258
498599
498745
498844
498849
498974
499122
499253
499362
499402
499489
499626
500025
500369
500588
501494
502427
494452
493139
494567
495183
495286
496612
496789
496925
497518
497719
497755
497762
498145
498273
498375
499071
499204
499473
499603
500000
500088
500112
501699
493226
495577
495979
495987
495992
497222
497831
498022
498243
498250
498324
498341
498546
498665
499213
499332
499363
499693
499825
499973
499988
500357
500605
500818
501015
493132
494460
495507
497020
497422
497530
497973
498222
498334
498438
498455
498526
498559
498752
498785
498875
499531
499668
499688
499768
499883
499946
499966
499980
500214
500410
500516
500520
500732
500990
501047
501130
489154
491285
493317
495362
495690
496290
496815
497029
497348
497367
497429
497532
497533
498523
498548
498568
498791
498798
498801
498956
499182
499197
499304
499310
499352
499583
499679
499785
499887
500122
500217
500281
500316
500334
500710
501225
494475
497543
497736
498046
498129
498154
498344
498353
498878
498950
498983
499176
499281
499393
499417
499593
499763
499921
500021
500242
500484
500939
497026
496510
496608
497008
497236
497631
497929
498553
498635
498891
498976
499079
499156
499233
499252
499259
499271
499275
499605
499787
499885
499931
499981
500014
500204
500502
500528
500618
501624
503235
497559
496287
494037
494873
495912
497224
497820
498139
498549
498649
498784
499059
499183
499201
499492
499513
499560
499578
499597
499610
500045
500179
500415
500499
500825
494383
496305
496288
496918
497100
497539
498346
498355
498644
498768
499069
499097
499219
499288
499302
499478
499692
499918
499926
499996
500102
500193
500195
500294
500296
500306
500553
500631
500716
501184
501224
501233
428467
501522
501552
498326
495681
496312
497116
497235
497471
497733
498026
498547
498678
498749
498969
498989
499091
499104
499189
499469
499504
499570
499575
499604
499671
499703
499733
499798
499843
499861
499897
499929
500068
500101
500282
500320
500624
500952
501006
501188
501404
501422
501716
493421
492815
493628
494865
495587
496090
496802
497220
497340
497423
498327
498765
499082
499171
499300
499713
499884
500135
500244
500304
500552
500731
500742
500836
500841
500937
500994
501013
501063
501105
501232
501338
501474
501698
501702
501924
503658
493949
494562
496609
498449
498531
498554
498880
499361
499667
499770
499880
499975
499999
500031
500069
500280
500303
500326
500385
500503
500525
500602
500683
501027
501103
501993
503552
494258
428751
495500
495697
496616
497433
497746
497922
498143
499153
499186
499256
499487
499685
499864
500022
500090
500096
500199
500830
501014
501036
501738
503132
496489
493534
493717
494761
495702
496505
497725
497949
498524
498747
499165
499264
499480
499681
499900
499913
499984
499993
500125
500222
500223
500297
500327
500533
500693
500723
500927
500933
501048
501107
501110
501317
501340
501420
501719
501746
501828
503453
493650
495092
493837
494355
496812
496814
498450
498482
498664
498739
498886
498946
499070
499284
499391
499600
500006
500103
500202
500406
500481
500508
500613
500756
500919
501050
501120
501126
501143
501218
501246
501403
501627
501644
501743
502061
502267
502355
502932
492509
496593
496797
497112
497732
497748
498861
499467
499501
499617
499669
499731
499912
500097
500124
500127
500225
500337
500403
500416
500703
500838
500896
500914
500998
501021
501051
501315
501341
501521
501593
501618
501666
501733
501800
501818
501839
502058
502562
496808
496402
497936
498135
499008
499263
499367
499471
499505
499611
499822
499905
499922
500178
500424
500448
500461
500514
500611
500612
500620
500640
500706
500805
500921
500926
501004
501236
501425
501514
501525
501530
501713
501935
502115
502429
502563
498248
493256
495361
496516
497021
497205
497947
498457
498540
498961
499076
499392
499485
499678
499896
500075
501121
501128
501144
501165
501220
501244
501351
501419
501434
501861
502113
502261
502557
427505
490981
497520
497935
498456
498539
498660
499169
499258
499490
499711
499764
499986
500308
500317
500319
500527
500735
500854
500856
501066
501111
501323
501421
501630
501642
501759
501798
501806
501824
501899
501951
501958
502103
502151
502540
502625
502626
502934
498756
493120
494271
496103
496830
497724
497850
498345
498575
499378
499989
499995
500183
500342
500431
500485
500715
500719
500802
501039
501113
501131
501250
501332
501513
501729
501855
502146
502271
502337
502657
503030
504060
493840
496091
496311
496692
497731
497946
498141
498462
499260
500172
500419
500698
500847
500911
501011
501090
501124
501290
501399
501431
501450
501465
501626
501695
501774
501941
501942
502118
502148
502170
502269
502466
502711
502727
502788
494787
497826
498473
498759
499366
499898
500169
500173
500209
500249
500390
500493
500798
500819
500834
500890
500936
501002
501149
501214
501231
501324
501428
501523
501528
501721
501838
501901
502002
502080
502109
502125
502374
502764
503551
488940
502014
493622
497025
497115
497328
497534
497744
498162
498789
498954
499389
499457
499701
499784
499793
499859
500497
500523
500573
500598
500822
500827
501049
501099
501119
501127
501193
501426
501462
501545
501567
501597
501628
501632
501727
501741
501756
501845
501961
501962
501994
502029
502069
502071
502083
502104
502108
502126
502241
502259
502392
503962
501001
493744
496404
497632
498158
498446
498645
498856
499684
499866
499892
500206
500530
500728
500864
500909
500924
500929
501106
501114
501139
501248
501339
501352
501354
501432
501527
501708
501809
501903
501921
501948
501953
502006
502160
502187
502227
502236
502460
502512
502753
502774
502851
492408
497321
497551
498137
498147
498351
498848
499063
499172
499454
499482
499568
499577
499871
500067
500305
500346
500488
500545
500839
500897
500945
501333
501336
501358
501373
501402
501424
501471
501507
501529
501543
501598
501609
501637
501846
501886
501919
501936
501954
502034
502044
502079
502129
502145
502159
502166
502230
502363
502477
502575
502601
502664
502990
503196
505187
500483
495469
502010
495088
502324
495171
495484
496201
497327
498663
499572
499769
499805
499985
500105
500717
500913
501202
501217
501221
501452
501531
501631
501661
501678
501917
501944
501949
502047
502111
502394
502403
502454
502468
502663
502681
502871
502894
502931
502966
503060
503085
503454
503696
498474
497330
497346
497627
498443
498447
498960
499273
499356
500468
500627
500721
500814
501320
501331
501337
501387
501406
501411
501664
501734
501817
501832
501932
501946
502045
502174
502248
502254
502285
502395
502470
502483
502509
502580
502644
502887
503112
503371
503451
503755
495794
496618
494647
495060
496721
496817
497016
497645
498642
498889
499262
499580
499595
499624
499696
499907
500081
500713
500996
501030
501091
501146
501294
501334
501353
501376
501646
501697
501703
501740
501830
501849
501905
501931
501938
502054
502078
502142
502323
502362
502365
502372
502373
502383
502400
502449
502691
502896
503056
503860
503888
504160
505188
505492
495062
497515
498442
498965
499500
500171
500188
500338
500695
500855
500923
500925
500946
501012
501059
501546
501641
501650
501652
501766
501819
501884
501986
502011
502136
502157
502226
502299
502331
502345
502354
502356
502359
502366
502443
502458
502574
502686
502761
502880
502963
502978
503054
503061
503083
503087
503291
430754
503392
503397
504868
497560
497331
497942
498653
499357
499590
499772
500076
500275
500653
500835
501238
501330
501439
501508
501520
501542
501612
501622
501906
501971
501985
502260
502281
502361
502426
502472
502566
502588
502769
502777
502787
502802
502897
502980
502993
503044
503566
503626
504976
488721
503558
497358
498032
498150
498430
498654
499673
499775
499870
499893
499982
500439
500626
500700
500714
501019
501206
501302
501308
501313
501314
501410
501449
501510
501511
501516
501569
501648
501735
501821
501825
501867
502175
502249
502258
502272
502289
502346
502347
502352
502459
502555
502667
502684
502689
502756
502846
502849
502860
502988
503036
503078
503089
503179
503182
503272
503322
503407
503615
504564
499073
499266
499468
499483
500380
500625
500712
500957
501009
501010
501430
501636
501686
501751
501815
501834
501872
501945
501963
502001
502030
502233
502256
502274
502364
502376
502490
502550
502654
502666
502677
502721
502746
502866
502962
502983
502994
502995
503066
503103
503157
503171
503181
503329
503381
503611
503767
494950
494870
496924
497024
498537
498942
500298
500607
501033
501203
501216
501223
501398
501500
501512
501616
501712
501714
501722
501749
501767
501787
502150
502158
502176
502389
502456
502558
502752
502760
502794
502863
502908
503173
503276
503487
503499
503757
503793
503889
504061
504199
504666
495819
500685
501976
494289
495997
497841
498029
498444
499404
499890
500087
500277
500315
500392
500621
500930
501109
501207
501395
501498
501502
501580
501718
501836
501841
502068
502295
502307
502326
502338
502358
502482
502485
502567
502587
502590
502597
502766
502793
502808
502819
502864
502952
503016
503048
503059
503167
503199
503238
503279
503367
503390
503414
504197
432259
496093
498893
499083
499368
499586
500276
500336
501194
501563
501662
501760
502161
502229
502266
502268
502303
502340
502463
502593
502640
502658
502695
502798
502859
502877
502947
503081
503108
503270
503289
503347
503686
503708
503715
503729
503756
503792
504018
504099
504290
504686
431362
505897
430940
497426
497522
498640
499974
500352
501192
501496
501589
501611
501700
501826
501968
502032
502039
502067
502193
502350
502382
502641
502674
502771
502772
502781
502810
502827
502974
503013
503107
503152
503250
503284
503365
503378
503494
503514
503694
503759
503818
431536
504024
504049
504231
504309
431264
504619
504975
496606
505792
431804
495991
431379
501369
498439
497635
499152
499878
500011
500705
500915
501017
501025
501094
501322
501367
501732
502042
502134
502178
502244
502315
502351
502375
502547
502645
502650
502673
502733
502763
502770
502878
502898
503062
503064
503075
503198
503204
503274
503281
503326
503353
503383
503502
503520
503523
503676
503829
503838
504264
504299
505189
498740
495906
498254
495084
495881
499660
499666
499860
499968
499972
501003
501212
501316
501417
501701
501843
502057
502257
502283
502291
502360
502433
502447
502467
502541
502556
502571
502572
502779
502857
502865
502885
502895
502964
502969
502971
502997
503094
503144
503148
503186
503255
503266
503320
503510
503808
503882
503902
503904
503913
503992
503999
504072
504090
504091
504383
504384
504400
504828
504936
496816
498352
499174
499277
500594
500767
500940
500943
501442
501544
501750
501803
501811
501847
501857
501859
502007
502041
502074
502130
502210
502237
502475
502553
502561
502578
502585
502638
502669
502679
502687
502850
502856
502882
503069
503140
503165
503166
503293
503351
503358
503377
503413
503425
503461
503464
503473
503646
503697
503823
503854
503917
503945
504228
504252
431279
504344
504431
432235
505392
505493
497010
497415
498465
498866
499475
499901
500191
500916
501186
501228
501258
501415
501436
501629
501911
501916
501927
501933
501964
502252
502438
502539
502544
502649
502694
502742
502745
502789
502854
502876
502879
502930
502942
502975
502976
502984
503011
503072
503074
503174
503232
503271
503292
503294
503305
503323
503404
503496
503531
503576
503577
503579
503601
503618
503692
503721
503787
503805
503822
503824
503864
503912
504015
504030
504045
504492
504566
504768
431800
431441
494358
495897
498445
499074
499695
499978
500093
500095
500807
500821
500934
501074
501293
501610
501913
501922
502031
502048
502049
502243
502255
502651
502933
502979
503058
503071
503155
503159
503177
503184
503193
503386
503449
503505
503507
503605
503725
503750
503784
503840
503997
504014
504100
504334
504371
504401
504427
505496
431626
431893
506611
503224
492926
496914
498454
499699
499977
499987
500211
500286
500299
500300
500699
501568
501614
501833
501928
502037
502162
502308
502311
502498
502546
502579
502652
502656
502660
502668
502670
502680
502744
503000
503051
503084
503101
503175
503194
503215
503282
503286
503297
503303
503345
503399
503408
503491
503549
503582
503603
503617
503684
503702
503782
503873
503892
503910
503988
504083
503445
504223
504229
504251
431806
504301
504388
504395
504398
504414
504415
504416
504719
504809
504974
499967
430763
499566
496512
499965
500196
500543
501490
501617
501909
501989
502133
502434
502568
502646
502655
502838
502844
502959
502985
503126
503150
503162
503296
503306
503403
503436
503590
503722
503935
504016
504058
504111
504130
504186
504188
504241
504253
504456
504501
504529
504628
504663
504674
504725
504766
504769
504793
504833
504917
506000
431638
502327
496195
499050
499371
499979
500289
500597
500795
500997
501321
501412
501499
501608
501717
501957
502012
502038
502116
502238
502240
502455
502457
502542
502560
502740
502757
502875
502958
502960
503065
503082
503160
503170
503277
503335
503374
503475
503504
503595
503651
503657
503693
503699
503726
503797
503814
503827
503903
503911
503950
503993
504115
504236
504296
504330
504402
504423
504444
504465
494195
505242
431097
505730
506301
497311
431840
494650
496186
497964
498249
500806
501100
501197
501526
501810
501920
501967
502270
502330
502379
502381
502431
502535
502659
502693
502749
502842
503028
503033
503041
503288
503313
503375
503400
503609
503659
503768
503919
503921
503923
503973
504009
504011
504106
504107
504200
504204
504242
504265
504291
504305
504321
504351
504363
504370
504649
504652
504930
505263
505335
505494
505735
505794
432413
502717
496636
498339
499856
500001
500292
500397
501309
501349
502020
502164
502441
502552
502743
502853
503076
503102
503106
503178
503188
503200
503247
503330
503346
503401
503405
503479
503586
503752
503794
503796
503801
503813
503845
503869
503887
503990
504001
504003
504007
504079
504089
504125
504138
504171
504235
504302
504325
504410
504459
504509
504522
504625
504626
504699
504712
504837
504919
505281
505343
432161
501939
432354
499771
493845
497211
497852
498572
499049
499589
500600
501096
501556
502479
502636
502741
502809
502826
502891
502955
503158
503201
503202
430843
503393
503450
503488
503500
503519
503581
503583
503602
503610
503689
503707
503724
503740
503754
503761
503810
503837
503878
503924
503952
503995
504010
504068
504104
504122
504128
504135
504182
504196
504212
504274
504289
504306
504335
504368
504500
504611
504657
504665
504667
504693
504695
504741
504786
504818
504849
504858
505004
505136
505288
505358
505601
500106
432331
499287
503328
497127
498634
499375
500501
500526
500591
501196
501554
501594
501606
501934
502128
502551
502738
502881
503278
503354
503424
503457
503516
503526
503588
503596
503599
503624
503670
503698
503710
503711
503735
503780
503831
503839
503853
503874
503879
503916
503931
503933
503937
504002
504093
504095
504124
504140
504203
504357
504544
504549
504601
504631
504688
504733
504798
504862
431981
504901
504905
504943
504957
504969
505042
505325
505378
505523
505600
505626
432238
432936
431637
503746
503955
499158
499571
499574
500098
500490
500492
500505
501098
501310
501565
502013
502019
502139
502147
502216
502342
502678
502888
502956
503040
503099
503263
503269
503275
503369
503636
503706
503730
503736
503775
503821
503906
503972
504020
504070
504118
504131
504315
504328
504356
504433
504461
504479
504542
504606
504668
504715
504812
504825
505137
505177
505427
505599
506147
432678
433117
504254
433022
433653
431977
497437
503546
496904
498772
499175
500387
500895
500991
501020
501347
501715
502015
502052
502220
502462
502672
502949
502982
503154
503180
503211
503231
503256
503258
503262
503264
503373
503506
503666
503682
503701
503703
503806
503816
503891
503920
503998
504012
504056
504134
504139
504146
504208
504216
504219
504276
504377
504389
504396
504418
504464
504468
504484
504485
504489
504511
504545
504632
504648
431978
504707
504716
504726
504787
504802
504915
504959
505019
505020
505027
505229
505307
505337
505355
505529
505531
432075
505699
432510
433738
501517
499195
500394
500506
500519
500900
501112
501182
501405
501615
501814
502144
502332
502344
502435
502524
502708
502818
502839
502939
502950
503394
503482
503489
503503
503561
503597
503677
503734
503914
432067
504053
504144
504239
504300
504319
504331
504435
504474
504497
504613
504635
504734
504746
504814
504815
504817
504832
504885
504937
504946
432591
505008
505028
505152
505224
505241
505273
505507
505515
505697
505775
505848
432759
430406
432761
494955
495791
503444
499066
499567
500813
501303
501519
501607
501645
501707
501827
502018
502173
502341
502754
502841
502870
502945
502946
502970
502972
503047
503052
503168
503396
503418
503474
503572
503585
503608
503614
503671
503720
503777
503835
503985
504006
504008
504054
504087
504147
504169
504202
504267
504314
504494
504565
504592
504620
432590
504705
504730
504744
504758
504797
504805
504891
504958
505002
505024
505048
505054
505057
505069
505090
505122
505124
505125
505127
505156
505173
505243
505354
505357
505460
505552
506018
507228
431896
431718
503896
503862
433125
499877
500395
500409
500918
501029
501108
502632
502929
503245
503352
503402
503446
503468
503743
503895
503989
503991
504043
504198
504205
504288
504295
504297
504381
504393
504430
504556
504573
504594
504596
504612
504643
504703
504714
504776
504835
504968
504992
505015
505035
505036
505043
505132
505226
505235
505328
505434
505465
505659
505745
505746
505753
504660
505912
506282
506402
506405
432684
496316
504454
432166
433486
432710
498226
498543
500203
500507
500587
500589
500617
500650
500999
501455
502135
502450
502973
503038
503039
503192
503248
503426
503483
503622
503776
503841
503893
503901
504101
504102
504207
504224
504263
504266
504373
504387
504399
504406
504412
504419
504477
504478
504483
504503
504504
504507
504508
504519
504576
504586
504602
504624
504696
504737
504789
504804
504806
504813
504821
504856
504869
504929
432669
505007
505045
505161
505270
505315
505321
505348
505350
505369
505380
505407
505455
505530
505541
505768
505810
505939
506126
506166
507128
507630
498437
499781
500908
501908
502253
502446
503005
503146
503207
503299
503388
503410
503800
503894
503909
504034
504085
504092
504109
504211
504214
504222
504340
504591
504634
504690
504694
504724
504756
504780
504788
504799
504874
505037
505082
505112
505115
505138
505151
505248
505276
505463
505525
505580
505593
505670
505742
505948
506090
489268
431624
506543
507835
433024
498550
433393
499687
498348
496640
499162
499460
499591
499873
501018
501940
502246
502445
502928
502953
503191
503463
503569
503587
503594
503695
503876
503987
504032
504142
504209
504233
504523
504532
504534
504540
504551
504615
504623
504638
504697
504698
504764
504792
504824
504831
504867
504927
504928
504939
504944
504956
505000
505026
505031
505096
505158
505168
505183
505282
505287
505322
505372
505445
505458
505535
505547
505559
505567
505624
505647
505649
505755
505819
433202
506827
434342
504651
432705
433661
501325
431987
492822
500595
500907
501007
501307
501808
502140
502250
502532
502944
503097
503261
503357
503391
503681
503795
503865
503866
503868
503907
503926
504025
504114
504133
504148
504281
504282
504285
504287
504293
504308
504329
504343
504391
504411
504421
504428
504429
504472
504480
504513
504559
504584
504593
504679
504706
504717
504738
504822
504854
431891
504887
504924
504941
504961
504995
505013
505038
505050
505060
505076
505108
505118
505130
505157
505332
505336
505346
505425
505430
505439
505469
505534
505542
505554
505558
505566
505571
505574
505723
505759
505976
506191
506548
506578
506774
432863
508453
508664
431201
499882
498121
503243
431274
499267
500186
500580
501318
502141
502335
502545
502965
502986
503043
503098
503380
503490
503575
503606
503688
503779
503789
503791
503899
503928
503996
504073
504096
504112
504174
504286
432415
504517
504590
504684
504701
504713
504735
504765
504774
504829
504895
504971
505012
505044
505123
505172
505181
505204
505251