/*--------------------------------*- C++ -*----------------------------------*\
| =========                 |                                                 |
| \\      /  F ield         | OpenFOAM: The Open Source CFD Toolbox           |
|  \\    /   O peration     | Version:  2406                                  |
|   \\  /    A nd           | Website:  www.openfoam.com                      |
|    \\/     M anipulation  |                                                 |
\*---------------------------------------------------------------------------*/
FoamFile
{
    version     2.0;
    format      ascii;
    arch        "LSB;label=32;scalar=64";
    class       Cloud<dsmcParcel>;
    location    "0.01/lagrangian/dsmc";
    object      positions;
}
// * * * * * * * * * * * * * * * * * * * * * * * * * * * * * * * * * * * * * //

9444
(
(0.2735012932 0.1019757846 -2.168404345e-19) 175
(0.2854705018 0.08353339749 -2.710505431e-19) 57
(0.3041455495 0.1066747129 2.168404345e-19) 149
(0.3012981353 0.1087365647 0) 179
(0.2796676734 0.1383888377 1.084202172e-19) 356
(0.2523426638 0.1081006659 -5.421010862e-20) 203
(0.2087130819 0.07536723092 0) 107
(0.2291001629 0.06451858975 -1.355252716e-19) 20
(0.223772515 0.1042861128 -8.131516294e-20) 229
(0.267029174 0.1031521983 1.626303259e-19) 175
(0.2991613571 0.08640411498 2.168404345e-19) 59
(0.2969844894 0.09323812117 1.355252716e-19) 88
(0.2500540644 0.07815608018 -2.168404345e-19) 52
(0.3041342119 0.09388737182 6.505213035e-19) 89
(0.266058876 0.07612005398 2.168404345e-19) 24
(0.3026354139 0.1250665238 0) 269
(0.2990569646 0.1525725613 -2.168404345e-19) 419
(0.2879072016 0.1301632845 -2.168404345e-19) 297
(0.2617990502 0.07796604142 9.994988778e-20) 54
(0.2937680285 0.1084814298 1.084202172e-19) 178
(0.2389875063 0.09861908148 2.168404345e-19) 171
(0.2973905367 0.08654936817 -2.168404345e-19) 59
(0.2929290924 0.158857445 -1.829591166e-19) 448
(0.2539805357 0.07028278945 -2.710505431e-20) 23
(0.2774281876 0.07480296137 2.168404345e-19) 26
(0.2622401496 0.08039580803 1.084202172e-19) 54
(0.2767989296 0.1391604526 8.809142651e-20) 356
(0.288472567 0.1283315195 2.168404345e-19) 297
(0.2693452728 0.1510566711 -1.084202172e-19) 415
(0.262845136 0.09382581829 -2.371692252e-20) 144
(0.2331135583 0.1115621986 -2.168404345e-19) 260
(0.2003755182 0.06981323977 0) 76
(0.262150752 0.0863392455 -1.084202172e-19) 84
(0.2932247204 0.08198674053 -1.626303259e-19) 28
(0.3023203178 0.1200333239 -2.168404345e-19) 239
(0.2918706527 0.1104237336 -2.710505431e-19) 178
(0.3019144763 0.1094577128 -2.168404345e-19) 179
(0.2456567842 0.07100408986 -1.084202172e-19) 22
(0.2764835498 0.08720949928 -2.710505431e-20) 86
(0.282776571 0.08062317117 -2.168404345e-19) 27
(0.3019495617 0.1352664075 -3.252606517e-19) 299
(0.233028831 0.06280638516 0) 20
(0.3035997785 0.09674589226 0) 89
(0.25273715 0.07185928922 -1.084202172e-19) 23
(0.2247047323 0.06664581286 -9.486769009e-20) 49
(0.2332637487 0.09788084104 -4.33680869e-19) 170
(0.2961562854 0.09550166565 -2.168404345e-19) 88
(0.2712137743 0.08819723124 -5.421010862e-20) 85
(0.2810032824 0.120792077 -2.168404345e-19) 266
(0.186787447 0.05936969959 -1.355252716e-20) 44
(0.166821835 0.07493722471 2.168404345e-19) 131
(0.2951286255 0.1110704881 -1.084202172e-19) 178
(0.2797836737 0.1209469646 -2.168404345e-19) 266
(0.2306459222 0.08738264976 5.421010862e-20) 140
(0.2759019462 0.08169722118 0) 56
(0.2748824431 0.1035063805 0) 176
(0.2563585087 0.1237104369 0) 293
(0.2607944757 0.07414062448 0) 24
(0.2701772761 0.07377761052 2.710505431e-20) 25
(0.2988407444 0.09281624219 -1.084202172e-19) 89
(0.2836008662 0.1176153064 3.252606517e-19) 237
(0.221530776 0.09402414842 -2.168404345e-19) 169
(0.2591201671 0.1049365981 -1.084202172e-19) 204
(0.2865192477 0.08379330402 2.168404345e-19) 57
(0.2937367236 0.1175414527 0) 238
(0.2762462812 0.09714436749 6.505213035e-19) 146
(0.2368745852 0.07597295977 -2.710505431e-20) 81
(0.2642856016 0.08543563042 0) 84
(0.2990422471 0.1484338887 -2.168404345e-19) 389
(0.2375483196 0.07196847271 0) 51
(0.2497493377 0.06875894707 2.168404345e-19) 22
(0.1942432061 0.0802210785 0) 135
(0.2675071928 0.09670630442 -2.168404345e-19) 145
(0.2763771486 0.1194763774 -2.168404345e-19) 266
(0.287550198 0.1388054537 -4.33680869e-19) 357
(0.2736093214 0.084620498 -6.505213035e-19) 55
(0.2658386382 0.09156599229 0) 114
(0.3011447424 0.1050127374 1.084202172e-19) 149
(0.2891113213 0.1289183267 2.168404345e-19) 297
(0.2821045187 0.1406660156 2.168404345e-19) 357
(0.2438132849 0.1394112212 -8.67361738e-19) 381
(0.2948477695 0.1017618293 0) 148
(0.3042752774 0.135449928 -2.168404345e-19) 299
(0.2989613629 0.105802449 5.421010862e-19) 149
(0.2218860332 0.09709522582 -1.084202172e-19) 199
(0.2830082498 0.1639625843 0) 477
(0.2882856522 0.09107713456 4.472333962e-19) 87
(0.2551162904 0.08582225962 1.355252716e-20) 113
(0.2604032039 0.07180371158 0) 24
(0.2909828956 0.101723778 -3.252606517e-19) 148
(0.2040197806 0.06548685447 0) 46
(0.2025696474 0.1385185573 -1.084202172e-19) 406
(0.2348221577 0.1463137909 -2.168404345e-19) 440
(0.3041152083 0.08149869653 0) 29
(0.296030529 0.1185486342 2.168404345e-19) 238
(0.2911356231 0.08803143931 2.032879073e-20) 58
(0.1752408256 0.06155418881 -2.168404345e-19) 72
(0.2854773088 0.07930311666 8.131516294e-20) 27
(0.2677816498 0.08035790904 -1.626303259e-19) 55
(0.2548891 0.09886741438 2.710505431e-20) 173
(0.2077580514 0.07927555135 1.084202172e-19) 107
(0.2649070077 0.1144636259 0) 234
(0.2894429374 0.09056704688 3.252606517e-19) 87
(0.2082012678 0.05672115283 1.084202172e-19) 17
(0.2801674307 0.09376945514 1.084202172e-19) 116
(0.2678265831 0.08685686602 -1.084202172e-19) 85
(0.2317622813 0.09370944649 -1.626303259e-19) 170
(0.2622405532 0.08125897454 -4.33680869e-19) 54
(0.2897323205 0.07858445506 -1.084202172e-19) 28
(0.2513801098 0.1127652245 -4.33680869e-19) 232
(0.2244381471 0.08992031666 2.168404345e-19) 139
(0.2757143627 0.07593912573 -3.252606517e-19) 26
(0.2378429833 0.0676011519 -2.168404345e-19) 21
(0.2951580155 0.1297585259 0) 298
(0.2598046295 0.07572665655 0) 54
(0.2494518877 0.07674664443 2.168404345e-19) 52
(0.3000706761 0.09904173904 4.33680869e-19) 119
(0.2631539851 0.07512205978 1.626303259e-19) 24
(0.2937363437 0.08818539528 1.084202172e-19) 58
(0.2737678371 0.09070996927 0) 115
(0.2649828131 0.1025339998 2.168404345e-19) 174
(0.2965461129 0.1186749863 0) 238
(0.1804659215 0.144416544 -5.421010862e-19) 463
(0.1845418342 0.05330447473 5.421010862e-20) 14
(0.2708465747 0.1169120004 -2.710505431e-20) 235
(0.1979000002 0.07433673519 -1.084202172e-19) 105
(0.2799031352 0.1058582618 -6.09863722e-20) 176
(0.2449693985 0.09006888406 2.710505431e-20) 142
(0.22673057 0.07160840654 2.168404345e-19) 49
(0.2901720754 0.08270965216 0) 28
(0.2348042569 0.09574149468 2.168404345e-19) 170
(0.2803628568 0.09561974307 0) 116
(0.253090796 0.0713467254 5.421010862e-20) 23
(0.3036302354 0.08618164491 0) 29
(0.2966054525 0.1352916555 -2.168404345e-19) 328
(0.260249676 0.07188504665 3.252606517e-19) 24
(0.2731298678 0.07905044635 0) 55
(0.2460699813 0.1169005552 1.406074692e-19) 262
(0.2208340833 0.09995968949 0) 198
(0.2623831739 0.09479553633 -1.626303259e-19) 144
(0.2212952095 0.07592305248 -2.168404345e-19) 79
(0.2328884583 0.06633733561 1.626303259e-19) 20
(0.2605703929 0.09532952586 -4.33680869e-19) 144
(0.2920351051 0.1092556199 1.626303259e-19) 178
(0.2595092231 0.1246099144 -2.168404345e-19) 294
(0.2901996764 0.09859312065 0) 118
(0.2508756996 0.07761090674 0) 52
(0.2981962627 0.1054853706 -2.168404345e-19) 149
(0.2531367324 0.111237248 2.168404345e-19) 233
(0.2725824093 0.1021488734 2.168404345e-19) 175
(0.2338101038 0.09762110563 1.084202172e-19) 170
(0.2214407749 0.0899224575 -1.355252716e-20) 169
(0.2168156714 0.05830988021 8.131516294e-20) 18
(0.3042487554 0.1500554694 0) 389
(0.2746070075 0.08925930775 0) 86
(0.2305023656 0.07703283449 -1.084202172e-19) 80
(0.261034122 0.1034240401 0) 174
(0.2911959266 0.1205801032 -1.084202172e-19) 238
(0.2166192465 0.08031031124 1.084202172e-19) 108
(0.264313821 0.1369938602 0) 354
(0.2707432139 0.08111748351 4.607859233e-19) 55
(0.2509689852 0.07738688097 0) 52
(0.2597348801 0.09211847555 2.168404345e-19) 114
(0.2399815162 0.08527528857 -2.710505431e-20) 111
(0.2726263545 0.09102514074 2.168404345e-19) 115
(0.268825694 0.07310249129 -2.168404345e-19) 25
(0.270346106 0.07992962245 -1.355252716e-20) 55
(0.2398751461 0.06714204042 -1.694065895e-20) 21
(0.194684773 0.07933381148 5.421010862e-20) 135
(0.2648680416 0.1284909961 2.168404345e-19) 324
(0.2497806853 0.1021190185 -2.168404345e-19) 202
(0.2588720717 0.1371602093 0) 353
(0.2320461765 0.06968388263 -5.421010862e-20) 50
(0.2360891821 0.0823265369 0) 110
(0.23658251 0.06538754432 -2.168404345e-19) 21
(0.2182971645 0.08330543978 2.168404345e-19) 138
(0.290241292 0.09527510046 0) 118
(0.2312220195 0.09922794008 1.084202172e-19) 200
(0.2564634501 0.1216648998 2.168404345e-19) 293
(0.2236185885 0.06458703535 0) 19
(0.2883929667 0.08070813569 0) 27
(0.3001726999 0.09555343918 -1.084202172e-19) 89
(0.271843677 0.08591285513 1.084202172e-19) 85
(0.2585405844 0.07795859762 0) 53
(0.2557031037 0.1078879439 2.710505431e-20) 203
(0.2887395635 0.1189967931 -4.607859233e-19) 237
(0.2812982898 0.1076233461 2.168404345e-19) 176
(0.1825747634 0.05359976635 2.168404345e-19) 13
(0.2592277206 0.08479086081 3.252606517e-19) 84
(0.2710882087 0.07641936682 -1.084202172e-19) 25
(0.2485276239 0.08847145713 2.168404345e-19) 112
(0.2318904043 0.08588817871 -4.33680869e-19) 110
(0.2828189164 0.08116395104 -1.626303259e-19) 27
(0.1921118386 0.087893007 5.421010862e-20) 165
(0.2961219915 0.08221202422 4.33680869e-19) 28
(0.2226559265 0.08987636226 -2.168404345e-19) 169
(0.2295004613 0.09563142405 1.084202172e-19) 170
(0.2743194661 0.07768232711 4.33680869e-19) 25
(0.2662012407 0.114753495 0) 234
(0.3025711545 0.1024471992 -1.084202172e-19) 119
(0.2635161633 0.09482584093 -2.168404345e-19) 144
(0.2391639482 0.1176670612 1.084202172e-19) 291
(0.302787531 0.1299335873 0) 269
(0.2833022425 0.08527745981 2.168404345e-19) 57
(0.2521893555 0.08277218389 5.421010862e-20) 83
(0.2444946927 0.1159930146 4.33680869e-19) 262
(0.3021169027 0.1125062527 0) 179
(0.2601471237 0.08936813654 0) 114
(0.2910813481 0.08720696452 0) 58
(0.2008914704 0.1043649606 2.168404345e-19) 256
(0.1965276141 0.07604239511 -2.168404345e-19) 105
(0.2957366362 0.1264201766 -2.168404345e-19) 268
(0.2686783146 0.139658461 0) 355
(0.2384732922 0.1184583625 2.168404345e-19) 291
(0.2576481736 0.1006423328 1.219727444e-19) 173
(0.3017622058 0.09601144855 -1.084202172e-19) 89
(0.2801224042 0.09522803044 2.168404345e-19) 116
(0.2874322729 0.09099284624 -2.168404345e-19) 87
(0.2676179452 0.113840764 0) 235
(0.2061916636 0.07608050686 0) 107
(0.2988580302 0.1136738218 0) 209
(0.1991161467 0.06047716684 6.776263578e-20) 46
(0.2657935029 0.07532781332 2.168404345e-19) 24
(0.2327383524 0.06718751077 -1.626303259e-19) 20
(0.2293859382 0.1118830803 2.168404345e-19) 260
(0.2428751794 0.06623108733 -4.33680869e-19) 21
(0.2577965562 0.1324819243 -2.168404345e-19) 323
(0.1996923244 0.08204874953 1.084202172e-19) 136
(0.2797767283 0.07707353492 0) 26
(0.2179783531 0.09553462063 0) 198
(0.2212739653 0.1433434872 5.929230631e-19) 409
(0.2017099789 0.08216403048 5.421010862e-20) 136
(0.2853923727 0.1284658251 3.794707604e-19) 297
(0.2575501644 0.07200851647 0) 23
(0.271257679 0.1371687944 -1.084202172e-19) 355
(0.2272471479 0.0623932182 -8.67361738e-19) 19
(0.2624335091 0.08733254234 -2.168404345e-19) 84
(0.2454569358 0.07990746298 3.252606517e-19) 82
(0.2791042708 0.07751711185 -1.626303259e-19) 26
(0.2882881694 0.1142373352 0) 207
(0.2931193753 0.1231269481 -3.252606517e-19) 268
(0.2922871592 0.09601890406 -3.252606517e-19) 118
(0.2108106424 0.07201441062 -2.168404345e-19) 77
(0.2555379247 0.1355121554 1.897353802e-19) 353
(0.2847636647 0.1119476871 3.54059772e-19) 207
(0.2558473841 0.08558421643 -5.421010862e-20) 83
(0.246585532 0.09011219806 0) 142
(0.2804869586 0.1160543371 -2.168404345e-19) 236
(0.2978310775 0.07985078241 0) 29
(0.2628490212 0.1385073872 -6.505213035e-19) 354
(0.2859233519 0.08514572878 -1.355252716e-20) 57
(0.2980973321 0.08802706185 0) 59
(0.2103025145 0.07846209956 -5.421010862e-20) 107
(0.3025686736 0.0844375694 0) 29
(0.2686697126 0.1242015681 -4.33680869e-19) 295
(0.237970736 0.07098870111 -2.168404345e-19) 51
(0.246251736 0.08577940061 -5.421010862e-20) 112
(0.3014246249 0.09383535585 -3.252606517e-19) 89
(0.1952328656 0.05534179026 1.558540623e-19) 15
(0.3024501108 0.1552950443 3.252606517e-19) 419
(0.2570151174 0.1197668988 2.168404345e-19) 263
(0.2597577731 0.07950076575 -1.084202172e-19) 54
(0.2856789052 0.08972619464 -1.965116438e-19) 87
(0.2924525621 0.07950868552 1.084202172e-19) 28
(0.2274377977 0.07832591551 0) 79
(0.2876018199 0.08828842341 0) 87
(0.2435581865 0.06964680821 0) 21
(0.2159827634 0.0831382944 3.252606517e-19) 138
(0.2663085922 0.1008284559 -4.33680869e-19) 174
(0.1673101238 0.04727803676 2.168404345e-19) 11
(0.3029069634 0.08500486142 2.168404345e-19) 29
(0.2867222005 0.1107928784 2.168404345e-19) 207
(0.2322079731 0.150322976 -2.168404345e-19) 440
(0.2924011277 0.1107306773 -1.084202172e-19) 178
(0.2715739057 0.1264840551 0) 295
(0.2915463157 0.1017377355 -4.33680869e-19) 148
(0.2020160927 0.07874557827 0) 136
(0.2787178145 0.09884304792 1.084202172e-19) 146
(0.2575464531 0.1098568882 0) 233
(0.2895469392 0.09843542526 -4.33680869e-19) 117
(0.2671436151 0.07382599972 4.33680869e-19) 25
(0.2985035306 0.1222774044 -1.084202172e-19) 239
(0.2504798791 0.07123521997 -2.168404345e-19) 22
(0.2990980276 0.08398400032 0) 29
(0.2471598421 0.06961974368 -4.065758147e-20) 22
(0.260066808 0.09020256108 -1.084202172e-19) 114
(0.2924288782 0.1473011214 2.710505431e-19) 388
(0.2526197928 0.09227881824 -1.084202172e-19) 143
(0.2567290191 0.09037324157 1.084202172e-19) 113
(0.2995597249 0.1226917827 -2.439454888e-19) 239
(0.2906602349 0.0787627352 -2.032879073e-20) 28
(0.2723810425 0.1068994942 2.168404345e-19) 175
(0.2692721527 0.09573163414 -1.084202172e-19) 145
(0.2392982773 0.07438482796 0) 51
(0.2430901599 0.1180578252 0) 291
(0.2579267328 0.08527239783 2.168404345e-19) 83
(0.2625280942 0.1272830494 2.168404345e-19) 294
(0.2891997141 0.08786853517 0) 57
(0.2564645671 0.07200514418 0) 23
(0.2809631255 0.1010149892 -2.168404345e-19) 146
(0.2766698536 0.08634099928 -2.168404345e-19) 86
(0.1969085107 0.05293234739 0) 15
(0.2252634756 0.06578710489 -2.710505431e-19) 19
(0.2402119864 0.07972476172 -6.776263578e-20) 81
(0.2970901643 0.1429516865 -4.235164736e-20) 358
(0.2803986488 0.08730635595 4.33680869e-19) 86
(0.2995434544 0.1110558409 0) 179
(0.2718288869 0.09699929986 -2.168404345e-19) 145
(0.2518665363 0.1184898352 2.168404345e-19) 263
(0.2969051268 0.1043097183 3.04931861e-19) 148
(0.2679732737 0.09575718929 4.607859233e-19) 145
(0.2841488458 0.1099436374 -1.084202172e-19) 207
(0.2492935247 0.08637341499 -1.084202172e-19) 112
(0.2066725261 0.07956509681 2.710505431e-19) 107
(0.2260050062 0.09044743515 1.084202172e-19) 139
(0.2828079884 0.1002767302 -4.33680869e-19) 147
(0.2612060165 0.09851570912 6.505213035e-19) 144
(0.2630312757 0.124450971 -1.626303259e-19) 294
(0.2446679878 0.0842281179 5.421010862e-20) 112
(0.2855002208 0.07836334593 -8.131516294e-20) 27
(0.2670688525 0.09648583953 2.168404345e-19) 145
(0.2965275236 0.08030118103 2.168404345e-19) 28
(0.235940683 0.06678846895 0) 20
(0.2202339912 0.06155258739 2.710505431e-19) 18
(0.2805125464 0.1425173921 2.168404345e-19) 356
(0.2929974213 0.08707914995 2.439454888e-19) 58
(0.2914488724 0.09529038432 4.33680869e-19) 118
(0.2707638591 0.1079306871 -2.168404345e-19) 205
(0.18506855 0.1062853689 -1.084202172e-19) 284
(0.2761680258 0.08904428183 0) 86
(0.28689314 0.09181100048 -1.084202172e-19) 87
(0.271357672 0.08673385573 2.710505431e-20) 85
(0.2338872088 0.07382761233 0) 50
(0.2803889245 0.1221177208 3.252606517e-19) 266
(0.2698043448 0.07644526769 -2.168404345e-19) 25
(0.2751120844 0.1443310156 -2.168404345e-19) 386
(0.2857500929 0.1209126062 -2.059348853e-20) 237
(0.2987040527 0.1227773655 0) 239
(0.2700113944 0.1008145042 -2.168404345e-19) 175
(0.2361327118 0.1086950561 0) 230
(0.2804218593 0.1116569005 2.676624113e-19) 206
(0.2173028589 0.08039065437 -1.355252716e-20) 108
(0.2570360754 0.08350157473 0) 83
(0.1867480934 0.05059575652 -2.168404345e-19) 14
(0.2653700476 0.1014295282 1.084202172e-19) 174
(0.266883795 0.1419896622 0) 385
(0.2425582209 0.09870105123 -2.168404345e-19) 171
(0.2997694029 0.1205077015 2.168404345e-19) 239
(0.2817295806 0.1615855518 0) 476
(0.2967118029 0.08651213125 0) 58
(0.2758265292 0.09274020966 0) 116
(0.2800752298 0.08818112919 1.084202172e-19) 86
(0.294094119 0.09850867321 -5.421010862e-20) 118
(0.1979873748 0.07134252314 4.33680869e-19) 75
(0.2721650973 0.1326297963 3.252606517e-19) 325
(0.264152077 0.09166784753 0) 114
(0.2406595267 0.1041784186 1.084202172e-19) 201
(0.2643960672 0.0858531517 0) 84
(0.2331005144 0.1150854572 5.963111949e-19) 260
(0.2916955664 0.09496907251 1.084202172e-19) 118
(0.2924759985 0.1093520195 0) 178
(0.2697154567 0.09498287063 0) 115
(0.3040277116 0.08566283945 2.168404345e-19) 29
(0.2464806782 0.07793667181 1.084202172e-19) 82
(0.2534811057 0.08171135746 -5.421010862e-20) 83
(0.2738734411 0.08710705243 5.421010862e-20) 85
(0.2612183544 0.1165200721 2.168404345e-19) 264
(0.3032625673 0.1425802393 -2.168404345e-19) 359
(0.2372925298 0.06410225351 2.168404345e-19) 21
(0.2696782531 0.09266500882 5.421010862e-20) 115
(0.2906993041 0.1045183736 0) 148
(0.2725510816 0.07959874748 0) 55
(0.2330172462 0.07847370046 1.626303259e-19) 80
(0.2769219272 0.0854101561 0) 56
(0.3030138433 0.1273214247 2.168404345e-19) 269
(0.2901526777 0.1101209629 2.168404345e-19) 178
(0.1715390926 0.07285824809 0) 132
(0.2868114912 0.1414165575 0) 357
(0.1699622589 0.06052712828 2.981555974e-19) 72
(0.1800821165 0.06178567592 0) 73
(0.2386983858 0.07445175903 -5.421010862e-20) 51
(0.2973821437 0.1553883023 2.168404345e-19) 419
(0.2823546568 0.08149687988 -2.168404345e-19) 57
(0.1918607711 0.05777834227 2.168404345e-19) 45
(0.1336266163 0.05898667096 -2.439454888e-19) 97
(0.2831081295 0.09713702409 -2.168404345e-19) 117
(0.2301322145 0.06959473532 -1.084202172e-19) 50
(0.2501718191 0.0794257871 4.33680869e-19) 82
(0.2408540087 0.1098238717 -2.168404345e-19) 231
(0.1813520424 0.07527434373 -2.168404345e-19) 133
(0.2399155433 0.06627859835 3.388131789e-20) 21
(0.1860701301 0.05651994838 -5.421010862e-20) 44
(0.2993889204 0.1068270866 0) 149
(0.1873763479 0.06847560915 -2.710505431e-19) 74
(0.2412719507 0.0887830305 4.33680869e-19) 141
(0.2588331096 0.09274754645 2.168404345e-19) 143
(0.2931812421 0.1285880964 -9.486769009e-20) 298
(0.2372535525 0.08101836133 4.33680869e-19) 81
(0.2432357631 0.06567499232 0) 21
(0.2229041575 0.1283526563 0) 349
(0.2301332283 0.07712845231 1.626303259e-19) 80
(0.2377120447 0.08018895681 2.168404345e-19) 81
(0.2776335096 0.1256253777 2.168404345e-19) 296
(0.2663160609 0.1153246025 -4.33680869e-19) 234
(0.2879623257 0.1085883823 0) 177
(0.287222474 0.09846818446 -1.084202172e-19) 117
(0.1922799226 0.06090117721 8.131516294e-20) 45
(0.2658413087 0.1274275288 -2.168404345e-19) 294
(0.1897913961 0.05138318028 -2.168404345e-19) 14
(0.1894730977 0.07304943421 0) 104
(0.292681385 0.1514529948 -7.589415207e-19) 418
(0.2656163303 0.1260419181 0) 294
(0.2874212622 0.08179647534 -2.168404345e-19) 27
(0.2081965282 0.05742093275 0) 17
(0.2338696728 0.141282616 -4.33680869e-19) 410
(0.172559586 0.07847638846 -2.168404345e-19) 162
(0.2208553627 0.07428947048 0) 78
(0.2991644082 0.147295089 -2.168404345e-19) 389
(0.1957926621 0.05748932601 -1.084202172e-19) 15
(0.256550111 0.1031059943 -2.168404345e-19) 173
(0.2501076566 0.06756786998 2.168404345e-19) 22
(0.3033335193 0.08515014631 2.168404345e-19) 29
(0.2400654999 0.06802815835 8.131516294e-20) 21
(0.273877642 0.09581939423 -2.168404345e-19) 115
(0.2973579416 0.08539975052 -8.131516294e-20) 59
(0.2374954464 0.07848141876 3.591419696e-19) 81
(0.289038188 0.1263453485 0) 267
(0.2540901695 0.1003354926 -5.421010862e-20) 173
(0.2502870065 0.1084238732 0) 232
(0.2152896938 0.0727512883 2.168404345e-19) 78
(0.1546267604 0.05783349951 1.355252716e-19) 70
(0.2167527216 0.07486080045 3.252606517e-19) 78
(0.2459418896 0.06981339442 -1.084202172e-19) 22
(0.2903542638 0.08917409326 -2.168404345e-19) 88
(0.2128301389 0.06431048587 -2.168404345e-19) 47
(0.2380788834 0.07265187539 1.307607112e-19) 51
(0.2508833617 0.08413601235 0) 82
(0.2140551097 0.05834474773 5.421010862e-20) 18
(0.1808527476 0.05463157464 2.168404345e-19) 13
(0.2061926528 0.06744230413 -1.897353802e-19) 47
(0.2251998023 0.08371431071 2.168404345e-19) 109
(0.1488512579 0.06540667554 8.67361738e-19) 99
(0.2596560729 0.08344449766 0) 84
(0.2005769304 0.06176084523 -1.084202172e-19) 46
(0.2056666408 0.1235778727 0) 346
(0.2929865677 0.1397690502 0) 358
(0.2327069033 0.07035739567 2.168404345e-19) 50
(0.2528043319 0.07925103115 3.252606517e-19) 53
(0.3033957849 0.1399998288 0) 329
(0.1930504758 0.08741376237 5.421010862e-20) 165
(0.2807853776 0.0791082064 2.168404345e-19) 26
(0.2803983504 0.1395390849 5.421010862e-20) 356
(0.2479616812 0.06851143736 0) 22
(0.2775385239 0.08107894365 5.421010862e-20) 56
(0.2644049189 0.1394339778 -2.168404345e-19) 354
(0.1829164249 0.05560429872 1.626303259e-19) 44
(0.2320766382 0.09437395314 -2.710505431e-20) 170
(0.2223098572 0.07237149559 0) 79
(0.2599618763 0.08623614539 0) 84
(0.2639423438 0.07455596863 1.084202172e-19) 24
(0.2527130316 0.07896023902 5.421010862e-20) 53
(0.239307263 0.0744879317 2.168404345e-19) 51
(0.2158441824 0.0977242472 1.084202172e-19) 198
(0.2822862484 0.07815511999 0) 27
(0.1955805452 0.06378362024 -2.168404345e-19) 45
(0.1459353668 0.07598107011 -3.252606517e-19) 159
(0.2614516025 0.1097511227 1.084202172e-19) 204
(0.2669651759 0.1079196049 4.33680869e-19) 205
(0.3040840283 0.09085254744 2.168404345e-19) 59
(0.2954966076 0.08398634691 0) 28
(0.2468941744 0.08898784098 -2.168404345e-19) 112
(0.2616695136 0.1032709416 0) 174
(0.2651135963 0.1008513032 -4.33680869e-19) 174
(0.2860976831 0.08135221801 5.421010862e-20) 27
(0.2153283519 0.08134613084 -2.168404345e-19) 108
(0.292386591 0.09462633825 2.168404345e-19) 88
(0.2619181579 0.07325943059 1.084202172e-19) 24
(0.2704614861 0.1140628967 5.082197684e-20) 235
(0.2840473679 0.1440519303 0) 387
(0.3019286379 0.09132126033 -6.505213035e-19) 59
(0.2936855656 0.08917686922 -2.439454888e-19) 58
(0.2073613126 0.06782709882 -2.168404345e-19) 77
(0.2985062731 0.08307600993 5.421010862e-20) 29
(0.2469437764 0.06775610844 5.421010862e-20) 22
(0.202296513 0.06542834823 8.131516294e-20) 46
(0.2617321605 0.08064126824 4.33680869e-19) 54
(0.2867256164 0.08593165764 -1.084202172e-19) 57
(0.2606985571 0.08456030882 -2.168404345e-19) 84
(0.2749919029 0.07984606077 -2.151463686e-19) 56
(0.2517841586 0.08514237282 -2.168404345e-19) 113
(0.1856277291 0.06868939035 -1.084202172e-19) 104
(0.2917656978 0.1228003185 -1.084202172e-19) 268
(0.2372769844 0.09869106788 2.168404345e-19) 171
(0.2668733706 0.07186542742 -3.252606517e-19) 25
(0.3004411017 0.11885729 -2.168404345e-19) 209
(0.2018207214 0.06405911077 0) 46
(0.1896168223 0.0972365204 1.897353802e-19) 224
(0.268151874 0.1037743368 -1.626303259e-19) 175
(0.1802618863 0.06488451859 3.252606517e-19) 73
(0.2931252953 0.1303408906 0) 298
(0.2746371553 0.131898732 0) 326
(0.2214774304 0.08888885519 -4.33680869e-19) 139
(0.2205588439 0.0795295713 -1.626303259e-19) 108
(0.224806942 0.09584922915 -3.947173534e-19) 169
(0.2409293365 0.08676656818 -1.084202172e-19) 111
(0.2971263846 0.1119475864 0) 178
(0.2753281453 0.1042036931 4.33680869e-19) 176
(0.2853817856 0.09164865079 -3.252606517e-19) 87
(0.2932984653 0.1434036399 -1.084202172e-19) 358
(0.1847642148 0.08974246789 2.168404345e-19) 194
(0.2355622831 0.08683519692 0) 140
(0.2501521086 0.08708993395 5.421010862e-20) 112
(0.2816926767 0.12524057 0) 266
(0.2739271359 0.09213004863 2.168404345e-19) 115
(0.300366846 0.1109001266 0) 179
(0.2445239883 0.113003773 -9.486769009e-20) 262
(0.2714587097 0.08818112873 1.084202172e-19) 85
(0.2103147136 0.07186580939 1.084202172e-19) 77
(0.2913506591 0.1002563199 -2.168404345e-19) 118
(0.2644225839 0.07178317714 0) 24
(0.2405176202 0.100802332 0) 201
(0.2121771259 0.08042648255 2.168404345e-19) 107
(0.293520474 0.08085634618 0) 28
(0.2464433725 0.1167373041 2.507217524e-19) 262
(0.1955084275 0.05267318829 0) 15
(0.1780886204 0.07830926692 -4.33680869e-19) 133
(0.2494103235 0.1429633298 0) 412
(0.2356302672 0.1224296452 0) 320
(0.2782889755 0.07872984253 1.355252716e-20) 26
(0.2701644595 0.1362839377 0) 355
(0.232310976 0.07353248957 2.168404345e-19) 50
(0.2278838559 0.06431634624 2.168404345e-19) 19
(0.2603748366 0.1385507999 -2.168404345e-19) 354
(0.2625243629 0.1222877724 8.131516294e-20) 294
(0.1930166879 0.09857229928 -8.131516294e-20) 225
(0.2755867086 0.1259477681 3.523657061e-19) 296
(0.228295331 0.06778187795 4.33680869e-19) 49
(0.2259127823 0.1040049404 2.168404345e-19) 229
(0.2547771933 0.1095808051 -2.710505431e-19) 233
(0.236267997 0.071090558 -2.168404345e-19) 51
(0.1645220201 0.04627987949 -1.084202172e-19) 11
(0.2582997017 0.1464189569 -1.084202172e-19) 413
(0.2225037979 0.07714765268 2.168404345e-19) 79
(0.2339981542 0.07184243598 -2.168404345e-19) 50
(0.1628269547 0.05857492775 0) 71
(0.2738591476 0.0923509974 0) 115
(0.2415945646 0.118663528 0) 291
(0.1944819929 0.06913668086 0) 75
(0.2985538578 0.09123330693 -2.168404345e-19) 89
(0.2213311712 0.0793445222 2.168404345e-19) 109
(0.2111079237 0.05841564636 0) 17
(0.2304732128 0.1298068441 0) 350
(0.2872970633 0.09169873342 0) 87
(0.2981750352 0.08477048087 2.710505431e-20) 29
(0.2305982577 0.09391593393 -1.084202172e-19) 170
(0.2924206804 0.1206295968 8.470329473e-20) 238
(0.2471832333 0.07944425409 0) 82
(0.2965221238 0.09302163554 8.131516294e-20) 88
(0.2202164442 0.06017129359 -2.168404345e-19) 18
(0.2292946615 0.09032914559 -2.168404345e-19) 140
(0.2288319507 0.07704745237 1.084202172e-19) 80
(0.1906972054 0.06947285633 0) 75
(0.2989080749 0.08637816217 -2.168404345e-19) 59
(0.2604900638 0.082482143 8.131516294e-20) 84
(0.2841264589 0.1267402925 -4.33680869e-19) 297
(0.3010009168 0.09083673636 1.321371398e-19) 59
(0.2077332403 0.0773028535 0) 107
(0.1799090566 0.06903294576 1.084202172e-19) 103
(0.2583232239 0.1223198188 2.168404345e-19) 293
(0.2467263652 0.1259056176 2.168404345e-19) 322
(0.2625178531 0.07329032145 4.743384505e-20) 24
(0.2906139032 0.08045730322 0) 28
(0.2391186862 0.07262362113 -1.626303259e-19) 51
(0.2489573843 0.1195949829 2.168404345e-19) 292
(0.2673820812 0.1434668196 -1.626303259e-19) 385
(0.277521379 0.0758480764 2.168404345e-19) 26
(0.2845407791 0.07690234797 0) 27
(0.2356198475 0.08408389738 -2.168404345e-19) 110
(0.1898720049 0.07385849361 -2.168404345e-19) 104
(0.2787653694 0.1141431106 0) 236
(0.2304834123 0.09823332412 0) 200
(0.2768296314 0.150696625 -5.421010862e-20) 416
(0.2442305092 0.1142840085 2.168404345e-19) 262
(0.2934169787 0.09750158791 -2.168404345e-19) 118
(0.1976401832 0.06745789441 0) 75
(0.1942114507 0.05642324885 2.168404345e-19) 15
(0.2428184939 0.06624196008 -2.168404345e-19) 21
(0.2677224702 0.0896852924 1.558540623e-19) 115
(0.2129763486 0.07746676725 3.252606517e-19) 107
(0.2867378312 0.121719106 -2.168404345e-19) 267
(0.2413319733 0.1069940785 2.168404345e-19) 231
(0.2363269797 0.09903089754 -4.065758147e-20) 201
(0.254495604 0.1388427396 0) 383
(0.1878066278 0.08586118611 0) 164
(0.2010879274 0.07273480713 6.505213035e-19) 106
(0.2647928533 0.1204199945 0) 264
(0.274325515 0.09725937587 2.168404345e-19) 146
(0.2619730338 0.1113215506 3.252606517e-19) 234
(0.2488396773 0.1189358294 1.084202172e-19) 262
(0.249461511 0.07151827934 2.168404345e-19) 22
(0.2008996028 0.08126538669 -1.084202172e-19) 136
(0.255717145 0.09950386475 -1.084202172e-19) 173
(0.2373927127 0.08604886533 -2.168404345e-19) 111
(0.2772471578 0.1392088736 8.131516294e-20) 356
(0.1786363641 0.08919053586 -1.355252716e-19) 193
(0.2200070958 0.1123445511 2.168404345e-19) 258
(0.2779999719 0.1144658513 0) 236
(0.2921647574 0.08763728653 5.421010862e-20) 58
(0.2401408037 0.111169051 5.421010862e-20) 231
(0.2002582632 0.06657416184 -1.084202172e-19) 76
(0.2771621747 0.08558743176 -2.168404345e-19) 86
(0.2487024544 0.074644364 1.084202172e-19) 52
(0.2601310429 0.08124790703 -2.168404345e-19) 84
(0.2757420755 0.07784978963 1.084202172e-19) 26
(0.3038424669 0.1208882217 2.168404345e-19) 239
(0.2266085219 0.1093928182 0) 259
(0.2399665189 0.07435860592 1.084202172e-19) 51
(0.1962943134 0.09418138442 2.168404345e-19) 195
(0.1936292995 0.06301222804 0) 45
(0.2153377595 0.1241938828 0) 318
(0.2297877841 0.08800957207 0) 140
(0.276123015 0.085337901 0) 86
(0.1962269361 0.09311720121 0) 195
(0.2320899174 0.07037449723 1.897353802e-19) 50
(0.2133604122 0.07603944645 0) 108
(0.2803668237 0.1475163236 0) 386
(0.2916756755 0.1367369454 1.626303259e-19) 328
(0.1933797556 0.07046804172 -2.168404345e-19) 105
(0.1929487404 0.103075043 -1.084202172e-19) 255
(0.2877534484 0.09211464473 0) 87
(0.2998534 0.126894787 -2.168404345e-19) 269
(0.2907040496 0.1053120853 -5.421010862e-20) 148
(0.2316214214 0.06297770235 2.710505431e-19) 20
(0.2927811222 0.1002248939 0) 118
(0.2731910378 0.08909335894 0) 85
(0.2798110854 0.08129361878 2.168404345e-19) 56
(0.2610154742 0.09688990057 2.168404345e-19) 144
(0.2644127032 0.08670704474 -2.168404345e-19) 84
(0.2757663546 0.1031970846 2.168404345e-19) 176
(0.2013812073 0.06485630872 2.168404345e-19) 46
(0.2553005265 0.1069026696 8.809142651e-20) 203
(0.2513041415 0.1031046432 2.168404345e-19) 202
(0.2313750143 0.08467202769 -3.252606517e-19) 110
(0.2250661987 0.0945506488 -2.710505431e-20) 169
(0.2670488733 0.086256814 -2.168404345e-19) 85
(0.2157710064 0.07495703283 -4.33680869e-19) 78
(0.2413928731 0.07622079913 -2.168404345e-19) 51
(0.2523839895 0.07678700384 5.421010862e-20) 53
(0.3002373753 0.1420757954 0) 359
(0.2784849865 0.1039147043 0) 176