/*--------------------------------*- C++ -*----------------------------------*\
| =========                 |                                                 |
| \\      /  F ield         | OpenFOAM: The Open Source CFD Toolbox           |
|  \\    /   O peration     | Version:  2406                                  |
|   \\  /    A nd           | Website:  www.openfoam.com                      |
|    \\/     M anipulation  |                                                 |
\*---------------------------------------------------------------------------*/
FoamFile
{
    version     2.0;
    format      ascii;
    arch        "LSB;label=32;scalar=64";
    class       vectorField;
    location    "0.01/lagrangian/dsmc";
    object      U;
}
// * * * * * * * * * * * * * * * * * * * * * * * * * * * * * * * * * * * * * //


9444
(
(1003.268402 490.0082424 -617.6786639)
(591.556311 -210.2230349 -443.3135314)
(1853.839179 1007.826762 -716.3133244)
(178.2731505 204.3966707 -480.2725138)
(901.3645372 -196.6390817 -493.0124363)
(1407.125035 -473.0106433 -439.3792844)
(-579.7996437 627.4525962 430.6362119)
(790.3983548 -467.8600897 687.5564486)
(385.3975245 826.9350347 -467.2755339)
(995.0831538 688.511393 -252.9096476)
(815.045326 202.0477114 -506.4451287)
(478.3125014 1170.095307 -341.0042143)
(517.3412856 -106.6391508 -235.0861062)
(843.6042775 -106.7194233 425.3352233)
(93.16544508 -747.9291486 33.53965679)
(730.2065507 4.922084539 -286.8037985)
(439.5487629 1036.200626 46.8971977)
(979.2029834 194.6517288 145.593609)
(11.19248657 194.9808495 -266.7101472)
(1158.955356 906.3081339 905.7660979)
(-685.6782128 355.2481982 59.855453)
(451.2660087 228.2730137 839.498825)
(1548.826538 483.0633633 229.0681082)
(225.2544089 -183.525719 -59.14798929)
(560.551216 125.1702282 247.1226252)
(96.56027317 621.0010574 -236.9475415)
(178.162094 576.9155417 278.9793609)
(1356.776317 67.72783476 -88.38122003)
(1207.972706 506.0681499 243.7161217)
(518.8881089 107.2604838 -322.5588171)
(1338.821752 585.1588734 -429.2642657)
(-388.7279866 246.1482694 -434.5024612)
(246.8965048 -559.8162875 -1486.005736)
(1266.899764 -472.4213871 18.12702633)
(354.5070607 243.8761622 -353.4742467)
(1770.418713 -618.3203451 360.1289222)
(713.8842769 -349.9438587 574.7741773)
(1245.047457 953.5438435 554.3764314)
(-22.80591225 912.7061622 319.5551695)
(1005.785839 132.3621619 -631.9540668)
(949.8865954 934.1496986 630.3339588)
(-733.1017925 123.0558171 -116.5389364)
(307.5722309 111.4217948 5.508693953)
(77.33885086 596.8563154 547.7003883)
(-676.3129373 232.0772552 -329.4754753)
(466.2704573 -81.73983438 284.4469774)
(851.715317 39.19490947 147.5583119)
(331.1723638 69.924459 -398.7950367)
(644.4719273 439.9757962 -447.8071935)
(-31.47804861 -209.7742826 -513.9698035)
(287.2620632 -260.2990173 -939.8176738)
(1627.330546 119.6480114 379.8760759)
(106.8516167 477.6664833 -177.6670805)
(801.6519711 608.3163816 -398.7686481)
(-434.3515005 19.00169476 -32.7388734)
(1404.91279 127.2432313 -378.0404865)
(793.2116356 417.1585943 923.7382707)
(624.3881871 -695.2717455 -493.4220945)
(-55.09604724 -782.7999859 -287.5562269)
(-448.3652574 558.6382254 247.4066296)
(1083.761812 814.1795519 1164.573957)
(-100.2696974 353.8303987 582.3685372)
(711.8740899 227.8620802 -317.1977705)
(22.77582099 254.9481546 55.415581)
(801.003453 698.5508229 81.63934952)
(54.91041162 -493.7310361 174.6849078)
(-35.88535466 -392.0417668 791.834851)
(757.5881244 -505.1916276 -632.6050555)
(1680.319099 762.0830859 -67.7374043)
(808.1963949 -545.5356106 689.2290961)
(354.3840263 216.2222919 -553.0218461)
(657.2330513 -356.4906988 -438.0633661)
(549.8269235 97.15469195 198.9864477)
(909.0451067 472.9480685 177.9580096)
(1713.540519 1442.814787 45.6790065)
(318.6322195 88.71760879 -945.3656094)
(-176.6782207 561.6225384 10.04814231)
(547.2238283 283.2697079 -535.0537009)
(1154.713615 798.3491137 601.0386566)
(1419.304122 688.7360192 555.7311427)
(1038.516621 1127.423799 -32.57337865)
(-43.55897073 -71.40874448 -347.5590448)
(418.7010347 786.1608504 -320.4141536)
(1011.660749 -167.1168904 -503.2307398)
(565.9335311 -211.5226755 693.694921)
(423.5144733 173.010965 308.1877806)
(21.50169889 -679.0776536 -246.0265617)
(1024.007209 -45.5831682 -577.8462641)
(121.6170839 170.0139582 228.4031388)
(363.9866161 32.41946278 65.78963923)
(356.3636897 220.6093059 -597.8871047)
(46.64101269 483.9764301 -316.3380927)
(1808.321198 988.3523463 417.7184955)
(-283.2407659 18.49573248 6.029994523)
(372.5297677 520.25009 -418.577316)
(-13.29389937 582.0464908 410.8029258)
(-83.30595359 -162.2800926 286.4359571)
(-138.2126886 546.7337508 -133.5073491)
(718.5379964 369.3665839 -8.719916965)
(248.397279 131.5498931 -600.4712642)
(267.6320502 29.55760643 -553.6395234)
(1214.024569 1266.339607 122.9056011)
(885.3331816 -394.0142386 537.9864788)
(366.9926795 202.9721557 219.0846996)
(806.9797365 -52.31981687 -132.3684969)
(265.5000426 -536.0704166 228.3245365)
(691.3618937 386.0207497 -343.2358796)
(549.8338906 428.9811518 -470.585164)
(275.3633316 81.45403999 -259.9344002)
(463.5347539 -17.51312891 -241.76099)
(1747.371633 76.74494305 1544.072465)
(296.797926 234.6969894 95.10409717)
(-464.8035621 280.8971478 32.90851473)
(1198.263742 888.1976987 -223.3053604)
(-369.5590768 659.2892838 -585.3869128)
(-422.8816346 667.5221429 -97.72815726)
(-408.149932 1266.227742 537.6277762)
(201.4593853 536.7395999 -76.98202759)
(175.049803 476.4573774 -801.8912967)
(280.560625 854.288726 -1092.039455)
(-124.430645 202.5114739 245.8369583)
(1368.159507 398.7815905 -189.355376)
(898.8456448 1341.934762 705.7770332)
(-152.1602759 -56.87618768 445.1001287)
(-408.6311338 223.886557 708.8353666)
(0.01536783928 318.4385996 -58.40344203)
(652.0592488 81.9380038 61.5929372)
(85.20837316 -263.0524967 301.6310667)
(554.1833298 179.1349208 941.9896193)
(374.124843 306.0865091 761.2313508)
(2043.771865 97.48776611 81.06372844)
(169.5862581 -162.7943921 -200.0623704)
(-496.4069599 200.3497472 -728.9579125)
(1107.668864 559.3994428 224.9806512)
(816.8864083 154.7087715 -415.3379964)
(-85.63427982 118.4666719 101.2091976)
(1051.114066 68.1366002 -16.69596992)
(-33.19655875 348.2196038 -281.5689596)
(-110.1211257 345.4303351 -396.0539266)
(585.0050525 -183.3607568 -460.5968237)
(-366.0346567 -250.4844001 237.0470636)
(466.4638341 1132.785928 55.62060551)
(677.8108143 1020.246839 -318.1118779)
(394.2013995 721.4270693 340.9300428)
(666.8702729 829.6751629 227.0241177)
(977.1288399 -50.7073029 420.475175)
(1003.44691 541.9593907 -638.5518674)
(1522.048335 152.1536763 -356.9483192)
(-486.3932999 -61.22383303 290.2786547)
(290.3148842 -468.3538446 -102.2799715)
(-49.20314407 -172.4233635 -93.85843369)
(506.7962148 -495.5499686 254.2409205)
(914.6930016 -436.8241065 695.8904884)
(675.6159402 277.918767 -130.9723392)
(532.2503684 476.6317547 -418.5164552)
(828.7291746 -505.3267509 292.1902815)
(870.8279924 124.8479751 -285.2170895)
(406.4165125 73.4037624 -236.6254614)
(366.4234658 659.5731908 -196.2546105)
(780.3395568 754.7277485 -566.3080039)
(555.971257 956.0075546 403.2544842)
(653.4709044 202.2024202 316.7143008)
(-319.663097 270.9761631 1.566630949)
(1675.604658 -596.7133192 596.9170752)
(796.1178811 424.8047305 540.4556944)
(540.8719709 284.6492447 -194.8352274)
(214.5880896 765.2117634 199.9625783)
(876.8921502 169.84836 472.0258743)
(330.3642719 594.5282093 170.1748945)
(500.3696172 634.7086152 148.0659809)
(262.0196465 786.7287949 228.6427028)
(822.4931838 1093.628839 193.0314264)
(948.6768405 54.449173 -1071.230871)
(995.5041465 58.76207716 1174.660215)
(439.1975095 -261.0428652 79.96063504)
(2409.50961 568.7340357 -10.9194107)
(671.1153084 -328.9885431 912.850738)
(1489.662741 446.1253306 -169.4881128)
(647.1644182 847.1350719 334.6466377)
(68.49819282 -212.9204084 541.7035732)
(-803.086543 660.4290744 25.19301013)
(1238.301761 650.9864806 8.671012996)
(-843.1730457 -80.16166968 -488.1603923)
(349.4730305 66.50100966 -43.31841164)
(1267.630333 366.8841882 -788.6759006)
(804.6683935 992.0938425 -620.9500914)
(593.6267217 422.5560793 -77.56839126)
(113.4297982 162.8358856 -38.84360152)
(-15.13386488 684.1927354 -166.0929943)
(674.5767695 208.9816026 -397.3467877)
(805.8051544 -297.5470836 674.9373477)
(-86.40943933 605.5895076 -216.0147801)
(-353.5809 -25.64554779 -988.0848398)
(973.1941096 783.5738546 -336.3721993)
(639.4913327 -281.8638617 -773.0032171)
(301.4642474 506.6292975 -270.6903254)
(-393.3685427 981.7765622 346.8875081)
(519.0043167 -25.48438804 -87.22058042)
(972.6743727 -166.8687916 -112.7411381)
(1244.610777 317.7599012 -644.5474877)
(394.7105856 614.6575158 954.9068285)
(1702.572874 -142.0983618 214.9443864)
(819.6266614 160.2198149 -159.6206789)
(518.3560443 439.910966 -44.39002968)
(584.8098032 287.1772616 -171.1015531)
(528.4341277 1144.643695 790.0283473)
(853.3901661 1117.315818 -499.4543874)
(44.48021242 167.8030363 -506.7730383)
(398.7773972 -69.89539921 757.8334953)
(1313.132044 -664.9358377 -137.0725096)
(394.2610388 621.4160155 -323.5811163)
(1163.336782 -501.5894074 -697.2014037)
(632.9688375 689.0924917 -457.6366808)
(677.867274 638.8861776 65.61257921)
(-158.937187 15.54521472 -420.9096736)
(630.1141915 -45.26895056 -2.81209078)
(11.34546069 -201.4574556 154.1058601)
(815.2389258 -346.6648084 120.6604933)
(668.1330718 -264.3900015 -270.1259953)
(279.9296642 296.8010587 -255.6337848)
(266.7794945 -199.2405217 1148.660135)
(-444.3645849 191.6728049 156.8731614)
(-132.744907 421.4243994 -35.59874508)
(800.0645274 199.8957454 -438.3621423)
(849.5715146 -3.024623213 -866.8900897)
(495.6185485 560.2870517 -205.6318984)
(474.6183363 -393.3541114 473.7339118)
(-575.2180029 437.0534344 331.7538294)
(1199.995694 -615.0011753 -535.0505301)
(628.0502307 700.5140061 -112.0343183)
(-298.12459 410.5515706 868.5371229)
(498.5472962 623.0324001 454.0879911)
(1183.64049 -209.3925163 510.6405195)
(-338.811485 -26.17899293 -211.5646864)
(35.55529419 956.3884498 -564.8854391)
(705.4523616 428.7409555 -683.2867746)
(650.891201 335.8075558 23.02174417)
(-27.28306089 999.39211 837.2142244)
(-224.4988766 133.9742262 -199.3691941)
(856.3769904 -365.8435738 -423.7231928)
(1890.236501 676.1372667 629.815299)
(320.0375584 656.8020802 607.6870525)
(474.0089404 -465.5487739 -418.5957337)
(1425.557683 379.851627 -663.240256)
(1137.361151 898.8546795 -184.6926447)
(350.8020933 683.1947904 511.8880845)
(109.2242432 -1039.1729 100.5192467)
(664.5561302 -273.4231637 1102.08285)
(442.4399846 605.1646711 -607.7640276)
(1312.879777 661.9837307 212.5895908)
(99.22655737 137.0379567 -1022.043307)
(352.6603842 -4.353957004 -79.12814069)
(437.2335981 1032.656967 -438.6955591)
(0.6314312941 -56.39019611 363.4301989)
(1344.398632 334.6867724 121.635996)
(1156.191808 -607.1296031 -295.6268875)
(662.8032878 -471.7206749 37.44351264)
(1123.837163 312.2843221 -44.62011335)
(-136.6744904 432.7762843 -91.93442338)
(1708.440208 241.98913 -247.0237828)
(641.2491007 145.6085524 -17.40760389)
(69.00039377 -583.3555009 -430.3591607)
(889.0322273 20.37529441 40.75552616)
(1001.460852 1042.496928 588.7329688)
(191.3633449 520.5393798 1006.996094)
(200.1076293 194.8003833 74.78527742)
(1003.075665 440.3017664 752.6666173)
(1249.48155 189.1402276 214.6207773)
(914.8570641 -295.1221088 208.6662637)
(334.55735 791.0355223 638.6647482)
(547.6506532 -205.549257 183.6277061)
(333.7839246 465.2592875 192.3735175)
(562.330667 819.6439897 -212.529828)
(900.6105634 468.9137931 969.2971488)
(1229.000176 381.9649577 -27.24920293)
(505.362778 -481.5983877 -146.6545625)
(636.025484 951.6130798 235.1669133)
(417.1913889 523.843623 -72.08671136)
(1483.579278 690.1346071 642.8506723)
(1075.83634 581.8419094 -112.1797163)
(470.4110389 -821.740988 830.8349468)
(517.9671665 378.9200362 -303.1754264)
(-129.9090989 88.00378893 330.5079541)
(464.3042475 109.9305292 255.4301343)
(-68.60417691 342.1893145 366.0702247)
(104.5824128 -224.1439761 55.26195841)
(1462.758678 85.68014326 -132.7369198)
(376.737373 42.86024904 -298.4984124)
(763.8769742 489.241769 567.6235897)
(1074.865802 1011.225312 45.98575657)
(-340.017154 -51.70406619 53.80665866)
(987.2444735 -402.0848986 79.81683683)
(667.7267609 452.6617947 -368.9183515)
(981.9835372 431.8743985 -297.1741693)
(1422.495018 699.4745542 -57.21312793)
(-61.64275466 1033.882327 327.108612)
(1167.90729 420.2128823 -377.1302845)
(-317.8141517 198.6827036 -32.79049543)
(449.9457672 475.143767 80.47980197)
(837.6757609 232.4606427 -182.8674633)
(152.1474141 268.1009615 25.89729636)
(-276.8957568 94.28023805 -400.836424)
(-206.0491737 600.9624134 -56.80080658)
(2358.604428 291.2514674 -2.979145809)
(1758.213899 623.6160108 968.4272163)
(956.0999332 50.94500102 404.9792958)
(1033.428968 201.0296498 -397.6966465)
(518.8714759 -46.20428252 -296.2030953)
(550.5474453 383.6139147 -406.9182848)
(1007.623294 -256.9404533 101.582372)
(1641.757491 -437.568175 340.4924687)
(1216.143765 986.7242845 -556.1466228)
(386.3496368 -393.8058579 -35.86946486)
(136.975185 413.306409 203.7129255)
(1847.988212 -201.7823798 112.4472117)
(914.2184659 466.8725409 -7.162054988)
(975.102389 275.1009076 348.2685718)
(940.3818692 955.9914574 -1077.623424)
(474.7634287 457.1991248 273.487672)
(408.6776995 102.628606 305.4245182)
(280.7334962 204.7410278 -560.092915)
(-351.5424214 -12.67750166 1179.810566)
(183.8882954 -121.1842059 699.6327966)
(-531.6570932 61.0213725 -411.5567414)
(1162.878614 440.0498705 548.7430333)
(947.7968447 -328.1058052 -186.5111717)
(1237.668222 140.9949226 -234.559555)
(1234.171375 -61.87262763 -507.7441197)
(752.8308043 502.5035449 -297.7160362)
(566.0465976 284.8544103 101.9146867)
(2.543446195 373.9723775 -328.6385973)
(619.979416 595.4950106 907.6979852)
(-136.3024622 593.4662494 387.0433836)
(298.054347 671.4450997 -900.0103578)
(17.37116553 -9.203467838 117.3401838)
(1822.585403 1012.434126 243.0306142)
(1505.866418 -266.3097392 415.4795225)
(816.3395482 -119.1911363 297.9209526)
(573.0977464 905.271898 -1009.679832)
(1196.515641 630.5590143 269.7819291)
(668.1253513 832.9026928 167.8437891)
(833.4193407 255.8782036 -555.5625234)
(-464.2804508 597.5516366 190.1774371)
(331.7690672 761.0930122 143.6479881)
(1488.348669 -145.7297778 -432.5601049)
(794.9614694 -330.2788618 358.33792)
(238.3446909 569.5813479 -148.0433056)
(1751.298676 82.01889301 804.2592887)
(818.4306758 171.8597515 273.2897801)
(4.740325319 550.3938443 -40.94708567)
(842.5917859 124.8517084 385.370262)
(-312.4599375 679.720786 -109.6381622)
(967.6200884 174.6540659 1075.623406)
(265.0660344 548.4479735 -284.3825351)
(1432.642095 749.630775 249.6048108)
(1533.086307 453.1501899 56.75907509)
(856.0100919 427.3021934 85.39074253)
(35.95780383 -68.90234178 -1351.574013)
(494.5273048 703.1497272 -272.3650447)
(685.7708947 49.32581037 174.3407332)
(448.8669978 568.4301891 -289.8204667)
(802.1210876 338.7175861 -785.3999294)
(1364.890025 -376.4779709 -191.0375008)
(-96.15156117 -415.6542634 145.8697647)
(768.8699987 652.0402841 -102.8757997)
(165.7312829 215.9770936 -521.3510278)
(1210.840087 1008.912481 662.159973)
(988.7000057 751.2130476 297.6605208)
(364.3609812 -160.2094027 -304.7899282)
(710.4903103 -414.0353128 504.5849122)
(1474.375844 86.94170075 -628.7035057)
(529.726668 487.7381453 163.9704914)
(160.5040526 396.3008646 -74.95282931)
(-301.623796 518.3180787 -136.1812959)
(561.587232 578.2123038 53.80884365)
(1022.729665 224.6877759 -144.7640378)
(842.1851839 1035.029631 -365.1865291)
(816.6820326 323.4082893 80.77039415)
(-1.439574192 614.8602673 -214.8769949)
(557.2205241 15.31105467 29.30586424)
(1228.556976 -420.9924795 -215.9920168)
(531.9874059 -467.4373725 5.06179275)
(-255.5806956 400.2141208 -523.3577473)
(262.8178605 968.6785031 -720.8149326)
(318.3266123 798.3975149 -12.54922326)
(483.5281695 -39.70612264 -92.08386776)
(-360.591438 55.54930961 462.3039629)
(1152.148941 -956.9723337 -535.5415118)
(603.9434057 931.8541414 513.9801114)
(280.8266947 -169.7769989 144.7481148)
(962.0345586 -647.2702478 362.8974599)
(163.2711766 636.4936141 489.8455276)
(763.6793314 363.9681928 -41.17349649)
(-4.083150745 392.205459 338.7955733)
(20.99946455 923.4190683 398.2470037)
(491.3389238 704.6513564 -25.49298946)
(1300.199785 209.3240817 -661.3299825)
(1214.252671 -288.8452403 -50.91210131)
(239.4198692 -96.54299483 -700.6296734)
(1073.573955 127.0211157 150.3016655)
(689.2792811 -123.6708929 326.9277309)
(504.1954594 723.1180722 -252.0035606)
(1066.987426 407.7159843 -692.5442357)
(-69.81815944 491.3464878 1005.969951)
(1023.041322 785.9654905 441.4808802)
(617.0911856 13.27808329 261.6826263)
(311.6972291 -37.01614685 -57.86960546)
(467.0282327 827.9454407 139.5673545)
(215.0555372 26.59538802 -5.72212768)
(166.4379633 199.8878605 -447.6137643)
(1785.877648 21.44339606 -2.319146343)
(493.8518214 156.725358 424.7963974)
(316.4275768 -131.7881416 -446.0480017)
(223.2018888 -724.3935431 386.6968497)
(1217.905532 937.3556217 261.2608463)
(390.1809437 -174.6614148 -882.5897648)
(1014.299056 -653.6772829 258.9194266)
(1160.801733 354.081208 -400.9088287)
(-276.2112483 -347.0222517 313.9567668)
(1573.725633 168.6467123 455.8285564)
(-29.02047732 385.4739075 -460.158153)
(850.0919873 -330.5284062 -94.17551436)
(-378.592784 548.7004426 82.98456986)
(585.7659232 16.75210934 -1095.726308)
(-133.3659715 151.3011152 305.8086373)
(443.7403272 871.4441565 258.6351526)
(939.028514 -207.8697707 352.6979543)
(-602.9038107 36.40719861 40.77627664)
(-47.89554122 303.2754435 1033.233257)
(969.5286211 197.1570939 80.54751803)
(472.5218656 578.6841718 940.6084626)
(874.5095114 -166.6526824 -378.832)
(-245.1532279 -175.6332753 -347.6795626)
(693.4250054 -283.5131179 666.3450096)
(105.06202 427.4331573 -277.8374797)
(464.8034691 535.9737584 2.403971094)
(332.5818969 540.2951335 -78.51340128)
(-1023.349473 -620.4393135 255.6758431)
(-719.9812048 366.4956601 203.9856067)
(1232.598571 232.3635325 -305.2713609)
(262.0105436 1155.327924 145.7515741)
(960.4195474 1189.126191 456.7901172)
(-272.3474788 385.2006377 -422.5388009)
(187.6870548 -267.935164 -317.7408749)
(613.1536275 426.0851877 -568.6644032)
(1079.690129 858.0207406 -180.3966127)
(-22.7313959 74.37796745 1111.3862)
(668.0681551 377.5818776 555.3586922)
(1645.026851 314.1934083 -111.5631686)
(-282.6819814 -199.8879879 -1396.363542)
(392.966077 -497.8604631 40.57005784)
(1167.75181 118.1549143 127.5318231)
(-468.9030398 -247.3450569 -11.54237993)
(512.7066669 -11.15312599 116.52752)
(1150.10576 342.1656843 -285.2792934)
(644.9318728 280.9307426 803.9270513)
(1211.45144 -199.863457 708.2886598)
(-394.8172153 29.90209336 -741.9150616)
(592.9412457 298.8210573 -40.38730885)
(632.9423151 -257.2664652 -312.2668426)
(661.4964519 906.186418 -580.6943778)
(716.510331 221.1279637 -976.4353584)
(1105.42428 510.0643986 234.980171)
(-185.7143185 -243.9052927 110.7411926)
(120.6647557 315.3973408 102.1809574)
(849.9531361 412.3325081 118.0012111)
(1225.94109 156.7413137 347.2529729)
(1550.095054 3.765960317 0.8745332022)
(753.6077465 371.6495942 18.59985731)
(-383.6357025 161.8351672 -93.55113625)
(258.8696778 840.062641 -292.8024714)
(-200.6192064 1085.441044 -930.938962)
(205.0835503 1086.274149 952.4978123)
(1653.51914 -523.7722849 427.2685432)
(2043.76547 110.6552286 357.1119086)
(668.368095 447.7287236 -457.2361545)
(311.0720036 -340.6555592 248.066191)
(679.5131971 1170.433235 -605.0517226)
(1288.028913 798.1844872 -180.9251561)
(1074.432617 179.6285193 -529.1391234)
(570.3059899 246.9424935 -161.7995974)
(445.579653 -138.7083732 -340.6574388)
(429.1603874 3.315617556 372.5291411)
(22.549695 347.1059633 -204.0896597)
(-288.0700105 -24.57139093 -376.6163297)
(152.2644018 -730.0805691 203.1684726)
(817.2969874 -500.0410199 454.5480663)
(812.1117519 176.30413 321.1500518)
(798.7400277 777.262786 -220.7735343)
(1089.654616 440.6969829 -359.2670737)
(1729.971317 -678.8004199 504.2910326)
(903.2451715 227.1750027 293.7959932)
(1292.535988 120.4555436 -439.5846423)
(-160.6980364 547.8353106 379.064663)
(1478.544039 -31.8331717 -28.55128006)
(258.8755306 747.9157458 -339.3314354)
(923.7877944 -406.6045141 -101.9211287)
(408.5763601 216.4637511 138.8591415)
(140.7870944 -210.7966647 111.4973465)
(406.4136356 -670.6221248 23.62283112)
(1904.917932 172.2884313 -839.8181107)
(-109.7585444 -201.7387291 591.2344488)
(1110.037993 -454.454002 -425.9475216)
(587.9026429 -68.18407608 -346.7580573)
(-619.7684549 580.1983535 350.5681418)
(485.6406108 326.3002117 170.2712968)
(829.9659202 376.4411705 471.6015832)
(342.9923585 34.01507178 -196.6142507)
(1207.014166 644.026106 -177.5673766)
(701.916639 245.3738288 519.2514266)
(504.3050781 384.8540616 -366.7528919)
(318.9218189 -183.6645236 -25.59409264)
(984.6452494 616.0116562 -170.9923354)
(215.4875057 671.662703 291.5116476)
(-23.93057124 202.6509154 -417.1069729)
(1851.310673 533.2393875 219.9722938)
(796.207047 -25.6135078 -122.1588025)
(1166.020008 244.6553432 -206.3600409)
(1699.656747 207.5498598 1050.075759)
(797.8107933 -346.4909861 1376.012873)
(1754.195348 255.2549365 -565.446252)
(531.2233261 -195.7709127 852.5846735)
(292.7346963 -277.9654642 -356.9701986)
(911.3024625 -0.01957279341 -352.3938541)
(178.1563475 749.4124058 -528.452552)
(707.8728356 989.1914844 994.5051339)
(259.667126 621.850977 -264.7530236)
(483.6512004 1384.530306 -109.9976165)
(232.3687192 732.6729004 81.77899579)
(805.0552299 844.6917503 -23.93416908)
(-223.3672028 420.6489058 -56.60944606)
(107.6382454 372.866007 -169.6536168)
(1107.846637 332.6802879 -68.08691531)
(222.5436607 652.6094906 112.2593105)
(231.1290916 716.3737582 -741.6645497)
(995.8541621 747.1160803 508.0004945)
(1165.163591 452.9091498 105.7705268)
(812.3615528 137.5258816 -532.2036427)
(1166.169345 457.8537455 -258.101867)
(659.3102372 311.8012389 -16.960193)
(352.1645415 -679.2426828 -326.1706473)
(1275.988781 316.5085904 294.0777442)
(1134.152254 352.3551206 862.8851466)
(-31.28534846 157.864452 -5.312731546)
(97.3397132 936.7933313 125.4187479)
(931.2769124 -222.5442026 575.9763876)
(759.0455196 -636.6490788 7.587119639)
(376.5494031 -73.80797397 670.2563971)
(343.9510585 821.5363277 493.0252456)
(384.9647271 -44.15720203 -0.3368183363)
(251.6725867 -34.9375055 199.75621)
(643.3387679 241.1866608 267.9984192)
(1108.893533 -142.2752338 -431.6574369)
(-14.49161715 -0.4023514057 -747.0763814)
(431.0112577 932.9931383 -240.348772)
(703.9269769 498.3295631 497.5272262)
(-192.8917797 -175.36162 493.4292802)
(1508.280294 -37.98762608 -312.6497251)
(202.9310959 100.6146188 1166.123061)
(1081.170348 746.1674085 -103.0786521)
(51.2713442 454.7876943 61.586318)
(-347.8235697 162.461258 669.3776009)
(448.4432967 973.8071526 -111.9622198)
(835.9536929 611.3954026 -168.6950283)
(1389.220746 638.3624174 115.2608134)
(515.3888931 495.3481331 -998.4015725)
(476.9501277 85.24797102 183.0981134)
(893.9327223 852.2912564 5.272874116)
(574.8037359 832.150357 -360.2089715)
(1316.818322 709.0090113 -127.2762973)
(417.8017833 -420.6149326 149.0457993)
(-99.76638529 -504.6661026 388.8625682)
(863.8865658 203.4378055 704.0983026)
(1539.712187 882.9565023 -28.8265351)
(686.438947 903.0121494 18.0613253)
(981.3712263 514.9027576 -794.8068098)
(-178.1950675 -312.5407525 -1459.043302)
(474.806792 668.1778401 -555.3247497)
(-16.55327228 838.1670197 1323.462734)
(839.946083 1258.261841 -816.3132347)
(1501.271616 660.4711039 -81.60024102)
(824.3029138 972.2282848 -407.2799618)
(58.8465411 -4.844536702 -1092.024778)
(1508.339387 -821.3321044 -79.83276853)
(683.2903926 -14.52886766 235.0965009)
(816.4811302 -187.6347366 -390.2060099)
(684.0354369 -187.8796379 697.0262374)
(960.7020261 15.49554254 -372.8963783)
(350.8587304 339.8405936 -1085.139671)
(962.3156932 841.5397563 373.9578961)
(525.696245 -216.585802 -198.1231482)
(821.8710218 -585.1266097 214.3724037)
(-177.2129106 349.0342923 1198.408419)
(-159.6020575 786.6198386 -240.2708172)
(1084.694216 -280.6230825 -196.9993979)
(1476.790095 27.06904345 -338.4817961)
(427.617847 278.4145133 309.8580318)
(312.7145834 501.5777974 43.03889829)
(394.494912 -289.5403672 256.196746)
(611.93338 -684.8295002 450.7254842)
(1035.993312 212.5659393 -145.6366872)
(187.4503407 -189.9359242 1023.349553)
(1537.533032 -76.73452438 -153.5067377)
(597.644554 474.9233786 308.7528137)
(886.219205 202.7582123 -560.5046274)
(963.303427 963.6004661 -337.3867525)
(993.4710809 912.4133977 -401.4075338)
(301.4375885 384.2971033 -312.5934849)
(1259.080001 1383.773206 -409.9277419)
(-275.2290489 639.1483276 764.3906616)
(310.0535592 166.0378362 301.6432802)
(458.6154187 45.24800974 440.6792625)
(660.7843599 -458.5153328 530.366301)
(144.3827563 -339.5433155 -409.2439653)
(1194.703812 533.7240287 458.5241186)
(-49.40792677 807.518804 77.78963011)
(1008.923296 59.30789278 129.4176079)
(116.6012623 336.5388745 772.0892867)
(439.2404898 -177.0774692 420.7349082)
(487.332619 -291.1316406 -339.5481712)
(341.3357314 354.7291242 -329.2364207)
(800.4391468 892.8489676 -510.3097418)
(773.2916302 539.1034143 80.55935994)
(782.1516733 1055.240166 253.5473178)
(74.93494222 513.8459855 632.7010413)
(796.6123245 458.7174614 -392.4931943)
(2118.625897 968.677424 -236.7482331)
(715.7175375 -628.3010893 325.9374709)
(934.2275886 -3.267021406 -184.2430439)
(309.214141 275.8868589 804.2438027)
(1004.79622 -101.077074 802.5088944)
(1056.768904 12.89070324 647.2345544)
(503.4383375 485.2953299 295.6062677)
(-74.84118652 874.5326427 -614.6893002)
(142.7023422 244.9581568 -303.3705949)
(-609.1298633 469.0180335 -334.9035696)
(-10.81511153 176.7902173 279.822791)
(-105.7289474 554.1103847 -345.1702982)
(820.722393 827.8073804 -545.7339918)
(642.4403094 -25.70120404 -187.5864675)
(980.4412734 -484.3851254 -658.9493326)
(496.1774844 -156.630309 -637.446538)
(722.6981311 674.9344091 100.770208)
(-414.284345 784.1856532 121.0879651)
(339.5632892 442.2553135 387.3281783)
(274.6498198 854.8090814 599.9640079)
(1234.340474 -563.5113155 -197.3006876)
(525.2096253 656.4816634 -238.3080115)
(849.9663659 1249.571591 -195.0115614)
(1070.655592 295.7049075 249.2299227)
(443.2640881 -730.4219861 306.8890804)
(1526.74144 587.1504401 -491.6704838)
(3171.806383 617.2421024 407.3433835)
(350.9364705 279.5104176 283.8425623)
(911.836381 615.9865445 195.2582721)
(1178.423279 740.5334894 39.22392537)
(1308.720881 -63.32308345 981.4231522)
(81.55824694 427.7903927 -926.6205639)
(-558.5312714 249.7491016 181.7373903)
(4.126451105 190.3105715 717.9300045)
(671.1857071 556.2096318 -502.2521548)
(779.5624794 1005.561811 286.2955526)
(1069.735996 91.0743676 -461.25283)
(879.4836196 -586.68513 -640.5630538)
(710.6464318 62.33235161 -780.7051835)
(983.104212 646.5239604 452.7498064)
(1374.643765 1169.137211 -37.25053964)
(279.9555309 1257.833793 210.2282418)
(1117.897193 902.0444113 473.5546604)
(985.485899 -108.4186012 365.8127931)
(-898.6160719 954.5771162 -1020.36102)
(92.23913356 177.4056601 51.73126001)
(-83.16338912 155.9771441 270.3240722)
(691.2199906 -16.19563857 121.0148488)
(-276.6023079 596.4687153 -209.7140854)
(224.4782685 -145.9089125 -489.7951751)
(1614.97795 192.3913467 -403.2681445)
(-429.4542487 698.7252982 -459.1004184)
(471.3439213 26.41217153 431.5294009)
(1262.092331 405.6586858 298.3203561)
(937.0936275 976.482754 921.4812105)
(-183.1260792 -220.9126829 -606.736623)
(284.3974675 739.3024998 -467.7302114)
(523.3350069 841.6857941 124.7989539)
(1697.024663 623.5418708 -193.2367646)
(269.9769033 55.18591843 1021.056282)
(1236.891714 245.0285087 213.7430454)
(1285.007808 717.3804554 330.9316741)
(1427.189989 1405.834159 -392.2013783)
(437.0080083 388.5604322 691.902839)
(-269.6236532 406.9335368 365.0494712)
(144.3779527 1099.286447 420.5905908)
(292.0182334 520.6339903 142.7884912)
(461.4576261 131.3851138 -419.8270876)
(-176.0828192 755.6051981 7.505280424)
(607.666337 -202.1569024 409.2988977)
(676.3706377 460.1085711 65.57440995)
(1493.786558 547.4042578 97.62537732)
(995.743999 153.9445944 -391.4522523)
(275.6989969 -175.8188441 868.0062743)
(38.60347379 -204.3287665 272.3847121)
(1256.521854 68.97086071 -539.0662049)
(499.7751952 115.5439664 -250.3595926)
(1449.660182 1116.673692 128.0658925)
(624.2817607 -538.4915994 508.6953054)
(934.6223347 589.2763823 -55.26379907)
(752.9511605 490.0215148 -126.4193778)
(1731.915165 514.5878779 270.9857892)
(948.8155039 331.5813106 -638.3632751)
(573.0676858 227.9774929 -930.7264444)
(593.5588984 5.516109871 -84.59343568)
(-69.62465269 435.4915621 104.8636357)
(266.9698444 518.8948572 713.6511879)
(1069.027254 234.6574477 34.00382482)
(1466.055956 -258.3462295 -847.4268239)
(346.3659121 -88.92607029 457.0947555)
(194.1838558 311.294919 294.7454733)
(809.6118175 -125.0599242 -571.6001802)
(159.9481809 68.43440122 556.9576245)
(1906.893455 401.8016534 132.0154956)
(239.157148 401.2929753 -464.0756632)
(334.9962955 -163.2403932 -434.7691698)
(-667.1166224 75.54152741 364.5635726)
(1265.691459 1230.107705 495.5535431)
(-266.0142118 -545.1524345 -1132.763725)
(469.0533239 523.8937739 566.492632)
(1157.75287 21.42700041 -439.0452186)
(397.1487684 930.6226644 -718.4125127)
(-379.775466 261.6327196 337.0665391)
(821.4571651 -6.214700836 376.6869647)
(816.6537979 483.6782079 -138.5677614)
(581.6328526 -389.9073622 -773.747572)
(-67.7170801 464.9114526 268.9615767)
(208.9245289 532.5088022 184.4817617)
(1130.705414 0.1810249908 -392.503487)
(120.5849614 541.5970321 256.9024902)
(-392.2626386 -179.7034269 605.9598815)
(948.878306 -359.7409246 -782.149574)
(85.13085166 -193.745076 -163.0923947)
(81.35701377 886.8746536 193.9124958)
(18.20541166 109.9452513 87.02037049)
(678.0947529 -30.69482537 -458.4725399)
(633.6375886 -175.1661344 -213.9062991)
(575.5587806 936.7225056 -50.34374006)
(-191.4946071 116.0613788 633.766692)
(-205.9365085 570.3678096 -23.13095496)
(1210.27892 274.7849596 236.1106891)
(190.7758747 500.1365883 925.5887812)
(369.3113295 -523.8897572 -207.6142101)
(-254.4627947 421.61095 310.6587147)
(1572.412857 344.573444 235.0881805)
(2322.976009 -42.84895418 -290.3992383)
(831.9995046 -445.0707852 15.04401749)
(279.9868034 -463.4023106 -438.9508333)
(1433.118678 686.752962 475.3811124)