/*--------------------------------*- C++ -*----------------------------------*\
| =========                 |                                                 |
| \\      /  F ield         | OpenFOAM: The Open Source CFD Toolbox           |
|  \\    /   O peration     | Version:  2406                                  |
|   \\  /    A nd           | Website:  www.openfoam.com                      |
|    \\/     M anipulation  |                                                 |
\*---------------------------------------------------------------------------*/
FoamFile
{
    version     2.0;
    format      ascii;
    arch        "LSB;label=32;scalar=64";
    class       Cloud<dsmcParcel>;
    location    "0.012/lagrangian/dsmc";
    object      coordinates;
}
// * * * * * * * * * * * * * * * * * * * * * * * * * * * * * * * * * * * * * //

6269
(
(0.4035494766 0.2982252617 0.2856899026 0.01253535913) 322 573 1
(0.1017488972 0.1543685442 0.2947570071 0.4491255514) 291 570 1
(0.5248848926 0.2375575537 0.1157838334 0.1217737203) 593 1162 2
(0.2990191802 0.1587850095 0.3504904099 0.1917054004) 171 332 1
(0.513937766 0.04773425054 0.1952968665 0.243031117) 650 1218 2
(0.06660148931 0.2623671456 0.4666992553 0.2043321097) 590 1159 2
(0.536573672 0.1556241651 0.231713164 0.07608899892) 142 275 1
(0.4023562109 0.2988218946 0.256006062 0.04281583254) 113 220 1
(0.1172875502 0.4413562249 0.2063566599 0.2349995651) 173 338 1
(0.6901884159 0.1549057921 0.09406340749 0.06084238458) 15 26 2
(0.8088875322 0.01050496479 0.09555623391 0.08505126912) 593 1164 2
(0.5317524747 0.04027905346 0.1938447092 0.2341237627) 203 338 2
(0.09110877588 0.4544456121 0.04482846296 0.4096171491) 412 750 1
(0.8379215122 0.05973146571 0.0213077782 0.08103924392) 233 1263 1
(0.3285525182 0.3357237409 0.04817230818 0.2875514327) 261 509 2
(0.1721377945 0.4139311027 0.2423458461 0.1715852566) 383 1268 2
(0.4895884984 0.1830638929 0.2552057508 0.07214185792) 53 103 2
(0.5271798215 0.2364100892 0.03079009373 0.2056199955) 532 986 1
(0.396395347 0.273145285 0.0286570415 0.3018023265) 232 396 2
(0.6977329144 0.1511335428 0.02950886929 0.1216246735) 111 216 2
(0.4081490454 0.2895015896 0.006423887663 0.2959254773) 112 160 2
(0.6438868989 0.04879104163 0.1780565506 0.1292655089) 263 515 2
(0.2539237111 0.3730381445 0.1126404771 0.2603976674) 410 746 1
(0.3199945659 0.283612255 0.05639046208 0.340002717) 470 922 1
(0.316191052 0.203952663 0.341904474 0.137951811) 622 1222 2
(0.07540755247 0.4622962238 0.2315233969 0.2307728269) 408 742 1
(0.5691284213 0.1439465267 0.2154357894 0.07148926263) 322 632 2
(0.5175945063 0.2412027469 0.194931676 0.04627107082) 141 273 2
(0.08113233989 0.3954789895 0.4594338301 0.06395484055) 173 336 1
(0.0801200232 0.4498261847 0.4599399884 0.01011380367) 113 218 1
(0.3322487899 0.3338756051 0.03680892257 0.2970666825) 257 503 2
(0.3753417673 0.3026937185 0.3123291163 0.009635397818) 233 456 2
(0.3128230795 0.3435884602 0.2625096047 0.08107885553) 292 572 2
(0.02444571348 0.4877771433 0.4165281508 0.07124899241) 199 387 2
(0.7733096594 0.107036277 0.1133451703 0.006308893314) 322 632 2
(0.05816504481 0.4635711939 0.4709174776 0.007346283662) 82 160 2
(0.1085103373 0.2614313086 0.1843135228 0.4457448314) 291 512 2
(0.0353055362 0.1101374261 0.3722098058 0.4823472319) 591 1160 1
(0.2483684442 0.3758157779 0.1037576685 0.2720581094) 202 395 2
(0.04888835918 0.4755558204 0.3189292346 0.1566265858) 321 629 2
(0.0144176398 0.2550526182 0.2377385619 0.4927911801) 14 26 1
(0.09247126766 0.3740400797 0.07972428643 0.4537643662) 15 28 1
(0.5823775555 0.0920165333 0.2088112223 0.116794689) 353 692 2
(0.1604404703 0.03741608962 0.3823636752 0.4197797648) 138 211 2
(0.3138731459 0.3430634271 0.3430541816 9.245438045e-06) 381 747 2
(0.4140951375 0.1967552884 0.09619714288 0.2929524312) 141 217 2
(0.4755219541 0.262239023 0.04735131657 0.2148877064) 111 217 1
(0.6307361231 0.1846319385 0.122558011 0.0620739275) 202 337 1
(0.6571114682 0.1247349026 0.1714442659 0.04670936331) 351 686 1
(0.2609029204 0.272298807 0.0972497328 0.3695485398) 233 397 2
(0.396160831 0.2952734738 0.3019195845 0.006646110746) 78 152 2
(0.3912087793 0.3043956104 0.129308895 0.1750867153) 202 393 2
(0.1473289538 0.4263355231 0.362905941 0.0634295821) 434 851 2
(0.07897366323 0.4605131684 0.2270042304 0.2335089379) 230 392 1
(0.8347792472 0.08261037638 0.07105081007 0.0115595663) 353 1267 2
(0.8008746767 0.09956266163 0.0477905576 0.05177210404) 172 278 1
(0.2163118848 0.1094903021 0.2823537555 0.3918440576) 412 808 1
(0.007398711797 0.1554856521 0.340814992 0.4963006441) 232 396 2
(0.2247278353 0.3048960593 0.08274002309 0.3876360824) 170 274 2
(0.429064643 0.01065572914 0.2748119494 0.2854676785) 292 572 1
(0.02783559931 0.4860822003 0.3933758031 0.09270639723) 441 863 2
(0.5223904121 0.2005469306 0.03825786334 0.238804794) 263 1264 1
(0.9068498994 0.0241215088 0.04657505031 0.02245354151) 232 455 2
(0.7106770987 0.003711330678 0.1446614507 0.14095012) 261 509 1
(0.5328443683 0.1254122781 0.1081655377 0.2335778158) 533 987 2
(0.2128979642 0.3935510179 0.3858661146 0.007684903261) 472 926 2
(0.2615343785 0.1365872619 0.2326455488 0.3692328107) 143 220 2
(0.2900532917 0.3549733542 0.2728339062 0.08213944796) 317 563 1
(0.4333585128 0.1911301526 0.09219059097 0.2833207436) 533 987 2
(0.5097139849 0.01104544391 0.2451430076 0.2340975636) 293 572 1
(0.5711890389 0.2144054806 0.05622967053 0.15817581) 321 630 1
(0.1236089051 0.158060276 0.4381955474 0.2801352714) 233 456 2
(0.5205338417 0.05863513979 0.2397330792 0.1810979394) 289 567 2
(0.5416577234 0.2291711383 0.167252027 0.06191911125) 593 1162 2
(0.08419894348 0.4579005283 0.455155092 0.00274543631) 80 155 2
(0.28092086 0.1575087685 0.35953957 0.2020308015) 503 987 2
(0.29084497 0.199024711 0.155552804 0.354577515) 141 217 2
(0.615436161 0.1486727047 0.04360921475 0.1922819195) 409 802 1
(0.36600986 0.2119402618 0.1050548082 0.31699507) 263 1264 1
(0.7468102897 0.1265948552 0.1014698404 0.02512501479) 403 788 2
(0.7726839028 0.1136580486 0.0005588981549 0.1130991504) 232 452 2
(0.7420013228 0.1289993386 0.03118207239 0.0978172662) 173 1261 2
(0.316624494 0.2847932025 0.05689455047 0.341687753) 203 1262 1
(0.1337401095 0.4331299452 0.4199269822 0.013202963) 199 390 1
(0.3620006705 0.2284410013 0.09055866347 0.3189996647) 558 1095 1
(0.3453011765 0.2451984706 0.08215094119 0.3273494117) 378 683 2
(0.09423905897 0.0968730942 0.4528804705 0.3560073763) 470 923 2
(0.3732712659 0.2851085127 0.3133643671 0.02825585432) 623 1221 1
(0.2599674748 0.3700162626 0.3576949065 0.01232135608) 110 215 1
(0.169754969 0.4151225155 0.07845092768 0.3366715878) 30 27 1
(0.3089745526 0.2936039713 0.3455127237 0.05190875243) 383 751 2
(0.01986242022 0.3335120092 0.4900687899 0.1565567807) 533 1044 1
(0.7761353596 0.1119323202 0.09707040107 0.01486191915) 261 509 2
(0.2541841535 0.2743937571 0.3729079232 0.09851416611) 200 392 2
(0.4747796563 0.1882764891 0.07433368268 0.2626101718) 382 749 1
(0.6506750671 0.1746624665 0.04114296565 0.1335195008) 140 274 1
(0.7674411525 0.01695934954 0.09932007421 0.1162794237) 622 1221 1
(0.4453666908 0.06941043757 0.207906217 0.2773166546) 200 333 2
(0.5936071136 0.2031964432 0.0657799475 0.1374164957) 353 692 1
(0.4756071455 0.1839121213 0.07828430601 0.2621964273) 171 276 2
(0.2928897851 0.3535551074 0.3124682858 0.04108682166) 473 928 1
(0.4789533152 0.1462748218 0.1142485206 0.2605233424) 232 396 2
(0.06566664485 0.1021486939 0.3650179837 0.4671666776) 77 93 2
(0.1899490004 0.4050254998 0.3975753425 0.007450157284) 622 1219 2
(0.3628345337 0.3185827332 0.05599436137 0.2625883718) 502 983 2
(0.3369932404 0.191382222 0.1401211578 0.3315033798) 232 454 1
(0.2541842691 0.3619158898 0.3729078655 0.01099197569) 233 454 1
(0.8922757079 0.0300848689 0.02377727717 0.05386214607) 623 1276 1
(0.01754550566 0.4912272472 0.373748931 0.1174783162) 140 215 1
(0.4625242249 0.2545178209 0.2687378875 0.01422006662) 232 455 2
(0.2316518507 0.07801034628 0.3841740747 0.3061637284) 16 28 1
(0.2094996054 0.321957201 0.07329299628 0.3952501973) 289 508 2
(0.449375789 0.1706414205 0.2753121055 0.104670685) 592 1163 2
(0.1718457673 0.4140771164 0.2735810737 0.1404960427) 322 631 2
(0.09737670937 0.4513116453 0.3277109921 0.1236006532) 562 1101 2
(0.3595444753 0.3202277623 0.1701029844 0.1501247779) 113 161 1
(0.2772183665 0.3613908168 0.008185782209 0.3532050345) 381 689 1
(0.3471789081 0.326410546 0.214945547 0.111464999) 112 216 2
(0.08749858148 0.1508182539 0.4562507093 0.3054324553) 620 1218 2
(0.3554276447 0.1288457193 0.1934404584 0.3222861776) 231 394 2
(0.4078008508 0.2960995746 0.05689235881 0.2392072158) 503 985 2
(0.5772932951 0.07546517364 0.1358881788 0.2113533525) 443 1270 1
(0.7732499761 0.03553336284 0.1133750119 0.07784164911) 653 1252 1
(0.1549464088 0.06177471648 0.4225267956 0.3607520791) 443 869 2
(0.5601639182 0.2199180409 0.01316043754 0.2067576034) 111 158 1
(0.1120398275 0.08641223666 0.4439800862 0.3575678496) 293 572 1
(0.2396524281 0.301411793 0.3801737859 0.07876199292) 352 688 1
(0.1171322477 0.4414338761 0.1247490751 0.3166848011) 561 1101 2
(0.06252756148 0.4687362193 0.1621331701 0.3066030492) 83 1258 2
(0.06979329296 0.20250615 0.4651033535 0.2625972036) 413 810 2
(0.1876872369 0.3538596036 0.05229677793 0.4061563816) 203 338 2
(0.3834368344 0.3082815828 0.2132119408 0.09506964194) 413 751 1
(0.2557082317 0.3721458842 0.1416834873 0.2304623969) 199 390 1
(0.6478767031 0.04068253304 0.1760616484 0.1353791154) 83 161 2
(0.1873747722 0.3318815512 0.07443106265 0.4063126139) 502 985 1
(0.7117383437 0.1441308281 0.01247566166 0.1316551665) 199 389 2
(0.4815705105 0.2295052596 0.02970948521 0.2592147448) 173 279 2
(0.9230754523 0.03846227383 0.03750054171 0.0009617321127) 293 574 1
(0.01775766949 0.4911211653 0.1209608497 0.3701603156) 229 390 1
(0.7528282095 0.1235858952 0.05988019873 0.06370569651) 168 328 2
(0.1433180173 0.4283409913 0.160855426 0.2674855653) 292 514 1
(0.1050318064 0.1199765131 0.4474840968 0.3275075837) 23 44 2
(0.5744042396 0.1492816451 0.06351623506 0.2127978802) 592 1162 1
(0.4746677596 0.2278414447 0.03482467555 0.2626661202) 260 509 1
(0.2236416246 0.2498697267 0.3881791877 0.138309461) 233 456 2
(0.7411712585 0.1294143708 0.04704009681 0.08237427397) 170 274 1
(0.3981938165 0.2636755979 0.03722749383 0.3009030917) 651 1220 2
(0.03159649715 0.2869199217 0.4842017514 0.1972818297) 291 571 2
(0.1499848951 0.02071684434 0.4250075525 0.4042907081) 531 1040 1
(0.1563274019 0.421836299 0.0354084033 0.3864278957) 16 30 1
(0.5974251429 0.2012874285 0.02573785679 0.1755495718) 322 573 1
(0.5052422358 0.1747033865 0.07267549555 0.2473788821) 383 1268 1
(0.3092917048 0.3453541476 0.2874342431 0.05791990447) 233 454 2
(0.8259796656 0.08701016718 0.08679148848 0.0002186786998) 108 208 2
(0.3804957225 0.3097521388 0.2702341851 0.03951795365) 173 338 1
(0.7391270508 0.1304364746 0.06646213094 0.06397434365) 589 1157 1
(0.1717538893 0.4141230554 0.02064254377 0.3934805116) 563 1274 2
(0.4827871 0.25860645 0.009479364701 0.2491270853) 503 1272 2
(0.1101786919 0.09502759102 0.4449106541 0.349883063) 262 511 1
(0.4402226387 0.2798886807 0.03570941115 0.2441792695) 75 146 1
(0.4465645045 0.2767177478 0.08001742978 0.196700318) 377 681 1
(0.1255714041 0.04893752098 0.437214298 0.388276777) 316 620 2
(0.5811550648 0.2094224676 0.09957470146 0.1098477661) 381 745 2
(0.005877779411 0.03323588976 0.4970611103 0.4638252205) 138 267 1
(0.7997434614 0.1001282693 0.05293230327 0.04719596603) 290 566 2
(0.5965897957 0.2017051022 0.1506284325 0.05107666968) 353 633 1
(0.361271665 0.1053997811 0.2139643864 0.3193641675) 471 866 2
(0.1070957635 0.02501664027 0.4464521183 0.421435478) 262 514 2
(0.371809476 0.314095262 0.01064062301 0.303454639) 582 1142 2
(0.3569186542 0.1147245047 0.2068161682 0.3215406729) 258 447 2
(0.5922038976 0.2038980512 0.1480051066 0.05589294464) 383 692 1
(0.6204718353 0.13900209 0.0507619923 0.1897640823) 172 278 2
(0.6016268959 0.06373718014 0.1354493719 0.199186552) 529 980 2
(0.08510484656 0.02194622007 0.4574475767 0.4355013567) 263 515 2
(0.1871586895 0.08927628074 0.4064206552 0.3171443745) 500 982 2
(0.5713902776 0.2143048612 0.07639509803 0.1379097632) 173 1261 2
(0.02384399037 0.4006543647 0.4880780048 0.08742364013) 28 51 1
(0.4362877033 0.2818561483 0.1292027868 0.1526533616) 263 456 1
(0.207192354 0.1400675747 0.396403823 0.2563362483) 233 456 2
(0.227906137 0.3860469315 0.3700825161 0.01596441545) 500 981 2
(0.1425876126 0.4287061937 0.2371279061 0.1915782876) 262 514 1
(0.454257603 0.1369831643 0.1358880342 0.2728711985) 291 570 1
(0.04166445349 0.2434229761 0.2357447972 0.4791677733) 259 507 1
(0.1771630831 0.4114184585 0.0415702533 0.3698482052) 54 61 1
(0.2617163708 0.3691418146 0.272435177 0.0967066376) 263 513 2
(0.7374551182 0.1312724409 0.1268925772 0.004379863706) 473 1271 2
(0.5387579441 0.2306210279 0.2249958154 0.005625212575) 262 511 2
(0.1498935917 0.05491378077 0.4250532042 0.3701394234) 532 1045 2
(0.2478855123 0.3760572439 0.09468415136 0.2813730925) 82 157 2
(0.0223185899 0.488840705 0.2972100593 0.1916306457) 142 277 2
(0.5531563797 0.2234218102 0.06421962339 0.1592021868) 439 861 2
(0.1516864629 0.4241567685 0.1172983161 0.3068584524) 142 219 1
(0.7384353382 0.1307823309 0.01984112023 0.1109412107) 142 219 1
(0.3137039914 0.2758182311 0.0673297732 0.3431480043) 203 338 2
(0.4950510546 0.1114162079 0.2524744727 0.1410582648) 320 625 1
(0.3285962731 0.3357018634 0.2057641323 0.1299377311) 201 394 1
(0.6502313269 0.1748843366 0.02408579407 0.1507985425) 289 564 2
(0.4564192282 0.2717903859 0.1269280971 0.1448622889) 78 152 1
(0.3674586674 0.2024451801 0.1138254862 0.3162706663) 352 690 1
(0.06493577098 0.1913191435 0.4675321145 0.276212971) 532 1042 1
(0.02805399397 0.2774702119 0.485973003 0.2085027911) 532 1045 2
(0.2662756272 0.3668621864 0.1257213882 0.2411407982) 111 214 2
(0.0486245304 0.4756877348 0.006997054179 0.4686906806) 322 632 1
(0.2192706748 0.05453470721 0.3903646626 0.3358299554) 263 515 2
(0.3172283111 0.01139875044 0.3413858445 0.329987094) 29 53 1
(0.6342989226 0.1828505387 0.09901634546 0.08383419327) 109 210 2
(0.5159244394 0.05268299 0.1893547903 0.2420377803) 54 61 2
(0.0514282241 0.3823207026 0.09196518536 0.4742858879) 199 331 2
(0.5142017311 0.07699457184 0.2428991345 0.1659045626) 323 633 2
(0.0384097456 0.4807951272 0.4404320937 0.04036303352) 232 455 1
(0.4903935489 0.2548032256 0.2042726222 0.05053060334) 321 571 1
(0.101337658 0.449331171 0.07318020816 0.3761509628) 351 686 2
(0.8084609768 0.07294741551 0.09576951162 0.02282209612) 622 1222 2
(0.3672575767 0.04249057969 0.273880632 0.3163712117) 171 334 1
(0.3827598818 0.07544426598 0.3086200591 0.2331757931) 382 750 2
(0.1643618399 0.02290587288 0.3949132072 0.4178190801) 473 869 2
(0.6259776125 0.1155229933 0.1870111937 0.07148820041) 50 94 1
(0.003493712143 0.454995873 0.04325727094 0.4982531439) 413 751 2
(0.7462832625 0.1268583687 0.06042408611 0.06643428262) 293 574 1
(0.2991387384 0.3311439828 0.01928664805 0.3504306308) 533 987 2
(0.6195191993 0.1574907012 0.1902404004 0.03274969918) 164 321 2
(0.8626167337 0.06869163315 0.05385838983 0.01483324332) 196 381 2
(0.5264631799 0.2124579518 0.2367684101 0.02431045822) 203 395 1
(0.1050287059 0.364345074 0.447485647 0.08314057307) 322 629 1
(0.3541110163 0.3229444919 0.1649829969 0.157961495) 322 631 2
(0.05260100309 0.4736994985 0.003056243814 0.4706432546) 503 1272 2
(0.07774456482 0.4611277176 0.1401090882 0.3210186294) 83 159 2
(0.4832310461 0.1168865718 0.258384477 0.1414979052) 293 574 2
(0.02264755297 0.2036046449 0.2850715786 0.4886762235) 653 1277 1
(0.4508818774 0.2015271029 0.2745590613 0.07303195843) 233 454 1
(0.4602259617 0.06571479415 0.2698870192 0.204172225) 172 334 1
(0.8220438539 0.07414404063 0.08897807307 0.01483403244) 112 216 1
(0.2990784547 0.3093964623 0.04106431042 0.3504607727) 139 271 1
(0.3607569374 0.2756665763 0.04395495502 0.3196215313) 382 749 1
(0.01696358775 0.1219222953 0.3695959108 0.4915182061) 322 573 2
(0.1733259495 0.4133370252 0.412313268 0.001023757251) 82 160 1
(0.6837818953 0.1581090523 0.02904389379 0.1290651586) 291 568 2
(0.223824084 0.3388412913 0.04924666668 0.388087958) 441 807 2
(0.5635783624 0.2071223269 0.01108849192 0.2182108188) 383 692 2
(0.5101814129 0.08283985858 0.162069435 0.2449092935) 139 271 1
(0.3747845702 0.2738126007 0.03879511424 0.3126077149) 203 338 2
(0.6219920006 0.1890039997 0.1823475796 0.006656420092) 230 392 1
(0.08109782959 0.3839726874 0.07547839783 0.4594510852) 653 1223 2
(0.3702716848 0.3148641576 0.03856022019 0.2763039374) 261 509 2
(0.8836130923 0.01268853992 0.04550491393 0.05819345385) 441 865 1
(0.5214650615 0.005194853679 0.2392674693 0.2340726156) 500 982 2
(0.6357709304 0.1821145348 0.008736886287 0.1733776485) 259 507 2
(0.2961710591 0.3519144705 0.2790595059 0.07285496457) 531 1043 1
(0.3858712751 0.2831363666 0.3070643625 0.02392799585) 322 632 2
(0.1230546463 0.2263390448 0.2121336321 0.4384726768) 622 1163 2
(0.0550790603 0.4724604699 0.2013221633 0.2711383066) 199 389 2
(0.4179678341 0.2693743184 0.291016083 0.02164176458) 49 92 1
(0.08633182363 0.2738331352 0.4568340882 0.183000953) 232 455 2
(0.03097939491 0.4845103025 0.0693310771 0.4151792254) 259 507 2
(0.730570529 0.1035590809 0.03115565458 0.1347147355) 407 740 2
(0.8585253083 0.07073734585 0.04381998162 0.02691736423) 287 504 1
(0.07347726687 0.4632613666 0.06643297055 0.396828396) 413 810 1
(0.858502415 0.06748339305 0.07074879248 0.003265399432) 435 851 1
(0.2928499205 0.3535750398 0.113288745 0.2402862948) 233 397 1
(0.3141148825 0.2623614824 0.08058107637 0.3429425587) 263 456 2
(0.5367578994 0.2316210503 0.09364218818 0.1379788621) 201 391 2
(0.06142229776 0.452969384 0.4692888511 0.01631946714) 379 741 1
(0.2039081172 0.2510515724 0.146994369 0.3980459414) 442 809 2
(0.3665073163 0.3167463418 0.1337469735 0.1829993684) 318 565 1
(0.4939098637 0.08089791501 0.1721471532 0.2530450682) 232 454 1
(0.08283925881 0.151705734 0.3068746366 0.4585803706) 232 396 2
(0.5454109971 0.2272945015 0.1810936428 0.04620085867) 53 103 1
(0.2137226461 0.2770247798 0.1161138972 0.3931386769) 443 810 2
(0.09752350659 0.2838980798 0.1673401669 0.4512382467) 171 276 2
(0.7612842019 0.07464972174 0.119357899 0.04470817731) 141 273 1
(0.01476041959 0.03346521283 0.4926197902 0.4591545774) 443 867 1
(0.3251647956 0.3056880143 0.03172958786 0.3374176022) 382 691 2
(0.4230413442 0.2884793279 0.02152912303 0.2669502049) 650 1249 2
(0.0759244582 0.4620377709 0.09266201918 0.3693757517) 289 508 1
(0.007684988044 0.321436728 0.496157506 0.1747207779) 467 914 1
(0.0617343414 0.4218205866 0.4691328293 0.0473122427) 291 571 2
(0.1456139423 0.4271930289 0.3149847121 0.1122083168) 231 453 1
(0.5163992489 0.1950387041 0.2418003755 0.04676167144) 111 217 2
(0.5138755264 0.2111655007 0.2430622368 0.03189673611) 110 212 1
(0.3934022615 0.3032988692 0.2721793821 0.03111948714) 113 220 1
(0.1974978601 0.40125107 0.0861422491 0.3151088209) 143 220 1
(0.475562963 0.1275866838 0.1346318347 0.2622185185) 52 58 2
(0.1823124711 0.4088437644 0.2889355217 0.1199082427) 653 1252 2
(0.005192146702 0.3514784303 0.4974039266 0.1459254963) 28 54 2
(0.03956058236 0.4802197088 0.3427874294 0.1374322794) 200 392 1
(0.6182966907 0.06617070579 0.1908516547 0.1246809489) 226 440 1
(0.2840533537 0.03949750514 0.318475818 0.3579733231) 439 861 1
(0.01772525074 0.1595140171 0.4911373746 0.3316233575) 293 574 2
(0.04163163943 0.4791841803 0.4138404228 0.06534375752) 590 1100 1
(0.5877002997 0.03884935219 0.2061498501 0.167300498) 258 506 2
(0.1027506423 0.06272337161 0.3859013073 0.4486246789) 562 1045 2
(0.7010836142 0.1494581929 0.08052148512 0.06893670781) 353 1267 2
(0.1421680565 0.4289159717 0.2194309281 0.2094850436) 587 1152 2
(0.3949826071 0.1583545905 0.3025086965 0.144154106) 323 631 1
(0.09023802406 0.1189556353 0.3359253527 0.454880988) 652 1252 1
(0.1366301597 0.4316849201 0.4015711955 0.03011372462) 201 393 2
(0.7800415402 0.01224415207 0.09773507781 0.1099792299) 53 60 2
(0.5270832002 0.02298949731 0.2134689026 0.2364583999) 142 277 1
(0.6235016279 0.04438131641 0.1882491861 0.1438678697) 202 393 1
(0.2517897377 0.1543147938 0.3741051312 0.2197903374) 109 213 2
(0.03462825298 0.4826858735 0.04657620905 0.4361096645) 291 512 1
(0.4203907936 0.2141758568 0.2898046032 0.07562874635) 293 574 2
(0.5060514677 0.2469742661 0.07101750792 0.1759567582) 350 684 2
(0.8574737284 0.07126313578 0.07081969275 0.0004434430343) 230 451 1
(0.09569120553 0.2115494328 0.2406049645 0.4521543972) 319 625 1
(0.2633182694 0.08209846894 0.3683408653 0.2862423964) 142 275 1
(0.1083470704 0.4458264648 0.2996485728 0.146177892) 442 868 1
(0.2773673821 0.2865024042 0.361316309 0.0748139048) 351 689 2
(0.4573180895 0.06123988861 0.2101010666 0.2713409553) 443 810 2
(0.2002135348 0.3998932326 0.1165037389 0.2833894937) 199 389 2
(0.02084175979 0.4895791201 0.4079904835 0.08158863656) 258 503 2
(0.1103750524 0.1881659336 0.4448124738 0.2566465401) 377 740 2
(0.8474872767 0.01612905377 0.07625636166 0.06012730789) 230 448 1
(0.6236550223 0.06960428061 0.1881724889 0.1185682083) 288 562 1
(0.6382837834 0.1353883954 0.1808581083 0.04546971292) 230 448 1
(0.8327318812 0.08363405938 0.009969980097 0.07366407928) 203 397 1
(0.3557279628 0.3180522575 0.3221360186 0.004083761107) 560 1100 2
(0.3957934742 0.3021032629 0.1016145189 0.200488744) 501 981 2
(0.1352573974 0.4323713013 0.0702134285 0.3621578728) 409 802 2
(0.4191241228 0.0127453351 0.2904379386 0.2776926035) 589 1157 2
(0.2622631273 0.02151034586 0.3473580905 0.3688684364) 409 744 2
(0.365349497 0.1391511118 0.3173252515 0.1781741397) 137 265 1
(0.1532206067 0.2431276768 0.4233896967 0.1802620198) 291 568 1
(0.3542637686 0.1500255775 0.1728425381 0.3228681157) 257 503 1
(0.577482679 0.2112586605 0.01076620603 0.2004924545) 139 269 2
(0.1730046916 0.4134976542 0.1822252803 0.2312723739) 171 334 2
(0.2416203149 0.04152381075 0.3791898426 0.3376660318) 443 867 1
(0.4120419419 0.1730807776 0.293979029 0.1208982515) 203 395 1
(0.05665600058 0.1977467321 0.4716719997 0.2739252676) 293 572 1
(0.5805493502 0.2097253249 0.03476094265 0.1749643823) 140 215 1
(0.5407826153 0.1673380245 0.2296086923 0.06227066781) 528 1034 1
(0.02404634855 0.1916062488 0.4879768257 0.296370577) 292 570 1
(0.00528911587 0.07258965602 0.4973554421 0.424765786) 562 1104 2
(0.200423563 0.3997882185 0.1528310553 0.2469571632) 133 201 1
(0.04954992635 0.4700359387 0.4752250368 0.005189098107) 318 621 1
(0.2710766178 0.1467569373 0.3644616911 0.2177047539) 501 981 1
(0.3509590922 0.3245204539 0.2350642581 0.08945619577) 406 797 1
(0.07124969285 0.3958824304 0.4643751536 0.06849272315) 323 631 1
(0.3122555684 0.05889209713 0.3438722158 0.2849801187) 533 1044 1
(0.8950851059 0.05245744706 0.04452778379 0.007929663269) 83 104 1
(0.24553114 0.37723443 0.06030829024 0.3169261398) 30 55 2
(0.3703346905 0.3148326547 0.2530431448 0.06178950996) 263 456 1
(0.1689006125 0.4155496937 0.3123948792 0.1031548145) 409 800 2
(0.6301093224 0.158282077 0.02666326185 0.1849453388) 168 270 2
(0.2926514053 0.3536742974 0.1565166484 0.1971576489) 379 743 2
(0.4744347861 0.0446220927 0.2627826069 0.2181605142) 442 868 2
(0.1320492192 0.4339753904 0.1111416453 0.3228337451) 382 750 1
(0.2289560835 0.1193162496 0.2662057087 0.3855219582) 140 215 2
(0.2564368139 0.371781593 0.2395664456 0.1322151474) 381 745 2
(0.3117467398 0.008326116858 0.3358005132 0.3441266301) 83 104 2
(0.5057562538 0.2471218731 0.1332462608 0.1138756123) 32 59 2
(0.3768362141 0.2414120102 0.311581893 0.07016988271) 253 496 2
(0.04334254193 0.3961074983 0.08222123075 0.478328729) 31 29 2
(0.3758424919 0.312078754 0.2808004157 0.03127833839) 233 1263 2
(0.7696003326 0.1151998337 0.05464031978 0.06055951392) 173 1261 2
(0.1460004061 0.212064994 0.4269997969 0.214934803) 227 442 1
(0.4801018958 0.1021801739 0.1577688783 0.2599490521) 140 273 1
(0.6968268104 0.06989398869 0.1515865948 0.08169260611) 413 808 1
(0.1182157335 0.3340817524 0.4408921333 0.1068103809) 52 101 2
(0.1221915934 0.2153838393 0.4389042033 0.223520364) 381 748 2
(0.7441397636 0.1186773668 0.009252751426 0.1279301182) 172 336 1
(0.3290850507 0.1258388359 0.2096186387 0.3354574747) 170 274 2
(0.07948652092 0.4602567395 0.09833974296 0.3619169966) 262 511 2
(0.2429162133 0.3785418934 0.2453085695 0.1332333239) 532 1042 2
(0.1239832272 0.4380083864 0.3939062445 0.04410214186) 469 921 1
(0.5889353237 0.01668010339 0.1888522348 0.2055323382) 321 571 2
(0.5285090031 0.06857648311 0.1671690153 0.2357454984) 110 156 2
(0.126061431 0.4369692845 0.01519394761 0.4217753369) 141 217 1
(0.1345676398 0.1103618918 0.3223542883 0.4327161801) 438 801 2
(0.3576146785 0.3211926608 0.01724637401 0.3039462868) 108 152 1
(0.1295045099 0.435247745 0.2153671263 0.2198806188) 261 512 1
(0.2199392071 0.3900303964 0.2007893953 0.1892410012) 383 751 1
(0.09904868535 0.4504756573 0.2801589005 0.1703167568) 13 24 2
(0.4069561803 0.2965219099 0.1718933607 0.1246285492) 443 867 2
(0.5667069619 0.216646519 0.1810982479 0.03554827112) 82 103 1
(0.002497586055 0.4115778549 0.498751207 0.08717335211) 320 625 1
(0.5528478994 0.2235760503 0.1821738245 0.04140222579) 472 868 1
(0.1500242317 0.3735164167 0.05147146741 0.4249878841) 502 927 2
(0.8304327327 0.009303155114 0.08478363367 0.07548047856) 142 275 1
(0.1421079425 0.4191903223 0.009755706478 0.4289460288) 231 394 2
(0.418872173 0.2905639135 0.01868254068 0.2718813728) 259 449 1
(0.221918429 0.114848083 0.2741927025 0.3890407855) 75 89 2
(0.2409935543 0.3441308527 0.3795032229 0.03537237018) 499 980 2
(0.01229496214 0.4374346393 0.05641787967 0.4938525189) 440 805 2
(0.8572496094 0.07137519528 0.04753267236 0.02384252292) 293 515 1
(0.1153509835 0.4144804183 0.4423245083 0.02784408997) 51 99 2
(0.7026918437 0.02236677899 0.1486540782 0.1262872992) 442 868 2
(0.4833303289 0.2492386526 0.2583348355 0.009096182966) 231 450 1
(0.0398495963 0.4800752018 0.08352902503 0.3965461768) 232 454 2
(0.6681722872 0.07705475436 0.08885910202 0.1659138564) 593 1105 2
(0.6251653976 0.1874173012 0.1538670704 0.03355023085) 623 1221 2
(0.2076500216 0.07845070427 0.3177242849 0.3961749892) 323 574 2
(0.2247942137 0.3876028932 0.1985459374 0.1890569557) 439 859 2
(0.6074819918 0.1338536715 0.1962590041 0.06240533265) 173 338 2
(0.6499783025 0.1750108488 0.1248414138 0.05016943501) 351 686 2
(0.6495376454 0.1470971814 0.02813399588 0.1752311773) 472 868 2
(0.01404323023 0.4659229997 0.02705538518 0.4929783849) 352 632 2
(0.717661015 0.1411694925 0.1062237277 0.03494576486) 441 865 2
(0.2890376987 0.3554811507 0.2342168931 0.1212642576) 350 686 2
(0.1749317699 0.3932094309 0.01932468418 0.412534115) 112 218 1
(0.9527466642 0.0236266679 0.01024929063 0.01337737727) 171 276 1
(0.7086320781 0.09806649314 0.04761746782 0.145683961) 350 686 1
(0.3637966479 0.3181016761 0.1072698359 0.2108318402) 198 385 2
(0.239552252 0.07107639492 0.3091474791 0.380223874) 262 455 2
(0.2134007866 0.3035876969 0.08971190985 0.3932996067) 172 278 2
(0.2067336853 0.1485177516 0.3966331574 0.2481154057) 560 1097 1
(0.6656376358 0.1671811821 0.03874787518 0.1284333069) 113 161 1
(0.04032030294 0.1351955265 0.3446443221 0.4798398485) 651 1220 2
(0.08826698192 0.3376247931 0.455866509 0.1182417159) 623 1223 2
(0.1400556474 0.2073979944 0.2225741819 0.4299721763) 532 986 2
(0.1463996908 0.008780652684 0.4268001546 0.4180195019) 322 629 1
(0.6597492719 0.1033088996 0.06681646444 0.1701253641) 292 572 1
(0.05668383381 0.2424058441 0.2292522389 0.4716580831) 436 855 1
(0.1470761007 0.4264619497 0.0225444271 0.4039175226) 137 265 2
(0.1559398334 0.1012044419 0.4220300833 0.3208256414) 526 1033 2
(0.1533261948 0.2306104321 0.4233369026 0.1927264705) 442 865 1
(0.2338198969 0.1419164137 0.3830900516 0.2411736379) 47 88 1
(0.4277640346 0.2861179827 0.1807412591 0.1053767236) 592 1104 1
(0.2232487259 0.3883756371 0.03135707102 0.357018566) 81 158 1
(0.6380977498 0.1809511251 0.0585316534 0.1224194717) 44 82 2
(0.3829518103 0.3085240948 0.008843526398 0.2996805684) 113 220 1
(0.6199299629 0.1637621077 0.1900350186 0.0262729109) 110 215 2
(0.4475439006 0.2762280497 0.1153856604 0.1608423893) 138 211 1
(0.1334885988 0.4332557006 0.3486679474 0.08458775317) 323 574 1
(0.69722272 0.1162891485 0.03509949149 0.15138864) 110 156 2
(0.3347467772 0.3326266114 0.1526578655 0.1799687459) 79 153 2
(0.1478774176 0.07904576299 0.4260612912 0.3470155282) 319 623 1
(0.1870586366 0.3938541634 0.01261651832 0.4064706817) 262 455 2
(0.3903759518 0.1500049252 0.3048120241 0.1548070989) 531 1043 2
(0.03480947878 0.3528212033 0.1297740574 0.4825952606) 412 808 1
(0.2274690751 0.344685615 0.3862654624 0.04157984745) 229 449 2
(0.2671098611 0.3664450695 0.1302025633 0.2362425062) 142 278 1
(0.7011836103 0.08965163633 0.1494081949 0.05975655853) 203 395 1
(0.07179019941 0.4641049003 0.2829887399 0.1811161604) 107 150 1
(0.02959830965 0.3573411765 0.4852008452 0.1278596687) 78 149 1
(0.3030558714 0.3484720643 0.03661110524 0.3118609591) 172 334 2
(0.07246542193 0.463767289 0.007259651455 0.4565076376) 314 613 2
(0.1111177679 0.3292507105 0.444441116 0.1151904055) 231 453 2
(0.7457501864 0.1271249068 0.04221800077 0.08490690605) 143 1260 2
(0.5742419397 0.2128790302 0.1497012536 0.06317777654) 651 1250 2
(0.01593841934 0.4920307903 0.3139414395 0.1780893508) 470 920 2
(0.2960008043 0.2745195284 0.3519995979 0.07748006946) 227 442 1
(0.2197620748 0.009742954471 0.3803760081 0.3901189626) 258 505 1
(0.6174901168 0.1912549416 0.1504607249 0.04079421676) 260 510 1
(0.2940466169 0.1709411301 0.1820355614 0.3529766915) 169 330 1
(0.07149670937 0.01250428818 0.4517473571 0.4642516453) 142 277 1
(0.7626661255 0.06067018158 0.1186669373 0.05799675569) 323 633 2
(0.08107851458 0.4594607427 0.1870742512 0.2723864915) 53 102 2
(0.00461258218 0.2125242167 0.2851694922 0.4976937089) 293 515 2
(0.3681234874 0.1278590149 0.3159382563 0.1880792414) 318 624 2