/*--------------------------------*- C++ -*----------------------------------*\
| =========                 |                                                 |
| \\      /  F ield         | OpenFOAM: The Open Source CFD Toolbox           |
|  \\    /   O peration     | Version:  2406                                  |
|   \\  /    A nd           | Website:  www.openfoam.com                      |
|    \\/     M anipulation  |                                                 |
\*---------------------------------------------------------------------------*/
FoamFile
{
    version     2.0;
    format      ascii;
    arch        "LSB;label=32;scalar=64";
    class       scalarField;
    location    "0.012/lagrangian/dsmc";
    object      Ei;
}
// * * * * * * * * * * * * * * * * * * * * * * * * * * * * * * * * * * * * * //


6269
(
1.22072648e-21
2.181284434e-20
1.208977855e-20
1.249095794e-21
1.336512899e-20
1.494434697e-21
1.572225617e-20
1.553548967e-21
2.903883206e-21
6.59027072e-22
5.711787789e-21
1.458034651e-21
3.092474729e-21
1.101474162e-21
4.088141563e-22
1.467820322e-20
9.560917236e-21
7.529318994e-21
2.654200312e-20
1.614986354e-20
7.085296442e-21
2.926377133e-21
9.4852045e-22
3.552022363e-21
1.128212828e-22
7.191590899e-21
6.345251792e-21
2.437384208e-21
9.92966195e-22
4.087620873e-21
4.053557792e-22
1.502272296e-21
4.631095895e-20
6.16181741e-21
6.434731151e-21
3.68008632e-21
3.147855322e-21
1.661888779e-21
8.670749714e-22
5.292786192e-21
1.457568568e-21
5.514326271e-22
5.029553433e-22
6.469003139e-21
1.884328972e-20
4.529479589e-21
1.445594269e-21
8.842840484e-21
3.112476537e-21
8.270351402e-21
3.670556502e-21
3.578627687e-21
3.691401166e-21
4.785256013e-22
3.492992416e-21
1.360500028e-20
5.593297604e-21
8.286634592e-21
1.781309528e-21
7.332594682e-21
7.094715989e-21
1.904522473e-20
1.287785443e-21
7.588104186e-21
1.737094316e-20
1.342165104e-20
1.121243287e-20
4.733876943e-21
4.490310533e-21
4.229058037e-21
1.476684282e-20
3.624587488e-21
3.644307705e-21
2.024253995e-21
1.717907122e-21
2.720839991e-21
2.550391378e-20
8.44805497e-21
3.908620912e-21
5.031626226e-21
5.683463955e-21
3.084645277e-20
9.605911902e-22
9.551384353e-22
5.424025894e-21
1.015809127e-22
1.721675438e-22
1.481655273e-23
1.832631555e-20
4.673630284e-21
3.021610278e-21
4.363973809e-21
7.377112168e-22
3.134228782e-21
5.760870417e-21
6.373154535e-20
1.10308621e-21
6.299166922e-21
9.313182856e-21
9.993229124e-21
1.749949072e-20
1.133361124e-20
3.724013021e-22
5.300479465e-21
1.577266864e-21
6.020333563e-22
3.591078177e-22
1.853020843e-21
9.144893876e-21
2.024805227e-21
2.189183968e-21
1.085099281e-21
2.306189765e-21
5.255498759e-21
2.651195875e-21
1.004452121e-20
1.059721758e-21
6.769657135e-22
2.261757575e-21
1.505714482e-21
6.368124487e-21
2.739166259e-21
1.01089745e-21
5.72014804e-21
1.066612943e-20
1.024706122e-22
9.742277841e-23
8.227108559e-21
1.295742961e-20
8.507169547e-21
1.403543369e-21
2.707227223e-21
2.587750876e-20
1.731141648e-21
5.744998632e-21
2.59700902e-21
7.544171817e-21
7.889244816e-21
1.322915713e-21
1.643814393e-21
3.788971595e-21
1.283119699e-21
4.152491065e-21
1.75459035e-21
2.308208148e-21
2.970249356e-21
1.841588902e-20
8.24167419e-21
3.038532982e-21
1.651197328e-22
6.271682373e-21
7.62134986e-21
1.362408304e-21
3.275854762e-21
4.842828763e-22
7.348730011e-21
6.226669926e-21
1.60234772e-21
1.744102134e-22
4.677106814e-21
8.476018922e-22
4.67005785e-21
3.750783728e-21
4.621711053e-21
2.658945311e-21
2.569159216e-21
2.206634006e-21
8.818958155e-21
1.932785057e-20
4.989473763e-21
5.863801484e-21
1.208598518e-20
6.359415771e-21
1.037866467e-20
3.82384109e-21
5.166789505e-21
2.416056415e-21
6.228649151e-21
1.07369783e-20
8.222893877e-22
1.658468329e-20
2.28147607e-21
8.025299323e-21
1.048862352e-21
1.033699856e-20
6.992481069e-21
9.165770669e-21
2.983942518e-22
2.909974915e-21
1.38566378e-20
3.163936511e-21
1.201683117e-22
3.334546935e-21
2.575742481e-21
4.808191032e-21
1.032448431e-20
6.315313673e-21
1.628618505e-21
1.261185216e-20
8.9477414e-21
3.274077019e-21
8.14267074e-22
1.543318155e-20
3.396222379e-21
3.165621342e-21
1.436268472e-21
9.568350549e-22
6.266131612e-23
1.672784017e-21
1.082853224e-20
2.216094612e-21
2.48963146e-22
7.467585073e-22
7.20680723e-21
3.100471995e-21
2.446612607e-21
1.152407438e-20
3.136583396e-21
5.233400732e-21
2.855415322e-21
9.343459941e-21
5.680564718e-21
5.243238895e-21
1.137492688e-20
3.049119522e-21
6.442489808e-22
4.570271645e-21
9.132856018e-22
1.02879361e-21
2.576476295e-21
9.859869127e-24
2.488110441e-21
3.866873934e-21
6.446301865e-22
2.50088275e-20
3.612712803e-22
7.506646607e-22
3.358907564e-22
1.370105055e-21
2.698095502e-21
1.506716477e-20
1.498294372e-21
4.964876896e-21
7.322506981e-22
2.9221488e-21
6.662448528e-22
1.436163483e-21
5.589512872e-21
9.428271736e-21
2.493854547e-22
1.010027279e-20
1.22727074e-20
2.097894278e-22
4.466573231e-21
3.822357009e-21
9.489057578e-21
7.359659931e-21
1.085803909e-21
2.806802864e-21
2.978325913e-21
5.255492061e-21
1.019408116e-21
8.266988302e-22
1.681098937e-20
4.519876196e-21
1.112264513e-21
3.274655924e-20
8.852273942e-21
1.119877029e-20
9.463138587e-21
1.048370135e-21
2.085432503e-21
1.609824052e-21
7.984555996e-21
6.070712739e-21
2.266707541e-22
1.484947231e-21
4.327465234e-21
1.669363589e-21
1.396308076e-21
4.316746577e-22
3.096416245e-20
2.967943534e-21
1.347362271e-21
6.220438688e-21
1.127366342e-20
4.786651854e-21
9.486533842e-21
5.034607606e-21
3.740772234e-23
2.122047941e-21
6.323686945e-21
1.093544393e-21
6.600312265e-22
8.539659338e-22
3.742139471e-21
1.75679055e-21
1.481435272e-20
6.036996861e-23
7.438498001e-21
3.583619939e-21
1.078871384e-20
2.389992996e-21
3.22289773e-21
3.675478514e-21
3.748728865e-21
4.493329737e-22
9.742993066e-21
1.111815632e-21
1.621556766e-21
1.653963255e-21
2.57956035e-21
1.148179278e-22
2.266608191e-20
8.889766933e-21
9.922528703e-21
3.969389446e-21
6.47624437e-22
1.199490686e-21
4.175465617e-21
1.781633944e-21
8.243542138e-21
3.673239928e-21
5.220770331e-21
3.237233551e-20
2.033461808e-20
1.292156685e-21
4.852084545e-21
1.005775269e-21
2.024798381e-21
1.407540754e-21
1.133524151e-21
1.610780787e-21
2.891794385e-20
6.300257452e-21
2.418147747e-21
2.129227814e-21
6.548763715e-21
6.467299585e-21
6.066475502e-21
3.836147455e-21
6.759396148e-21
3.73229193e-21
1.324417023e-21
6.234318762e-22
3.5324025e-23
2.158476464e-22
1.365052929e-20
1.30795486e-20
4.946689887e-21
3.303005383e-21
6.160753982e-21
8.639177565e-21
8.389922327e-22
1.289896885e-20
2.826717152e-21
4.606848729e-21
7.14998465e-21
4.553071212e-21
8.041604092e-21
1.95784783e-20
5.021908016e-21
6.086036986e-21
1.211040336e-21
1.338059594e-21
3.389165828e-20
1.471642075e-20
1.930623468e-20
3.256189846e-21
8.584716433e-22
6.606946373e-21
4.688951655e-21
1.646959238e-21
1.403831753e-20
3.026804074e-21
6.073879682e-21
1.250372874e-23
6.290428032e-21
8.089032006e-21
1.213562825e-21
2.635632758e-22
7.400753474e-21
3.438991591e-21
4.081600929e-22
1.4319328e-20
8.539506564e-22
1.119062311e-20
9.116695998e-22
8.745663433e-23
4.217839974e-21
8.107969657e-21
2.270308731e-21
1.312903192e-21
5.717656796e-21
2.874052773e-21
2.603358257e-21
2.409963989e-21
3.995119063e-21
9.915605492e-22
1.620290942e-20
3.636668425e-21
1.09387219e-20
6.281756251e-21
9.751055948e-21
1.193045669e-21
1.143383879e-20
4.301645603e-21
7.372709343e-22
1.03128184e-21
5.552119496e-21
5.449308423e-21
2.328124181e-20
7.23013118e-22
4.063675478e-21
1.336013185e-22
4.11940323e-21
2.561881784e-21
4.70068836e-21
7.263355911e-21
6.606223013e-22
1.117097061e-21
1.074603142e-20
3.965194979e-21
4.550013221e-21
2.666698735e-21
3.562738025e-21
1.206046992e-21
1.007528299e-21
2.70099727e-21
2.241002415e-20
7.889818745e-21
9.558801992e-23
2.76865594e-21
2.129325571e-21
2.461322472e-21
6.03383927e-21
3.651427561e-22
1.50343396e-20
8.705646393e-21
8.453447507e-22
8.195938728e-22
4.855739341e-21
1.338233819e-21
1.055329443e-20
6.088751459e-22
4.847091235e-20
7.373650447e-21
1.262542408e-21
1.73916488e-20
3.084953667e-21
2.221020785e-21
2.965330833e-21
3.132075426e-21
3.100914577e-22
4.323977564e-22
1.743063084e-22
7.862115736e-21
9.19842959e-22
6.472449388e-21
6.592831249e-21
7.013243633e-21
6.996022531e-21
5.432837254e-21
1.047257113e-21
3.445063818e-21
2.925001016e-20
8.971119091e-21
2.93981242e-21
9.275702422e-21
6.4559437e-20
5.081072418e-21
1.210924207e-21
5.753600311e-21
7.162884328e-21
3.419519466e-21
1.157684551e-20
3.367726934e-21
2.878171057e-23
1.663186651e-20
9.500555544e-22
1.878964757e-21
3.861585217e-21
6.044009993e-21
2.281331747e-21
1.401657342e-20
1.530976494e-22
1.763551288e-21
1.348348604e-21
3.051645919e-21
7.52965843e-21
1.77387103e-21
2.255085342e-21
5.017402823e-21
5.345365098e-22
3.913001151e-21
7.947548271e-21
1.48678257e-21
4.849406262e-21
3.026897175e-21
4.800119701e-21
3.447403932e-22
1.446663835e-21
3.476261181e-21
1.162830763e-20
4.40905173e-21
5.339316921e-21
4.610789698e-21
3.301644609e-21
3.998263694e-22
3.661052517e-21
1.560023267e-21
1.176730841e-21
4.738471401e-21
3.530639409e-21
1.088344659e-21
7.922614838e-21
9.426278401e-22
3.279127131e-21
9.682818905e-21
3.563332632e-21
1.653722815e-21
3.140460761e-22
3.585617304e-21
2.537614571e-22
2.342950476e-21
1.500058696e-22
9.044416355e-22
1.129963667e-20
2.683875865e-21
1.343560949e-20
2.873454137e-24
4.10068914e-21
6.393514072e-21
7.002562967e-23
2.382562103e-22
2.041234069e-21
1.255099934e-22
9.578760142e-22
9.77974284e-22
1.224248877e-22
6.408366357e-21
2.714244097e-21
4.500738566e-21
2.752653819e-21
3.191552879e-21
1.438673443e-21
4.197230824e-22
7.482936376e-21
5.123911874e-21
3.292901096e-21
3.178980922e-21
9.730598098e-22
1.889065905e-21
1.465879502e-21
6.713619901e-21
4.499623363e-21
8.328841338e-22
3.303042963e-21
6.632924647e-21
2.597979592e-21
2.142448396e-22
8.330559608e-21
1.01883564e-22
8.009667823e-21
1.464111936e-21
1.664259278e-22
3.836104836e-21
4.594764566e-21
7.987291224e-21
4.191071286e-22
6.698821285e-21
1.433490827e-20
1.801501798e-21
8.384231073e-21
4.68329221e-21
1.297953563e-20
5.960698413e-23
1.584084417e-22
7.341206713e-22
3.789285563e-21
2.114068286e-21
3.16997854e-21
4.605019357e-21
1.341691827e-21
6.760374604e-21
5.026056929e-21
5.103607554e-22
6.176611083e-23
2.518710002e-21
6.519117554e-21
3.694210744e-21
2.562734877e-22
2.551672158e-20
2.354375013e-21
7.316294028e-21
5.262104471e-21
1.913895937e-21
4.982330175e-22
8.552625096e-22
3.33170115e-22
2.148919444e-20
2.103954125e-21
2.038478805e-21
3.218463073e-21
2.222466371e-21
2.902533959e-21
2.107989824e-21
9.102245144e-22
2.141073842e-23
1.806251975e-21
2.108020456e-20
2.572395848e-22
4.194632636e-22
2.771718522e-21
9.873172363e-21
2.626342648e-20
8.920669012e-22
6.652966815e-21
1.670124581e-21
1.259188146e-21
2.554052675e-21
1.700905348e-21
2.117286111e-20
5.021703821e-21
1.549623053e-20
2.969056598e-20
6.963220475e-21
1.046027612e-20
5.595862357e-21
9.684074777e-22
1.698793785e-21
3.838382216e-21
6.281006164e-21
1.518280371e-21
7.089105366e-21
1.023037926e-20
1.127313245e-20
6.029908924e-22
7.928890916e-23
6.503690953e-22
2.346167828e-21
2.609742669e-21
6.798291893e-21
9.9057514e-21
2.016129068e-20
1.636524308e-20
2.162660914e-21
6.551416627e-21
3.497206922e-21
1.636439667e-21
3.668756755e-21
1.217178876e-20
3.300207254e-20
9.615370063e-21
4.249064036e-22
6.172140688e-22
2.815322093e-21
2.424115924e-20
2.061756181e-20
4.704978782e-21
3.233671872e-21
5.991373051e-22
1.99813803e-21
8.659160622e-21
3.989467009e-21
9.600797608e-21
6.420192764e-21
3.776431406e-21
9.022740663e-21
7.458275594e-21
7.768113826e-21
1.056005226e-20
2.476166889e-22
1.340368507e-20
8.160188431e-21
3.129905064e-21
1.003281654e-21
1.92954557e-20
6.609380358e-21
6.099714366e-21
2.392232953e-21
6.271064376e-21
5.680454518e-21
7.137409808e-22
1.803967651e-21
6.84504528e-21
8.400837731e-21
9.27555839e-21
2.728427729e-21
3.642564019e-21
1.38129577e-21
1.062782894e-20
2.654511422e-21
7.167079013e-22
2.4522819e-21
4.422550136e-22
7.590194509e-22
9.689598184e-21
1.521704824e-20
2.57721269e-21
6.18565703e-21
1.244170708e-21
9.8093381e-21
2.792850698e-21
5.663791989e-21
2.154757467e-21
9.299034917e-22
3.016777354e-21
4.265345842e-21
2.308043842e-22
2.182028003e-21
3.129557422e-21
3.982329753e-21
3.564412328e-21
1.090867877e-21
4.669679175e-21
2.68311809e-22
1.170551967e-21
8.601768709e-22
7.462411997e-21
3.396356345e-20
7.71306214e-21
2.271449531e-20
2.21316139e-21
1.198220899e-20
6.206980617e-21
1.608927031e-20
1.010741353e-20
1.047650352e-21
7.910144065e-22
2.162178356e-21
1.649343611e-21
4.466864512e-22
3.768394835e-21
1.416859106e-20
8.708041985e-21
5.701067121e-22
3.729858542e-21
7.784293008e-21
1.671637318e-21
2.639735824e-21
2.005417261e-21
2.24098942e-22
3.851755214e-21
7.129700602e-22
3.167100353e-21
1.338824879e-21
2.406337297e-21
1.587242965e-21
6.022964413e-22
2.789944493e-22
5.054470234e-21
1.066183759e-20
4.425092708e-22
6.252644e-22
2.60620296e-21
1.199692192e-21
3.964042694e-21
5.008154402e-21
1.836513339e-21
7.787321502e-21
2.462427055e-22
5.084211397e-21
4.461738134e-21
2.829191551e-22
1.240931685e-20
1.830839101e-20
2.157000692e-21
6.997272343e-22
7.006048331e-21
3.490789547e-21
1.999663239e-21
2.62486977e-21
1.694590843e-21
2.690874979e-20
9.836011512e-21
6.566177089e-22
2.163490226e-21
9.908057137e-22
1.10124758e-20
6.246080902e-21
6.679428244e-21
7.434481233e-21
3.655053025e-21
5.129967917e-21
4.90848953e-21
5.930429577e-21
5.631161912e-21
5.0796478e-22
2.209266824e-20
3.563480349e-22
3.136004812e-21
3.218187759e-21
3.292141426e-21
3.250844273e-21
4.853415053e-22
4.168428372e-21
1.065616255e-21
2.08352236e-21
2.918986659e-21
7.13863472e-22
2.870122382e-21
3.676548211e-21
5.355488633e-21
2.438879277e-21
5.446397196e-21
1.27965299e-20
3.80118561e-21
1.923426842e-21
1.379552269e-21
6.558319897e-21
5.354343682e-22
1.391898446e-21
3.081593111e-21
2.944126484e-22
2.004689626e-21
8.368919146e-21
1.030401747e-21
1.608322602e-21
7.063996615e-22
4.663358467e-21
1.014513895e-20
1.127880305e-21
3.416796096e-22
1.969102922e-21
9.335120541e-22
2.109732342e-21
3.009401425e-21
8.648211867e-21
1.488933107e-21
1.018853704e-20
6.049729126e-21
5.053602139e-22
2.562464896e-21
8.828012621e-22
5.648704025e-21
2.065587835e-21
1.051574014e-20
1.463319814e-21
1.064407059e-21
3.432060988e-21
1.119669343e-21
3.380415764e-21
1.668671537e-20
8.387565772e-22
2.350783307e-20
1.009195557e-20
1.099788958e-20
2.457289132e-21
1.35161816e-21
3.670018617e-21
2.903173737e-21
1.118864827e-20
1.806331611e-20
2.069093103e-21
5.180854364e-21
2.03164043e-21
7.07618796e-22
3.609111415e-21
6.376169282e-21
2.187899512e-21
3.937368923e-21
1.950895904e-21
5.650018717e-22
7.543699734e-21
9.18339047e-21
4.453307802e-21
5.436011912e-22
1.210347826e-21
1.586576539e-21
1.610987738e-22
8.350726694e-21
1.644393825e-20
8.679981081e-22
1.618084426e-22
8.464436343e-22
6.142356331e-21
1.194242276e-21
6.095677479e-21
1.824128881e-22
1.968786968e-21
2.078522623e-20
6.937293733e-22
2.129974072e-22
1.851846565e-21
1.882372224e-20
2.378965629e-21
1.302018203e-21
1.111059316e-20
2.150367044e-21
2.675834823e-21
3.003769849e-21
6.326516881e-21
1.064705507e-20
1.072946176e-21
7.487691436e-21
4.16845197e-21
4.959654432e-21
1.484189261e-21
5.90610226e-21
4.987010592e-21
5.878385697e-21
2.832132782e-21
1.294127722e-21
1.623714274e-20
1.18707091e-22
8.256114986e-23
1.263707669e-21
9.759698743e-22
1.803857548e-21
8.488354892e-21
8.70931252e-22
1.688574075e-20
2.30215034e-21
7.024764928e-21
1.077674534e-21
8.057453057e-21
5.699153522e-21
5.568541503e-20
1.341785059e-20
2.558664924e-21
4.195138756e-21
6.48513674e-21
2.160508721e-21
3.264245169e-22
1.465964428e-21
2.650933269e-21
3.534831338e-21
4.841252716e-21
1.544633526e-22
3.269224685e-21
1.792794984e-21
2.892877365e-21
1.396374196e-22
6.30051534e-21
3.777599685e-21
2.93153612e-21
1.746482437e-21
3.832343889e-22
5.307483966e-21
5.402038152e-21
3.356035072e-21
2.579567929e-21
1.152696867e-21
4.892301663e-22
5.283757835e-21
3.62945243e-21
4.2946648e-22
6.350714771e-23
2.71548465e-21
1.250675187e-21
2.041467766e-21
2.072799042e-20
1.066880375e-22
2.134893537e-21
7.969968663e-22
1.674298658e-20
6.579477919e-21
3.461796912e-21
1.761783754e-21
2.41588702e-20
2.685865288e-21
3.850638821e-22
2.057675948e-22
8.370106393e-22
2.627079447e-21
2.92407851e-20
8.188811971e-22
2.234814575e-21
3.586928526e-21
1.140822409e-21
2.297180865e-21
5.809274172e-22
8.778233127e-21
2.615613887e-22
4.651239495e-22
9.102321674e-22
5.62731591e-21
5.479264719e-21
3.63598809e-21
8.469029996e-21
5.323238246e-21
9.680596426e-22
2.248826985e-21
9.445941734e-22
8.62909707e-21
9.372544437e-22
9.272566706e-21
1.368415041e-21
9.873643181e-22
6.414935961e-22
1.451539017e-21
9.567389249e-22
5.793204626e-21
3.545933581e-21
1.380053436e-21
1.806002493e-21
7.852259776e-23
2.276338985e-21
2.137360535e-21
9.802575359e-21
3.867909763e-21
1.515792453e-21
2.390874132e-21
1.492038364e-20
1.498102786e-21
1.01608795e-21
8.806732759e-21
1.627267525e-21
3.403823344e-21
6.07250518e-21
8.644730052e-22
1.126004286e-21
9.823361221e-21
5.335163426e-21
1.183304117e-20
7.739226853e-22
6.263327233e-22
1.043922504e-20
4.680362569e-24
4.102997039e-21
1.051769566e-21
5.454393197e-21
1.198574515e-20
7.757349067e-21
1.833580631e-21
1.362738964e-21
6.488731327e-21
9.766538508e-21
8.02397728e-22
2.078376962e-21
5.37552349e-21
1.261572199e-20
1.743729782e-21
2.704439705e-22
1.995615465e-21
2.70047204e-21
5.941036993e-21
5.942521435e-21
1.297289735e-21
1.270580336e-21
2.409598324e-21
6.977435626e-21
5.272002934e-21
1.771710664e-20
9.702523448e-21
1.202745664e-20
3.963735918e-21
3.75304736e-21
1.270753956e-21
9.706339737e-22
2.201229256e-21
5.948272037e-23
1.626076759e-20
1.175659394e-22
1.32686805e-21
1.126602301e-21
2.897093131e-21
1.44040839e-21
1.95421412e-21
6.397416458e-21
1.027772685e-20
5.147452939e-21
7.100879517e-22
4.678896195e-21
4.364517201e-21
2.272908377e-20
5.347933571e-21
1.523883554e-22
2.931216945e-22
4.975047673e-21
3.016170817e-21
3.747233055e-21
4.590411494e-21
2.652336968e-22
7.258380421e-21
6.763526453e-21
5.249308319e-21
1.877050307e-21
1.886045282e-20
3.491991276e-21
1.102729416e-21
4.488069778e-21
1.74594607e-21
9.23302897e-22
7.03136365e-21
3.573857194e-21
6.656189376e-21
6.304110111e-22
3.484766254e-21
1.193538926e-20
2.081148838e-21
3.939972841e-21
5.093036126e-21
1.214094149e-20
8.929698352e-22
5.115358425e-23
2.840365668e-21
1.493654405e-20
3.422117812e-21
6.631444756e-21
7.623860864e-21
6.940057585e-21
1.203787369e-20
6.411910036e-22
1.368191804e-21
1.884622949e-21
1.054255656e-20
4.992217767e-21
6.395184924e-21
7.1746224e-21
2.878545023e-21
2.25943747e-21
1.357976807e-21
8.913314373e-22
1.058574502e-21
6.125028023e-22
3.825861829e-22
1.280268491e-20
4.140344546e-21
4.689621683e-21
2.247046e-21
4.116177653e-21
2.660273077e-21
6.109988606e-21
1.194495243e-21
2.043204814e-20
2.871943427e-22
1.041438809e-20
1.048354431e-20
1.944645494e-21
2.17640006e-21
3.104782406e-21
7.143860882e-21
1.012945529e-21
4.801227988e-21
2.608926976e-21
1.919718568e-21
6.459350618e-21
4.762821333e-21
4.379536246e-21
1.441244834e-20
1.689752896e-20
1.609355697e-20
3.699949983e-21
8.116159869e-21
1.055731911e-20
8.818703822e-21
6.343849497e-21
1.294022887e-22
1.518557378e-21
2.076989895e-21
5.417589104e-21
4.864037502e-21
6.314112759e-22
1.330361713e-20
4.271350583e-22
1.937241062e-20
6.546019798e-21
8.795285214e-21
4.980592162e-21
3.482236448e-21
2.129027424e-21
2.551827842e-21
6.094132949e-21
1.150338162e-21
3.01903053e-22
3.679247888e-21
4.84893585e-21
1.368855192e-20
2.477982149e-21
1.332077413e-20
8.249454553e-21
9.078589502e-21
4.918677704e-21
2.30031854e-21
1.82182817e-21
5.670049361e-21
1.452280361e-21
8.527402678e-22
1.203081936e-20
4.744698295e-21
8.591292214e-21
3.593471177e-21
1.916057786e-21
2.168883387e-21
3.643476277e-21
5.556692117e-21
1.115925383e-21
3.697591238e-21
5.961269988e-21
1.893523665e-21
4.040440582e-22
6.937092463e-21
5.833494905e-23
2.855095224e-21
1.227609361e-22
6.486066085e-21
6.869577828e-21
1.484885782e-21
1.352970218e-20
6.077724933e-22
4.836349305e-22
3.497106494e-23
1.049699408e-21
1.9286026e-22
1.528463971e-21
8.421682437e-22
1.955403037e-21
5.024980372e-22
2.707630455e-21
2.780617525e-21
2.628922524e-21
9.821319115e-22
5.158907467e-21
3.898160985e-22
6.58934415e-21
7.265713021e-21
2.224915368e-21
2.030712318e-21
4.861260597e-21
4.700374024e-21
2.084781804e-22
2.829047117e-22
2.576643755e-21
6.240323171e-21
1.73172658e-20
1.08778847e-21
6.515755712e-21
1.788403435e-21
1.312438607e-21
1.841367832e-22
2.024979385e-23
2.273307517e-21
2.049060636e-21
6.614648962e-22
3.100762353e-22
2.445147117e-21
2.249518725e-21
1.134381194e-20
1.825986283e-21
1.539227604e-20
6.127921492e-21
5.179422543e-21
4.040656652e-21
3.195868866e-21
2.955539795e-21
4.219733219e-22
9.273709814e-22
5.674869585e-21
3.559795365e-21
5.537135302e-21
7.553772242e-21
5.023291794e-21
1.222705758e-20
1.835848054e-20
1.303882356e-21
9.397089426e-22
6.326479455e-21
9.192471172e-22
1.982860737e-21
6.596434276e-21
3.695828203e-21
6.215721942e-21
9.712427205e-22
6.374632309e-21
2.392528231e-21
5.657338136e-22
6.282805326e-21
9.713151709e-21
3.839076069e-22
1.293842141e-21
4.530305769e-21
1.839874884e-21
4.22835212e-21
4.778879186e-21
5.184686709e-21
5.886055103e-21
9.507435427e-21
6.754082413e-21
1.765957615e-21
2.20590573e-21
1.017164549e-20
1.798645506e-21
2.099982674e-20
6.757715472e-22
6.914789806e-22
1.660201145e-21
1.41666397e-21
2.140022066e-21
6.504704543e-22
3.851072749e-22
1.033169714e-20
6.538490881e-21
6.359861141e-21
3.915781605e-21
6.376051356e-22
4.016593387e-21
2.460238666e-21
2.64947887e-21
6.298597903e-22
5.576017069e-22
2.550812776e-21
4.966409021e-22
2.851378393e-21
2.488084243e-21
1.357774018e-21
2.0594316e-22
3.457747974e-21
2.785537334e-20
4.860098392e-21
3.00339413e-20
1.422929001e-20
4.839461979e-22
2.941459046e-21
6.523437007e-21
4.174063241e-21
1.700673228e-20
9.780755857e-22
3.617673261e-21
6.442602149e-21
3.072923989e-20
1.168726425e-21
5.557468294e-21
2.282457961e-21
6.311991362e-21
5.711930317e-21
1.960997407e-21
6.629582201e-21
2.722657669e-21
1.032788952e-21
3.494481778e-21
3.938857189e-21
3.714936845e-21
5.454303712e-21
5.881470681e-21
4.337947406e-21
1.428265461e-21
1.542187583e-21
9.835736143e-21
2.99671667e-20
6.36832755e-21
9.777351787e-21
2.545330975e-21
9.945418454e-21
5.677690468e-21
5.176906311e-21
2.600920508e-21
6.955589548e-21
1.924649803e-21
6.369232837e-21
8.234132331e-21
5.163528943e-21
6.619692042e-23
8.247018218e-22
4.907488125e-21
3.878341505e-20
4.372003242e-21
6.520162663e-21
1.419089887e-21
3.990115578e-21
5.957723734e-21
3.053349289e-21
9.624609043e-21
8.33944592e-22
7.507589402e-22
9.439815309e-21
3.813622068e-21
8.739271902e-21
1.989562015e-21
2.42820641e-21
1.379698947e-21
6.257732214e-23
3.902289054e-21
1.653432593e-21
1.231483649e-20
1.39173092e-21
7.554627648e-22
9.634517278e-22
7.458108466e-21
1.36082427e-21
3.122190972e-21
8.194243301e-21
7.791289804e-22
2.174802047e-20
4.191611463e-21
3.791359962e-21
4.655097674e-21
1.097610529e-21
1.050380951e-20
3.449427065e-21
3.318741038e-21
4.627237894e-22
7.369581412e-21
4.540492194e-21
6.09982452e-21
1.009343575e-21
3.044623226e-21
9.322055128e-22
6.965683883e-21
8.818972745e-21
2.834717908e-21
2.019793745e-21
1.392695594e-20
5.368950848e-21
9.179965609e-23
5.657829373e-21
7.003904685e-22
2.206518641e-21
6.609207221e-21
4.314323967e-21
8.044696647e-21
5.137309426e-22
4.359414389e-21
2.075615703e-21
8.98071609e-22
2.85801052e-21
3.217126516e-22
1.082396784e-22
2.626630109e-21
1.162797543e-21
3.857994132e-21
5.48608748e-21
1.207184593e-21
4.877867213e-21
3.878166375e-21
6.895212263e-21
7.256164689e-22
1.462513712e-21
3.444118143e-21
3.75856098e-21
6.407086289e-22
1.357313923e-20
1.651884642e-21
2.113974792e-21
1.226404302e-21
1.889605741e-21
1.103678306e-20
3.144312595e-21
2.6481487e-21
2.557826381e-21
1.865477745e-20
5.196922727e-22
2.207848044e-21
3.769766285e-21
3.076032471e-21
4.447491529e-21
6.651622119e-21
1.195655753e-20
2.224844632e-21
1.473070877e-21
2.920485653e-21
5.44291409e-21
6.277300714e-21
4.551697829e-21
1.219810791e-20
3.223478392e-21
3.045158876e-21
6.785148282e-22
2.958060691e-21
1.567088464e-21
5.099099174e-21
2.857471046e-21
8.067501027e-21
1.873005967e-20
7.603232307e-21
3.628358177e-21
5.413413971e-21
1.424348224e-21
4.372311124e-21
2.055490641e-21
4.201236762e-21
6.453194432e-21
3.961132042e-22
8.275905727e-21
2.015811216e-21
7.149605717e-21
2.637008051e-21
1.380894232e-22
3.722179985e-21
1.066728053e-22
3.194863996e-21
5.410217837e-21
4.54630871e-21
2.615609449e-21
5.697146229e-21
2.988989162e-20
9.606223429e-22
5.244408748e-22
4.680420702e-21
1.155900959e-20
3.461744967e-21
7.910490833e-21
5.843588384e-21
1.055493257e-20
3.148097486e-21
9.709517632e-21
7.316516944e-21
4.097392221e-21
7.931128457e-21
9.214107346e-22
7.09843795e-21
6.876260379e-21
9.255207458e-22
1.748352486e-21
3.462447411e-21
4.150256789e-21
8.529626866e-22
4.546354409e-22
7.988696723e-21
1.047915238e-21
1.468454802e-21
3.618799057e-22
1.469797479e-21
4.809303002e-22
1.527946306e-21
4.931264341e-21
3.316694896e-22
4.36748235e-21
1.283207354e-21
4.880112712e-21
8.963442689e-21
2.236035405e-21
3.257316781e-21
7.08631737e-21
1.346736201e-21
3.328945337e-21
4.369741119e-21
2.18585779e-21
4.452448254e-22
1.522523676e-21
1.098204956e-21
5.966099497e-22
3.768399614e-21
5.125815818e-21
1.448983741e-21
1.670946645e-20
5.142306365e-22
6.598986002e-21
3.693176661e-22
2.429786475e-21
6.644589248e-22
5.567818544e-21
3.528660096e-21
2.392412824e-21
6.541425229e-21
5.308673355e-21
6.059668797e-21
4.38037894e-21
6.573485504e-21
3.000464164e-21
3.73843472e-21
3.419563589e-21
4.607843059e-22
8.396348459e-21
8.569483254e-21
1.282782579e-20
2.31659524e-21
7.159217407e-21
1.18483609e-20
2.144391008e-21
1.452308126e-21
2.267059875e-21
2.893952357e-22
8.296388961e-21
7.719456049e-21
5.201023411e-22
2.28801705e-21
1.020753119e-20
4.229248803e-22
3.507464538e-22
9.992042069e-21
2.598050601e-21
1.58516754e-20
2.2742586e-21
4.210458571e-22
5.49860138e-21
2.350756673e-21
1.04557465e-20
2.278612394e-21
1.873894168e-21
1.344364517e-20
1.016673596e-21
1.369605943e-21
2.094162262e-21
1.084084526e-20
8.187499004e-21
4.99600079e-21
5.977103897e-21
9.534435795e-21
1.021975027e-21
2.697263456e-21
7.218505024e-21
2.01542248e-21
3.010929357e-21
2.048146776e-21
9.396164776e-22
3.78462132e-21
5.022783423e-21
7.175675817e-23
1.750907919e-21
5.222152378e-21
1.919486616e-21
3.806821457e-21
5.621053942e-21
1.065551931e-20
6.920379367e-22
2.916523534e-21
5.097460495e-21
4.51434707e-21
3.542823427e-21
7.316149098e-21
1.046312611e-20
1.367804259e-20
5.867320137e-21
8.409527085e-21
1.56007097e-20
1.02141498e-20
1.003846568e-20
2.369193054e-22
6.336828956e-22
2.082188481e-21
1.761590349e-21
8.651446587e-21
1.337727831e-21
9.686404578e-21
2.164069457e-21
1.575959407e-21
1.54667893e-21
2.548777599e-21
2.215606507e-21
4.791315792e-21
2.988474888e-20
1.191388428e-20
3.233303436e-21
1.688750796e-20
5.006656504e-22
3.75014271e-21
2.070259362e-20
1.650771281e-23
1.408644835e-21
2.157328357e-21
1.423784799e-20
4.147287748e-21
1.052149361e-21
2.313724027e-22
1.188592285e-21
5.649670093e-21
3.658968503e-22
2.146253893e-22
4.292596437e-21
3.747880366e-23
1.952656175e-21
1.301953021e-21
3.736989651e-21
1.167821023e-20
9.592423284e-21
3.597211306e-22
2.736839487e-21
2.163402348e-21
7.318527647e-22
5.322935459e-21
5.735950718e-22
7.399975975e-21
2.273693654e-21
3.136398105e-22
7.655389717e-22
9.245639667e-21
1.66190471e-21
1.98680926e-20
1.582556714e-20
5.906460492e-21
5.904345633e-21
2.601559181e-21
1.100551627e-20
5.740882396e-21
1.499761142e-21
1.054644988e-20
5.703739608e-22
9.016185694e-22
9.399302081e-21
3.924758688e-21
3.259993751e-21
1.858333965e-20
1.017713901e-20
1.464635995e-21
1.501162935e-21
7.952983311e-21
1.391774971e-20
5.395755729e-21
4.481023362e-21
1.541477372e-20
2.810140439e-21
2.974898271e-22
2.819748401e-21
5.036045749e-23
6.370774794e-21
4.842780259e-21
1.302532399e-21
4.274941299e-21
9.580996714e-22
1.853909043e-21
7.699792037e-21
2.075861172e-21
2.316526102e-21
4.630824804e-21
4.321328412e-21
1.078082483e-20
2.649094113e-21
2.047449234e-21
6.962360042e-21
6.213227758e-21
9.855703521e-22
1.698480933e-21
2.579497874e-21
4.828922553e-21
6.06683833e-22
5.055470173e-21
1.852506623e-21
1.194845374e-21
8.864769668e-21
1.918040927e-21
1.799479839e-21
1.047918741e-20
3.135932351e-21
1.299744847e-21
2.879329453e-21
2.132542212e-21
1.240109782e-21
1.033632156e-20
2.756454343e-21
1.536741405e-21
2.445603932e-21
5.920881085e-21
2.793895566e-21
3.233384812e-21
1.64691469e-21
1.09298558e-22
7.77138901e-22
1.851307859e-21
7.32385457e-22
7.61577813e-21
7.900666368e-21
7.164299484e-23
4.566733586e-22
6.032138868e-21
4.388108519e-21
8.670429352e-22
6.157703674e-21
9.791389788e-22
4.365693533e-21
4.659476618e-23
3.59605418e-23
1.913486961e-21
1.913406661e-21
8.123412474e-21
5.518890049e-22
1.231919529e-20
8.718502171e-21
5.276453656e-21
5.865625038e-22
1.819436051e-21
2.267507226e-21
4.573174591e-21
2.815947876e-22
1.993673511e-22
1.181924917e-21
1.645393899e-21
1.76403757e-20
7.121310563e-21
2.824312582e-20
4.064325394e-21
4.234413635e-21
1.23919203e-21
5.450226248e-21
8.413199738e-21
1.541971891e-21
3.138124642e-21
4.154409085e-22
3.132927692e-21
7.737380127e-21
1.10812142e-20
9.723215681e-22
1.165183065e-21
2.087138097e-21
2.163414799e-21
1.187124559e-20
9.359616569e-21
5.762278328e-22
3.97317582e-21
4.453881075e-22
6.469981408e-22
2.2913073e-21
1.52934973e-21
8.869408926e-23
2.007812683e-21
1.075129624e-21
7.995480193e-21
7.674752497e-21
1.27622481e-21
3.523966055e-21
6.09535718e-23
1.477143917e-20
1.887964779e-21
2.808614641e-22
7.085209361e-21
1.962158804e-22
3.327962914e-21
1.384820218e-21
7.18332836e-21
6.94874561e-21
5.013346583e-21
3.409402831e-21
6.320435477e-21
7.732363089e-21
2.031283325e-21
3.669909955e-21
1.474004325e-21
1.105059879e-21
2.91218847e-21
3.957763934e-21
8.629627888e-22
1.073476749e-20
1.384433679e-21
3.060879203e-21
3.846915238e-22
6.546627559e-22
7.573280351e-21
1.234540188e-21
2.819809524e-21
1.248568319e-21
2.01572224e-22
9.945807948e-22
1.112820075e-20
2.609041083e-21