/*--------------------------------*- C++ -*----------------------------------*\
| =========                 |                                                 |
| \\      /  F ield         | OpenFOAM: The Open Source CFD Toolbox           |
|  \\    /   O peration     | Version:  2406                                  |
|   \\  /    A nd           | Website:  www.openfoam.com                      |
|    \\/     M anipulation  |                                                 |
\*---------------------------------------------------------------------------*/
FoamFile
{
    version     2.0;
    format      ascii;
    arch        "LSB;label=32;scalar=64";
    class       labelField;
    location    "0.012/lagrangian/dsmc";
    object      origId;
}
// * * * * * * * * * * * * * * * * * * * * * * * * * * * * * * * * * * * * * //


6269
(
514778
516487
602825
516450
521393
521927
518443
518189
602624
518099
517577
518263
518660
519149
518699
517115
517464
517623
517848
518424
516749
517054
518425
518579
518273
518354
518621
518641
518975
519402
517915
518278
517799
518261
519135
519303
605282
517914
518435
518634
519295
519496
519848
515346
519165
519583
520019
520047
520341
519042
604761
518433
518464
518713
518976
519066
519413
519676
517310
518612
518894
518900
518986
519150
519432
605185
520123
517391
518116
518505
518967
519158
519243
519262
519327
519491
519503
604458
519841
519859
604549
518323
518715
518896
518926
519221
519040
519787
520015
520277
520299
520402
603540
518136
519102
519223
519573
519615
519726
520018
520181
520628
518359
518438
518470
518708
519057
519098
519166
519173
519219
519338
519589
519770
519861
520217
520345
602601
522104
605070
517594
518297
518557
519455
519476
519486
519488
519527
519949
520031
520209
520290
520795
518348
518534
518554
518703
518881
518965
519145
519226
519308
519343
519529
519636
519663
519704
519728
519797
519830
519975
605887
520215
520457
520904
521123
521372
522805
605379
518327
518365
518471
518817
518898
519073
519074
519103
519358
519436
519445
519524
519561
519585
519664
519710
519761
519824
519840
519929
519968
520033
520134
520154
520266
520976
521000
521039
521211
605878
606824
524828
606085
519649
518431
518432
518601
518728
519000
519188
519422
519700
519834
519844
519863
519933
605581
520089
520102
520151
520175
520195
520198
520224
520365
520413
520520
520576
520176
606305
523151
606499
518054
518816
518962
518989
519059
519505
519506
519530
519591
519719
519831
519941
519950
519956
520010
520106
520220
520281
520385
520465
606720
520577
606618
519915
523246
519216
525430
525524
58654
604767
519816
518998
519162
519230
519495
519541
519548
519655
519672
519746
519760
519765
519870
519953
520040
520131
520230
520273
520296
520393
520478
520479
520485
520589
520601
520708
606928
520885
520897
521143
605578
523150
605950
519647
521064
517136
518822
519177
519200
519356
519634
519694
519845
519888
519963
520017
520039
520041
520113
520141
520238
520325
520332
520364
520410
520421
520429
520500
606307
520538
520545
518679
520642
520684
520842
520971
521076
521572
522802
606395
519337
519442
519565
519838
519942
520068
520096
520126
520132
520225
520336
520350
520394
520407
520424
520650
520656
520745
520796
520799
520855
520898
520900
521121
521206
521238
521590
606401
606192
606715
525889
518243
607319
520287
606294
517387
517421
519152
519172
519258
519384
519389
519513
519628
519646
519654
519681
519695
519727
519855
519865
519882
519889
519926
519932
520032
520048
520062
520064
520105
520125
520158
520250
520284
520297
520310
520311
520327
520340
520349
520392
520395
520397
520483
520516
520562
520578
520607
520645
520743
520779
520793
520808
520831
520844
520868
520911
520947
521019
607530
521452
522010
605976
523590
524467
605873
524827
606594
520182
525253
603827
518859
519397
519658
519782
519839
519843
519864
519940
519983
520016
520073
520091
520099
520112
520189
520212
520292
520303
520319
520384
520401
520408
520557
520590
520599
520648
520666
520681
520740
520770
520806
520810
520829
520850
520938
521005
607021
521150
521304
520870
606614
520005
58698
605660
607017
519013
519360
519507
519515
519581
519610
519794
519922
520056
520133
520144
520164
520213
520279
520450
520456
520476
520481
520580
520634
520644
520649
520683
520716
520720
520721
520731
520771
520833
520846
520874
520884
520909
520983
520984
521086
521158
521272
521418
521662
521878
607519
607024
604959
525080
605569
605184
518631
519309
519312
519339
519819
519959
519961
520026
520136
520188
520205
520219
520244
520278
520285
520382
520389
520403
520417
520418
520452
520473
520502
520561
520563
520575
520581
520588
520657
520662
520668
520679
520735
520751
520794
520811
520892
520920
520991
520994
521020
521021
521140
521163
521339
521361
521422
521501
521547
521594
521783
521833
607217
607430
605983
607213
605488
519266
519756
519945
520036
520149
520306
520321
520334
520337
520414
520466
520521
520627
520643
605980
520812
520839
520873
520881
520929
520940
521007
521023
521082
521161
521170
521442
521523
521619
521696
521963
523148
606821
524649
607113
525799
606384
518738
518977
519586
519592
519596
519668
519778
519826
520006
520049
520051
520128
520139
520143
520199
520302
520370
520448
520482
520488
520495
520515
520547
520553
520579
520591
520600
520608
605889
520632
520635
520754
520761
520830
520918
520970
520978
520997
521010
521034
521068
521077
521108
521235
521333
521427
521529
521551
606197
521585
521657
521709
521753
521788
521886
521906
607324
521986
522009
522799
523147
606910
606718
526399
607299
521048
602085
605062
518080
607922
518892
519174
519355
519593
520275
520304
520475
520494
520572
520732
520817
520820
520882
520913
521067
521074
521112
606926
521141
521148
521166
521179
521230
521310
521311
521330
521355
521449
607022
521610
521716
521719
521725
606396
521839
522530
522890
607733
605384
523674
608145
608544
521402
525339
518690
519235
520968
607918
606607
521247
519079
520050
520117
520118
520129
520152
520191
520200
520318
520329
520374
520477
520560
520564
520595
605791
520658
520741
520757
520803
520857
520906
520912
520931
520987
521102
521133
521134
521142
521167
521172
521217
521256
521269
521275
521307
521340
521400
521407
521505
521506
521509
521526
521543
607738
521641
521713
521835
521873
521910
522101
607734
523842
524026
524028
524030
608853
519720
525341
607630
58740
519141
519571
519775
519868
520137
520324
520326
520351
520453
520464
520514
520637
520727
520739
520827
520878
520951
521025
521081
521110
521201
521202
521270
521271
521286
521303
521325
521337
521344
521357
521366
521384
521429
521502
521503
521524
521528
521681
521732
521793
521897
521960
521978
522076
522117
522320
607417
608546
520086
524383
525615
525798
58751
58752
518864
605559
608335
521306
521698
518973
519784
519947
520022
520094
520114
520425
520486
520551
520567
520597
520626
520638
520665
520674
520715
520717
520801
520819
520822
520836
520877
520955
521004
521024
521055
521103
521131
521155
521218
521318
521343
521360
521368
521421
521443
521458
521463
521510
521536
521553
521557
521561
521620
521624
521684
521718
521792
521798
521854
521860
521863
521877
521880
521976
522050
522128
522294
522704
523927
524027
607124
524198
524557
524732
525698
525797
525887
526137
58765
601708
604324
602204
607631
519691
519854
520317
520320
520380
520461
520621
520630
520697
520718
520725
520744
520826
520841
520887
520914
520919
520992
521008
521071
521073
521090
521118
521130
521149
521186
521188
521191
521200
521241
521338
521352
521367
521380
521437
521440
521555
521627
521634
521659
521705
521744
521745
521784
521785
521808
521868
521907
521943
521974
522032
522079
522122
608354
521671
607122
608142
523243
523502
521405
607423
524466
525160
607316
526228
526482
520115
58778
603634
604949
605561
605780
519951
520104
520211
520623
520655
520719
520763
520767
520772
520835
520890
520903
520928
520996
521113
521165
521243
521274
521284
521324
521345
521348
521354
521356
521379
521420
521451
521468
521542
521613
521622
521625
521660
521675
521678
521700
521703
521711
521727
521730
521777
521800
521810
521841
521847
521916
522037
522083
522123
522172
522197
522230
522241
522289
522327
522582
522764
608542
524199
520087
607619
525159
607515
525614
608136
521300
527023
607830
58786
58787
58789
58790
604112
521054
518799
519302
519324
520061
520071
520295
520639
520641
520646
520737
520791
520859
520995
520998
521063
521079
521080
521175
521176
521183
521209
521236
521237
521244
521254
521346
521382
521416
521417
521474
521500
521548
521560
521607
521629
521649
521688
521701
521704
521712
521722
521749
521750
521813
521828
521859
521881
521922
521941
521992
522016
522056
522073
522075
522160
522332
522339
522421
608147
522674
522706
522794
607737
523671
521498
525613
607715
608242
521060
526742
58800
58801
58802
591488
604349
605478
606513
606712
519399
607813
607634
519674
520145
520218
520293
520471
520496
520660
520691
520752
520765
520798
520815
520845
520848
520883
520891
520982
521026
521147
521153
521162
607635
521334
521336
521430
521445
521527
521541
521556
521639
521679
521683
521691
521708
521734
521775
521804
521807
521866
521887
521895
521911
521915
522040
522046
522049
522064
522069
522120
522169
522180
522213
522240
522262
522265
606917
522326
522381
522399
522481
522512
522528
522562
522615
522798
522889
522923
607326
609063
523392
523924
608350
607940
599470
606899
606797
607713
519972
520222
520463
520568
520672
520723
520728
520766
520875
520917
520975
521012
521014
521059
521083
521109
521164
521184
521203
521220
521240
521252
521267
521283
521321
521428
521438
521444
521522
521581
521601
521602
521621
521647
521680
521693
521706
521733
521802
521816
521821
521831
521858
521869
521872
521901
521909
521934
521939
521940
521975
521979
522036
522041
522047
522051
522055
522070
522111
522220
522224
522259
522278
522285
522355
522406
522413
522489
522570
522614
522703
608863
522795
522933
607315
607835
607628
526576
526835
527022
527382
58821
58822
599166
518076
604741
520003
607116
608130
520270
520322
520497
520574
520824
520935
521002
521022
521232
521246
521314
521412
521435
521441
521456
521525
521651
521695
521724
521791
521803
521822
521830
521840
521865
521885
521888
521892
521914
521948
521984
521987
522067
522088
522118
522154
522159
522244
522258
522261
522328
522342
522354
522380
522392
522400
522484
522487
522529
522601
522636
522726
607723
608447
609358
608126
525337
525796
522116
526575
608230
58826
58827
58828
601755
603278
603753
604031
606814
519220
606721
608437
521159
520235
520286
520289
520383
520388
520675
520733
520838
520993
521070
521111
521144
521168
521178
521193
521222
521261
521309
521312
521377
521460
521462
521515
521518
521546
521552
521567
521626
521631
521638
521648
521653
521717
521737
521820
521826
521855
521870
521882
521890
521891
521908
521937
521954
521962
521970
522164
522242
522243
522299
522314
522330
522386
522457
522476
522558
522617
522635
523096
523332
609165
523670
523672
524381
524646
525521
608339
526314
608540
607728
58831
519130
520378
607371
608346
608449
520905
521786
522121
607726
519990
520226
520309
520420
520669
520749
520774
521003
521013
521015
521017
521091
521181
521225
521226
521264
521331
521388
521447
521448
521612
521618
521637
521646
521674
521682
521692
521765
521809
521883
521904
521944
521990
522022
522030
522043
522060
522099
522132
522165
522171
522198
522215
522225
522267
522297
522312
522365
522402
522445
522450
522494
522503
522507
522511
522518
522548
522590
522596
522627
522694
522721
522756
522860
522884
522926
608349
523316
608759
608868
608143
608341
610396
58839
58840
517467
605443
606292
607421
609146
520843
520922
520925
520930
521096
521187
521195
521268
521349
521362
606613
521455
521457
521504
521508
521514
521739
521778
521779
521812
521875
521876
521952
521972
522000
522039
522057
522086
522089
522093
522110
522129
522130
522134
522137
522166
522186
522201
522216
522271
522292
522309
522383
522414
522428
522430
522451
522492
522545
522589
522603
522658
522681
522827
522917
523146
608448
523584
523587
608446
607621
522017
525336
526574
527192
527380
58848
598146
593559
604253
608234
606018
518262
521056
520470
520758
520981
521189
521196
521242
521512
521545
521604
521605
521614
521633
521685
521689
521707
521715
521787
521795
521797
521799
521818
521823
521832
521852
521871
521874
521899
521917
521946
521956
521980
521982
522044
522048
522078
522138
522200
522204
522208
522222
522237
522290
522296
522302
522303
522318
522418
522566
522578
522579
522657
522736
522830
522853
522885
523009
523023
608655
523354
523459
609580
525338
525429
526934
527099
527723
603797
605962
606301
606296
520009
520499
521018
521028
521029
521058
521061
521137
521231
521363
521436
521450
607219
521533
521616
521747
521781
521806
521825
521889
521893
521949
521953
521955
521993
522028
522087
522144
522231
522232
522234
522238
522266
522286
522310
522319
522343
522390
522393
522397
522420
522473
522483
522498
522527
522626
522639
522669
522725
522732
522746
522759
522762
522861
522941
522951
522954
609478
523004
523015
523104
524024
524025
524994
525252
525694
608949
607828
608328
58859
58860
58861
58862
602897
603447
603933
605460
605289
605662
606809
606606
608444
608040
520565
520689
520802
520886
521182
521301
521365
521459
521531
521538
521583
521615
521632
521644
521656
521902
521938
522008
522024
522026
522038
522058
522077
522127
522147
522152
522176
522206
522217
522223
522251
522257
522331
522385
522389
522403
522409
522411
522412
522423
522459
522485
522581
522597
522647
522649
522684
522686
522700
522742
522753
607626
522823
522914
522969
523005
523038
523113
523115
523171
523328
523377
524382
524644
608558
524901
609470
524993
525158
608139
527191
58866
58867
58868
58870
604026
605180
605801
606609
606822
606380
606891
607491
608038
606723
609974
604058
520487
520505
520542
520652
521093
521116
521257
521332
521370
521423
521432
521481
521740
521741
521814
521817
521932
521966
521983
521989
522033
522042
522062
522068
522082
522085
522125
522140
522146
522151
522170
522227
522229
522233
522236
522254
522270
522298
522308
522316
522324
522337
522349
522350
522387
522401
522491
522524
522572
522604
522640
522646
522652
522682
522698
522745
522748
522750
522752
522773
522813
522814
522816
522848
522864
522986
522990
523007
523022
523026
523083
523092
523102
523347
523374
608963
523481
523732
523742
608245
608137
525885
525886
527378
527379
527459
58877
58878
599102
598445
602996
519218
608553
609335
608239
608638
520369
520747
520980
520988
521009
521099
521105
521152
521157
521234
521239
521278
521359
521433
521434
521530
521609
521630
521694
521699
521726
521862
521896
521961
522072
522158
522174
522210
522246
522280
522336
522367
522377
522394
522416
522419
522448
522470
522480
522569
522574
522593
522599
522616
522662
522665
522672
522673
522690
522697
522749
522751
522797
522834
522835
522856
522857
522863
522870
522905
522959
522961
523011
523081
523202
523204
523224
523233
523300
523323
523326
523493
523554
523692
523741
523753
609269
609683
523923
609159
524643
525518
521411
526573
526741
609147
609046
609572
609561
607819
606093
521358
521537
521606
521635
521720
521968
521981
521988
522035
522066
522096
522307
522313
522333
522335
522388
522396
608656
522449
522452
522458
522460
522465
522486
522496
522506
522551
522553
522556
522571
522659
522685
522689
522758
522760
522828
522836
522842
522846
522851
522854
522859
522937
522977
609476
522989
523008
523017
523035
523094
523097
523139
523295
523355
523390
523421
523575
523691
523749
523752
523806
524023
609993
524463
524464
524465
524645
524731
527098
609264
609261
527288
608951
523162
58890
58891
58892
603115
600693
519215
519313
519605
607175
606397
607126
607719
608247
607422
609066
608138
519607
520805
521088
521431
521690
521729
521731
521780
522061
522142
522145
522155
522214
522329
522379
522391
522398
522408
522463
522477
522499
522547
522583
522633
522648
522664
522858
522911
522935
522995
523001
523027
523039
523042
523130
523136
523173
523180
523228
523266
523317
523423
523435
523465
610401
523611
523758
609258
607615
522625
527885
528235
58903
58904
58905
58906
58912
591904
517725
600705
603520
604330
604345
605777
607520
607310
518875
607318
520915
521454
521957
521965
521969
521973
521977
522034
522052
522065
522148
522167
522168
522199
522235
522322
522364
522427
522433
522501
522554
522586
522595
522602
522666
522667
522668
522678
608764
522733
522737
522754
522774
522840
522928
522945
523016
523021
523029
523107
523197
523227
523267
523276
523289
523292
523346
523353
523383
523400
523565
523616
523625
523696
523775
523798
523926
523952
523960
523978
609252
524642
524995
609163
525334
525790
608434
609675
527798
528335
58921
58922
58924
58925
58926
58927
594758
600962
602199
604247
604445
520441
606094
518157
519395
607317
609570
520851
521169
521697
521933
521959
522031
522143
522162
522209
522211
522325
522478
522490
522493
522513
522516
522520
522573
522577
522608
522653
522656
522680
522714
522744
522755
522785
522791
522852
522869
522909
522963
523034
523048
523058
523073
523077
523117
523126
523191
523210
523218
523261
523286
523327
523351
523411
523443
523470
609686
523596
523637
523660
523727
523827
610286
608861
524137
524647
525157
525793
525794
526834
521857
521849
522462
610164
58935
58937
58939
593558
600354
600314
602003
606489
519815
519829
520011
521766
609367
520825
521154
521322
521351
521540
521702
521958
522059
522074
522097
522133
522156
522239
522245
522305
522546
522585
522587
522645
522671
522687
522747
522766
522775
522776
522949
522957
523052
523090
523098
523105
523125
523131
523143
523188
523189
523225
523265
523272
523356
523367
523371
523438
523456
523550
523695
523722
523891
523957
609158
525335
525883
526657
527019
609777
609061
522277
528063
528334
58941
58942
58943
601961
592402
603695
603726
605551
519567
520268
607392
521319
609057
520221
520953
521611
521776
521796
522045
522136
522247
522436
522497
522526
608042
522561
522563
522564
522607
522663
522693
522713
522715
522761
522817
522844
522904
522915
522927
522931
522942
522947
523018
523019
523037
523089
523109
523158
523201
523205
523223
523269
523301
523340
523366
523378
523394
523402
523403
523545
523576
523639
523641
523704
523728
523783
523816
523999
524048
524078
524181
609467
525077
609881
609883
525884
526053
611311
526397
523339
527376
528062
609759
528520
609056
58950
601050
599167
602688
604326
517281
605775
606923
605241
606900
521794
521223
610478
518152
521323
522163
522212
522464
522482
522500
522560
522568
522692
522729
522735
522866
522918
522925
522962
522976
523003
523030
523044
523055
523106
523108
523122
523264
523287
523297
523338
523352
523386
523389
523399
523471
523475
523495
523572
523638
523649
523723
523736
523754
523850
524159
608551
524992
610394
525428
525516
525787
609880
526833
609471
527377
527633
528772
58957
58958
58959
58960
58961
58963
603246
605869
605765
606081
606595
607302
520107
608730
606097
522366
609454
520910
521686
521736
521851
521947
522250
522323
522405
522474
522575
522580
522730
522738
522769
522849
522862
522872
522901
522946
522964
522965
523025
523074
523100
523119
523123
523199
523211
523230
523240
523282
523304
523321
523343
523363
523384
523448
523450
523468
523477
523524
523529
523546
523547
523597
523630
523631
523679
608754
523860
523953
523996
524021
524071
524081
524088
524090
524152
522447
610794
607327
610801
610782
528333
58969
58972
58973
601443
517900
605060
604527
605172
520095
605973
605620
606352
517213
607707
521942
608740
521687
607532
610695
521591
521714
607420
521062
521628
522003
522054
522321
522505
522555
522609
522642
522644
522670
522676
522770
522780
522787
522792
522815
522867
522929
522948
523013
523031
523032
523041
523099
523186
523195
523213
523216
523263
523271
523291
523306
523311
523348
523358
523396
523442
523451
523452
523453
523474
523478
523480
523485
609990
523521
523537
523541
523573
523585
523601
523614
523619
523629
523636
523683
523757
523777
523807
523854
523873
523948
523982
523998
524060
524153
609582
524321
524330
609164
523764
525792
526225
526311
609991
609060
527721
610368
610594
609661
528430
610896
520097
58976
58977
58978
58979
602972
604425
605139
606076
606820
607915
607526
521139
521769
517656
608760
609685
520090
522063
522150
522311
522417
522475
522675
522691
522734
522865
522874
522881
523014
523047
523079
523095
523132
523133
523193
523376
523379
523436
523457
523460
523462
523562
523564
523567
523570
523578
523646
523655
523658
523776
523780
523782
523813
523815
523864
523871
523900
523940
524044
524101
524102
524209
524228
524282
524355
524429
524495
524547
524554
524713
524745
525427
610097
608948
610799
526931
610484
528332
528948
609788
58981
58983
58984
58986
599595
602092
602254
603292
604499
602880
605485
603934
519473
606232
606371
605890
606696
520531
606286
607736
607923
607011
608624
609067
518419
609363
521903
522306
522407
522576
522592
522739
522833
522871
522875
522921
522938
522943
523183
523232
523303
523405
523413
523439
523446
523455
523466
523479
523518
523542
523548
523599
523615
523640
523724
523743
609889
523921
523977
523981
524015
524113
609576
524163
524376
524380
524434
524848
525425
610085
525515
525791
526220
526572
527189
527976
610684
58991
58992
58993
58996
58997
596090
598698
603713
601926
605484
604849
605771
604071
606152
605472
605978
605015
606098
607934
519820
608122
607009
607300
609555
607584
521554
521743
521801
521811
522219
522283
522371
522515
522565
522654
522660
522826
522838
522843
522932
523088
523103
523110
523200
523226
523237
523278
523283
523284
523345
523422
523431
523496
523499
523535
523539
523555
523568
523605
523689
523694
523721
523730
523794
523814
523883
523884
523896
523903
609674
524083
524100
524103
524122
524124
524142
524230
524234
524444
524512
524556
610597
610081
525517
609161
610096
526224
610390
526480
526832
527286
610189
529210
59004
602755
601756
600292
602458
604149
605664
605261
601502
605251
519298
605762
606064
606388
605935
607502
606998
604404
607903
520633
610570
606707
521347
521544
522141
522357
522495
522514
522641
522722
522740
522924
522993
522996
523028
523043
523072
523192
523220
523281
523288
523320
523370
523393
523401
523409
523433
523461
523489
523528
523531
523533
523556
523566
523633
523661
523697
523726
523734
523805
523821
523866
523877
523906
523907
523910
523964
524039
524157
524190
524267
524276
524422
524443
524471
524501
524515
524561
524677
610282
524297
523337
610400
610600
527632
528061
528233
611100
528862
59007
59008
604265
605856
605346
603687
603618
606288
604290
519480
605270
603720
605860
606658
607622
607489
520110
606486
517818
608964
608227
520742
520969
606510
607523
607525
610182
523002
520893
521773
522228
522372
522479
522488
522655
522679
522818
522831
522940
522952
522953
522991
523024
523170
523176
523184
523207
523215
523235
523241
523258
523279
523290
523302
523357
523364
523382
523416
523527
523532
523552
523608
523621
523654
523656
523669
523702
523718
523756
523790
523879
523950
523961
523971
524010
524070
524149
524175
524178
524249
524333
524336
524337
524421
524507
524536
524654
524708
524808
525039
525788
611819
610694
527285
610395
527458
528770
528861
529120
59009
59010
59011
593550
600189
601373
602051
603408
604039
604008
604141
604237
599088
604550
603996
606393
605376
603662
605975
606566
606500
518541
607198
607085
607787
606073
606175
605074
607909
519911
609240
610289
521513
519175
522588
522650
522724
522868
522878
522912
522944
523010
523080
523116
523124
523175
523178
523187
523203
523273
523293
523310
523312
523315
523369
523425
523434
523447
523574
523620
523627
523642
523688
523701
523714
523744
523812
523840
523862
523874
523885
523887
523901
523943
523965
523968
523975
523980
524006
524007
524013
524086
524087
524194
524240
524246
524316
524408
524438
524491
524596
524602
524976
525333
609781
609985
528428
528429
528519
59016
59017
59018
59019
59020
59021
59023
596934
603384
602882
603511
605252
605240
605839
604817
605638
520276
605156
607303
520371
519519
608114
607820
608402
519300
606498
522453
519241
519752
519317
519657
610554
524317
609366
521898
522415
522661
522898
522910
522955
523051
523101
523111
523112
523212
523260
523361
523375
523426
523464
523549
523558
523626
523632
523635
523643
523786
523788
523800
523804
523809
523839
523865
523899
523909
523956
523974
524005
524062
524082
524093
524131
524167
524169
524211
524252
524314
524322
524331
524332
524346
524351
524375
524400
524406
524428
524497
524525
524527
524531
524549
524589
524653
524663
524681
524685
608630
524803
524809
524949
524990
525029
525128
525250
610586
526655
526930
610494
527375
609786
523593
522819
528679
611002
59031
59032
59033
59034
59036
59037
601346
601531
604964
604397
604307
606306
605186
606298
605555
606142
603684
607937
608001
606602
606355
608548
610493
520372
519750
522293
608140
521406
521326
522631
522743
522847
522916
523053
523054
523076
523118
523185
523196
523209
523214
523298
523408
523440
523467
523472
523525
523540
523544
523600
523604
523613
523617
523623
523628
523712
523719
523733
523745
523769
523792
523801
523808
523859
523894
523905
523945
523979
523994
524037
524043
524061
524069
524091
524098
524109
524110
524139
524164
524165
524182
524238
524256
524318
524326
524328
524353
524480
524490
524510
524541
524563
524591
524616
524690
524721
524765
524789
524922
525062
525098
525153
610793
609978
611517
611831
610802
610772
529119
529209
59042
59043
59045
59046
59047
59048
59049
59050
578128
603336
603342
602971
601011
606383
602248
606148
605981
607589
605670
607408
604503
607080
607513
608753
521587
609059
607367
607521
607716
521592
606291
608850
522019
610082
610686
608141
606080
522432
522455
522771
522778
522934
523127
523164
523254
523268
523280
523309
523445
523469
523610
523618
523698
523716
523735
523750
523773
523795
523819
523869
523878
523913
523951
523969
523991
524063
524064
524076
524094
524154
524155
524160
524172
524225
524242
524243
524254
524334
524352
524401
524409
524435
524453
524581
524587
524637
524640
524680
610596
524769
524781
524947
610593
525145
525198
611519
610795
527883
529648
59054
59056
59057
59058
59059
599200
596791
602855
602155
598969
604124
604842
605134
605413
604456
605567
605164
606363
605984
519474
605971
607091
520550
608116
519394
609266
520504
521065
603316
521945
604852
523770
522376
523680
524079
606404
522382
522768
522837
523087
523194
523208
609886
523362
523404
523482
523487
523553
523710
523729
523799
523818
523851
523963
523966
524046
524099
524105
524111
524127
524130
524221
524226
524259
524329
524341
524344
524350
524360
524371
524377
524398
524431
524449
524496
524516
524520
524533
524586
524595
524641
524664
524689
524694
524718
524768
524821
524854
524855
524934
611209
525064
525343
525381
525882
611628
526831
610378
527545
527629
527630
527631
610986
528518
528601
528678
611189
528860
59066
59067
59068
59069
59070
59071
59072
59073
59074
59075
59076
590904
518861
604641
605526
603899
605633
604805
606029
604980
605768
606168
605390
606507
607919
521219
520901
607524
607522
606191
609541
608445
604248
608923
609875
606095
610403
522723
522772
523190
523198
523239
523313
523344
523381
523424
523483
523522
523523
523645
609989
523720
523737
523784
523880
523946
523970
524003
524009
524011
524068
524084
524217
524218
524251
524266
524269
524310
524339
524340
524345
524362
524372
524392
524476
524504
524509
524548
524567
524604
524702
524714
524762
524800
524802
524850
524851
524853
524860
524862
524864
524885
524914
524929
524945
524988
524991
525050
525107
525239
525268
525610
525691
526739
526828
527720
528427
611411
528769
529208
529736
59084
59085
600307
601663
601669
602677
603081
601885
604047
604481
602826
604942
605681
519049
605991
606708
606586
607200
607002
606611
520814
608216
608352
606911
608537
608522
519151
522899
521228
520267
521991
522226
522471
523050
523062
523114
523217
523559
523560
523561
523624
523647
523667
523682
523699
523746
523772
523789
523791
523810
523817
523834
523893
523955
524004
524019
524097
524150
524156
524166
524173
524177
524185
524223
524264
524274
524325
524358
524361
524445
524528
524579
524606
524622
524625
524639
524662
524704
524722
524776
524794
524890
524896
524917
524923
524973
524980
609477
525121
525302
525475
525594
525595
526477
610786
611096
527188
527974
528146
611292
529822
59090
59092
59093
59094
59095
600211
603732
603673
605246
604457
604614
605548
605727
605558
605277
605682
606072
606198
604762
606865
609172
607429
608226
520178
607504
606339
521850
607693
609027
609050
607701
608134
611305
524308
605368
523082
609355
611319
522173
523000
523085
523086
523407
523430
523512
523557
523707
523802
523875
523876
523898
523992
523995
524001
524042
524096
524106
524161
524180
524187
524247
524250
524342
524364
524365
524416
524427
524436
524485
524486
524488
524519
524601
524612
524700
524701
524703
524777
524811
524844
524856
524859
524897
524912
524938
524984
610490
525020
525101
525104
525131
525140
525163
525210
525214
525249
525258
525311
525449
525511
525553
526135
526569
610908
526929
610273
528331
529565
530008
59097
59098
59099
59100
59101
601035
600222
604111
599492
604828
602368
516400
604874
605470
605781
605275
605444
606893
606266
605679
606558
606304
606461
606805
605779
607496
606987
607195
608312
608735
609770
608962
609758
608804
610885
611408
523299
523307
523427
523444
523569
523607
523725
523793
523803
523835
523852
523856
523888
523985
523988
524055
524073
524145
524162
524184
524210
524220
524261
524265
524309
524323
524338
524354
524404
524419
524423
524439
524493
524576
524578
524583
524628
524661
524675
524676
524686
524764
524787
524936
524957
524959
524977
525007
525027
525037
525041
525049
525123
525135
525190
525261
525295
525330
611312
612125
525471
525747
525784
611622
611732
527184
611522
611832
611615
59104
59105
59106
59107
59108
59109
594568
603721
603368
603091
604311
605645
604825
604880
605845
596305
605464
606165