/*--------------------------------*- C++ -*----------------------------------*\
| =========                 |                                                 |
| \\      /  F ield         | OpenFOAM: The Open Source CFD Toolbox           |
|  \\    /   O peration     | Version:  2406                                  |
|   \\  /    A nd           | Website:  www.openfoam.com                      |
|    \\/     M anipulation  |                                                 |
\*---------------------------------------------------------------------------*/
FoamFile
{
    version     2.0;
    format      ascii;
    arch        "LSB;label=32;scalar=64";
    class       Cloud<dsmcParcel>;
    location    "0.012/lagrangian/dsmc";
    object      positions;
}
// * * * * * * * * * * * * * * * * * * * * * * * * * * * * * * * * * * * * * //

6269
(
(0.2932721173 0.2346913975 -4.743384505e-20) 322
(0.2891717463 0.2321024845 4.33680869e-19) 291
(0.299176709 0.2856223753 1.084202172e-19) 593
(0.2830775279 0.208614016 1.084202172e-19) 171
(0.2796152069 0.29582158 0) 650
(0.2796866277 0.2885593767 1.084202172e-19) 590
(0.2916012034 0.2033568382 2.168404345e-19) 142
(0.2990368556 0.1999537895 -2.439454888e-19) 113
(0.299416869 0.2117698132 0) 173
(0.2921855759 0.1747656029 -3.252606517e-19) 15
(0.3016333095 0.2868232359 -1.084202172e-19) 593
(0.3024639536 0.213875998 0) 203
(0.2902481838 0.2502507833 0) 412
(0.3016025663 0.2206614372 0) 233
(0.2831898786 0.2240893564 0) 261
(0.3041431375 0.2471684894 -1.084202172e-19) 383
(0.2939168538 0.1880224966 1.084202172e-19) 53
(0.2918000883 0.2737323758 -3.252606517e-19) 532
(0.2935860453 0.2180967949 2.168404345e-19) 232
(0.2868975888 0.1961279429 1.084202172e-19) 111
(0.2934165598 0.1959743653 0) 112
(0.3019711973 0.2270312351 -1.084202172e-19) 263
(0.2761443097 0.249864019 4.33680869e-19) 410
(0.2807189807 0.2637894211 -2.168404345e-19) 470
(0.2944193411 0.2935972033 1.084202172e-19) 622
(0.2611310852 0.2484596016 0) 408
(0.2939114152 0.2375821494 3.252606517e-19) 322
(0.2839090316 0.2009381913 2.710505431e-20) 141
(0.2974886347 0.2094834783 5.421010862e-20) 173
(0.2974847837 0.1981719682 4.743384505e-20) 113
(0.2578122721 0.2203522604 -4.33680869e-19) 257
(0.3010612032 0.2222050397 3.117081246e-19) 233
(0.2959863121 0.2305874687 1.626303259e-19) 292
(0.2667929989 0.209071388 5.421010862e-20) 199
(0.2934135451 0.2369804088 -1.016439537e-19) 322
(0.2934256381 0.1946850354 -2.032879073e-19) 82
(0.2871538394 0.2278094205 0) 291
(0.289425281 0.2881665584 0) 591
(0.2962322617 0.2130090462 2.168404345e-19) 202
(0.2893734517 0.2351711042 3.252606517e-19) 321
(0.2895049851 0.1762065042 -4.33680869e-19) 14
(0.2968271429 0.1764274315 -2.168404345e-19) 15
(0.3018765332 0.2436250756 0) 353
(0.2658027051 0.1975101137 0) 138
(0.288362322 0.2471007307 2.421653961e-19) 381
(0.2864806193 0.200699555 -4.33680869e-19) 141
(0.2853864236 0.1980829743 -1.084202172e-19) 111
(0.2928933029 0.2131377191 1.084202172e-19) 202
(0.2844397817 0.2415186481 -2.981555974e-19) 351
(0.3017295008 0.2185334343 -2.168404345e-19) 233
(0.2629384059 0.1898289282 -2.337810934e-19) 78
(0.2910482144 0.2132506287 -1.084202172e-19) 202
(0.2356578732 0.2552142106 0) 434
(0.2763502078 0.2154905147 -2.168404345e-19) 230
(0.3016145569 0.2424014667 3.523657061e-19) 353
(0.2929708064 0.2080794024 5.421010862e-20) 172
(0.2963545849 0.2546797575 0) 412
(0.2959669669 0.2172595165 0) 232
(0.2787591867 0.2048780385 0) 170
(0.295542751 0.2325110266 0) 292
(0.2820458921 0.2557127459 2.168404345e-19) 441
(0.3028066048 0.2263424851 0) 263
(0.2935357852 0.2200188055 2.710505431e-19) 232
(0.2846435559 0.2252820506 -4.33680869e-19) 261
(0.3018110719 0.2740697571 0) 533
(0.296367612 0.2641120244 4.675621869e-19) 472
(0.3027612132 0.2022231798 8.67361738e-19) 143
(0.2546424737 0.2313090855 4.33680869e-19) 317
(0.3016899308 0.2737929199 2.168404345e-19) 533
(0.2991189975 0.2325861738 0) 293
(0.2853182155 0.2369286702 0) 321
(0.3031239001 0.2230887089 -4.33680869e-19) 233
(0.271887 0.2303751815 -3.252606517e-19) 289
(0.2992405143 0.2853398916 5.421010862e-20) 593
(0.2816187179 0.1905211046 -3.286487835e-19) 80
(0.3025278143 0.2718625051 1.084202172e-19) 503
(0.2869336247 0.200409947 4.33680869e-19) 141
(0.2719716811 0.2519827839 -1.084202172e-19) 409
(0.303403339 0.2267610424 -2.168404345e-19) 263
(0.2238213089 0.2483833875 -1.219727444e-19) 403
(0.2924994006 0.219657822 1.626303259e-19) 232
(0.3019685892 0.20909239 2.710505431e-19) 173
(0.3035917892 0.2155825736 -4.33680869e-19) 203
(0.2673093943 0.2139791466 1.084202172e-19) 199
(0.2653187329 0.2804879471 2.168404345e-19) 558
(0.2635140399 0.2436429368 -2.168404345e-19) 378
(0.2808422343 0.2660221084 -2.168404345e-19) 470
(0.2985999572 0.2919060298 9.486769009e-20) 623
(0.27540287 0.1974745814 -2.507217524e-19) 110
(0.2831835775 0.1772074611 0) 30
(0.3013837184 0.2498228173 -2.710505431e-20) 383
(0.2972555584 0.2760730698 1.084202172e-19) 533
(0.284892572 0.223968951 -1.897353802e-19) 261
(0.2788792163 0.2148056398 4.33680869e-19) 200
(0.2953683091 0.2479561532 2.168404345e-19) 382
(0.2778127491 0.2023029713 -2.168404345e-19) 140
(0.2942515549 0.2922538487 1.084202172e-19) 622
(0.2797116844 0.2112346563 0) 200
(0.3004852481 0.2435010869 2.168404345e-19) 353
(0.2863437666 0.2064367134 4.33680869e-19) 171
(0.2986072605 0.2661986633 2.981555974e-19) 473
(0.2942377689 0.218390753 -4.33680869e-19) 232
(0.2580510694 0.1847623945 -4.33680869e-19) 77
(0.2902825933 0.2894561425 -3.726944968e-19) 622
(0.2909402747 0.2691577703 4.33680869e-19) 502
(0.2958940822 0.2207626259 2.168404345e-19) 232
(0.2981469396 0.2202700418 4.065758147e-19) 233
(0.3013951555 0.2919082288 -1.626303259e-19) 623
(0.2772347143 0.1984776193 -1.084202172e-19) 140
(0.2934756483 0.2212427999 1.76182853e-19) 232
(0.2980612243 0.1778609503 2.168404345e-19) 16
(0.2710672988 0.2267012989 -2.168404345e-19) 289
(0.294164959 0.2876974532 5.421010862e-19) 592
(0.2965242613 0.2358188321 2.168404345e-19) 322
(0.289930435 0.2787254031 4.33680869e-19) 562
(0.299843924 0.1966487282 0) 113
(0.283056969 0.2447354754 4.33680869e-19) 381
(0.2908807185 0.1961026647 1.084202172e-19) 112
(0.2804568922 0.2941320937 0) 620
(0.2872219538 0.2173530215 0) 231
(0.2987313108 0.2694427264 2.168404345e-19) 503
(0.3025971003 0.2596943302 0) 443
(0.3001215119 0.2976840672 4.33680869e-19) 653
(0.303738015 0.2613177656 2.168404345e-19) 443
(0.2841712566 0.1952326462 0) 111
(0.2976062095 0.2331397332 2.168404345e-19) 293
(0.2904716723 0.2421187496 -2.168404345e-19) 352
(0.2891130464 0.2787675481 0) 561
(0.3045614004 0.1918598943 2.168404345e-19) 83
(0.3029905782 0.2560458503 4.33680869e-19) 413
(0.3013873921 0.2128172219 0) 203
(0.3002633029 0.251653788 3.252606517e-19) 413
(0.2694289146 0.2138452428 0) 199
(0.3020177594 0.1941631625 -1.084202172e-19) 83
(0.2964650048 0.2700827252 -2.168404345e-19) 502
(0.271604221 0.2112052662 1.084202172e-19) 199
(0.3012135398 0.2081221335 -2.168404345e-19) 173
(0.3006987898 0.2316406239 2.846030703e-19) 293
(0.2676892772 0.2144481746 4.33680869e-19) 229
(0.2638274726 0.2050466185 -1.084202172e-19) 168
(0.2913309207 0.2282667333 4.33680869e-19) 292
(0.234905035 0.1752327609 2.168404345e-19) 23
(0.294988156 0.2865400431 -1.084202172e-19) 592
(0.2801287864 0.224278259 2.168404345e-19) 260
(0.3020425962 0.2227130227 5.421010862e-19) 233
(0.2774980462 0.2061899972 3.252606517e-19) 170
(0.2860313629 0.2955281776 4.33680869e-19) 651
(0.2872531042 0.2330025241 -4.33680869e-19) 291
(0.2825105721 0.2770346997 2.168404345e-19) 531
(0.300719264 0.1788889829 -4.33680869e-19) 16
(0.2920288136 0.2351279896 0) 322
(0.3028720407 0.2484208301 0) 383
(0.2983565732 0.2186462928 1.355252716e-19) 233
(0.2622223175 0.1932459855 -3.250488935e-20) 108
(0.2989285665 0.2109957881 4.878909776e-19) 173
(0.2699993466 0.286515241 -2.710505431e-19) 589
(0.3041446025 0.2787331328 0) 563
(0.3029577275 0.2685520836 0) 503
(0.2899791356 0.2269191007 0) 262
(0.2397554726 0.1867181586 0) 75
(0.2537686437 0.2432920918 -1.084202172e-19) 377
(0.2506079722 0.2355995687 0) 316
(0.2841508285 0.2462740219 -1.626303259e-19) 381
(0.2591023611 0.2017977097 0) 138
(0.2773624239 0.2291749751 -1.355252716e-19) 290
(0.3005972695 0.2412856051 -1.897353802e-19) 353
(0.2873783123 0.2619844972 0) 471
(0.2965807112 0.2280309041 -2.168404345e-19) 262
(0.2195614123 0.2831002461 0) 582
(0.2644639234 0.2208261928 2.168404345e-19) 258
(0.3005605954 0.2467575028 2.710505431e-20) 383
(0.2937531727 0.2076692473 1.084202172e-19) 172
(0.2715386958 0.2733058381 2.168404345e-19) 529
(0.3043080173 0.2287668549 0) 263
(0.2805455639 0.2713689953 6.505213035e-19) 500
(0.3026196257 0.2089455145 4.33680869e-19) 173
(0.2667907097 0.1776734065 1.084202172e-19) 28
(0.2998242026 0.2243144334 2.168404345e-19) 263
(0.3029420575 0.2228424783 -2.168404345e-19) 233
(0.2810703671 0.2690158974 -2.439454888e-19) 500
(0.2915622503 0.2274956583 3.252606517e-19) 262
(0.2878266426 0.2311064918 -2.168404345e-19) 291
(0.274161021 0.2248780456 -4.33680869e-19) 259
(0.2981707095 0.1849304279 0) 54
(0.2981755924 0.22421395 1.084202172e-19) 263
(0.3019859371 0.264375088 -8.809142651e-20) 473
(0.2916095127 0.2238700323 -1.11808349e-19) 262
(0.2961895846 0.277521558 0) 532
(0.2905029921 0.1911705468 2.168404345e-19) 82
(0.2970948355 0.2025220203 -6.505213035e-19) 142
(0.272209322 0.2565244581 -2.168404345e-19) 439
(0.2910308503 0.2005114462 0) 142
(0.2925203035 0.2023148187 5.421010862e-20) 142
(0.3015011986 0.2131749443 2.168404345e-19) 203
(0.2762032979 0.2358261585 2.168404345e-19) 320
(0.2841801706 0.2151369435 0) 201
(0.2691736759 0.2286514086 1.084202172e-19) 289
(0.2619202301 0.1895264273 -1.084202172e-19) 78
(0.2957778305 0.2426811211 0) 352
(0.289807025 0.2765218566 -4.33680869e-19) 532
(0.294958627 0.2778257555 1.084202172e-19) 532
(0.282952965 0.1956099031 0) 111
(0.2933163977 0.2389787559 -4.33680869e-19) 322
(0.3035477282 0.2283327778 4.33680869e-19) 263
(0.2755268157 0.1803006338 0) 29
(0.2691130643 0.1940345158 5.421010862e-20) 109
(0.302429834 0.186458421 -2.168404345e-19) 54
(0.2712104816 0.2092145128 0) 199
(0.3022511534 0.2383618001 0) 323
(0.2900136825 0.2220918305 1.084202172e-19) 232
(0.2853621112 0.2343084031 -5.421010862e-19) 321
(0.2823255084 0.2406971936 -2.168404345e-19) 351
(0.2935391698 0.2922289914 -2.57498016e-19) 622
(0.2881586175 0.2096227587 2.168404345e-19) 171
(0.295144558 0.2492345868 -2.168404345e-19) 382
(0.3039982671 0.2622054786 0) 473
(0.2690814075 0.1836097689 -5.421010862e-20) 50
(0.3013195998 0.2506757066 0) 413
(0.3005251574 0.232111412 -5.421010862e-20) 293
(0.3011351961 0.2734063234 2.168404345e-19) 533
(0.2326561739 0.2030950551 2.710505431e-20) 164
(0.2471217829 0.2090927672 1.355252716e-20) 196
(0.2991827129 0.2149481674 -1.219727444e-19) 203
(0.2899595443 0.2365494352 -3.794707604e-19) 322
(0.2958287633 0.2356690322 0) 322
(0.3045992793 0.2674034777 0) 503
(0.2974757473 0.1918359393 0) 83
(0.3020653578 0.2329564821 -1.084202172e-19) 293
(0.304713579 0.2988265824 4.33680869e-19) 653
(0.2988951949 0.2206845161 2.168404345e-19) 233
(0.2913107657 0.2095835619 4.33680869e-19) 172
(0.292687173 0.1976041793 1.355252716e-19) 112
(0.2731788068 0.2010066655 2.168404345e-19) 139
(0.2958034034 0.247816477 -2.168404345e-19) 382
(0.2961862215 0.233855803 0) 322
(0.2902271579 0.1939592479 2.168404345e-19) 82
(0.2845412412 0.2299128354 2.168404345e-19) 291
(0.2861239608 0.2559584637 2.168404345e-19) 441
(0.3010711631 0.2467132162 -3.252606517e-19) 383
(0.2723733015 0.2015974179 2.168404345e-19) 139
(0.3012834035 0.2133190776 2.168404345e-19) 203
(0.2780757015 0.2171943697 3.354250471e-19) 230
(0.301564666 0.2947424619 0) 653
(0.2833485865 0.2241576457 0) 261
(0.2861883067 0.2583812578 1.084202172e-19) 441
(0.2799106348 0.2704054999 2.168404345e-19) 500
(0.2718940898 0.2223564238 2.168404345e-19) 259
(0.283621848 0.276772437 -1.626303259e-19) 531
(0.2935500716 0.2380626723 1.897353802e-19) 322
(0.2949857376 0.289292603 0) 622
(0.2741098349 0.210675615 2.168404345e-19) 199
(0.2606700968 0.182171004 -1.626303259e-19) 49
(0.2947639617 0.2224047019 -2.168404345e-19) 232
(0.274201792 0.2211959375 2.168404345e-19) 259
(0.2555033163 0.2500189501 1.084202172e-19) 407
(0.2550600836 0.227196975 -2.439454888e-19) 287
(0.3004833465 0.2559013871 0) 413
(0.2394861715 0.2558012221 3.557538378e-20) 435
(0.2991572875 0.2183625712 0) 233
(0.3016021711 0.2241461902 -2.168404345e-19) 263
(0.2839819329 0.2127104727 1.084202172e-19) 201
(0.2669336689 0.2458303474 -1.897353802e-19) 379
(0.294488903 0.2563459114 0) 442
(0.2614934748 0.2320717839 -4.33680869e-19) 318
(0.295295311 0.2208809062 -2.168404345e-19) 232
(0.2957078996 0.2174422606 0) 232
(0.2919868724 0.187609444 2.439454888e-19) 53
(0.3018735246 0.2567633584 -4.33680869e-19) 443
(0.2870245662 0.2054582775 -4.33680869e-19) 171
(0.2848360753 0.2023915721 -4.607859233e-19) 141
(0.29723615 0.2612128922 0) 443
(0.2936098752 0.2455679986 0) 382
(0.275929355 0.2970522815 -2.168404345e-19) 650
(0.2676949241 0.2260277354 -2.168404345e-19) 289
(0.2514892368 0.2632163751 1.084202172e-19) 467
(0.2861101611 0.2328264757 0) 291
(0.2833489715 0.2211664041 0) 231
(0.2861033274 0.1980552487 4.065758147e-19) 111
(0.2762749109 0.1956683954 -5.421010862e-20) 110
(0.2989136678 0.1999634867 2.710505431e-20) 113
(0.2985877034 0.2015443686 0) 143
(0.286773135 0.1841695488 -2.168404345e-19) 52
(0.2978735329 0.2956558629 2.168404345e-19) 653
(0.2716219227 0.1806951929 2.168404345e-19) 28
(0.2755177323 0.2150727827 1.084202172e-19) 200
(0.2461922793 0.2158944966 0) 226
(0.273236138 0.2592808518 2.168404345e-19) 439
(0.3035168652 0.2343495289 2.168404345e-19) 293
(0.2776318412 0.2831966792 -2.168404345e-19) 590
(0.2641615105 0.223817697 0) 258
(0.2963099662 0.2782239554 8.67361738e-19) 562
(0.3021247275 0.242124173 2.168404345e-19) 353
(0.2585375438 0.2843721078 -1.084202172e-19) 587
(0.2986825491 0.2375533116 -1.084202172e-19) 323
(0.2968356647 0.2990949149 0) 652
(0.2890386463 0.2135935311 -4.607859233e-19) 201
(0.2941101732 0.1860321561 0) 53
(0.2951687263 0.2045280302 4.33680869e-19) 142
(0.2919318898 0.21486133 3.252606517e-19) 202
(0.2721833675 0.1971030055 0) 109
(0.2824266434 0.2271914117 0) 291
(0.3015638062 0.2330884663 -5.421010862e-20) 293
(0.2762451462 0.2402780319 -3.252606517e-19) 350
(0.2775854233 0.2186158208 3.345780142e-20) 230
(0.2739548712 0.2362166237 -2.168404345e-19) 319
(0.2905617005 0.2044034988 2.168404345e-19) 142
(0.2910860434 0.2608495058 0) 442
(0.2863184725 0.2434050308 3.252606517e-19) 351
(0.302588267 0.2574695743 0) 443
(0.2735560455 0.2105487436 2.168404345e-19) 199
(0.2591592894 0.2198346555 -1.626303259e-19) 258
(0.2572250287 0.24768819 0) 377
(0.2775440533 0.2185487582 1.084202172e-19) 230
(0.2614526033 0.22882599 0) 288
(0.276748191 0.2183884576 2.710505431e-20) 230
(0.3009091067 0.2154523691 5.421010862e-20) 203
(0.2781590728 0.2820873322 -1.11808349e-19) 560
(0.2834456765 0.2686227973 0) 501
(0.2738038985 0.2497894916 0) 409
(0.2726236292 0.2874604824 0) 589
(0.2731553741 0.2497140182 -6.505213035e-19) 409
(0.2528499363 0.199427213 -1.084202172e-19) 137
(0.2825228814 0.2309183207 0) 291
(0.2577282718 0.2230534524 -2.168404345e-19) 257
(0.2688969182 0.2002106743 1.084202172e-19) 139
(0.2888998482 0.206895876 -3.252606517e-19) 171
(0.2980991452 0.2605869361 0) 443
(0.2987474443 0.2154351017 -1.084202172e-19) 203
(0.2973955245 0.232661282 2.168404345e-19) 293
(0.2767934331 0.2000112149 -1.084202172e-19) 140
(0.2611373275 0.2744807567 5.421010862e-20) 528
(0.2896514758 0.2321516262 0) 292
(0.2966066843 0.283446027 -4.33680869e-19) 562
(0.2229071026 0.1924781925 2.168404345e-19) 133
(0.2592685054 0.2337527637 1.795709848e-19) 318
(0.2829712289 0.2703971327 -2.168404345e-19) 501
(0.2458568628 0.2521504366 3.252606517e-19) 406
(0.2974510402 0.2370416027 0) 323
(0.298367848 0.276814118 2.168404345e-19) 533
(0.3009242853 0.1927704385 1.28749008e-19) 83
(0.2828740489 0.1791518702 -4.33680869e-19) 30
(0.300516975 0.2241985669 -1.084202172e-19) 263
(0.2673425488 0.2496874197 -5.421010862e-20) 409
(0.2630896153 0.2042683277 3.252606517e-19) 168
(0.2732033304 0.2450197089 0) 379
(0.2950296047 0.2600213066 -4.33680869e-19) 442
(0.2925223273 0.2497703171 -2.168404345e-19) 382
(0.280157171 0.1994258531 -2.168404345e-19) 140
(0.2829155362 0.2454098664 2.168404345e-19) 381
(0.3035469573 0.1915223577 -4.33680869e-19) 83
(0.2991039419 0.1810936648 0) 32
(0.2253226568 0.2209924616 2.168404345e-19) 253
(0.293996272 0.1784467819 0) 31
(0.3033658186 0.2205456777 -1.626303259e-19) 233
(0.3018632738 0.2092841108 5.421010862e-20) 173
(0.2520154442 0.2169786203 0) 227
(0.2801080511 0.2024717406 2.168404345e-19) 140
(0.2998307914 0.2537721932 5.421010862e-20) 413
(0.2865632091 0.188062021 2.168404345e-19) 52
(0.2874525161 0.249488827 -1.084202172e-19) 381
(0.2943404696 0.208834146 3.252606517e-19) 172
(0.2797254017 0.2052821963 0) 170
(0.2898623782 0.2244162817 2.168404345e-19) 262
(0.2904840882 0.2736424418 2.168404345e-19) 532
(0.2675077279 0.2653991658 1.084202172e-19) 469
(0.2871856366 0.2347302079 0) 321
(0.2794007889 0.1945505592 -2.168404345e-19) 110
(0.2825353404 0.1994193842 -2.168404345e-19) 141
(0.2653455797 0.2546059692 -4.33680869e-19) 438
(0.2605719095 0.1916906924 -2.168404345e-19) 108
(0.284108151 0.2268794305 2.168404345e-19) 261
(0.2994586848 0.2499508853 0) 383
(0.281562055 0.1727317243 1.084202172e-19) 13
(0.2987280976 0.2578112339 0) 443
(0.2930958034 0.1908357061 -4.607859233e-19) 82
(0.2743295014 0.2353766917 1.626303259e-19) 320
(0.2930512774 0.2627714597 -1.355252716e-19) 472
(0.293761334 0.2672221464 -2.168404345e-19) 502
(0.2927190855 0.2034845014 1.626303259e-19) 142
(0.2858235139 0.2166167161 -2.168404345e-19) 231
(0.268435877 0.2213657769 0) 259
(0.2421181276 0.1830914657 0) 75
(0.2707781641 0.2708839674 -7.589415207e-19) 499
(0.2785598335 0.2549626294 4.33680869e-19) 440
(0.300803253 0.2310454843 -1.355252716e-20) 293
(0.2783415087 0.1869655791 6.776263578e-20) 51
(0.2943281941 0.2593567344 -2.168404345e-19) 442
(0.2837786839 0.2188649145 -7.453889936e-20) 231
(0.2970279397 0.2179161132 0) 232
(0.301663157 0.2853943378 -1.084202172e-19) 593
(0.299558185 0.2909122936 8.131516294e-20) 623
(0.3034098317 0.2349588803 -2.168404345e-19) 323
(0.2675551849 0.2560577171 -3.252606517e-19) 439
(0.3014619379 0.2106449416 -1.626303259e-19) 173
(0.2844126457 0.2405541063 0) 351
(0.2935805772 0.2630638599 -1.084202172e-19) 472
(0.2935760798 0.2391713187 0) 352
(0.2868215471 0.2579657409 -1.897353802e-19) 441
(0.2808371043 0.2403226873 1.084202172e-19) 350
(0.2965124855 0.1981022199 2.168404345e-19) 112
(0.2856425358 0.2076894797 5.421010862e-20) 171
(0.279236037 0.2411577298 0) 350
(0.2604640105 0.2101757033 -1.084202172e-19) 198
(0.2957243009 0.2233966215 4.33680869e-19) 262
(0.294052355 0.2065767825 0) 172
(0.2751064666 0.2816049534 -2.168404345e-19) 560
(0.3000074038 0.1975088104 5.421010862e-19) 113
(0.2883759558 0.2945443647 0) 651
(0.3018904802 0.294280264 1.084202172e-19) 623
(0.2950651951 0.2727704024 -4.33680869e-19) 532
(0.2901169255 0.2384235917 0) 322
(0.2946624916 0.2312914152 1.084202172e-19) 292
(0.25124372 0.2577058285 0) 436
(0.2520195366 0.1981625808 2.168404345e-19) 137
(0.250093826 0.2762458141 2.168404345e-19) 526
(0.2901432749 0.2593985555 0) 442
(0.2447295563 0.1812720969 -2.168404345e-19) 47
(0.2925645243 0.2845632333 -1.626303259e-19) 592
(0.2855097637 0.1932149826 -2.168404345e-19) 81
(0.223407702 0.1765768867 -3.252606517e-19) 44
(0.3009203488 0.2002341006 4.33680869e-19) 113
(0.2783266349 0.1968125806 -1.897353802e-19) 110
(0.2616618533 0.1978346662 1.084202172e-19) 138
(0.3003446523 0.2345091438 1.084202172e-19) 323
(0.278393449 0.1948978621 1.084202172e-19) 110
(0.2730427072 0.1883972109 -2.168404345e-19) 79
(0.2672625703 0.2363213325 0) 319
(0.2934650424 0.2230394716 4.33680869e-19) 262
(0.2869273648 0.2765978996 -3.252606517e-19) 531
(0.297047172 0.2538785898 -4.33680869e-19) 412
(0.2708255422 0.2197517018 5.421010862e-20) 229
(0.2923762922 0.2050561421 2.168404345e-19) 142
(0.299847365 0.2152124606 -2.168404345e-19) 203
(0.253889493 0.1900218397 -2.168404345e-19) 107
(0.2591926024 0.1883441398 0) 78
(0.2907128681 0.2081786455 0) 172
(0.228875698 0.2313381988 2.168404345e-19) 314
(0.2866271061 0.2215701805 0) 231
(0.3019542838 0.2036839867 1.084202172e-19) 143
(0.2841245296 0.2963616091 -2.168404345e-19) 651
(0.2743806337 0.2614193478 1.084202172e-19) 470
(0.252586106 0.2162346764 -1.626303259e-19) 227
(0.2658614653 0.2249658695 0) 258
(0.2769799386 0.2248800076 -2.710505431e-19) 260
(0.2731980067 0.2074770729 6.505213035e-19) 169
(0.2969071788 0.2060445658 2.168404345e-19) 142
(0.3014274273 0.2376198398 3.794707604e-19) 323
(0.296870616 0.1855167978 -2.168404345e-19) 53
(0.3031629643 0.2289131354 0) 293
(0.2643210847 0.2359204388 -4.33680869e-19) 318
(0.2887418957 0.2020507252 0) 141
(0.3038103538 0.2163004623 -2.168404345e-19) 203
(0.2973967415 0.2158697104 2.168404345e-19) 203
(0.2959727204 0.2783940681 0) 562
(0.2999101313 0.2842366361 1.084202172e-19) 593
(0.2798274712 0.2592156479 0) 440
(0.2889188823 0.2912561063 -3.794707604e-19) 621
(0.2738300539 0.1794979489 -2.168404345e-19) 28
(0.2776867566 0.1979485863 0) 110
(0.2742032628 0.2077333222 0) 169
(0.292825761 0.1892162858 2.168404345e-19) 53
(0.2688329818 0.2279647431 2.168404345e-19) 289
(0.2808916777 0.2250873377 0) 260
(0.2778261267 0.1859845277 0) 51
(0.3021510713 0.2784582799 4.33680869e-19) 563
(0.2819248439 0.2230008489 0) 260
(0.2585534442 0.2153210796 2.168404345e-19) 227
(0.2843916546 0.2505251389 1.084202172e-19) 411
(0.2532289572 0.1787860353 0) 48
(0.255278384 0.2074460279 0) 197
(0.2821454467 0.2718427714 -3.184843882e-19) 501
(0.276830382 0.210128998 -2.168404345e-19) 200
(0.2929530404 0.1891027929 0) 53
(0.279415346 0.2175984154 1.084202172e-19) 230
(0.2729182203 0.1717473153 0) 12
(0.2729616087 0.2548930206 -2.168404345e-19) 439
(0.2980504628 0.2532403367 2.422514229e-19) 413
(0.2781669391 0.2567356513 2.168404345e-19) 440
(0.2483805271 0.1904798442 -2.168404345e-19) 106
(0.2292298749 0.1858691397 4.33680869e-19) 74
(0.2460737059 0.2411799251 6.505213035e-19) 346
(0.2645739813 0.1877060685 0) 78
(0.2595369229 0.2847313509 2.168404345e-19) 588
(0.3036871612 0.2103252198 0) 173
(0.2890045491 0.2371888924 0) 321
(0.2876194842 0.2661824519 4.33680869e-19) 471
(0.3046317663 0.2057420215 -4.33680869e-19) 143
(0.2821309508 0.2296281655 2.168404345e-19) 291
(0.2187162543 0.1988183809 2.168404345e-19) 162
(0.2735006361 0.244020462 -4.33680869e-19) 379
(0.2838894878 0.1895313887 8.131516294e-20) 81
(0.2829394538 0.2193856348 -1.084202172e-19) 231
(0.2772915983 0.196243535 -4.235164736e-21) 110
(0.292881293 0.2337811523 -2.710505431e-19) 322
(0.2686854986 0.2598399893 1.084202172e-19) 439
(0.287208927 0.2053145787 -4.33680869e-19) 171
(0.2826189605 0.275374478 -1.626303259e-19) 531
(0.2628594365 0.2099761064 6.09863722e-20) 198
(0.3012330222 0.1774884853 -5.421010862e-20) 16
(0.2694373778 0.214158401 0) 199
(0.2875470179 0.2930810446 -2.168404345e-19) 621
(0.2788448903 0.1844354205 4.065758147e-20) 51
(0.2286447353 0.2463771337 4.33680869e-19) 404
(0.2700037484 0.215825816 4.33680869e-19) 229
(0.2832946391 0.2346891557 1.084202172e-19) 321
(0.2849592979 0.1917143172 -1.490777987e-19) 81
(0.286034268 0.28193828 0) 561
(0.2968476004 0.2415795203 -5.963111949e-19) 352
(0.2827943643 0.1915870615 1.084202172e-19) 81
(0.2850681042 0.1989342936 0) 111
(0.2812936266 0.1903742885 -1.219727444e-19) 80
(0.2787632938 0.2199710683 -1.084202172e-19) 230
(0.253232179 0.2034120521 -1.084202172e-19) 167
(0.2991712714 0.2021071979 0) 143
(0.205952401 0.2601701154 0) 461
(0.2278526307 0.2052712309 4.33680869e-19) 193
(0.240859275 0.1978133783 1.084202172e-19) 135
(0.278341458 0.2230848747 1.084202172e-19) 260
(0.2596620874 0.2598969267 -2.168404345e-19) 468
(0.255820538 0.1861925784 1.084202172e-19) 77
(0.2935731684 0.2416304494 5.421010862e-20) 352
(0.2911101552 0.2680928678 -1.897353802e-19) 502
(0.2881402839 0.2144018011 0) 201
(0.2843162297 0.2103219151 0) 171
(0.262477762 0.2089347691 -5.421010862e-20) 198
(0.2659770806 0.2364834705 0) 318
(0.2897788363 0.2522341952 2.168404345e-19) 412
(0.2435333049 0.2070801822 2.168404345e-19) 195
(0.2771458103 0.25557239 -2.168404345e-19) 440
(0.2715795535 0.2027633223 0) 139
(0.2764486978 0.2304633787 -5.421010862e-19) 290
(0.2847691413 0.2472501657 -2.710505431e-19) 381
(0.290642157 0.2300705632 2.168404345e-19) 292
(0.2512802478 0.2920209963 -8.67361738e-19) 616
(0.2659231976 0.2429307425 -4.33680869e-19) 378
(0.2939134911 0.1993086053 2.168404345e-19) 112
(0.2634676541 0.2497093639 -2.168404345e-19) 408
(0.2574048999 0.2029188543 0) 167
(0.2679976568 0.1991139733 -1.084202172e-19) 139
(0.3042285657 0.1985610744 1.626303259e-19) 113
(0.238865378 0.2535874074 -1.084202172e-19) 435
(0.2756342444 0.2253470653 4.33680869e-19) 260
(0.2653419304 0.2276252551 -2.168404345e-19) 288
(0.2626698653 0.2666323471 4.065758147e-20) 498
(0.2666602362 0.2584840422 0) 438
(0.2894885305 0.2494437072 0) 381
(0.2676811046 0.2370877733 5.963111949e-19) 319
(0.2845336638 0.2784504302 -4.33680869e-19) 561
(0.2635441351 0.1948774369 4.33680869e-19) 108
(0.278252098 0.2199286282 -1.084202172e-19) 230
(0.2900263375 0.2496826291 3.252606517e-19) 382
(0.2482007993 0.2595822299 0) 466
(0.2828286138 0.2064280129 1.084202172e-19) 171
(0.2510712291 0.197901133 -8.131516294e-20) 136
(0.2609432239 0.207713191 -2.168404345e-19) 168
(0.2651192974 0.215078752 0) 228
(0.2774806469 0.240490583 -1.626303259e-19) 350
(0.2620844005 0.2443073586 4.33680869e-19) 378
(0.2935670103 0.2354110228 2.168404345e-19) 322
(0.293047486 0.2549535032 2.168404345e-19) 412
(0.2189043555 0.2267997021 -2.168404345e-19) 282
(0.2852953787 0.23076913 2.710505431e-20) 291
(0.2770324139 0.2340878978 0) 320
(0.2854320127 0.2184596157 4.33680869e-19) 231
(0.2327900518 0.2114317402 6.505213035e-19) 224
(0.2561744022 0.2721926855 -2.168404345e-19) 527
(0.2750530766 0.1779891903 -2.168404345e-19) 29
(0.2528800873 0.171170561 2.168404345e-19) 10
(0.2919801308 0.2166261188 0) 202
(0.2563650665 0.1928326221 2.168404345e-19) 107
(0.3008041356 0.2181790061 -4.065758147e-20) 233
(0.293040802 0.2901119145 -2.168404345e-19) 622
(0.2694682502 0.2006214934 -2.168404345e-19) 139
(0.2674597331 0.2008708963 0) 139
(0.2962205334 0.2469405784 0) 382
(0.2587718259 0.2163429069 -3.930232875e-19) 227
(0.286535744 0.2031168781 -3.252606517e-19) 141
(0.2319025311 0.1981063818 4.33680869e-19) 134
(0.2967320965 0.2641495393 -1.355252716e-19) 472
(0.2802208082 0.2592695222 0) 440
(0.2816808981 0.2789912845 0) 560
(0.2767241776 0.2151159874 0) 200
(0.3032021015 0.2854740451 2.168404345e-19) 593
(0.2761028386 0.1779123724 0) 29
(0.3022929345 0.2208121818 -1.084202172e-19) 233
(0.260226183 0.2657066933 -2.168404345e-19) 498
(0.2965732094 0.2890266409 0) 622
(0.2737510476 0.2635347155 2.168404345e-19) 469
(0.2813845201 0.1976393411 2.168404345e-19) 110
(0.2853753168 0.1857516486 -2.100641709e-19) 52
(0.2932860367 0.2542210961 2.168404345e-19) 412
(0.2773341558 0.2731289558 -2.710505431e-19) 530
(0.2520178353 0.2060634072 2.168404345e-19) 167
(0.2332718772 0.2274741325 2.710505431e-19) 284
(0.2368153668 0.1710119913 -5.421010862e-20) 24
(0.2530270238 0.2600093561 -2.168404345e-19) 467
(0.2573501089 0.2217804078 -8.131516294e-20) 257
(0.2867645745 0.2537237091 0) 411
(0.2588726712 0.2516134158 -4.33680869e-19) 407
(0.2879557716 0.1916930271 0) 81
(0.2684801005 0.2582782803 2.168404345e-19) 439
(0.2693004617 0.2589983882 -1.084202172e-19) 439
(0.243924297 0.296258588 -2.168404345e-19) 646
(0.2358108754 0.196029762 -1.626303259e-19) 134
(0.2814287313 0.2916907801 -2.168404345e-19) 620
(0.2595729063 0.2191630882 8.131516294e-20) 228
(0.2869937379 0.2530190213 -3.252606517e-19) 411
(0.242912686 0.2055811168 4.33680869e-19) 165
(0.2657803468 0.2388691623 -3.252606517e-19) 348
(0.2981061996 0.2740400182 0) 533
(0.2544736921 0.2250817896 0) 287
(0.2760491967 0.2017480947 -4.33680869e-19) 140
(0.2430017752 0.1992848116 0) 135
(0.24902192 0.2295616322 -3.252606517e-19) 286
(0.2512692812 0.2565223025 0) 436
(0.250048187 0.2063112184 2.168404345e-19) 166
(0.2968746319 0.2015670625 2.168404345e-19) 142
(0.2795719027 0.263246811 2.710505431e-20) 470
(0.2998952525 0.2882772391 3.252606517e-19) 593
(0.2920821984 0.2393127195 1.084202172e-19) 352
(0.2487598126 0.2578715992 -1.084202172e-19) 436
(0.2715504627 0.2766815844 -3.252606517e-19) 529
(0.2409286425 0.2016150184 0) 165
(0.2532802493 0.206845526 2.168404345e-19) 167
(0.2952993875 0.2075472646 4.33680869e-19) 172
(0.2508497772 0.1809183397 -2.168404345e-19) 47
(0.2679507667 0.1987826483 -1.626303259e-19) 139
(0.297556258 0.2637123455 0) 473
(0.2479487353 0.2773397683 -2.168404345e-19) 556
(0.2569440898 0.2686899919 -1.084202172e-19) 497
(0.2637158431 0.2332809503 -3.252606517e-19) 318
(0.2789035383 0.1951256672 1.084202172e-19) 110
(0.2537174907 0.2733576167 -2.168404345e-19) 527
(0.2688210076 0.2452159735 5.421010862e-20) 379
(0.2865714884 0.2837413947 0) 591
(0.2675654257 0.2825552092 1.084202172e-19) 559
(0.2774785368 0.1906864259 -5.421010862e-20) 80
(0.2536742858 0.1896673443 2.168404345e-19) 77
(0.2887984805 0.2119932462 -4.33680869e-19) 201
(0.2905688181 0.2278417985 0) 292
(0.2704942253 0.2852943668 1.583951611e-19) 589
(0.2865455947 0.1960583256 -4.33680869e-19) 111
(0.2630367533 0.2331257358 -4.33680869e-19) 318
(0.2898445659 0.2009929064 -2.168404345e-19) 142
(0.2889311325 0.2066968592 -4.33680869e-19) 171
(0.2941994123 0.2557828415 0) 442
(0.2524543179 0.2432832903 0) 377
(0.2840420014 0.2478132927 -2.168404345e-19) 381
(0.2488294732 0.2362698637 4.33680869e-19) 346
(0.2253999614 0.2510822422 2.168404345e-19) 403
(0.2847720073 0.2830102953 -2.168404345e-19) 561
(0.2738956656 0.2233269022 5.421010862e-20) 259
(0.2672530297 0.1840526227 0) 50
(0.3022177166 0.2262540789 1.084202172e-19) 263
(0.2391864133 0.2305672582 -2.168404345e-19) 315
(0.2795067039 0.2802198335 -2.303929617e-19) 560