/*--------------------------------*- C++ -*----------------------------------*\
| =========                 |                                                 |
| \\      /  F ield         | OpenFOAM: The Open Source CFD Toolbox           |
|  \\    /   O peration     | Version:  2406                                  |
|   \\  /    A nd           | Website:  www.openfoam.com                      |
|    \\/     M anipulation  |                                                 |
\*---------------------------------------------------------------------------*/
FoamFile
{
    version     2.0;
    format      ascii;
    arch        "LSB;label=32;scalar=64";
    class       vectorField;
    location    "0.012/lagrangian/dsmc";
    object      U;
}
// * * * * * * * * * * * * * * * * * * * * * * * * * * * * * * * * * * * * * //


6269
(
(1170.087493 340.9446863 511.2882122)
(1473.381937 497.2751099 -28.94849816)
(529.8383351 203.9712941 -1113.81085)
(1586.11545 120.2143395 -425.5498458)
(1051.834704 625.7306748 -178.5758675)
(961.4429761 371.034669 29.14197469)
(1562.476969 461.0823732 -232.7796578)
(1040.14301 456.6524165 109.0705261)
(1634.302684 514.2792739 424.0962549)
(1086.561124 129.6389194 -417.4183212)
(295.1861058 345.5601874 -555.5417763)
(1506.601626 305.2896017 783.6354261)
(875.0784724 49.06986583 208.9345494)
(1303.320285 540.3187038 57.80083493)
(1384.329921 634.0982292 -1.969600987)
(2039.801751 -128.1490276 679.1147951)
(467.6385181 960.3969481 602.894715)
(1373.670065 32.85031356 -11.67850331)
(959.7511356 566.6202944 187.3329115)
(446.1216033 616.6592089 -98.79262368)
(1018.660509 -483.2370696 -114.8399164)
(899.9496143 790.1968027 277.2751851)
(1753.077525 -32.62568348 -185.4733734)
(957.4697872 135.6326485 172.6247317)
(1181.207115 295.1759856 -234.5721033)
(1394.13465 362.3621327 23.6386846)
(1751.76074 810.3810637 2.044315196)
(1588.220412 1204.142754 457.1493331)
(1308.661483 -215.8071223 54.83620211)
(896.0947457 439.2409359 597.1238081)
(1246.143667 801.0150963 80.59251123)
(928.0740918 -263.2423987 584.8520455)
(942.2442333 0.9065906354 487.7473401)
(1294.341857 37.03094849 -81.25669985)
(1004.138168 449.3096107 56.34577633)
(1485.290531 -347.3442772 -187.1046297)
(851.3853259 -244.8222749 -2.213333664)
(1471.256375 257.4033113 294.145812)
(1983.178918 232.6228412 466.5739462)
(1021.029155 -316.8598088 -446.7725907)
(1089.523375 50.63727882 470.230242)
(1414.32285 349.0714212 -514.0777084)
(1221.566392 251.7429705 -259.3313067)
(1416.842809 -562.9693068 -82.19398479)
(982.7161399 541.530982 460.5220127)
(1062.074922 613.7748112 -164.7120646)
(1577.318644 99.54506921 -200.8262113)
(1872.293602 178.6003063 -399.8758283)
(987.7664189 19.1600239 -378.142733)
(1424.015334 636.1929977 231.2530364)
(1.459612147 -525.774455 239.0943207)
(1729.289318 694.863302 542.7746813)
(1397.220641 -251.377433 150.0868536)
(551.546678 -115.8569351 527.7427362)
(2165.96322 -200.3941545 113.4562318)
(648.1981232 130.788487 -78.68795862)
(1836.850933 999.9678337 245.5019715)
(1169.182971 424.4589948 526.8520754)
(1457.856585 500.212054 -236.8896674)
(1173.018239 656.0996105 -936.354759)
(1678.142958 111.4601267 -339.4211636)
(1408.78132 14.44915651 170.952536)
(2487.336324 614.5600385 -526.7561732)
(1459.609405 340.8597218 -455.5726931)
(1954.270462 47.45571641 197.4557363)
(909.8367287 512.9606095 -1080.612213)
(1455.638714 -224.74465 364.5999213)
(1584.526037 -154.1489547 -228.9551221)
(1427.15026 46.39985535 -35.89459441)
(1518.886705 1009.6017 313.4127804)
(2338.175727 -96.78280403 370.1059537)
(520.9422103 -83.12162784 309.2759096)
(1306.035623 -271.629834 -137.6725513)
(1952.236736 -422.609575 155.8016795)
(1451.569972 708.0053223 163.1907619)
(1312.12756 933.8459984 82.62199369)
(1661.011197 94.10892342 -21.78135569)
(1860.846331 713.0698014 -81.13087181)
(1253.007114 35.02210777 117.2606738)
(1080.824182 -278.4833222 -290.6416643)
(1576.748449 427.5444127 361.011861)
(992.794442 293.0191491 -158.4668289)
(1750.214437 -55.57255692 -710.8784699)
(1307.382775 1670.66743 216.3345681)
(1703.125554 16.64603167 141.7352887)
(1583.265638 735.4043647 33.01122301)
(1399.242997 457.0993685 158.7405228)
(1501.247965 115.1123746 -219.2148606)
(206.4263057 496.4366059 -768.554396)
(922.7783079 354.8604392 93.88254509)
(1268.481759 -94.06053677 -17.31978349)
(685.3842902 378.0178681 -666.7885088)
(1989.261273 -266.9304091 439.9770309)
(1474.903061 -432.3312598 -21.32003824)
(1258.145923 1029.566323 615.0080664)
(1282.729211 229.0440972 508.4112665)
(2097.460863 -66.76846359 255.2370646)
(1957.914348 -139.4579842 -93.23196328)
(1019.217828 1598.164679 518.7306166)
(1430.538202 917.9099661 -300.5000032)
(2256.328306 337.2085432 269.5700796)
(703.8517536 736.1645521 294.2894463)
(1207.001141 -392.2625221 -162.9472672)
(1344.076234 57.48995684 -259.9564985)
(1495.659158 -121.599291 -173.1429538)
(1233.884154 137.8235267 -262.4113676)
(1006.583314 -80.24260127 -352.7382328)
(1458.62479 679.5353103 -11.75615661)
(976.8477459 521.0616879 -1507.744232)
(2141.266604 156.0044625 -302.6672663)
(2076.472603 169.3769706 166.2490658)
(2153.766066 -405.8506083 194.7561153)
(1217.796532 -318.6511406 -38.73785623)
(1666.233385 292.4207779 704.6414628)
(1535.579263 275.4216624 154.5620454)
(1143.400095 318.9422761 271.9418023)
(1762.503139 -192.1065204 435.4063829)
(1816.83947 398.4382189 -389.4741071)
(1395.429917 -53.78170789 -286.8613927)
(1392.564194 712.4507598 -64.00160786)
(1106.980614 32.26650478 -42.25145746)
(1373.914715 416.5942719 431.5299166)
(1559.771266 140.3502715 -346.5269583)
(1627.785425 -275.7218098 -253.3377737)
(1659.446813 -476.9543661 -462.9275325)
(1518.954105 400.3104135 -119.0960966)
(1748.174447 65.80446088 -260.0683192)
(1324.416715 -45.6463338 261.3689227)
(1112.226766 708.3712729 411.8738378)
(1800.436538 237.7389839 88.24057142)
(1459.332993 118.3907662 -567.6336298)
(1369.820174 752.1997536 94.26830287)
(997.3410384 173.099342 97.00696333)
(843.6037407 299.4217515 169.6800157)
(1874.882837 51.57034018 372.8810401)
(936.9610562 -448.6798482 25.71394543)
(834.4435641 28.2814026 -54.92912495)
(1812.169472 53.45038827 651.5352704)
(1516.317834 776.8806131 -127.2121035)
(1457.782826 -67.54204673 29.68412393)
(1960.975158 -324.5436653 42.25676629)
(1647.252199 -2.125300834 287.1241102)
(1729.722526 225.9861052 -113.2817335)
(907.6798958 789.1670818 -248.0770942)
(2042.739864 -174.8985764 -2.723179312)
(1747.590294 214.7677884 -110.6900366)
(1502.178416 270.4299089 115.3344722)
(1084.611049 638.8433672 246.4696495)
(1989.29975 489.7929136 -322.5016188)
(2193.810055 69.56328055 403.6756969)
(1662.986813 -207.8878668 538.0704076)
(1635.603701 -22.52066799 565.809324)
(1089.948694 1100.747218 -660.5613106)
(878.4875902 -124.2127454 -33.35717149)
(1023.620778 294.5938622 638.1016822)
(1026.874087 714.817 365.907367)
(1279.918511 -60.16236191 476.9585549)
(1801.320646 -23.26032854 260.8989228)
(1608.568416 375.1401833 137.4466457)
(1944.739044 108.1064624 -119.5071004)
(1260.446882 -202.6607496 141.3839226)
(1433.947156 110.8594123 -29.42952685)
(1226.812775 68.11205003 -745.8255567)
(1519.012273 -375.3765185 -199.6489034)
(1304.676626 1056.526739 397.0939934)
(1447.727445 -23.34087851 92.9288199)
(1467.314257 108.2015501 243.1582437)
(1567.620547 370.2452491 718.5660616)
(1359.266751 -417.6338423 -95.67531312)
(1467.077855 -717.1479394 135.6187287)
(1458.762303 -179.057647 526.4563204)
(1856.439056 2.847876996 -616.1458)
(1643.841963 90.90806458 -33.23935698)
(2176.367519 -349.486381 229.1062688)
(1901.759878 596.544855 -104.3075774)
(1457.203052 385.7494923 -64.43386403)
(1536.239872 201.0710751 -548.4024051)
(1287.470288 1120.060048 -11.3121941)
(1328.153064 523.2012477 239.3820554)
(1595.4465 -113.5598504 -255.0545421)
(1651.457029 86.43627461 -198.5122331)
(1517.876543 -213.9829592 203.4294951)
(1341.400084 -243.2944427 -267.4941858)
(1416.269916 514.4134816 216.3947573)
(504.5906369 -531.8701902 238.79144)
(1176.360042 466.6013205 227.2720846)
(1061.033539 -182.9499429 -355.9023094)
(1316.520493 102.5900079 296.8349792)
(828.5250564 559.7652334 302.2623047)
(1905.466586 426.4700446 -9.224070977)
(1765.434689 -310.7716564 -86.70439928)
(943.2392951 569.2981678 267.9842865)
(1075.229754 1113.150143 -181.7026855)
(1602.592971 735.8325438 603.0835403)
(1419.474473 -197.0347571 -375.381207)
(1418.257473 402.3856176 56.23710843)
(1628.170564 989.5815966 -905.9328924)
(2005.849584 -257.5940742 -3.984221633)
(2015.354631 -313.967503 126.0089774)
(1383.992108 180.8321782 -310.4649727)
(1506.788206 814.7607354 30.60865137)
(1822.633808 163.722302 -94.6655237)
(982.8134083 512.124409 390.5071864)
(1598.172766 165.319006 48.00577275)
(1102.771043 -451.1269699 25.2764724)
(1558.210889 88.80707372 -125.7067226)
(1310.386905 261.0505179 363.2036785)
(1446.500541 828.8663725 178.4030218)
(1869.994819 350.6746732 -222.8670389)
(1346.847885 844.7852991 -644.363658)
(1928.773943 -6.575102995 134.3115954)
(1423.068608 238.8213819 -166.6524461)
(1345.009889 -370.8129116 137.5524109)
(1686.481595 913.41756 486.6252627)
(1537.106308 -519.0475779 220.6133734)
(1537.014224 -75.87933862 229.1354118)
(1146.197964 267.6827424 116.2815973)
(1517.916002 109.0123728 41.60737364)
(1914.837786 781.8696323 -120.3111795)
(1669.208881 315.925198 -144.9577881)
(135.2886213 479.5162492 252.3650331)
(1701.585336 356.1241347 -165.2216532)
(1775.870223 267.4904596 207.356919)
(1895.581394 449.4267035 111.7275662)
(1167.500731 -100.6728546 -188.8913291)
(1516.691527 -37.72387747 -612.9048932)
(1891.263306 -257.1496527 200.9554567)
(1836.049414 70.38760472 589.4849901)
(1484.980209 21.94787314 338.7872014)
(2123.07254 644.3893848 -63.94729161)
(1693.038799 -173.3848678 -503.0210041)
(1321.231013 592.8813928 -439.0043594)
(1230.989168 622.5591704 -477.3634945)
(1515.236533 13.85220271 -374.0312874)
(1347.351824 145.4373885 -311.1716635)
(1572.17931 -100.401017 504.0458722)
(2042.773816 632.2805062 -296.3779075)
(998.490948 360.9470404 -142.3107602)
(1715.194039 -167.3099344 -59.80471804)
(832.5479902 89.16779972 -200.2075015)
(841.4884017 1152.630084 -210.879197)
(1783.753181 317.5536543 48.62952286)
(1616.61018 187.6372579 21.63764885)
(2708.994105 247.4134598 -473.5150254)
(1562.119967 523.8850581 23.47936633)
(1762.104837 132.4509302 -168.58249)
(1780.809722 757.825744 -104.2653428)
(857.5978419 271.1417438 -1150.106772)
(2183.458097 -188.8897596 -683.9484042)
(1497.2817 158.2137768 -155.2230606)
(1560.205168 965.8132287 754.0311321)
(637.6463019 13.61873523 450.220484)
(966.0668798 -463.8629362 62.619047)
(1280.905832 -512.9126647 -521.7091632)
(1687.699196 -43.64000662 258.2130303)
(1236.033693 138.209302 -382.0842509)
(1937.088428 -355.7835968 3.898861804)
(1158.534415 -642.5432295 -197.7564548)
(1165.518063 569.6892765 -356.9474528)
(786.9426229 972.0021284 354.6044206)
(1364.594482 1310.034311 -82.95770459)
(1770.528467 9.112190391 248.1805572)
(1532.593993 -258.9446858 42.79450396)
(2035.556901 -418.0523473 -632.3981962)
(910.5378965 767.3522383 -506.7484338)
(530.8239366 381.4204079 -118.1766708)
(2041.328675 144.5614651 9.838685035)
(1350.107484 254.2043348 -102.562188)
(1768.79432 -37.53854659 -10.60312218)
(1774.257707 -477.2353238 266.4109428)
(1809.746265 458.9224773 -32.20706659)
(1659.745874 -4.024181797 -259.5307465)
(1325.387243 312.2809122 288.7675009)
(1836.712464 719.1370537 -124.1926373)
(1466.924639 213.32724 406.8395655)
(1865.618457 403.8259054 -75.63951481)
(2429.220577 45.57164976 -46.55873884)
(1632.319058 -372.2608117 -383.4725195)
(1368.861189 -143.9352793 373.0897788)
(1397.691731 646.8434276 419.9116287)
(1809.619565 568.2809719 -308.429942)
(1394.181891 256.3013637 -744.9041697)
(1866.757172 243.4463584 -371.3583202)
(1314.194607 231.0601819 30.47654143)
(1542.967681 322.2760026 -204.8144659)
(552.01826 312.2550619 405.2083941)
(1789.79625 -290.3002623 271.0724277)
(1964.023383 1214.907864 314.4078745)
(1597.648632 -302.6931746 474.8085075)
(1172.265255 209.6131904 -263.2133115)
(2021.079822 15.96833399 -339.3843335)
(1930.040942 -162.6179069 -309.2237189)
(1131.241431 159.339368 146.4035404)
(1584.189295 -314.7208731 42.15146541)
(1366.717024 95.82338831 155.8203414)
(1357.938403 80.21467926 518.3010927)
(1770.057105 -162.9845048 -87.38000199)
(1571.630532 128.7524487 261.7014936)
(1274.012464 208.6916492 -859.0487268)
(1218.997078 -91.55257391 7.33269267)
(1252.261281 -258.9860018 -109.0663649)
(1774.314376 -90.08938916 150.0240826)
(1363.103858 1207.823121 476.5254265)
(1467.141453 -405.755531 129.1808193)
(1297.94408 -364.1979162 -299.809222)
(1595.505353 -162.4607435 459.8904842)
(1438.828251 637.1500745 14.08020919)
(1266.12995 -7.993365829 -106.9427506)
(1515.34669 88.47293606 -664.6144603)
(1828.30252 743.815856 -1060.461266)
(628.318523 85.906112 -117.8571713)
(1087.648223 -14.97641676 228.1447409)
(557.8945464 1067.907247 -340.8917064)
(1485.534504 451.8933156 368.0036744)
(1689.179211 182.7860718 487.5112812)
(1508.386949 -115.8989962 -405.0393406)
(2161.603533 475.5867006 33.05978148)
(1545.51896 485.3547983 -84.23431123)
(1056.525275 -971.0637295 17.24711957)
(1872.225629 143.5733646 192.8423046)
(1274.151495 617.805866 -616.256738)
(836.7371179 -76.28690632 122.3752685)
(2490.852283 431.1682732 357.4209865)
(1968.623987 585.9189174 87.49760767)
(896.4207383 536.6107618 656.4627451)
(1612.235119 812.268684 -276.9278782)
(1492.920998 220.5247398 191.4274561)
(1122.001356 -59.33954369 48.90487272)
(1370.010179 361.4037524 -361.925076)
(1273.269368 219.2667973 202.2592554)
(1819.110456 -288.4913214 216.0968905)
(1023.962185 -191.5781605 -255.8944626)
(1936.005675 322.9814106 272.2288142)
(2016.816295 388.9376354 -60.29914081)
(1700.039044 -47.6387232 -50.65295528)
(1763.329507 45.26017426 -266.0940691)
(1430.126178 314.9242942 -89.68896683)
(1521.833946 599.8388253 -596.3199799)
(1780.554605 433.4785482 -96.49583451)
(1105.631295 361.0635589 566.6640857)
(2458.216446 305.2201578 -110.1911629)
(1887.974153 175.1610419 55.96536605)
(1780.875577 54.23435307 -433.1081014)
(1450.185315 409.9452285 1016.964241)
(1491.774375 -88.52194119 -506.5892296)
(2382.88209 -276.5508413 -819.7112098)
(1836.012069 775.2608044 25.73641161)
(1770.011356 1090.896008 -284.994044)
(1333.587292 994.6309224 -481.6359946)
(197.55885 457.0388845 205.0791101)
(1342.417071 -93.3480745 159.3846148)
(2029.177786 388.3925308 495.3400311)
(1363.058858 125.7276117 -789.2800484)
(1224.035467 278.8824641 -272.1864412)
(1610.815926 617.6737107 732.5907042)
(1361.117077 92.75296471 -139.3693312)
(864.7112077 653.3851815 477.3123228)
(2092.098438 105.975245 -121.2747331)
(1353.902624 417.8712939 61.15363178)
(1908.837544 1458.088989 -203.7147515)
(2192.724935 727.663414 319.022059)
(1093.045465 1165.91744 757.788072)
(1997.617651 87.87311763 285.9843839)
(1752.856143 -562.7053095 -627.1420411)
(2296.663366 -238.0132724 -137.889966)
(1835.371963 1527.378814 -825.2131433)
(1215.089426 458.1694341 47.76760905)
(1326.145895 1.062384493 -695.9083704)
(1368.396644 301.0800475 654.4494137)
(1243.397062 27.96770411 -221.9199007)
(1771.895091 -39.54067755 -268.1765631)
(1769.330404 -346.7538368 160.6953879)
(1823.835441 417.2877082 -457.3060851)
(1669.204691 555.5282501 -250.8967084)
(1786.090382 514.4735972 11.87825973)
(1522.947399 232.5218638 -211.3979429)
(1998.506352 143.1100169 -306.0740904)
(2467.706947 434.2384306 152.7039032)
(1127.430574 -192.6724692 328.2990613)
(1401.912335 -169.6722989 39.99505989)
(1555.570384 139.2267292 997.8299085)
(2030.845519 -72.7369722 -182.6485555)
(1084.96125 577.8024718 278.6402763)
(1706.21184 -175.6153373 78.09554063)
(834.2842609 82.29702394 162.0361595)
(562.2464652 266.1918525 -241.5741173)
(2180.505499 -486.5745011 348.9418598)
(1257.674825 -205.2314121 -578.238159)
(1034.822853 613.0677654 -790.8624459)
(1865.371119 -78.91705962 -289.2208991)
(1802.974911 -3.696693032 -64.90717401)
(1593.930681 286.4283598 -373.1971601)
(1294.453468 1489.879354 -5.863923792)
(923.8657758 106.7736666 740.9381096)
(1539.193375 982.572314 208.4332184)
(1744.566414 437.9028363 44.12132929)
(2022.661843 -60.47939855 -238.5343564)
(1677.498376 254.4923028 -272.3435008)
(1186.917581 -235.5022042 -752.1114556)
(1487.443461 462.0157362 -311.058689)
(295.0579797 496.0691263 501.1303322)
(1711.194425 349.4521413 150.4905686)
(1268.095269 670.6411976 458.7893783)
(1126.198493 1331.419315 74.92246541)
(1678.558785 688.7465508 12.29503997)
(1814.561933 236.8170208 -58.58311918)
(1730.93776 384.2400201 -504.9836317)
(1719.806628 6.100077427 139.4190268)
(1778.167847 9.196029111 74.35528213)
(1767.314072 45.27717771 -100.9195169)
(1821.786602 410.5817598 -390.0289182)
(1278.001255 282.1986398 433.9387276)
(1251.834758 -115.6379021 152.0969934)
(1033.004148 -128.623346 -810.8371133)
(2138.995769 481.2260842 488.793004)
(2080.341916 -333.1363932 313.0407421)
(1163.988985 984.5114659 -356.920489)
(1893.178194 451.013351 -10.02537731)
(1686.283448 -108.3030097 44.32904664)
(961.627263 84.5369017 -488.4986857)
(1769.208372 45.24523059 283.3344763)
(1165.635763 1430.790654 -453.2683145)
(1016.050294 184.5653728 748.245881)
(1718.604478 173.7756433 -433.4541108)
(1381.686387 538.1740265 -700.4676206)
(1889.020964 -289.6404137 -173.7803541)
(1574.355509 -288.0850934 282.4186688)
(1799.96794 724.5329168 174.8614543)
(1796.342862 85.11004778 -11.62690227)
(1603.459736 268.3567442 -394.0539945)
(1439.891493 -303.059455 -171.5561734)
(2062.972817 752.6448117 -174.8776308)
(1536.082226 824.5506076 -308.8657743)
(922.2901331 376.3746837 509.2719314)
(1789.236974 682.7687845 -196.2714864)
(1943.775384 582.3029388 74.2259754)
(1029.195306 468.3867696 292.4315577)
(1516.9122 -139.9823426 453.867683)
(968.6044148 254.6275308 27.94747287)
(2043.440222 -382.3613385 -170.0009963)
(1750.205844 281.1956009 257.3615359)
(707.5650509 81.58059499 -447.1141987)
(2068.268928 71.70378689 167.5720876)
(1435.293418 -264.003079 87.37941473)
(1425.006596 -502.3003341 293.861074)
(610.5798118 495.3871614 -616.3214689)
(2282.202064 621.8908628 -463.2514446)
(1792.872595 -175.6159464 70.03710145)
(927.0714547 -292.7131164 447.1946894)
(1106.029318 -70.37029031 -68.37261474)
(1090.789426 294.2430448 515.1459683)
(1703.736209 -576.0896082 186.9282731)
(1427.288532 644.2015785 664.4926337)
(1696.186776 511.2676514 24.32526803)
(1674.162955 380.6465736 15.38852017)
(1566.334871 775.0453867 -325.9859911)
(1816.768182 24.65217503 -609.4015973)
(1542.403231 -619.9002758 160.1806266)
(1524.005629 658.7416814 -616.0525222)
(1729.198671 314.7794817 -65.0113765)
(1004.556366 740.4081966 -165.5054201)
(1636.617178 939.6543577 -290.5102439)
(1332.324064 214.9853818 -107.5220647)
(1772.671049 518.7443568 549.7777463)
(1930.665979 1028.560453 -245.1943561)
(595.57379 1300.818963 530.7085172)
(994.9418179 187.5626864 225.6717764)
(1583.72135 -45.19835777 -56.57003628)
(1138.270639 -9.703316489 533.9780975)
(865.1099991 286.8304697 -58.61377617)
(1978.49189 169.8161735 41.32536419)
(2268.288579 -413.2984276 -301.2173916)
(2232.849175 30.50170947 -627.7895482)
(3179.086248 451.6575363 -138.5586027)
(1538.503266 58.39838753 -19.80691025)
(1530.442222 161.0768754 25.60746368)
(2199.699784 820.8145671 168.8852931)
(1485.196159 121.6286031 -25.34184309)
(723.8356113 -334.6361011 -695.1627782)
(783.8753792 530.0735231 -287.5897926)
(923.7370133 220.8500273 -214.8212072)
(178.3316754 986.8870631 405.385239)
(1385.023847 553.5484486 21.277352)
(1602.701117 48.64020305 308.2221407)
(2038.963304 -267.3085293 -774.0917569)
(1610.663097 184.0283896 478.5088863)
(1227.860844 292.3945909 -370.0410555)
(1558.533746 746.5811214 554.6910645)
(1118.272978 -126.3566716 -235.4476948)
(1480.802287 578.0751284 858.5974345)
(1764.836279 -156.471876 -234.9083259)
(1507.815652 639.2210238 -712.0281878)
(996.441379 -37.05957492 -261.9630215)
(1260.415883 383.3536303 -184.318652)
(1661.327754 179.6498441 5.470531304)
(1411.088663 648.6420905 -386.888621)
(1635.606878 141.4766674 21.27644262)
(1425.865933 -385.101198 311.5795655)
(1932.568268 68.13369203 535.7291304)
(2328.013147 -148.5334012 231.3397071)
(2117.783258 422.0343212 -129.4377733)
(448.4029613 292.6506415 246.8807652)
(999.9235659 358.5788541 162.2232218)
(1428.525332 166.6144453 348.0980916)
(1669.498132 220.9424992 196.0593583)
(1085.897351 690.2578369 589.4509404)
(1625.912812 467.152049 -194.4979996)
(1500.64938 50.44275959 120.2342112)
(1281.86743 631.6779669 168.4822939)
(1203.575824 32.88061422 182.8582658)
(1820.741297 149.6727764 483.3193494)
(1477.228372 -31.12134967 813.3212175)
(2036.773408 -1.170865903 255.5483086)
(1023.544533 449.6002092 -656.0524983)
(1881.628495 578.8399428 -333.7153653)
(1699.244412 130.0915838 -334.5640909)
(1573.886047 -55.36220433 -122.1369798)
(1168.698988 90.22073221 -57.29672529)
(1493.076682 143.2392052 -65.92903849)
(2109.785446 1144.602616 -495.7292885)
(1697.046796 86.23256779 92.48717078)
(1705.177622 350.7169788 231.4498496)
(528.6443188 809.4329107 752.784561)
(968.4693116 644.5236519 308.0741614)
(1454.697269 515.2809776 262.830166)
(1372.613089 439.2017352 -80.69238095)
(1692.765849 201.559463 -166.9351452)
(1454.420378 -196.457212 537.2516462)
(2066.759087 -232.5943526 -306.5702861)
(1497.96961 -110.038197 282.9194587)
(972.3796117 -71.97593607 20.72164039)
(1603.720944 -157.7928361 231.1827176)
(1905.08236 305.3754595 214.0764371)
(1904.06373 295.3193764 337.8620407)
(1107.061385 55.34163795 412.5133225)
(1624.295385 468.8433176 -342.813049)
(1683.690859 345.9055318 758.0827148)
(1741.445925 209.4681851 -186.9441649)
(1489.710983 446.492989 30.06955963)
(777.7603645 1213.682628 -371.9812486)
(1105.169312 -217.8565041 -585.5221284)
(1424.53533 -156.1635596 -195.076984)
(1337.700441 394.7205777 4.549053889)
(1543.743428 397.355418 409.102284)
(1331.171946 -51.84160853 -70.64626493)
(1621.83911 -267.1953675 -62.29777526)
(1533.920029 -92.05087995 -196.7895365)
(1732.707659 304.9218095 68.78662456)
(1474.966175 379.737205 158.5749173)
(1264.211952 651.7476442 240.6042376)
(1694.350234 185.5735605 -483.5930605)
(851.3182169 -9.456192297 -49.55582837)
(1650.527295 250.5870398 130.1027906)
(1105.422914 300.8745652 719.6935705)
(1200.024026 -38.13832516 508.3730307)
(915.2880295 176.7448909 -396.4814456)
(887.6292029 232.8400583 -453.0122106)
(1450.237084 109.5841994 342.1336757)
(1185.356819 -177.6810615 -71.47388376)
(1343.151272 200.5077755 -50.77715402)
(1954.024644 104.1647775 -168.4615486)
(1410.811722 804.8296093 -782.8914966)
(1448.585469 -151.3560567 519.8847508)
(1837.80882 -51.90968552 -1.334758593)
(1768.150238 423.6925712 -78.05451533)
(2034.405447 137.764371 -107.2272098)
(1693.261068 40.60330209 -0.7896024821)
(1370.913271 -33.18455007 116.3059664)
(465.4878362 296.6927834 -195.04234)
(1418.861012 538.7281981 -216.0078867)
(1582.906367 496.8068005 -239.7948975)
(1633.523973 23.91690449 70.68206022)
(848.7271633 626.5289106 149.4140335)
(1200.357143 94.78935723 304.649694)
(1887.197568 -356.2651254 -202.1248923)
(1893.547772 -190.0865755 -376.5230953)
(1674.38267 396.1784434 23.85388592)
(557.6633296 648.7722711 -287.7121055)
(1603.927661 267.4839909 -173.6733795)
(1762.257911 158.4213541 -475.3303847)
(1801.121044 -290.3196956 247.8613292)
(989.4201678 471.4930357 557.1006785)
(1493.023561 227.8075325 270.7481177)
(1995.290756 -39.6762479 535.8694242)
(1492.46936 28.1741096 -118.6407051)
(1311.16585 593.0252136 94.43817276)
(1892.928274 -197.6793377 -364.6112228)
(1556.374081 -92.98454424 -184.2224277)
(1736.395378 -343.632358 165.3551753)
(1436.049135 319.9614756 213.7900619)
(1486.263737 -548.0639982 -319.600176)
(1655.878032 131.1245657 -175.3180043)
(1575.951453 440.3311181 -236.8883087)
(1290.218067 110.6911083 283.9645446)
(1371.516206 -122.8894566 37.15230271)
(1643.028209 -48.52728809 -186.4893293)
(1437.217647 -139.20255 -474.701908)
(1750.161349 311.9399392 132.1985775)
(1856.587542 360.8446599 156.00906)
(1908.738535 98.9507008 -289.1213922)
(1493.523377 181.6325808 -300.6819124)
(2159.411056 167.1964821 273.2286442)
(2020.059245 -135.1019558 8.054724163)
(1422.864477 -27.45671178 270.8399277)
(1661.668885 274.8028854 -523.2904734)
(1593.568921 221.9801509 -123.901259)
(1601.866382 37.5338136 -138.6272715)
(1414.070155 -106.7146506 66.12077387)
(1623.936917 203.0233812 -263.8461148)
(2121.805222 274.8522964 80.75644726)
(1513.092745 245.1405917 104.1002063)
(1761.602269 -380.119861 673.7772699)
(1752.348905 -173.963772 -47.671457)
(1438.863862 54.83759386 -769.2758322)
(1191.736335 30.36054983 -104.5365055)
(1551.072837 404.4274513 265.8504816)
(2005.194108 284.1883983 -371.7770843)
(2175.981341 509.5643305 97.01599483)
(2226.542627 70.7473829 -285.6540717)
(1943.788663 134.858777 -273.5807797)
(1459.80633 270.9077558 -150.7575029)
(1689.879561 41.52268135 -78.24879681)
(1013.692926 95.19013551 -11.07271493)
(686.239931 532.8906457 664.34037)
(1692.427911 1089.158298 499.3948905)
(786.1918885 -234.7642418 -65.02452403)
(1886.65816 -441.5519839 233.7412948)
(2250.380436 -187.5929681 172.7790847)
(1410.518441 466.5993428 513.4784791)
(1452.785884 103.626242 -31.4627503)
(2171.358482 535.4906081 -73.95264231)
(1974.515495 688.1309684 143.0407418)
(1531.945724 -213.7466715 32.42051774)
(1638.206104 138.7169142 167.6766017)
(1861.686664 317.0725246 308.3165915)
(1236.223526 -351.756644 145.887794)
(1257.719443 513.125237 607.57763)
(1620.508915 107.7306125 -349.8806103)
(1986.692426 373.4891942 957.3770354)
(1534.274296 -522.0267396 -157.6125475)
(1267.958623 -124.2226545 234.4053585)
(1143.107846 347.579553 192.5915569)
(1181.429055 -413.8189157 -40.42666374)
(1495.647093 955.2222167 -556.5639718)
(1910.859402 -20.42210678 386.9898908)
(2080.713056 963.4353888 77.74926861)
(1134.640699 -90.44738092 -69.97921324)
(1795.524894 -301.7547676 -168.0329332)
(1905.002988 8.450126898 -157.9376318)
(955.849341 290.0881974 0.8788442161)
(1757.121676 -108.9165169 -103.5060147)
(1531.621985 202.0308807 148.8772802)
(1032.603043 715.712174 394.8311432)
(2834.955449 734.9919361 -504.27475)
(1353.841699 -39.50546595 -15.80970062)
(1730.178991 92.64944348 -127.248095)
(1553.894331 555.1350089 -554.5054727)
(1117.946043 -263.2924379 59.34769299)
(1544.397421 -294.49364 218.7950013)
(2054.16267 -550.3994403 -301.6351466)
(1318.446397 -98.32416662 -121.4215365)
(1758.434428 -673.415779 -323.8215446)
(1648.769399 457.3806547 -103.3350839)
(1648.702242 -66.76487332 -207.9110437)
(1347.090919 -384.1757052 720.4810544)
(1541.982254 160.4174612 113.0890025)
(1435.218057 509.7328579 313.2693388)
(1654.820806 160.747802 16.036091)
(2132.676434 277.3835175 363.834094)
(1248.599782 -367.1735311 149.0156003)
(1269.977283 -71.57499259 186.0442411)
(1738.579051 284.9833795 -11.92941764)
(1735.503692 327.79696 -311.8067129)
(1318.688074 -93.73934647 -526.4763453)
(707.8737564 314.221537 115.0059765)
(1620.944901 454.7609551 -323.673767)
(2179.254217 -178.5450798 276.4253995)
(1501.48088 505.1797548 -64.84758969)
(1733.2386 185.8446892 -348.0950505)
(1303.389941 261.5944641 162.6673869)
(1811.603618 327.0200171 -84.20447946)
(1652.172821 1102.628804 221.1594763)
(1710.283582 134.3715334 -89.52085106)
(1661.740407 -148.6567954 77.58526573)
(1299.382498 -235.4350953 -281.6574759)
(2047.980701 317.2053743 146.6701752)
(869.042184 -85.22440791 -370.8773677)
(2174.273801 -363.2481946 303.3499293)
(1836.058865 -182.7035836 -171.3168869)
(2191.905591 -183.122715 -95.67193799)
(1798.614995 -10.65472437 -73.68821699)
(1280.831699 271.6441985 -84.1263742)
(1878.94754 -290.7447567 658.6154072)
(1499.361116 -307.4359243 132.8379065)
(1548.234553 -180.9898255 -190.2435905)
(1247.258178 -74.92857954 91.43012167)
(1377.756028 236.5290654 -420.2538811)
(1319.747136 699.1931438 92.46548979)
(1777.173486 201.696882 340.8762691)
(1787.515381 -218.0010613 110.8806234)
(1752.729103 278.4920189 430.4623767)
(980.8376024 259.4217171 30.74131419)
(1468.680159 299.2686726 220.9214383)
(744.4827893 813.4491852 302.2460053)
(1996.15835 -461.1131288 -162.8193043)
(2058.808724 -225.7194015 -218.2951857)
(1072.547898 -36.92746667 -126.2532793)
(1532.041578 11.66815341 -111.0321029)
(991.6785826 883.8097069 -161.0696228)
(2077.656482 41.58909461 -512.7197633)
(2084.924959 -505.0798745 -39.25121168)
(1423.909374 263.2598461 154.6145103)
(2347.028235 -231.3435961 -23.75840173)
(1460.444421 190.8291584 338.2487693)
(1029.318657 486.4249868 1228.654779)
(2170.559239 -58.16810168 -456.8062293)
(1282.301798 -56.01548463 -85.99861709)
(1392.179928 315.621005 573.5746045)
(975.5194424 516.5324873 547.1164032)
(1638.366991 186.8985383 -345.110665)
(1235.244546 193.9780646 -531.591633)
(1405.684819 32.13063353 -243.2719213)
(1699.336668 84.14083491 584.0687667)
(1579.15645 538.7011486 555.870637)
(1923.796601 70.81109014 538.9553566)
(1017.758404 -22.60727169 -19.0216294)
(2399.058567 295.918227 126.8821579)
(1822.612244 -106.5745595 389.2933822)
(2160.928857 413.4325244 -550.5948695)
(1546.551537 -127.7795587 373.0083776)
(2301.83837 422.053225 -75.2796313)
(1366.513581 181.9737898 -905.768376)
(956.0726397 1017.144365 499.8742384)
(2134.476199 -335.2512136 -107.5607643)
(1329.018245 -749.9333094 -601.0751881)
(1490.52739 -8.030274775 225.8773543)
(1759.797246 134.8043548 -696.0999656)
(1386.64023 -544.2955142 -229.0302738)
(1858.098639 -54.10253127 218.3794671)
(1690.099186 -291.6000638 127.0502954)
(2137.86627 82.89405335 -42.96736528)
(1011.643431 714.7014111 -98.46168397)
(1524.968079 242.4421621 -165.4034894)
(1237.919003 183.3986509 -400.4188656)
(1798.058642 234.2077996 -452.913761)
(2103.131239 41.57614974 156.7708452)
(2081.260287 -238.4823721 -108.9321549)
(1481.862204 441.1173319 117.0614899)
(1496.273939 -118.9422579 126.9112496)
(1823.86098 247.8803217 402.5235466)
(1786.225768 329.6143609 667.6275758)
(2003.727255 220.6629543 -50.61058726)
(1655.040096 -220.7645238 301.3151545)
(577.6981454 668.0220637 -377.2213344)
(1935.170645 1416.378104 -220.9739506)
(2574.473548 128.1520491 301.3369104)
(1146.400777 340.8482816 932.4603319)