/*--------------------------------*- C++ -*----------------------------------*\
| =========                 |                                                 |
| \\      /  F ield         | OpenFOAM: The Open Source CFD Toolbox           |
|  \\    /   O peration     | Version:  2406                                  |
|   \\  /    A nd           | Website:  www.openfoam.com                      |
|    \\/     M anipulation  |                                                 |
\*---------------------------------------------------------------------------*/
FoamFile
{
    version     2.0;
    format      ascii;
    arch        "LSB;label=32;scalar=64";
    class       Cloud<dsmcParcel>;
    location    "0/lagrangian/dsmc";
    object      coordinates;
}
// * * * * * * * * * * * * * * * * * * * * * * * * * * * * * * * * * * * * * //

980
(
(0.349753019918601 0.109946814112284 0.04093355053636 0.499366615432755) 0 840 2
(0.0315851908696425 0.612942264926956 0.123151508844768 0.232321035358634) 0 1240 2
(0.606251895415137 0.169456000950931 0.0450006136373332 0.179291489996599) 2 4 2
(0.0299120493884035 0.774313645462177 0.121266451526202 0.0745078536232172) 2 822 2
(0.0786733339304925 0.314057908432522 0.472263628003587 0.1350051296334) 2 880 1
(0.120076693321737 0.397243319608607 0.0186429222021443 0.464037064867512) 3 900 2
(0.0783847926594308 0.617184985643342 0.283385590649281 0.0210446310479464) 4 824 1
(0.379163341674471 0.197019954463363 0.282062388871132 0.141754314991034) 4 920 1
(0.439104363694349 0.0664110403048826 0.381453960217824 0.113030635782945) 5 1340 2
(0.371981897075669 0.300933117904561 0.117006842235652 0.210078142784118) 5 8 2
(0.125446977596332 0.233960794451003 0.104064429758358 0.536527798194307) 6 1360 2
(0.401533498884437 0.410393534386925 0.0264400840661653 0.161632882662473) 7 14 2
(0.471819041115684 0.0740266341553321 0.285305202249289 0.168849122479694) 7 15 2
(0.113819252657083 0.117162470206613 0.434222908153536 0.334795368982769) 7 980 2
(0.349191498288722 0.588904417066289 0.0603215545938126 0.00158253005117643) 7 1380 1
(0.0805225690546261 0.300866560011232 0.469792893966569 0.148817976967573) 8 16 2
(0.280304423507836 0.143554768565724 0.44172787038731 0.13441293753913) 8 17 1
(0.261875765744595 0.0393220883638291 0.3635766578173 0.335225488074276) 8 1400 2
(0.631276816012856 0.0998172583044615 0.18153621583884 0.0873697098438423) 8 14 2
(0.0827840725542911 0.214565452453783 0.383454506172471 0.319195968819456) 9 16 1
(0.685351528539706 0.06445590865365 0.123863528583492 0.126329034223152) 10 20 1
(0.739181516017244 0.0245404029006392 0.200095892605314 0.0361821884768034) 11 23 1
(0.226213789181494 0.511002748109258 0.155332963215029 0.107450499494218) 11 23 2
(0.355258050912489 0.123323620989136 0.252926330724664 0.268491997373711) 11 1060 2
(0.203975174573774 0.164651095996101 0.469200382782697 0.162173346647427) 12 24 2
(0.195067648368921 0.132763477341957 0.514072711497858 0.158096162791263) 12 832 1
(0.588199090181618 0.053973553394619 0.0893132645786988 0.268514091845064) 12 1080 1
(0.028983256548057 0.29740763800347 0.28245435050525 0.391154754943223) 13 26 1
(0.226746764706941 0.129861992181517 0.130808296883115 0.512582946228427) 13 26 2
(0.554872520261082 0.11937813591653 0.0600772250451846 0.265672118777203) 13 833 1
(0.319429166137809 0.0303348475375175 0.503449707030734 0.14678627929394) 13 833 2
(0.161902940239103 0.0947319671188374 0.675952514359333 0.0674125782827263) 13 1100 1
(0.353757266613565 0.389197131868619 0.0394145314600714 0.217631070057745) 13 1500 1
(0.0651068578672689 0.0285735797505542 0.540298224397522 0.366021337984655) 13 24 2
(0.117276512478958 0.113134381589477 0.206517110501276 0.563071995430289) 14 29 1
(0.28409824240802 0.287952281499132 0.196289671772948 0.2316598043199) 14 834 1
(0.698442465048798 0.0291005844494297 0.251752171841427 0.020704778660345) 14 1120 1
(0.0832410084680767 0.330865007144394 0.0323994331174445 0.553494551270085) 14 1120 2
(0.167088348962596 0.567439093701919 0.227503954084378 0.037968603251107) 14 1520 1
(0.477988330566385 0.11542167228942 0.355400955610671 0.0511890415335232) 15 30 2
(0.0450113159034048 0.429851601722064 0.190066865472656 0.335070216901875) 16 32 2
(0.636851462721933 0.0635122319832531 0.201646249895251 0.0979900553995635) 16 33 1
(0.227874304134116 0.0980831031237543 0.326005719345227 0.348036873396903) 16 1160 2
(0.225960152671629 0.369225907887397 0.367007207276512 0.0378067321644617) 16 1560 1
(0.0396727660314181 0.429820941815274 0.193870237608799 0.33663605454451) 16 1560 2
(0.0444706400805216 0.330456336438378 0.272270380712134 0.352802642768967) 16 30 1
(0.158676685427088 0.071730839487653 0.184269852586273 0.585322622498986) 16 30 2
(0.264198497202645 0.461072111945458 0.247734619278692 0.0269947715732051) 17 34 2
(0.0263003537048393 0.612690971148191 0.136817955137808 0.224190720009162) 17 1180 1
(0.0466666353066486 0.40672156265805 0.262493307592164 0.284118494443137) 18 36 2
(0.208662575189334 0.56592361896005 0.205211509825015 0.0202022960256013) 18 838 2
(0.303909920946076 0.185133971704889 0.159582928641524 0.351373178707512) 18 1200 1
(0.318805967703351 0.201056391162612 0.375548523175191 0.104589117958847) 19 36 2
(0.280619623111159 0.362797691014629 0.00911808723076116 0.34746459864345) 20 40 2
(0.348066573066575 0.312288051154991 0.12747569122399 0.212169684554444) 20 1241 2
(0.591365205385873 0.0737604234613406 0.0122490459118903 0.322625325240897) 20 1 1
(0.353452606877883 0.236959714070669 0.0374224047285186 0.372165274322929) 21 3 2
(0.0982066743061095 0.0695031198939646 0.086789265174352 0.745500940625574) 21 39 2
(0.0677872753471667 0.0271413163957079 0.62348874344316 0.281582664813965) 22 881 1
(0.175913903246312 0.25635790960289 0.217813618235027 0.349914568915771) 23 46 2
(0.146127529841553 0.211921117203673 0.469897025892891 0.172054327061883) 23 1301 1
(0.139823274860686 0.0969730344295019 0.485049418241892 0.27815427246792) 23 43 2
(0.0608991808596717 0.104744587422171 0.525524057676365 0.308832174041792) 24 48 1
(0.251988905943931 0.241954884273365 0.0325105339684899 0.473545675814214) 24 1321 1
(0.161877347011831 0.0517833891739909 0.599237500156685 0.187101763657493) 24 9 1
(0.0821985949121287 0.762697567223166 0.038174627179545 0.116929210685161) 25 50 2
(0.128851378834996 0.144502939890533 0.270025598208919 0.456620083065552) 25 47 2
(0.143650575376313 0.243472748537337 0.226227787006234 0.386648889080115) 26 51 1
(0.0496859105946312 0.0575957605234585 0.0402375158564664 0.852480813025444) 26 961 1
(0.238142597792487 0.330818589043904 0.1633545734756 0.267684239688009) 26 13 2
(0.0550801836819369 0.53703063312492 0.239868276751781 0.168020906441362) 27 53 2
(0.0116746541194894 0.40296167746109 0.332584086189038 0.252779582230383) 27 981 1
(0.109057589261924 0.421491753263571 0.38634244181615 0.0831082156583554) 28 1401 1
(0.188493379559826 0.0106624050299291 0.0863549206294903 0.714489294780754) 28 53 2
(0.000948412239395235 0.542476529759328 0.236271833989541 0.220303224011735) 30 1041 1
(0.14966879416596 0.267193882682541 0.286375568113473 0.296761755038027) 31 62 2
(0.070432405602368 0.196143351320981 0.113198166384039 0.620226076692612) 31 1061 2
(0.0397557026954602 0.195188107034352 0.252901895508178 0.51215429476201) 31 1461 1
(0.178753467672477 0.0260825811432745 0.622282290274198 0.172881660910051) 31 59 1
(0.400226177466814 0.201620239582182 0.00649469243825699 0.391658890512747) 31 59 2
(0.0339696995923449 0.602864610983384 0.126059117709142 0.23710657171513) 32 1481 1
(0.667404080361695 0.0444366753039222 0.182278185093707 0.105881059240676) 32 25 2
(0.71418232920989 0.128052452132494 0.017885707337818 0.139879511319798) 33 66 1
(0.443758893690707 0.243228410243908 0.218688563327956 0.0943241327374291) 34 67 2
(0.429746469610238 0.131280753617073 0.0923014386236392 0.34667133814905) 35 1141 2
(0.173305972317961 0.515432564199719 0.0484186025231268 0.262842860959193) 35 67 1
(0.247002591362223 0.397729773487234 0.322878437378842 0.0323891977716999) 35 67 2
(0.287066264388153 0.0129754606501362 0.29949200413573 0.400466270825981) 36 72 1
(0.113655185303696 0.148389554222325 0.474483340547232 0.263471919926747) 36 1161 2
(0.116822152337969 0.0433776329470019 0.249870747942349 0.589929466772679) 36 1561 1
(0.413653310769139 0.0417047553947352 0.467006453885879 0.0776354799502469) 36 1561 2
(0.0325779258634059 0.239604392579601 0.165298985449244 0.56251869610775) 36 69 1
(0.33965960587564 0.0782741691060055 0.292654325050253 0.289411899968101) 36 69 2
(0.184345241661796 0.266106206329333 0.136555509279063 0.412993042729808) 37 74 1
(0.26089181557274 0.533342392229438 0.147149496529572 0.0586162956682494) 37 74 2
(0.155503411096659 0.0722817112107189 0.28783828416668 0.484376593525943) 37 1181 1
(0.453678249940005 0.0686832915571025 0.172560505204359 0.305077953298534) 37 71 2
(0.228886214736058 0.227591873763674 0.342513491562148 0.20100841993812) 38 75 1
(0.486147525491538 0.0356410081959069 0.323734295464323 0.154477170848232) 38 1201 2
(0.0775238453211488 0.352410374744662 0.217276987639522 0.352788792294667) 39 781 2
(0.0165703290980843 0.824042883896314 0.108131329885251 0.0512554571203505) 39 38 1
(0.620925285999042 0.267315397027194 0.097603597576172 0.0141557193975923) 39 75 1
(0.147449843354793 0.145749647169131 0.428254060393046 0.278546449083029) 40 79 2
(0.184738491963235 0.350882853810691 0.290708029458134 0.17367062476794) 41 80 1
(0.0936019711690771 0.135566056356077 0.446933394582577 0.323898577892269) 41 80 2
(0.244322193095054 0.306952607048361 0.421252285226266 0.0274729146303198) 41 81 1
(0.0827468753621778 0.420880934830762 0.235893199125064 0.260478990681996) 42 80 1
(0.110194205066108 0.346767555571629 0.232351105894312 0.310687133467951) 43 84 2
(0.533828871598556 0.241542165249926 0.00392612210894083 0.220702841042577) 43 85 2
(0.04677465318893 0.522409014729256 0.363409360119186 0.0674069719626276) 43 902 1
(0.052706625765485 0.044593602121766 0.570614277726509 0.33208549438624) 43 902 2
(0.309222793127394 0.0252499846486095 0.53085522232361 0.134671999900386) 44 87 1
(0.195682538897698 0.130198023837611 0.321638355262522 0.352481082002168) 44 922 1
(0.0153674825177918 0.780306855988927 0.141082597429459 0.0632430640638221) 44 84 1
(0.576490212020636 0.27787429980443 0.0725010875776118 0.073134400597322) 45 89 2
(0.111679211897165 0.286576461862605 0.253632815423806 0.348111510816424) 45 86 2
(0.117147532407032 0.55671011170445 0.0650257928545342 0.261116563033984) 46 962 2
(0.0393811919858645 0.364552235372818 0.349700199411424 0.246366373229894) 46 88 1
(0.0343612940944605 0.491777517203791 0.440314136054286 0.033547052647462) 46 88 2
(0.0475040404332605 0.216240465130536 0.0439275424551555 0.692327951981049) 47 1382 1
(0.296802476134438 0.269323780585704 0.118282381802436 0.315591361477422) 47 90 1
(0.105490360594063 0.196728586729052 0.160033303390541 0.537747749286344) 48 1002 2
(0.489423055886278 0.11294687483638 0.253568207951078 0.144061861326264) 48 1402 2
(0.190458018925221 0.0117229401490378 0.581835621910809 0.215983419014933) 49 96 2
(0.514318126704435 0.182430164485694 0.227096175588413 0.0761555332214583) 49 97 1
(0.122717957564087 0.074522555595456 0.310591632563376 0.492167854277081) 49 1422 1
(0.107438897255715 0.690753034719461 0.020262766311662 0.181545301713162) 49 94 2
(0.00919296655786517 0.0171415288738289 0.315632549636745 0.658032954931561) 50 60 1
(0.240151399935356 0.347058652660339 0.165026128815829 0.247763818588475) 51 1062 2
(0.338622754749672 0.270102477633199 0.0488485139044491 0.34242625371268) 51 1462 1
(0.255281752137903 0.372685254837283 0.250520581221887 0.121512411802926) 51 1462 2
(0.0615440832172146 0.196403465801166 0.312432836631954 0.429619614349665) 51 62 2
(0.0194686507244883 0.0964520741593634 0.757893705671445 0.126185569444703) 52 103 1
(0.0172562685074727 0.302589646562353 0.0424793884543464 0.637674696475827) 52 1482 1
(0.591262243975039 0.0847361181075846 0.315298409720104 0.0087032281972729) 53 104 2
(0.345785308068426 0.333732826026898 0.169322506226331 0.151159359678345) 53 66 1
(0.18618228216328 0.461345984044601 0.109770015211829 0.24270171858029) 54 106 2
(0.446960868906759 0.100356927252004 0.19333916970831 0.259343034132927) 54 107 1
(0.25419446732879 0.399473505742167 0.109571619610311 0.236760407318732) 54 1122 2
(0.180033632862293 0.460642360106009 0.203990944313734 0.155333062717964) 54 104 1
(0.797444783252579 0.0110158259907922 0.0490486142439716 0.142490776512657) 55 109 1
(0.0385455721286413 0.278894183808256 0.144473889478543 0.538086354584559) 55 1542 1
(0.236749951154227 0.159645857393598 0.291155073167223 0.312449118284952) 55 106 1
(0.103312450364128 0.175953245953854 0.00447736751899054 0.716256936163027) 56 111 2
(0.278370136365231 0.0346615345285267 0.354839795665925 0.332128533440317) 56 1162 2
(0.6918340664355 0.190481685976167 0.084688703964256 0.0329955436240769) 57 112 1
(0.348138085960214 0.121797009923812 0.496790163073264 0.0332747410427094) 57 1182 1
(0.597334944892796 0.0578321553066049 0.121877089441315 0.222955810359284) 58 114 2
(0.365095009704694 0.304606625294585 0.271756869218795 0.0585414957819255) 59 116 2
(0.201057507664597 0.469665450036642 0.217655225437658 0.111621816861103) 59 77 2
(0.0472277134479799 0.371995044186148 0.427118900951734 0.153658341414138) 60 117 2
(0.00407315622607241 0.29274948321174 0.347913807666582 0.355263552895606) 60 118 1
(0.0560603925445577 0.447912266391229 0.272857134682822 0.223170206381391) 62 122 1
(0.00527491661407753 0.541222669574168 0.407567342280086 0.045935071531669) 62 883 2
(0.0263101768626116 0.163889717645347 0.725589476986594 0.0842106285054477) 62 1283 2
(0.0277342154794685 0.138562210915673 0.220657320173048 0.61304625343181) 62 83 2
(0.169171622650201 0.104393187444083 0.134311263935419 0.592123925970296) 63 85 1
(0.338538854127391 0.109294787962253 0.38671727606122 0.165449081849135) 65 128 2
(0.123147100699781 0.442279851870713 0.433929883601816 0.000643163827690094) 65 943 2
(0.426477045583359 0.0287465970040391 0.445240938123548 0.0995354192890539) 65 125 2
(0.209749871573479 0.156829358890042 0.0369318410953145 0.596488928441164) 66 1363 1
(0.157043172474179 0.210355201674868 0.457756703879649 0.174844921971303) 66 1363 2
(0.428136352897494 0.305712346684965 0.0377025963598724 0.228448704057668) 66 91 1
(0.0345321580271958 0.47201214139742 0.231261740908595 0.262193959666789) 66 127 2
(0.304708427738228 0.385703470962838 0.129152852985089 0.180435248313845) 67 129 1
(0.334719727910387 0.0272868729474391 0.158045121080803 0.479948278061371) 67 129 2
(0.562787310493935 0.192831154761517 0.00181312890017477 0.242568405844373) 68 134 2
(0.00925558034425311 0.103967595054904 0.288939618836985 0.597837205763858) 68 1003 2
(0.19365415319163 0.20249809500551 0.46013746185216 0.1437102899507) 68 1403 1
(0.327150140183142 0.238819146669067 0.0338232463727805 0.40020746677501) 68 131 1
(0.639726652587066 0.0752207138914768 0.1141953070565 0.170857326464957) 69 97 2
(0.359230169412073 0.0419865598500355 0.0957659467174675 0.503017324020424) 69 133 2
(0.214104962653228 0.712231174100087 0.0254948039311753 0.0481690593155101) 70 137 1
(0.294765775834758 0.153885520363621 0.196056856690819 0.355291847110803) 70 1443 1
(0.197564412019192 0.193900526794292 0.328605447587355 0.279929613599161) 70 1443 2
(0.217532348465598 0.152956983493022 0.563049919492733 0.0664607485486468) 70 99 1
(0.306930187620354 0.19269277262739 0.137732673282185 0.362644366470072) 71 139 2
(0.376427561876998 0.0250508814503992 0.191986211035581 0.406535345637022) 71 101 1
(0.328309549907757 0.254294196416147 0.0223386332459703 0.395057620430125) 72 1483 1
(0.292848359501769 0.589340817516223 0.114406904926701 0.0034039180553075) 73 143 1
(0.211352647181456 0.0614762630330862 0.648700667205992 0.0784704225794654) 73 105 1
(0.446260163675613 0.0927923825705533 0.206620582971982 0.254326870781851) 73 105 2
(0.0558354325039742 0.0555844937322765 0.821640413073572 0.0669396606901774) 75 147 1
(0.675913845995084 0.0107974480599546 0.28851429298297 0.0247744129619911) 75 147 2
(0.171469189715748 0.0552607310796642 0.235678325276825 0.537591753927762) 75 1543 1
(0.0918665656138585 0.229771820439814 0.0396601437268497 0.638701470219478) 75 1543 2
(0.0746776866664427 0.34271873877698 0.338700654758581 0.243902919797996) 75 109 2
(0.148380186533418 0.213721556555177 0.0342315774134994 0.603666679497905) 76 147 2
(0.283902029047918 0.0150067052710946 0.205777468502583 0.495313797178404) 77 1183 1
(0.138902880717003 0.244489304462171 0.216942526235871 0.399665288584955) 78 1203 1
(0.519914386531828 0.18754383243709 0.0160329934595841 0.276508787571498) 78 1603 2
(0.141144951525112 0.710611712785672 0.0828197313924653 0.0654236042967504) 78 151 2
(0.0795306371512203 0.534126259598803 0.0530322192399038 0.333310884010073) 79 783 1
(0.103317382543147 0.65219145331653 0.118760463688408 0.125730700451914) 79 1223 1
(0.154665259948779 0.414825557695596 0.0874190630427102 0.343090119312915) 79 153 2
(0.0579686127933707 0.327822818563015 0.301682607910633 0.312525960732982) 80 156 1
(0.0081732141769475 0.183275475255232 0.665748868593277 0.142802441974544) 80 157 2
(0.26293290625197 0.328162535124537 0.134166831046463 0.27473772757703) 80 844 1
(0.453309388685894 0.128499190662007 0.383165427465956 0.0350259931861427) 81 120 2
(0.338596917284503 0.57168118049085 0.0179662994262347 0.0717556027984118) 81 156 1
(0.206515484708734 0.126527236395946 0.0756506059743337 0.591306672920986) 82 158 1
(0.265794663164517 0.0202807180945518 0.0893914151374489 0.624533203603483) 83 162 2
(0.191474961834683 0.177586512741791 0.292537210946351 0.338401314477175) 83 904 2
(0.0873011050373084 0.52414688560326 0.34684792152116 0.0417040878382717) 83 124 2
(0.471487300023279 0.224901450252429 0.223982457175597 0.0796287925486954) 84 1324 1
(0.500055391083089 0.211500710389936 0.173401859531465 0.11504203899551) 85 166 2
(0.288843661608905 0.0222288165152229 0.13226298885485 0.556664533021022) 85 167 1
(0.0151068536926091 0.205814798980028 0.444656120020265 0.334422227307098) 85 1344 2
(0.705271357244932 0.039437749131749 0.0667671797310834 0.188523713892236) 85 164 2
(0.020983896922379 0.15800036649931 0.0312857096626734 0.789730026915637) 86 168 1
(0.356622551643894 0.298156288393975 0.0451972325685006 0.30002392739363) 86 168 2
(0.117959558913507 0.108374460993331 0.54473176342597 0.228934216667192) 86 169 1
(0.053375921408199 0.39394680025904 0.548421002496535 0.00425627583622649) 86 964 2
(0.258503848382989 0.254170857826063 0.184016929008845 0.303308364782103) 87 170 1
(0.0625345399059703 0.389713075622774 0.091058452096635 0.45669393237462) 87 171 2
(0.333747402560958 0.174615313416849 0.137140114122816 0.354497169899377) 87 984 2
(0.259606733863413 0.287714773023379 0.144463328535556 0.308215164577651) 88 173 1
(0.351235937622561 0.16152795793171 0.407132244095526 0.0801038603502032) 88 173 2
(0.120842718624511 0.234045998667621 0.208676777346653 0.436434505361215) 88 1404 1
(0.0858323360169982 0.0923546368364776 0.6678675282464 0.153945498900124) 88 134 1
(0.311693300215508 0.00590198491783772 0.232480595665544 0.449924119201111) 88 170 1
(0.352464125750783 0.0335004261126513 0.526646525939093 0.0873889221974727) 89 175 1
(0.0441128665976276 0.0523256926800971 0.500834083824214 0.402727356898061) 89 1024 2
(0.163027541350119 0.407301508381893 0.225723541601966 0.203947408666022) 90 177 1
(0.179973398691258 0.0746654331222364 0.24598450881081 0.499376659375696) 90 174 1
(0.0935420190172477 0.442627684110569 0.139954436105947 0.323875860766236) 91 1464 1
(0.00337028156970076 0.18926902626265 0.803172858026139 0.00418783414151013) 92 180 1
(0.722131986960703 0.19130352939158 0.00782172683518858 0.0787427568125288) 92 1484 1
(0.131681407365861 0.233610107587971 0.613265786220429 0.0214426988257391) 92 142 2
(0.249686090509884 0.0769908296622727 0.637339967804148 0.0359831120236956) 93 1104 2
(0.867753071212314 0.0323255592355642 0.00431168373030519 0.0956096858218162) 93 1504 2
(0.0558744651593807 0.232961727345914 0.393989338426846 0.317174469067859) 93 144 2
(0.0697051167692505 0.62993104860093 0.203990262832373 0.0963735717974473) 93 180 2
(0.582223783991054 0.0680754364893697 0.0208726533148162 0.32882812620476) 94 1524 2
(0.197044475763764 0.19560972608559 0.577323382506517 0.0300224156441296) 94 146 1
(0.314419621001639 0.0659588279111247 0.0178862415247222 0.601735309562514) 95 186 2
(0.0419674853632446 0.469523063530119 0.088968998455081 0.399540452651556) 95 1144 2
(0.13385006113458 0.534209944746089 0.302086110513922 0.0298538836054089) 95 1544 2
(0.0163686093317474 0.49397359449987 0.00127307697150813 0.488384719196874) 96 188 1
(0.198829247728754 0.394956346617619 0.164157703717793 0.242056701935834) 96 1164 2
(0.136528927482321 0.0215481393250105 0.182779855145538 0.65914307804713) 96 1564 1
(0.122716773780739 0.135492512354964 0.393194552576798 0.348596161287499) 96 150 1
(0.220811327229344 0.138255926547378 0.386085459128632 0.254847287094647) 96 186 2
(0.267799626188789 0.409469543331948 0.142373926448846 0.180356904030417) 97 1184 2
(0.587874599334287 0.0870531756639561 0.110784604543173 0.214287620458584) 97 152 1
(0.422021033363639 0.208649168782604 0.2111838907027 0.158145907151056) 98 193 2
(0.534231130644559 0.147228167804259 0.277320742334791 0.0412199592163913) 99 1224 1
(0.0511337690867717 0.183703400292658 0.129982033077713 0.635180797542857) 99 1224 2
(0.26167703626002 0.154661601925858 0.292918329103833 0.290743032710288) 100 196 2
(0.180823375178607 0.0283820091825868 0.35786550131283 0.432929114325976) 100 157 2
(0.0549449749497491 0.0142870332106686 0.0591301634684498 0.871637828371133) 101 197 2
(0.074596768513808 0.591704398062994 0.212015360006823 0.121683473416375) 101 159 2
(0.246835384256214 0.200217672116927 0.486902566661247 0.0660443769656113) 101 195 1
(0.207263913097961 0.224909921538805 0.063632418146793 0.504193747216441) 102 199 1
(0.0374444142558931 0.424484418512058 0.00790216102927711 0.530169006202772) 102 200 1
(0.0322602095031066 0.692331665710633 0.18479526014392 0.0906128646423402) 102 885 2
(0.14343015190325 0.303930218408521 0.135276317513931 0.417363312174298) 102 1285 1
(0.788876155653844 0.0563646817555408 0.153826640489234 0.000932522101381688) 102 1285 2
(0.298612437291216 0.00381872510525765 0.376157306090307 0.321411531513219) 102 161 1
(0.119490531727933 0.190438880248809 0.575583752020805 0.114486836002453) 102 161 2
(0.243505324957343 0.293468529955016 0.146112491782414 0.316913653305226) 102 197 2
(0.730839442483623 0.191437978544005 0.0525851144933437 0.025137464479028) 103 201 2
(0.0260825144542105 0.0281180866617989 0.264734141522111 0.68106525736188) 103 163 2
(0.203866125956008 0.0437102802612808 0.232072203657721 0.52035139012499) 104 204 1
(0.12093284876411 0.417874971280425 0.40037858739359 0.0608135925618743) 104 1325 2
(0.00967002285057894 0.260874170742956 0.56774304781654 0.161712758589926) 104 201 1
(0.044308532209576 0.933079550452731 0.00690666199118383 0.0157052553465091) 105 945 2
(0.0755147503102667 0.0433891083591724 0.688130465756792 0.192965675573769) 105 1345 2
(0.0112023940475084 0.266388492589803 0.550877069378628 0.17153204398406) 107 171 2
(0.0337608953843197 0.0471209429017344 0.325193325575549 0.593924836138397) 108 211 1
(0.180270754322489 0.692199071410693 0.0590561717041141 0.0684740025627036) 108 1005 2
(0.012419400453903 0.154440885276506 0.574654320308935 0.258485393960656) 108 1405 2
(0.325343776184742 0.0942621552257283 0.419012080693143 0.161381987896387) 108 173 2
(0.189402445879458 0.217510825506786 0.328821079042927 0.264265649570829) 109 175 2
(0.150829153539679 0.582575117974298 0.135973246634658 0.130622481851364) 110 215 2
(0.574357082266758 0.124980934962614 0.171059591620138 0.129602391150489) 111 217 2
(0.333846344507497 0.263052250375337 0.381415284309954 0.0216861208072112) 111 179 1
(0.329857825962251 0.45888507618071 0.0819206317975022 0.129336466059537) 111 179 2
(0.0917545253940329 0.0841081056430902 0.400968262945622 0.423169106017255) 111 215 1
(0.132960652973122 0.236966610185658 0.0824103366839251 0.547662400157296) 112 220 1
(0.436672025310175 0.255888158843672 0.0884761218956328 0.21896369395052) 112 1085 1
(0.421931297293495 0.220136782986261 0.333012576776247 0.024919342943997) 112 217 2
(0.368675354751487 0.100503589812119 0.28251079277683 0.248310262659564) 113 221 2
(0.081690733958849 0.0204816574937117 0.14169527724736 0.756132331300079) 113 222 1
(0.76572885465357 0.116065580845675 0.0403474019075347 0.0778581625932199) 113 1105 1
(0.0960902895493947 0.528801682193288 0.0570841617213571 0.31802386653596) 113 1505 1
(0.0578261810851543 0.0628424674511329 0.6020714956295 0.277259855834213) 114 224 1
(0.23274005722549 0.107690007933499 0.366896538045125 0.292673396795887) 114 1125 1
(0.078901093742985 0.33809780371102 0.146223752934523 0.436777349611472) 114 221 2
(0.285075109741276 0.120116711690078 0.450532298861051 0.144275879707594) 115 226 1
(0.618775679510231 0.115729313505777 0.0871468273530387 0.178348179630954) 115 1145 1
(0.805728528020389 0.0226417847025751 0.153580102514502 0.0180495847625336) 115 187 2
(0.248675539051182 0.246831162554431 0.149925740558525 0.354567557835862) 116 225 1
(0.357958566332007 0.50090325085084 0.0367242741530467 0.104413908664106) 116 225 2
(0.0287089144349885 0.189825202666198 0.716678709671384 0.0647871732274296) 117 229 2
(0.218540426148505 0.016125870458749 0.236804465494368 0.528529237898377) 117 1585 2
(0.170491296765558 0.0314437705626633 0.0383740313198992 0.759690901351879) 118 231 1
(0.0970355533888959 0.348881871386907 0.134694040079389 0.419388535144809) 120 846 1
(0.383750537410091 0.0410889433210244 0.156299158727913 0.418861360540972) 120 1246 2
(0.254444552489066 0.117102652161252 0.0268564556419784 0.601596339707704) 121 234 1
(0.00949633490885349 0.590692173449288 0.0265449406656337 0.373266550976224) 121 234 2
(0.794442983058709 0.0128340059682876 0.00758982163695787 0.185133189336046) 122 886 2
(0.11411680998549 0.235933660262566 0.366021652424589 0.283927877327355) 122 1286 1
(0.151277325165796 0.271902876659592 0.0442731537603082 0.532546644414304) 122 1286 2
(0.176008361898879 0.159114588576443 0.155540725985482 0.509336323539195) 122 236 2
(0.0199181380550354 0.678952370833499 0.163567936741358 0.137561554370108) 123 202 1
(0.240832197259977 0.139061289072952 0.22687088082562 0.393235632841452) 123 202 2
(0.41132452637339 0.345565774909299 0.153754070512579 0.0893556282047308) 124 242 1
(0.298006599351722 0.121551260294248 0.559663409795483 0.0207787305585469) 124 243 1
(0.109749303915061 0.105272822234736 0.440696123313365 0.344281750536839) 124 243 2
(0.161408338082088 0.216631511750624 0.292816157712893 0.329143992454395) 125 244 2
(0.161659961350022 0.235091878448088 0.496113754749142 0.107134405452748) 125 245 1
(0.284756273070892 0.570117856620613 0.141339052418208 0.0037868178902868) 125 946 1
(0.575532930767475 0.278362423682473 0.00433568183402924 0.141768963716023) 125 1346 1
(0.135283821566528 0.29750394393595 0.0871147865847802 0.480097447912742) 126 246 1
(0.335749036050128 0.209362355450038 0.412930893362995 0.04195771513684) 126 246 2
(0.161714956432298 0.323725023079608 0.357583070409425 0.156976950078669) 126 247 2
(0.509551328477284 0.107576696115905 0.267219272608183 0.115652702798629) 127 210 1
(0.229721121658126 0.109333028948254 0.532322987676133 0.128622861717487) 128 250 1
(0.00506242747700203 0.198904943681 0.412236202782214 0.383796426059784) 128 1006 2
(0.52078784153042 0.352582550166095 0.077378289992569 0.0492513183109161) 129 1426 2
(0.280391640893215 0.0225831661110621 0.286434451678188 0.410590741317535) 129 214 1
(0.785344456048851 0.019765934716184 0.0119326267313992 0.182956982503566) 129 250 2
(0.248196110585692 0.150952439599715 0.239218387750198 0.361633062064395) 130 254 2
(0.177933693927495 0.375752353249484 0.0951754526017174 0.351138500221304) 130 1446 2
(0.0839403305786041 0.794740409880075 0.0817657111105282 0.0395535484307932) 131 256 1
(0.105688221444626 0.0175314389995392 0.664902314185412 0.211878025370422) 131 256 2
(0.308865353899427 0.239399212947742 0.248085192042178 0.203650241110653) 131 1466 1
(0.298870136921689 0.317133079914765 0.0447604210937786 0.339236362069767) 131 218 1
(0.148452924806446 0.540237990239336 0.069746368037657 0.241562716916561) 131 254 1
(0.251559731193253 0.162756239939793 0.349624600797423 0.236059428069532) 131 254 2
(0.465194354624697 0.10712892410056 0.403401032438543 0.0242756888361993) 132 258 2
(0.0273607408208242 0.0615707592099095 0.614868058810578 0.296200441158688) 132 1486 1
(0.360874547883129 0.195921869111056 0.418489356297687 0.0247142267081282) 133 222 2
(0.266222417353451 0.184598889795092 0.1967845284389 0.352394164412557) 133 258 2
(0.202774325651265 0.0852196215179656 0.458012942005059 0.25399311082571) 134 1126 2
(0.267169410176254 0.090792907731183 0.16013105792458 0.481906624167983) 134 1526 2
(0.215027353325676 0.0570409031383412 0.156631955248443 0.57129978828754) 135 1146 1
(0.0416514955019525 0.783583162923859 0.146783798950278 0.0279815426239107) 135 262 2
(0.0128942165504022 0.0443823311076646 0.431205818334824 0.51151763400711) 136 264 1
(0.270754064620531 0.328430095705116 0.364006691474953 0.0368091481993996) 136 264 2
(0.491255782244765 0.46427726798011 0.00623501566267004 0.0382319341124552) 137 268 1
(0.138081842242184 0.293997654970802 0.314271829613819 0.253648673173195) 137 268 2
(0.724638956329013 0.0428908162765108 0.147658277035515 0.0848119503589614) 137 230 1
(0.146345360649169 0.195807322194216 0.234433642646682 0.423413674509933) 138 270 2
(0.44735943074423 0.10019606603665 0.260580807031536 0.191863696187584) 138 1206 2
(0.0664664528334383 0.128120754356274 0.101074019867239 0.704338772943049) 138 232 1