/*--------------------------------*- C++ -*----------------------------------*\
| =========                 |                                                 |
| \\      /  F ield         | OpenFOAM: The Open Source CFD Toolbox           |
|  \\    /   O peration     | Version:  2406                                  |
|   \\  /    A nd           | Website:  www.openfoam.com                      |
|    \\/     M anipulation  |                                                 |
\*---------------------------------------------------------------------------*/
FoamFile
{
    version     2.0;
    format      ascii;
    arch        "LSB;label=32;scalar=64";
    class       Cloud<dsmcParcel>;
    location    "0/lagrangian/dsmc";
    object      positions;
}
// * * * * * * * * * * * * * * * * * * * * * * * * * * * * * * * * * * * * * //

980
(
(0.000357588337964208 0.00010790503024783 0.0001748765099593) 0
(6.94720521397946e-05 0.000185632569819111 0.000984207404565179) 0
(0.00134843702614622 0.000174063280672451 0.0005274180513415) 2
(0.0010681112381102 7.47801234710088e-06 0.000210730329843621) 2
(0.00108717089829932 0.000323302712301116 3.93366669652462e-05) 2
(0.00177135916686526 3.93406344315064e-05 6.00383466608685e-05) 3
(0.00217181130901347 1.95961981648577e-05 6.02370273776618e-05) 4
(0.00216566799291413 0.000306699187349701 0.000189581670837235) 4
(0.0028005030710325 0.000357018388923971 0.000780447818152826) 5
(0.00259299547426892 0.000198034545660976 0.000513075933557605) 5
(0.00308339395927826 0.000351657858375416 0.000937276511201834) 6
(0.00389961662527889 0.000113603416754192 0.000388839716170856) 7
(0.00384503192264341 0.000382045239721079 0.000521214722807131) 7
(0.00391296395173242 0.000245566267241039 5.69096263285414e-05) 7
(0.00361824991689468 8.80891395977688e-05 0.000825404250855639) 7
(0.00447986935773634 0.000255027089246941 0.000658872155461455) 8
(0.00413728257464652 0.000429923894123041 0.000716293019680358) 8
(0.0042472572703448 0.000414870014381937 0.000869062117127702) 8
(0.00415781920400321 0.000201504058925135 0.000584544333689111) 8
(0.00452069601813857 0.000372021255634536 0.000424846542449616) 9
(0.00532866211786507 0.000296434163538248 0.000469004798493005) 10
(0.00570288647324271 0.000315204620995689 0.000605868839090739) 11
(0.00568794517865 0.000443446552704626 0.000268439857805777) 11
(0.00584952367677731 0.000215277678090454 0.000177629025456245) 11
(0.00644900620635656 0.000285593985034792 0.000733361316717012) 12
(0.00638485134923679 4.87669120922303e-05 0.000255629986975724) 12
(0.00628130681846794 0.000325963450757286 0.000294099545090809) 12
(0.00699275418586299 0.000344050366861251 0.000405646383217252) 13
(0.00694331330882327 0.000122090839618293 0.000756764625465013) 13
(0.00680159280197646 0.000138718130065271 0.000543108378907744) 13
(0.00683158214504982 7.98572915344523e-05 0.000809950569393578) 13
(0.00657418202420114 0.000412158281380805 8.09514701195517e-05) 13
(0.0067169621174123 0.000197254851682264 0.000823121366693218) 13
(0.00651627671446682 0.000199287383459145 0.000938872991315811) 13
(0.00731085512583488 0.00047068087188026 0.000828227362171043) 14
(0.00728499929864843 7.1024560602005e-05 0.00037370892552391) 14
(0.00718496300559237 0.000310839091513086 0.000349221232524399) 14
(0.00731375724431078 3.70099686757414e-05 4.16205042340383e-05) 14
(0.00717450836590839 6.07563888662025e-05 0.000916455825518702) 14
(0.00788050291735841 0.000297197560446932 0.000645584162427387) 15
(0.00848874717102415 0.000106286261712179 0.000547642740326234) 16
(0.00820820789338027 0.000340787134319517 0.000618062036655781) 16
(0.00839398987240459 0.000219971435706143 0.000113937152067058) 16
(0.00825889700788839 7.53934042501381e-05 0.000887019923664186) 16
(0.00810685331031225 0.000275171337584509 0.000980163616984291) 16
(0.00801111766002013 0.000323654171760681 0.000294505700752394) 16
(0.00803966917135677 0.000332330482606265 0.000848930817798803) 16
(0.00893395037569934 0.000189916933940007 0.000406828639453219) 17
(0.00861867044843079 0.000187079425999695 1.31501768524196e-05) 17
(0.00948833334117334 0.000142913312622744 0.000569945119688625) 18
(0.00915477139870984 5.21656437973335e-05 0.000329745093445283) 18
(0.00925166406959027 0.000331455533911037 0.000151954960473038) 18
(0.00957970149192583 0.000131996050905261 0.000639540624985713) 19
(0.000248446248714896 0.00092984509422221 0.000149427898786341) 20
(0.000150754488878638 0.000756839331155861 0.000825966713466713) 20
(0.000153965824302413 0.000647841301346468 0.000630556973845723) 20
(0.000793156991245195 0.000588363151719471 0.000548891577761871) 21
(0.000524551668576527 0.000897302138889314 0.000881393542952981) 21
(0.00115773815124377 0.000969482522965354 3.38936376735833e-05) 22
(0.00182784256938698 0.000956021524188422 0.000305770569858183) 23
(0.00185750755893778 0.00062255904599133 0.000926936235079224) 23
(0.00153495581871517 0.000674032954949132 0.000833115328140155) 23
(0.00216964088223581 0.000984775204785082 0.000864805822147993) 24
(0.00231602533137733 0.00079977006439309 0.000874005547028034) 24
(0.0023400880868313 0.000540469336752958 0.000867277937320094) 24
(0.00259810156766039 0.000979450351271968 7.92739246356093e-05) 25
(0.00253221284470875 0.000760522886241525 0.000791071370691969) 25
(0.00346408735615592 0.000842350981887253 0.000458474176768272) 26
(0.00343866188416138 0.000958780642089613 2.48429552973156e-05) 26
(0.00327505505602993 0.000559535649448122 0.000386755538584253) 26
(0.00398622995407952 0.000633704184296375 0.000435429275034111) 27
(0.00362930845464506 0.000795600497739583 5.83732705974471e-06) 27
(0.00426198972605273 0.000568818505144659 0.000945471205369038) 28
(0.00404712334488996 0.000904367992280334 0.000895090905190158) 28
(0.00511038871506572 0.000728524632060487 4.74206119697618e-07) 30
(0.00582898586011724 0.00096258280145851 0.000361209965196453) 31
(0.00588432022293892 0.000574207184592612 3.5216202801184e-05) 31
(0.00589246702080896 0.00076601607305487 0.00098012214865227) 31
(0.00554468836691812 0.000942270342510244 0.000711659024110436) 31
(0.0056000565443667 0.000795885989623077 0.000598266671684411) 31
(0.00619007526961022 0.000627045710755651 0.000983015150203828) 32
(0.00631093064225761 0.000666851020090424 0.000439583099421523) 32
(0.00674848533796237 0.000821454417697527 0.000514856383262561) 33
(0.00738906027657732 0.000720284005086655 0.000534892142910739) 34
(0.0078269230057889 0.000653587336714379 0.000214873234805119) 35
(0.00754332649307949 0.00069895722482065 0.000135071588682107) 35
(0.00756175064784056 0.000577945246726406 0.000478768930831654) 35
(0.00827199970151003 0.000928233433902962 0.000843491407155787) 36
(0.00839739142656291 0.00076565546659954 5.68275926518481e-05) 36
(0.00844910564544201 0.000824170271470832 0.000941588923831015) 36
(0.00833691655463523 0.000875734294610348 0.000793173344615431) 36
(0.00800814448146585 0.000872053322244348 0.000181587948380946) 36
(0.00808491490146891 0.00072962085145296 0.000751896027956174) 36
(0.00875258283178035 0.000953913689584551 0.000641721172839769) 37
(0.0086681058499921 0.000934777046106815 0.000277595404315943) 37
(0.00878106414953714 0.000924983291620476 7.77517055483294e-05) 37
(0.008613419562485 0.000765958539134268 0.000704477583472895) 37
(0.00944277844631598 0.000828982509434148 0.000315451527306149) 38
(0.00936064261452916 0.000783404029105046 0.000243073762745769) 38
(0.00998061903866971 0.000628019455150048 0.000608827702594764) 39
(0.00955820824721715 0.000504142582274521 0.000167671951554644) 39
(0.00965523132149976 0.000711110979986643 0.000408066240575693) 39
(0.000390262715576736 0.0014631375391613 0.000501978982070443) 40
(0.000953815377009191 0.00127837395010385 0.000266039870749557) 41
(0.000976599507207731 0.00124686719008356 0.000817632958059384) 41
(0.000574817005588923 0.00143891945172624 0.000570886296404112) 41
(0.00102068671884054 0.00126887281374407 0.000277266636806153) 42
(0.00197245144873347 0.00114372410421368 0.000598135341895317) 43
(0.0017457716994754 0.00136654278210036 0.000270840557908219) 43
(0.00154539714927855 0.00122710182933814 2.3387326594465e-05) 43
(0.00196452654249775 0.00129848379530463 2.63533128827425e-05) 43
(0.00214464169823204 0.00142269430171815 0.000820138618787693) 44
(0.00222516117572551 0.00138598035335677 9.78412694488491e-05) 44
(0.00200384187062945 0.00110600470137609 0.000148766338688355) 44
(0.00271694029709263 0.00135587744699484 0.00036074619358793) 45
(0.00252791980297429 0.0012019755583825 0.000657583932188812) 45
(0.00319235806104602 0.00106179977952903 5.85737662035159e-05) 46
(0.00300984529799647 0.00130787858431713 0.000369390795404356) 46
(0.00300859032352362 0.00102536384984735 0.000491041835748978) 46
(0.00388000375732642 0.00135803998609884 0.00097624797978337) 47
(0.00357420061903361 0.00129113749067354 0.000266683619869655) 47
(0.00437526311648696 0.00110638924184379 5.27451802970314e-05) 48
(0.00424913986794711 0.00132117079861024 0.000755288472056861) 48
(0.0049523854952687 0.00133853231568671 0.000893048050388352) 49
(0.00466665729828684 0.00137142046832389 0.000560410772162089) 49
(0.00493205923281125 0.00127676341652956 0.000938641021217956) 49
(0.00452685972431393 0.00111763237517051 0.000255527516652681) 49
(0.00516011451645784 0.00100229824163947 0.000978261987847239) 50
(0.00576643282368599 0.00114255091439175 0.000120075699967678) 51
(0.00578029307249598 0.00125586881554376 0.000830688622625164) 51
(0.00568908072864542 0.00124983693454688 0.000872359123931048) 51
(0.00588641224629511 0.0010153860208043 0.000460391655958272) 51
(0.00606795994740347 0.00149513283731888 0.000893813600478392) 52
(0.00634439110959195 0.00132315141536478 0.000991371865746264) 52
(0.00685218443900624 0.00130546476585381 0.000619632759904896) 53
(0.00667110758013027 0.00108644632701711 0.000493374519938889) 53
(0.00745345442945918 0.00110143057814673 0.000445562874873759) 54
(0.00724141173429315 0.00138825978277331 0.000676162638294616) 54
(0.00723671463029672 0.00111833442663735 0.000127097233664395) 54
(0.00704500840821557 0.00122467041173142 0.00029400776074488) 54
(0.00777060658406947 0.00130063880418686 0.000590261782382919) 55
(0.00785091651506371 0.00127867957032444 0.000980727213935679) 55
(0.00755918748778856 0.00136098958351464 0.000409530048744337) 55
(0.00838619526443204 0.00147417188740897 5.61335927010547e-05) 56
(0.00841307669864443 0.00124701243192427 0.000139185068182615) 56
(0.00882704148339112 0.00123180064040304 0.000378912576841827) 57
(0.00860367189201141 0.00135206697354804 0.000174069042980107) 57
(0.0093506662637768 0.00121027228094386 0.000643500372246997) 58
(0.00975642293492653 0.00140872624757383 0.000454304374071143) 59
(0.00971490289806553 0.00105026437691615 0.000212150570693402) 59
(0.000488193071638005 0.00172536637883786 0.000604391099089862) 60
(0.000178650065504321 0.00199898171094348 0.000705213938675224) 60
(0.00112560020132684 0.00198598490186386 0.000524057537336492) 62
(0.0012280699360594 0.00170510240029356 2.63745830703876e-06) 62
(0.00136937228270895 0.00191147759696167 0.000986844911568694) 62
(0.0014237853406723 0.00150693355386987 0.000626913361171544) 62
(0.00160944853763026 0.00154229290566255 0.000811021001230816) 63
(0.00286071789248703 0.00191536528646815 0.000555986703124916) 65
(0.0027480732988897 0.00174775171697585 6.15735503498906e-05) 65
(0.00260661926139584 0.00165638697104037 0.000758014880204281) 65
(0.00336914785266161 0.00185068193211395 0.000895125064213261) 66
(0.00326813914505837 0.00185556160604402 0.00092147841376291) 66
(0.00312588538640431 0.00160703408822437 0.000480219476866288) 66
(0.0030086330395068 0.00163973001934019 0.000510721779588982) 66
(0.00357617710693456 0.00173097115758402 0.000281507066854203) 67
(0.0035836799319776 0.00182365407100828 0.000805353263097367) 67
(0.00426288759499576 0.00185930317237652 0.000283206784147142) 68
(0.00444570230738649 0.00164678370450456 4.62779017212656e-06) 68
(0.00435033741419934 0.00162026868327326 0.000903172923404185) 68
(0.00408178753504578 0.00179880289161968 0.000197398316464351) 68
(0.00480245797990749 0.00165993166314677 0.00049072065275849) 69
(0.00458980754235302 0.00184131620436323 0.000778398355443928) 69
(0.00544647375933669 0.00159035817228665 0.000155221540642124) 70
(0.0053493657958595 0.00175133736751409 0.000852617112082621) 70
(0.00521369382679848 0.00185365863359806 0.000901217793990404) 70
(0.00533590804686277 0.0015543830871164 0.000738276842274179) 70
(0.00592326745309491 0.00164559888354618 0.000653842133562434) 71
(0.00569009999598704 0.00159410689046925 0.000786735337611102) 71
(0.00629077551431499 0.001779606197692 0.000835845225046121) 72
(0.00692678791012456 0.00163211750136645 0.000149828097806192) 73
(0.00687718849539836 0.00155283816179536 0.000832847413376186) 73
(0.00684203876779582 0.0016115650409189 0.000477456952619658) 73
(0.00798604114187401 0.00195824889500787 9.48573769421645e-05) 75
(0.00783102153850123 0.00181323560799026 0.000651245628942504) 75
(0.00792950233703123 0.00181166317439282 0.000914265405142126) 75
(0.00754279671326689 0.00186214744837663 0.000954066717193071) 75
(0.0078099712089449 0.00151866942166661 0.000281241763131218) 75
(0.00803709504663335 0.00183892838638231 0.000712088350178114) 76
(0.00881863240585118 0.00192152114010247 0.000141951014523959) 77
(0.00923455836447173 0.00184302962758966 6.94514403585015e-05) 78
(0.00913799509336275 0.0017762494871485 0.000740042806734086) 78
(0.00903528623788128 0.00156799804002965 0.000218815811451772) 78
(0.00998011734071219 0.00171305421091279 0.000373076202585683) 79
(0.00958869469586174 0.00164807492770595 5.16586912715736e-05) 79
(0.00953866631498719 0.00171021137464365 0.000507841812330015) 79
(0.000485507846801657 0.00232159643752015 0.000341510267129667) 80
(0.000406318958828147 0.00249795669645576 0.000669835475681751) 80
(0.000203102090351508 0.00227018550587474 0.000131466453125985) 80
(0.000822423057497523 0.00211332734717147 0.00026168068752909) 81
(0.000584649229321126 0.00212951018043345 0.000187264758068486) 81
(0.00105162887117718 0.00238510751062484 0.000178908348328701) 82
(0.00193355133420887 0.00211114437335985 0.00084682195032319) 83
(0.00186333800317043 0.00219413734593185 9.57374809173413e-05) 83
(0.00171610128093904 0.00202182527625933 8.53546403569259e-05) 83
(0.00226967744986797 0.00215768622128017 0.00076425634998836) 84
(0.00287498615222923 0.0022117147775365 0.000538471594068519) 85
(0.00285054318191274 0.00242778908459777 0.000833349352680325) 85
(0.00272610477343329 0.00239331588708683 0.000992446573153696) 85
(0.00267631783931123 0.00227057969625735 0.000607926572245785) 85
(0.0034947540257694 0.00241575384251975 0.000800221975376827) 86
(0.00341084436208903 0.00211175425419522 0.000523532435784078) 86
(0.00314395699806197 0.00247051011027162 0.000832645759549915) 86
(0.00328968261951843 0.00228755448160032 2.66879607040995e-05) 86
(0.00393537403790425 0.00230828860899122 0.000432560288973598) 87
(0.00378950982721212 0.00248436636502351 0.00012232572204962) 87
(0.00382925549265134 0.00215200690770165 0.000166873701280479) 87
(0.00421900926575468 0.00243509831653415 0.000582481860044914) 88
(0.0043314270366285 0.00241219101559436 0.000582750212906807) 88
(0.00435276632101006 0.00224842793233674 0.000939578640687744) 88
(0.00435539184812745 0.00202145808400425 0.000864729195155023) 88
(0.00407792332505388 0.0024191256824872 0.000388327245773298) 88
(0.00463181049253643 0.0024118839685623 0.000790267511011957) 89
(0.00496280893701054 0.00226144525856151 2.20564332988138e-05) 89
(0.00514273058967054 0.00245924311466247 0.000511184720943048) 90
(0.00504499334967282 0.00241767393376607 0.000335971208156439) 90
(0.0057553006531904 0.00218532343513743 0.000953228990491376) 91
(0.00649915742960757 0.00240452291647625 5.87297492636051e-06) 92
(0.00622381523856403 0.00221990437514644 0.000638934006519649) 92
(0.00635027459436455 0.00203292035184147 8.72834025086698e-05) 92
(0.00689908306254139 0.00238109150652954 0.000124843045254942) 93
(0.00671909410966823 0.00226689895257914 0.000566123464393843) 93
(0.0068695505200372 0.00201396861628985 0.000345111701647549) 93
(0.00651742627919231 0.00206561306509104 0.000335216393014445) 93
(0.00715599227265517 0.00232040633575755 0.000708888108004473) 94
(0.0073379228101942 0.00204926111894094 0.000705868036032528) 94
(0.00792139509474959 0.00208754802601277 0.000776831361588056) 95
(0.00775474659689413 0.00205497637056835 2.09837426816223e-05) 95
(0.00768450557054061 0.00219943251234331 0.00093307496943271) 95
(0.00849590784766706 0.00224892105041713 0.000496569023862748) 96
(0.008252814514759 0.00213178616379108 9.94146238643772e-05) 96
(0.00845509369846691 0.00236370377089415 0.00093173553625884) 96
(0.00822727646973358 0.00203067919344518 0.000803149100754667) 96
(0.00805520283180734 0.00218262647535466 0.000751338409837951) 96
(0.00872831532178683 0.00213813686977162 0.000133899813094394) 97
(0.00870236095210516 0.00214696864983357 0.0006190095246689) 97
(0.00929017015726779 0.00239449474165909 0.00042219440738452) 98
(0.00965416776226933 0.00229282813343673 0.00026711556532228) 99
(0.00989536485758198 0.00207777445881055 2.55668845433859e-05) 99
(0.000357249939972066 0.002934580740935 0.000423756847233843) 100
(0.000440603151614055 0.00254520584379465 0.000523340801915279) 100
(0.000986263756262563 0.00254330132547166 0.000958240479314457) 101
(0.000685498608840051 0.00251864919212845 0.000158981857673279) 101
(0.000561708846064053 0.00283818231787748 0.000610320258789354) 101
(0.00144818402172551 0.00283572906095611 0.000607825703765422) 102
(0.00127444560666536 0.00299063889643603 0.000556793374359996) 102
(0.00114576911476891 0.00260046268244774 1.61301047515533e-05) 102
(0.00131217735281993 0.00274453919406296 0.000928284924048375) 102
(0.00127413235915808 0.00277459862020877 0.000605561922173078) 102
(0.00126273176236796 0.0025746531093228 0.000846875056249134) 102
(0.00137490792694361 0.00252987263293198 0.000174232101866419) 102
(0.00106087633123934 0.00271933315789195 0.000584778807566312) 102
(0.00181729013937909 0.00270900241786758 0.000443142300214183) 103
(0.00197942032805555 0.00250652062861355 0.000694106514588985) 103
(0.0023111422265515 0.002949033468511 0.000854356656760715) 104
(0.00223042250588782 0.00276082930216876 0.000939533575617945) 104
(0.00200241750571264 0.00286714540891588 0.000572578059241829) 104
(0.00252238309172124 0.00251453046404799 2.2154266104788e-05) 105
(0.00286294392045596 0.00295942675824285 0.000962242624844867) 105
(0.00386400515519322 0.00250280059851188 0.000177133241007814) 107
(0.00449155977615392 0.00296799930470305 0.000610805283830557) 108
(0.00410883277571403 0.00257459577443268 9.01353771612444e-05) 108
(0.00429043201026794 0.00291967470724827 0.000993790299773048) 108
(0.00437153297834095 0.00258133594404619 0.000324053875988758) 108
(0.00484389397577674 0.00254735061146986 0.000358966872510558) 109
(0.00546229271161508 0.00260569391170225 0.000342010305255862) 110
(0.00585641072943331 0.00272911906637676 0.000587840523904006) 111
(0.00577416922828185 0.00258346158612687 0.000570024577370914) 111
(0.00568809300541908 0.00258246445649056 0.000294265379040663) 111
(0.00552293863134851 0.00293500731582995 0.000446845525642639) 111
(0.00630707136332193 0.00296675983675672 0.000696553063327781) 112
(0.0062186498533028 0.00276288791425062 0.000218336012655087) 112
(0.00610548282432337 0.00261794249579537 0.000568897568366992) 112
(0.00690783116131213 0.00273342423507629 0.000715158732812138) 113
(0.00689848884913975 0.00297957731651029 0.000938672975526864) 113
(0.00673036129496 0.00275053499591377 0.000382864427326785) 113
(0.00671157658651601 0.00268303450565533 0.000951954855225303) 113
(0.00715308647318839 0.00298554345472871 0.00090824444200629) 114
(0.00720452171270432 0.00288796998172688 0.000116370028612745) 114
(0.00701972527343575 0.00273811394824148 0.000622451649417488) 114
(0.00764340671728911 0.00292873122256468 0.000737345733439284) 115
(0.00774386800969303 0.00278744142336955 0.000309387839755116) 115
(0.00778724697564361 0.0027014321320051 0.000420913848772728) 115
(0.0080621688847628 0.00281441553395999 0.000274263510084116) 116
(0.008089489641583 0.00264169659591505 0.000320117465983156) 116
(0.00899282277139125 0.00286551658344444 0.000795820340116308) 117
(0.00867303733928431 0.0029373019582335 0.000890729786925747) 117
(0.00945737717580861 0.00294165529052728 0.000844936549734658) 118
(0.000233953155919628 0.00330130017595932 4.85177766944479e-05) 120
(0.000174087213716479 0.00338351789398697 0.000808124731294955) 120
(0.000563611138122266 0.00337783753579711 0.000154078731886511) 121
(0.000502374083727213 0.00318900735921533 0.000404559659096285) 121
(0.00129497225125118 0.00320240565658316 0.000397221491529354) 122
(0.00135350396737234 0.00317049314116005 0.000942941595007255) 122
(0.0010599559081716 0.00332622923037876 0.000924361337417102) 122
(0.00104400209047472 0.00329867025224432 0.000752881230474117) 122
(0.00158676350288444 0.00300497953451376 0.000311088560138984) 123
(0.00187026130614853 0.00306020804931499 0.00051365173147144) 123
(0.00239716886840665 0.003224385980952 0.000295017891391426) 124
(0.0020848910151172 0.00342549835016207 0.000729445440029891) 124
(0.00241992626290387 0.00347256267402124 0.000495570775270895) 124
(0.00295964791547948 0.00318676016337697 0.000702664319208332) 125
(0.00259398219306388 0.0034595850096625 0.000684078140876901) 125
(0.00257308247721287 0.00314375200342197 0.000142378136535446) 125
(0.00271693555546689 0.00321476771454988 0.000712233534616263) 125
(0.00346617904460837 0.00331742707264039 0.000547739358696006) 126
(0.00341606274098747 0.00329040270569403 0.000622763126524899) 126
(0.00329770874935212 0.00345957126089193 0.000438440548625574) 126
(0.00376099746842341 0.00312738783211932 0.000637647639645453) 127
(0.00444256971958547 0.00338790320511134 0.00024348342254655) 128
(0.00439928192129025 0.00320738370826036 2.53121373850101e-06) 128
(0.00466888610537889 0.00319351176453435 0.00073960607923479) 129
(0.0047133151360624 0.0030700979102233 0.00083722101344233) 129
(0.00469633611401221 0.003287814605264 0.000587561837259391) 129
(0.00543795097235358 0.00318165822152152 0.000724949505107439) 130
(0.00509207114978273 0.00326764039989338 0.000911033153036253) 130
(0.00597901491735535 0.00308164471241531 8.15237137200952e-05) 131
(0.00597357794463884 0.00335887321245386 0.000929624450278148) 131
(0.00580308405505127 0.00317904145903018 0.000845567323050286) 131
(0.00559709774477731 0.00307471753423042 0.00053343185162439) 131
(0.00553711323120161 0.00319276777367872 0.00014397283044088) 131
(0.00556288993279831 0.00318091964683308 0.000711463894463581) 131
(0.00638370141134383 0.00331799910487545 0.000660273898587091) 132
(0.00646237443518984 0.00315494040578455 0.000986319629589588) 132
(0.00681182042847369 0.00309021863697078 0.000205151500649693) 133
(0.00656655560433836 0.00324275268654464 0.000682289901528182) 133
(0.0074066966078282 0.00327970005241535 0.000101387162825632) 134
(0.00714685788150635 0.00338781119359035 0.000866415294911873) 134
(0.00783940673247519 0.00341772271009941 0.000107513676662838) 135
(0.00751041287387549 0.00302440364518744 0.000195591089325165) 135
(0.0080032235541376 0.00347458528030857 0.000437652926610025) 136
(0.00806768851615513 0.00308609309025483 0.000536192871984618) 136
(0.00887718605443881 0.00314504742044875 0.000283859825234837) 137
(0.00896547953943945 0.00319165637536746 0.000636961423908106) 137
(0.00875498887760001 0.00318115973908225 0.000594789705558983) 137
(0.00946341365983771 0.00315380316148563 0.000731019997481199) 138
(0.00933806210929562 0.00324213026120183 0.000223679715372115) 138
(0.00906715362314198 0.00301661661320836 0.000838646019227007) 138
(0.00921606808802861 0.0030543741784917 0.000285202284923953) 138
(0.00903422757405858 0.0031108587332318 0.000332011113272546) 138
(0.00978845528793466 0.00309166249714698 0.000994164060344401) 139
(0.00971551956693498 0.00300685296465202 2.41447902708448e-05) 139
(0.00953326260379128 0.00327827943695724 0.000829485218532678) 139
(0.000311076583444737 0.00362282443060075 0.000358893145626522) 140
(0.000547556807555134 0.00390891079248247 0.00027464432752799) 141
(0.00123403152184663 0.00398213944267443 0.000600063759342706) 142
(0.00137308171676905 0.00389868583320288 0.000438554351438097) 142
(0.00123810384351923 0.00363879800108646 0.000598983636145501) 142
(0.00105313239428785 0.00382503322704803 0.000670603889245154) 142
(0.00244969477836977 0.00395863425132601 0.000786445333605022) 144
(0.00296761765019237 0.00376490301291801 6.75940495688789e-05) 145
(0.00304018263655622 0.00382945039336153 0.000797723243888717) 146
(0.00442769325022399 0.00386558304691965 0.000259006132781051) 148
(0.00446076352550292 0.00352759517841127 1.35713208302773e-05) 148
(0.00471963351805039 0.00375181411859034 0.0001191157808204) 149
(0.00472100981100168 0.00356931380158741 0.000447149657847936) 149
(0.00512036616037784 0.00395874342174208 0.000621216876295057) 150
(0.00533391058045788 0.00384618743960041 0.000260456142297608) 150
(0.00533423144355989 0.00374044398056721 0.000310228417643759) 150
(0.00587277804650828 0.00397533505851365 0.000455909762681221) 151
(0.00560133708955729 0.00372568436709035 0.000109482909005594) 151
(0.00558450613350699 0.00381032337834698 0.000257404058622654) 151
(0.00648263342186548 0.00368891810510918 0.000230577324935129) 152
(0.00605266908000678 0.00358024661779945 3.38824240439352e-05) 152
(0.00737499888554795 0.00391001462442908 0.000533701336902486) 154
(0.00742024942304351 0.00368662345142146 9.36877155940585e-05) 154
(0.00732916654812289 0.00370400176514721 0.000671761531148668) 154
(0.00796220049743441 0.00358932310089793 0.000222452964499502) 155
(0.00755504817061056 0.00378501063719695 0.000385363818874469) 155
(0.00890274012853988 0.00380436305382138 0.000758964148569083) 157
(0.00874136602780463 0.00386572588406166 0.000114954756431648) 157
(0.00861438473671464 0.00367350508179921 0.000993633537311442) 157
(0.0087661346492854 0.00359643665652508 0.000459375588870876) 157
(0.00932192634594633 0.00394811983751036 0.000152920270835459) 158
(0.00913821425043377 0.00371105351670341 0.00027059161296913) 158
(0.00919799272234039 0.00361908278774194 0.000471773702632702) 158
(0.00971296874319754 0.00380694535348718 0.000600202641044935) 159
(0.00990286861039138 0.00360547938226905 0.000229623270825978) 159
(0.00992543623786074 0.00367088277945734 0.000969886187875762) 159
(0.0097217270280621 0.00354939281603711 0.000117529837908725) 159
(0.000477302779541975 0.00408475593438698 0.000232980496620657) 160
(0.000486342808041281 0.00401154344304892 0.000197272044089136) 160
(0.000829497572334075 0.00414582327351314 0.000933332295244763) 161
(0.000711296868623657 0.00422219847201344 0.000511164534328745) 161
(0.00115757497081097 0.00447561425624442 0.000549831316929566) 162
(0.00131909785222309 0.00434563958073537 0.00078645619130372) 162
(0.00124599599806104 0.00410618274410618 0.000470934217539516) 162
(0.0010738975197714 0.00431328696666346 0.00021926151324584) 162
(0.0019451397930812 0.00440714577632417 0.00012531014095363) 163
(0.00177122081578851 0.00423024868619988 0.000108170140440704) 163
(0.00180485924199227 0.00414213756236741 0.000292431171207755) 163
(0.00246164661145837 0.00406075315817507 0.000106946649695138) 164
(0.00245478284127318 0.00412767543724492 0.000781503975028537) 164
(0.00232830178600789 0.00428712508199022 0.000752282691357835) 164
(0.00265022879401257 0.00425712630162826 0.000456900792237384) 165
(0.00333217689134685 0.00431158091098667 0.000476020024748646) 166
(0.00338572013636234 0.00444374108541275 0.000117665875441918) 166
(0.00320022629531431 0.00404662532100209 0.000560201161706459) 166
(0.00303048546450866 0.00443157735026787 0.000718618867624464) 166
(0.00397451511594791 0.00416216363815742 0.000422100768944672) 167
(0.00382930009730574 0.00425897272665111 0.000113318143167316) 167
(0.00422848895579949 0.00438677632969317 0.000651201571136262) 168
(0.00422106201920518 0.00406484631153164 0.0004002250401631) 168
(0.00467345327316065 0.00448651607465838 0.000424344458096895) 169
(0.00486802387473967 0.00444066739556003 0.000163301391043156) 169
(0.00459384680062342 0.00441051203747945 0.000842261053141088) 169
(0.00470241234938802 0.00417703085803455 0.000369912724980497) 169
(0.00537201140396475 0.00436404414762801 0.000357930115653457) 170
(0.00507196905978914 0.00414342760240415 0.000127859851029652) 170
(0.00525948678486477 0.00425735295008948 0.000237423945228762) 170
(0.00501436712570827 0.00400294838257987 0.00043609261289113) 170
(0.0050516469591821 0.00442490531459895 0.000103610740395369) 170
(0.00507663666680176 0.00408253878721818 0.000731648873726773) 170
(0.00575082741108822 0.00408059223540087 0.00073704304975583) 171
(0.00614607622091816 0.00435991320320211 0.000638865283931484) 172
(0.00638485855367301 0.00401660952983929 0.000706386028161885) 172
(0.006884848531455 0.00429247718848653 0.000282246079786579) 173
(0.00749368896389987 0.00436015060177729 0.000653724350049862) 174
(0.0070816851110724 0.0042082996407055 0.000847447702456146) 174
(0.00798529646083591 0.00418952753571683 6.08171100936129e-05) 175
(0.00784303949065454 0.00445948521968176 4.86790974865692e-06) 175
(0.00763743925443104 0.0041552586424551 0.000788596662514656) 175
(0.00828601230162584 0.00425530142827932 0.000872279582716446) 176
(0.00807298717791174 0.00418218243384968 0.000856021986658667) 176
(0.00825028936818486 0.00400834455329493 0.000328229231522405) 176
(0.00889512191469194 0.00414484354424962 0.000835791296779231) 177
(0.00859911752414924 0.00432190445628248 0.000649791028411608) 177
(0.00945866832525107 0.00409143130434738 0.00093989712987162) 178
(0.00968298649553363 0.00446482858053034 0.000646456473372897) 179
(0.00997753111348671 0.00423452278589594 8.63616319068961e-06) 179