/*--------------------------------*- C++ -*----------------------------------*\
| =========                 |                                                 |
| \\      /  F ield         | OpenFOAM: The Open Source CFD Toolbox           |
|  \\    /   O peration     | Version:  2406                                  |
|   \\  /    A nd           | Website:  www.openfoam.com                      |
|    \\/     M anipulation  |                                                 |
\*---------------------------------------------------------------------------*/
FoamFile
{
    version     2.0;
    format      ascii;
    arch        "LSB;label=32;scalar=64";
    class       vectorField;
    location    "0/lagrangian/dsmc";
    object      U;
}
// * * * * * * * * * * * * * * * * * * * * * * * * * * * * * * * * * * * * * //


980
(
(849.049541759548 -212.15961440828 -311.331280604567)
(946.428036845065 218.688126830162 217.921168202491)
(1151.70347008943 23.3691621258233 232.638104340011)
(965.307450691952 -346.843254709137 -153.362584419542)
(998.88110458977 -24.7281028565578 -53.8353503890272)
(1038.83758231602 142.959776061248 208.321689378686)
(1236.2674384308 635.559468391014 -472.674764632574)
(736.370678707917 155.924540440888 -108.056356455553)
(1035.67584036316 208.770208945498 123.515791625213)
(1195.40613255365 -332.648341594917 264.78392598735)
(1398.81717588332 445.381591057367 -59.0374478050701)
(817.623628995625 -466.034907612737 265.840042824837)
(1309.72446406975 311.578370609789 -214.424091320034)
(1269.59475652877 -77.5538163174827 29.87175725182)
(775.644913858267 -577.058097189941 -379.990670600938)
(1084.0645561356 -472.325216982298 160.727141011502)
(930.932954983565 -141.446888983861 118.373873388335)
(881.610954872218 101.868439737459 -246.711658947321)
(1422.73161064225 135.786646798891 176.129442858817)
(846.913134287382 -395.344272638227 -434.775306732448)
(630.369806527832 -434.441783163507 -9.60276639393325)
(1525.97911966062 -486.147280957473 -113.590139603947)
(1055.10203326697 -299.224115451147 -50.7974772660119)
(1326.5711826788 451.850479141438 -17.8617732549283)
(999.929651410142 -106.709355425394 730.077439393207)
(1069.87984563047 347.745139532628 -17.7045935147299)
(956.489609088641 617.093381719622 302.26584310975)
(927.043109252331 89.7315063478233 -68.9789978415135)
(970.962108154525 -116.388195004114 496.904679957502)
(1430.90894763444 347.409768598629 126.277955714367)
(920.728278297779 -356.744672822392 543.854381067679)
(1267.04122859892 -539.797900592876 169.923333033775)
(1255.38838314234 164.530819597524 -315.893862996881)
(962.103635617135 197.565435648766 -245.555002593249)
(778.486183509738 -314.631607825466 135.967565293927)
(1184.87889686458 -310.613383024206 -25.6495137343587)
(1278.34590631738 -259.588638800952 247.575283592531)
(640.404848366615 -24.4317085143489 5.64170743361205)
(1041.10853033421 -207.160030805693 -404.29185516596)
(928.753563980648 137.898811986947 -212.538279464922)
(748.178523420417 182.471104047358 78.5680469668991)
(937.050307215446 160.754586980735 203.163369679043)
(1259.93108408401 -101.775686472801 -361.136413335623)
(789.684970372509 63.5122879528589 466.770850631404)
(1541.7554545579 -508.903132258526 -55.7975932552175)
(983.857318685026 -492.411933359446 -409.909690122838)
(1222.00607214231 -22.0109071594177 -275.089154206573)
(292.426408998297 405.960233873221 -68.9618462205759)
(1498.17083109669 175.831009915949 10.2465352236195)
(741.64398794131 187.970979826092 -378.550550274853)
(1045.99180561789 -218.358238423008 77.0840027948825)
(1085.61162310693 10.6542038876217 254.859998240493)
(671.498562008132 453.541980354335 -332.387493354729)
(1331.77891606686 80.5712429811543 -783.007874041039)
(917.935606685594 -546.808380305922 597.954539548863)
(1152.08927061373 -200.512666209905 -203.239570975962)
(1084.19093292199 332.012481081365 291.632413858016)
(1369.7097175364 251.881246810057 79.0449057905629)
(459.100043224801 99.2475264729583 -713.744729001552)
(804.236056527481 345.229450508226 -90.1595152268023)
(1370.81929399642 524.312392470274 -401.38326608685)
(1577.01546728758 255.77131703352 -358.75371132755)
(1191.95724127467 364.126787961544 -21.0035403925935)
(687.409772738866 -55.4442703154783 -63.6593856818651)
(1038.16403675777 68.6557169185196 43.6598269823798)
(1304.77742315521 -531.556303431081 -34.7181816629453)
(1195.21976301993 293.776786977456 -99.2751108288283)
(610.771622436677 136.837655082653 95.1797576170455)
(804.016313192414 210.538752224015 -243.224814117034)
(742.926844040089 319.528391140455 -5.33182379115092)
(831.458912477849 174.750662260236 -163.102066775779)
(995.934161895345 65.5827255430283 106.144628073727)
(974.508508140408 -222.318574064028 515.176236229736)
(791.592253054166 401.109486399531 28.0833256639663)
(1089.11574127869 -44.4351956431371 188.624068358454)
(819.384736310197 177.059808750633 22.349630713453)
(942.256671610875 -258.701604893788 384.817299119038)
(912.409840886506 254.289045425989 54.4516766348961)
(1273.36428878617 -426.541951032308 -302.513991967259)
(805.037414952737 -144.471011423634 -87.3113513099597)
(1062.43849781088 -9.71866534390992 -174.396640715012)
(1552.45033623302 -60.016911575389 89.1880790830205)
(1036.66497558279 63.6183084729279 71.3541798279247)
(1024.53076240956 264.411816042648 248.755543359985)
(1036.10571845664 333.512772963228 176.315611598574)
(865.631893651725 -322.015857088985 -572.479129721816)
(648.385365102655 4.42277963248533 213.934373964824)
(790.413200878799 419.071788862491 768.525289513548)
(624.138244683834 42.396336759949 -415.528524740689)
(1166.769989747 -139.927780789681 -359.758849485443)
(1263.01979088014 -662.506337451998 90.5481442987901)
(1482.09026677768 13.7677649992245 -2.25782174496976)
(1427.26800343504 103.285406345644 -352.686387425228)
(1304.37359974734 -206.695220446164 -123.234976865195)
(1129.57438436166 -134.252330455404 608.357620354412)
(257.452513397142 -95.2329167554694 -371.303024599494)
(926.983679697023 205.028464544475 -20.0333545960287)
(1096.49122758321 -44.2771494444672 129.351666829001)
(1344.04325196272 -404.139475847414 -177.05599551705)
(764.261044972885 -195.794616135071 -396.59950289018)
(1043.93743319591 293.971810787741 345.393517734679)
(1010.57925805318 -49.1610040894295 4.48909265940837)
(831.771297754557 -329.792397852386 -57.8562056054201)
(961.950217860166 -221.011181724608 575.561858497122)
(927.776303282421 378.580959562307 181.157232925835)
(1041.72587408732 -276.151422064817 165.59001665897)
(1099.05523295053 -157.96406001968 467.402758999073)
(909.055587394501 125.286228099247 -126.335403829553)
(621.665382920183 147.053981104641 -233.139911108047)
(706.455679896265 391.798497907147 42.4373378166632)
(599.663475218341 -131.823879267617 -164.095479111119)
(358.48184118498 26.5782999059561 374.520835647192)
(797.652665121458 105.130639310769 304.640582744073)
(582.236146071746 -63.1970375733254 40.4362933485583)
(943.599601911092 51.2542709073532 -62.4718950889038)
(1546.36936546653 -24.8637490608326 -33.6286708009547)
(959.83096429555 -125.657686051518 161.237374144667)
(1224.07039706727 -537.751929001124 -19.8357302346698)
(932.682951201363 -367.605297942471 -129.170663893173)
(749.375667436175 -214.701411742971 -501.598222236863)
(1415.60559586597 -466.278677438837 64.7357498818459)
(450.399731310447 -13.5858625560278 -322.785366181142)
(1257.33181195035 103.566154210365 142.437039763562)
(1708.58815016482 187.226537583378 141.03082326918)
(540.099418248331 760.768925681144 -162.605757341125)
(1118.6385938061 -41.0646315814287 876.450747101622)
(1073.81088906646 -159.687528334667 195.645453864416)
(933.313136420393 124.54560102351 -43.2430007549405)
(1009.71010334497 27.6960174945316 614.104579809854)
(1088.36714348579 480.944813335064 -81.25417644932)
(707.945415181724 346.127864124452 99.6129357239605)
(649.933525641758 -219.726814895173 -369.105665872088)
(520.654281414649 -104.49191522039 -123.259348516697)
(863.983870335137 -533.768759128271 -170.807176130146)
(1317.86760550079 -87.0978801199798 -413.57139298196)
(531.634854476611 297.539387871633 1.58202581602802)
(1214.6805517719 -524.288213487732 -292.120431336843)
(686.659750954165 134.934303418289 65.8073535940628)
(892.399473906209 77.6662070591426 363.863356460314)
(1263.16891224566 324.294784669491 238.413166300287)
(942.703480188443 201.684122336925 169.465830863733)
(1204.59923762746 225.736633043794 -104.206391455005)
(1035.97395948423 99.7826150418104 -23.2025101164074)
(990.763065885314 455.049626097378 33.9189705603968)
(763.557965975313 760.621006453818 469.340065294194)
(307.707663458641 8.34358195473107 -535.968393236284)
(1199.66468373063 347.959038860435 -370.357525533259)
(1165.54461957713 476.134665618461 127.1279349008)
(902.818563306663 192.4306639108 474.860060685265)
(1162.44172969868 -159.540746460699 200.650100547678)
(1212.3975297438 -198.662455643174 71.865726614717)
(1370.16244272474 -97.8183930206338 -303.266542920489)
(1118.33123607993 261.186237722816 -26.8772385590881)
(618.409845773215 -500.547735043283 -209.093975552382)
(528.204695823566 84.9054138653092 257.900814776892)
(1271.52800914696 -508.850186154308 228.245115887665)
(817.130074559805 -33.416944931292 -201.821111361352)
(793.095871058307 260.01207806122 598.366093665769)
(688.565728862929 -134.677042842793 71.6432312458905)
(1174.29678383242 107.185280968801 162.332286273431)
(984.940880398595 -21.2554349638511 302.614585693404)
(1119.88754375647 -6.65172608487089 -11.035677676332)
(1580.15566677497 -777.241731344742 50.5256199733177)
(758.874147563768 30.315257179589 -699.918524206006)
(500.199057105079 -52.4644708584415 -277.684612089102)
(1370.77761843183 -0.579983932685942 -317.758952545505)
(1222.55126479567 -161.275255379547 -878.430861091121)
(1273.10920455195 170.992638154752 7.24345647355603)
(820.236926817738 -83.1109201643193 31.1123256367544)
(585.955406229925 569.02653283794 -254.757733288097)
(704.630045630421 416.524326544207 -353.547042191741)
(933.632575995402 523.132497887775 -116.357134582994)
(1320.41849408519 236.371543790932 -204.483529107116)
(696.453935723096 -240.889184048565 -300.1598765148)
(1027.02357658158 265.744857351987 -669.756558434347)
(858.754263510977 -193.149763590573 303.621701798624)
(483.266751992076 778.203117629125 150.38789850849)
(1082.54854169479 -390.214108339037 87.0187154150511)
(948.715041923179 -149.452152361768 528.427879380354)
(605.947483144887 -42.9152937211493 -249.232242741979)
(1147.68148066079 408.048260041202 225.060906714086)
(1209.1618431506 62.0171939235135 346.322509073374)
(563.964784011716 -238.045140392037 234.668163643691)
(1305.43029051096 -653.786164903078 -706.447392853968)
(699.284957026129 -231.903073756695 -287.216411168425)
(1068.23212857512 31.8872429503082 -35.3096034717729)
(1286.88373150742 -134.223690534899 -331.143368243588)
(1123.0557159847 -482.12284038538 -12.8258198846748)
(742.84042655022 -224.5050909551 177.671434191788)
(788.582549882014 -143.837700239993 213.427734157677)
(1408.0796384367 170.595675231744 281.538289987222)
(550.353191805666 -106.434892595719 212.867409668035)
(897.475762589457 -175.223451226753 221.507029853759)
(1064.36681914383 -382.534408141247 10.3218185785854)
(1418.01606176926 -280.675777226023 -100.124603516689)
(1337.17041990819 -258.385263482666 113.186106877899)
(778.130975501553 84.3594385120281 336.724157106103)
(899.53098294835 -262.638929165856 -105.933177326996)
(835.902056936016 66.4609743238284 72.7566139899911)
(1242.9618197419 60.4908797380778 258.714712119443)
(819.165911034966 -236.618489614293 -264.165105434655)
(1292.92434519253 219.960936366646 -228.818232135895)
(758.416730091835 407.252974524566 -212.965358393396)
(1203.27851038861 29.1561926086454 -502.218587647458)
(905.530467633027 175.100100640801 41.2399449258146)
(970.87821661406 -42.8319139771451 6.80355108424401)
(1154.52402137735 -246.373596631343 -762.10831892085)
(755.390194158461 -236.052874600536 32.6264517176423)
(537.639457082865 537.754451617697 -253.714930147942)
(858.440672442613 -312.781562087708 160.706208534701)
(1086.07789711441 -33.9318834985226 300.782999927018)
(862.482174955597 498.899384620411 343.118166597207)
(717.878801268101 52.9177292205036 -88.069624527428)
(1294.41585396717 78.052784055205 174.200064372075)
(1417.87451742872 -189.00830558963 57.3642731503453)
(1266.11194419359 30.2084321846229 -230.151554892465)
(479.912842806933 156.676533394812 270.987302784586)
(908.183286070318 37.9476306637711 564.703727126713)
(1060.36791833312 257.449771254859 34.4101011147368)
(1056.38381391625 -110.172950074817 51.5885558927437)
(1217.42241838492 84.6379279572154 112.020815272824)
(1194.63616174968 -341.55315768676 113.877523749868)
(1123.54745109495 -173.492911170811 -150.500585970937)
(833.391878887775 -55.5779280289212 -198.132969600625)
(822.647734816857 195.717767209455 233.175792924621)
(1480.43118885659 170.508385699073 -186.704878636756)
(1032.46703788069 -587.237400289326 471.73300849748)
(1526.75955478224 705.725430997651 -321.87518073112)
(924.62091908645 -55.2574892781679 -295.85855843395)
(704.139104882453 149.295126274119 277.852197176113)
(1276.87947544443 -15.839327892259 -47.3497906485865)
(1250.97164338788 -127.619658180383 -65.0833246029152)
(788.72506782227 52.7602339959194 335.092776917428)
(643.888903926169 -513.40788395014 -193.346824013075)
(436.212794335211 -587.887881843688 -496.999007582279)
(1199.62165400448 -50.4285570898192 -29.6292409536066)
(846.81758191338 -167.406786604593 -254.076791912949)
(905.776449254777 -58.7218086951571 -403.007324979536)
(980.00017991448 88.4423318857624 -81.6223298125057)
(390.765456479782 259.961614875842 -65.619214617117)
(1257.86031296887 -166.796185443696 285.696938866065)
(1080.49891260726 383.70358413246 -5.58268767099993)
(1566.22551494446 828.208856465539 94.6443650945173)
(566.147678967571 -554.510913112563 238.123733316744)
(1113.15655841235 -395.222456621168 -271.961466886263)
(1139.20261326927 -152.11039957739 -133.493082095212)
(1294.72511722704 226.159515436947 -285.365332956486)
(628.055197445098 801.222444665481 328.845163253595)
(1175.55498927391 116.172587754815 -552.075944446791)
(1028.15755618058 40.3811421887017 -368.898230514772)
(804.359430033549 -128.154343875518 328.932592553133)
(720.987557923613 -142.413946487593 574.191523397417)
(1144.66105942902 -52.974386672891 -101.18424610535)
(977.292353795837 32.2896840908164 -64.7637288937764)
(645.060809004295 -480.882302166216 -259.0074936924)
(578.610448858116 -264.92357580282 142.904896649875)
(993.188941956094 216.180892082249 509.528784462518)
(786.73757650106 -242.27634328946 21.1926535193803)
(791.036681919362 -215.622619139809 -97.9912688820611)
(952.450900549978 354.163644636668 -119.070779711456)
(736.740777627953 -256.784000618096 41.3874449893224)
(1122.43700986778 617.258967987626 -6.69540663595575)
(905.546089992485 -665.328388585843 53.8525546453293)
(1034.46284040156 -168.107818418579 -402.455081673957)
(536.1891589973 -121.568654108726 -87.7891104973415)
(1248.15601979264 -347.120797100143 282.764557366771)
(1507.38308995647 -150.580126375902 509.100895068765)
(1177.23321984901 121.329794444237 -278.809752165212)
(1165.41777405791 -341.554800939608 -263.684883648396)
(916.209849520459 286.004698920031 288.775045474808)
(377.228936352815 182.927836651014 -83.5768867020937)
(610.25629989192 262.217050088114 82.0625761148096)
(1377.61287984394 665.707841516162 94.0638231184719)
(1504.04749207562 -376.611706606509 -576.917110402889)
(1230.42652913137 -167.768237678034 -61.9117908242053)
(1321.16733000418 282.275560674378 -153.956128365355)
(1105.9172165556 -207.696131162692 285.988113663176)
(1276.38902561707 227.535039156122 -229.214379805014)
(1102.95510863953 -194.927051123112 -912.564000660034)
(523.261888216669 18.1386593099557 104.90105128892)
(1217.1481758203 -208.493455066021 -91.6043954062934)
(1238.05243657149 74.1145327288847 -279.104539208539)
(1218.61100330181 256.270349702694 92.3470900266782)
(747.834954042636 208.867427997843 383.783616991335)
(808.611577047479 -17.8185519916537 159.295718632056)
(709.520080602989 -506.356153619397 64.9222117143911)
(1572.96675906728 189.329451570098 -160.310019280247)
(1058.35935130855 -172.422098534964 -77.2226008482526)
(517.80911859922 177.100278699309 -79.0110534942109)
(920.070403476559 -401.617104799929 93.9181032825053)
(1135.59540553842 71.9396150253302 -519.927486606045)
(924.26800393915 80.7803589941326 -54.4721211695018)
(848.767786919644 37.8153446204881 203.786003117347)
(920.323218962573 538.418079346103 117.51708105462)
(1132.59434179059 -141.792778856044 -148.961509253713)
(1128.46815032973 -464.348193446228 -222.84218818926)
(814.056663447619 208.322030111346 93.9797415685503)
(777.218397555867 17.209012779107 -379.826045681945)
(951.973827325163 206.657204774466 352.428824994528)
(368.367204606433 7.86942845045978 48.025091761267)
(1063.45348276043 18.2544358243653 186.541251296096)
(957.868710188181 -52.5377787753264 103.798517327378)
(983.308182724324 524.023587929514 -229.644014604773)
(1057.23603240829 -270.859632694227 476.118075602357)
(712.551865659989 -18.3366202686388 -125.94587424014)
(929.86682678521 298.978122845492 471.226547278963)
(1184.56990660524 -252.478563218436 499.611747665085)
(1076.30828662558 -335.231076979536 209.945163917112)
(1320.67067885395 340.261505275808 -54.6577768699384)
(526.328963825883 140.94481960019 -150.979365116415)
(1200.59719050658 349.102763976003 -61.2114695965562)
(738.153109069677 -475.099571792168 -201.561563814631)
(760.038047483813 108.684087121558 312.199578672138)
(1045.99696522048 -428.469277383321 -688.826831670468)
(573.302332695585 157.975774387355 620.3800732106)
(1406.72571485984 85.9082837302189 -251.584695830716)
(1003.79104203306 -185.437840746951 40.1638543753854)
(1335.5006148278 -31.1731866255631 308.007621405283)
(1230.69402296502 389.246874728484 416.252451869075)
(965.971474577789 256.973969335457 68.8679658752997)
(1411.93505373707 106.369827908509 57.7439401459197)
(708.324492949022 -269.524590772283 200.333138510241)
(830.612461625061 -164.718955389243 376.855879081811)
(871.603995954038 45.4618744392948 211.09042752337)
(682.285478524736 -116.885320838143 627.476217841444)
(965.126554946412 -128.662337032968 214.062676663851)
(758.189706589534 385.717330473462 -338.316266270406)
(1166.80845501105 -88.658725343748 -17.0679327384897)
(664.81538100057 361.734133481827 121.143906060242)
(1164.08189673293 -310.746048184408 -43.3321067011592)
(1226.17986528274 -312.27431875888 314.233952835032)
(813.745509301505 198.917332022545 -202.386237793414)
(883.227701272685 46.6414682504734 427.84130991959)
(789.045169576083 178.564132262881 -561.39461232988)
(733.065441869837 -203.661278819813 -38.3524392792988)
(691.689162102145 -39.3952809149248 56.3919086776243)
(232.382761539486 -172.065445036439 -680.538689808368)
(883.449660820335 77.8291978178076 79.361360471991)
(616.170526124211 -197.762274209032 -61.7617929566398)
(742.213706385609 196.210318828368 213.707183700837)
(1205.58419063984 -13.5335847357647 -225.864426512704)
(721.297945753716 -389.23432899826 -260.32256399998)
(1073.69719725716 -712.696481634774 -349.656459982779)
(1150.96481967849 90.8798094737528 -93.948244179342)
(1337.47949094582 -239.206678771298 130.374040447063)
(743.600693119653 -149.472926067006 640.96804621668)
(1507.03186105563 235.210161131468 -437.332657201714)
(972.999517612963 371.341188387811 -89.0774961730311)
(616.878861634373 28.460406903521 17.9557152183073)
(1107.70847472565 74.1468062683448 322.533255958863)
(1146.4508721615 403.146710800559 -120.708793037349)
(727.639708379275 435.516485921298 232.978475386162)
(1083.63635027847 -65.0805545242918 -230.528767387037)
(1177.30870661561 -34.9513150022733 151.23304511201)
(865.410835484648 -243.786419949369 266.6620616908)
(1231.23350042135 17.7748949972327 -151.531616596827)
(1413.24753508751 164.886074775412 -87.8079777435335)
(825.039725097057 -104.815115680347 53.7783490088967)
(1124.04871504664 -73.2178689085402 -99.9419086753744)
(1187.18157934356 -262.217644617976 469.960768396686)
(1304.55535157072 90.3877318876172 -80.7652945567231)
(1026.33225828383 -27.4948575718855 -361.106197182004)
(872.992835197115 289.472699234714 183.485136642243)
(885.594634054419 421.148357659282 266.12537154298)
(1012.32559983391 -121.72816409169 -98.4802724173528)
(789.752367967928 0.686400593106006 548.687083124044)
(1176.46961195193 -410.041010125689 255.432391529255)
(789.721803900608 294.228035701616 555.576223063414)
(1031.70350577649 -90.3103208869811 197.924514716512)
(191.617793837763 209.645688072623 522.229433400601)
(433.829933198532 426.265972520067 70.3091233425966)
(1320.94557110819 -16.8394933925335 194.364774375289)
(934.802739186696 100.187320097987 222.322941031971)
(1093.72328629721 376.051646035738 -202.122128436678)
(942.310700039305 -158.07614605913 -187.023905343352)
(785.135156950241 -174.524346995483 270.569660924689)
(776.786460245287 365.514092471008 389.857107217887)
(1084.96423646083 -464.886341932321 -14.8023209149036)
(1537.33414373149 -227.731934375714 -391.457459421254)
(489.101926609108 379.003475249678 337.90235155583)
(1047.0361833025 198.947575312836 -185.703039763186)
(710.548641721207 -113.089280708402 -156.179678998882)
(714.284220262918 -312.176727435858 403.216417080121)
(1130.12113196488 -306.69624246675 467.925364696052)
(1263.84716260228 86.8408931266453 80.9724961617184)
(819.352544871511 134.651736353197 -316.193172330165)
(916.896472957938 130.259501431286 -153.59588542721)
(1116.72579132265 -0.356025642871995 -230.764650108585)
(1051.01050288443 334.159828052827 -155.70122618029)
(1278.06252752851 -61.3243681548181 354.742190909764)
(1045.01589627757 -433.779645467279 76.7336143722581)
(770.654438864509 -126.148091068931 242.860240962623)
(1685.77204225954 -211.131540604446 412.377729865275)
(970.564099576846 -112.456242933147 -271.544973115242)
(485.199471831958 510.19574026811 158.766963403213)
(1052.53726092465 701.590120217074 -57.2786126784694)
(765.814434242047 -271.635700222475 147.894026978984)
(1133.3311302471 585.942159127014 -418.747842761908)
(881.876244282126 -215.110080249956 -224.636393109727)
(479.387824824656 -644.918917595571 -302.130767128109)
(863.664984794941 -341.685373214469 578.337314934447)
(576.724681758168 96.4991119512904 215.750808575117)
(637.982326315197 -93.9844583978348 46.7832191143665)
(1438.45648398263 -59.476338053671 -365.909943139694)
(544.915592518953 609.531659097157 -176.866077790598)
(888.615521800933 319.171512979355 128.042487636036)
(1229.1731867863 52.1037482461805 -82.9266322801219)
(969.181784102675 -449.458737602617 -350.349437401601)
(1002.38146040233 107.300338284678 37.4456714189458)
(910.825372018234 -2.50711888909043 -591.122459257331)
(878.006232769691 -278.202507373129 -525.949594574365)
(728.264338389758 -761.147488425222 -317.86015813949)
(1179.78311150583 -73.4166030506763 -94.4034511640895)
(1050.5511322713 -291.132085686102 -330.505993038338)
(1024.27405395066 222.178469346588 660.916740418301)
(1388.9159288034 -294.947836769799 225.27897661013)
(889.645205436991 -222.845707509763 478.767551453736)
(1043.24819003272 220.646815768856 -348.54340473027)
(649.967335547658 201.347766431332 653.128768999671)
(867.008147391978 458.742371553624 228.631399082581)
(1292.14720173311 -282.227355970542 -24.9920835293478)
(790.590994209999 -217.79032001238 -0.849468210770597)
(810.25986006997 -16.0387438403219 -15.1597267334121)
(930.848181612934 -24.6079847914361 471.09276006313)
(1007.51105843688 -506.630220308058 -387.37424872959)
(1492.18986533075 258.966452872392 -486.292790874436)
(1153.18686138129 -164.539581695266 -134.252550529131)
(1068.08183327337 244.782963080307 -142.715469078452)
(845.5082559185 108.370073900821 305.039578892754)
(864.215662496803 -290.299050671269 -191.177270353827)
(621.819060578611 135.757273888538 -86.3647524631606)
(1173.04134836494 250.438501118111 -173.0204460135)
(726.752484611865 408.961769688095 23.0660314837225)
(412.944376012749 1.59095362703653 -159.784582599181)
(1415.76044392962 225.315213826153 -184.853763161097)
(1064.19363352256 79.602689774994 -54.5930610344498)
(578.59851784585 -192.264347702985 -115.663561109151)
(972.123249028134 -57.5807746390703 315.434958398863)
(1336.35923317783 -191.744249823327 -525.845025155639)
(1306.41620755434 557.78973156244 540.769844537187)
(1588.42352279835 -22.1719735991283 -121.489526866165)
(980.962061072867 -157.172610613147 -125.772688662912)
(870.022015994053 -151.694390094444 -360.843322052648)
(1261.24356706856 43.612452528725 228.948192150008)
(596.343497336178 -110.597033451012 -97.4690108250485)
(756.903408230857 68.7517298547477 -74.5628707723494)
(577.16971093958 108.050610067574 -457.057235907453)
(1499.29939739318 -359.465687961132 -323.274386108436)
(661.502117680703 329.012147232173 140.492414731881)
(912.008891128524 -353.920341756843 321.788688942383)
(1480.95367033591 -47.6965329540216 -48.2126537313782)
(677.997590913399 -448.547240613369 -269.059091831657)
(980.392978825398 -354.866259337849 -81.457327123295)
(1101.63933715283 -188.883825576798 3.77477127358919)
(1384.00887169966 209.22370834603 -305.819531049751)
(1118.11195471614 -63.1786364190771 -403.263240896072)
(657.561889179728 -631.892212881577 211.798179760886)
(805.567832371966 60.4009041612084 311.242092429718)
(1358.66842964811 262.059817555419 -32.6167047783639)
(529.450573633728 259.713938599777 122.656124374871)
(991.955678450838 -26.8101020615436 -387.371379413889)
(883.204595180604 116.018555217194 -102.357947046671)
(689.579028100345 -83.4110893452936 244.746854232692)
(1570.78075980752 -241.188021191447 -44.5490520060894)
(961.554554545797 83.0325683830717 185.089249332315)
(1365.18069293422 -114.537301015172 -230.206961233312)
(881.325815442076 82.3748397332245 -73.7390049598164)
(957.781300419552 -432.037413524704 -228.400637387551)
(1064.27064299677 502.611452025864 268.537551459945)
(1085.47573891078 -199.800079163958 -187.891855604272)
(1036.37785520146 -36.5958634678579 -139.703097005078)
(749.034031355931 310.179441673332 -191.452488540107)
(963.088120166208 -60.5480515798595 880.68285962454)
(1493.52041421768 483.56730189872 -115.244426384353)
(1038.66331469445 -294.888860434051 -236.506360976196)
(1259.24816668083 59.5737262851669 71.9640027232876)
(738.095934326856 -489.031052866028 79.3704261711268)
(981.839927213327 -32.0493725459681 126.504490393195)
(947.859134183015 331.562122048492 464.542555931512)
(993.338847095386 64.3614717394946 244.044176099974)
(914.903482425422 224.530831064413 385.99263139026)
(1200.1019834666 26.0838631796663 115.150764935451)
(621.676517774916 148.531187588915 195.419350161623)
(304.753290183901 398.205252226487 -108.720775803288)
(1011.11075560156 -158.162967693909 -631.814256863642)
(1116.87405880628 85.3130175808344 187.864070297065)
(771.694982556253 -564.781072284874 187.486237573691)
(1153.87188443625 302.520486276234 55.6536596457684)
(996.233747816302 -300.882563753449 243.388408101991)
(983.435868702969 46.8162981970043 485.685256504063)
(871.685956840623 404.769862699553 62.2692154440926)
(568.27209902264 87.5523534759596 -629.039889152774)
(770.393735174046 297.981987389734 315.477668315586)
(1380.41191670648 305.354231985381 -856.172919406032)
(912.058645461776 -303.564092379928 285.893630174841)
(1261.66470515585 397.82126943664 -194.149757493973)
(1136.44285829571 167.782306533505 -68.8610862364584)
(1261.73169756157 -103.187089594029 -246.341577279684)
(1087.99302982021 -205.845314228748 26.611704645298)
(1188.54577568909 196.470092607356 341.039630231372)
(1125.26284582845 78.7727841525908 531.27662045182)
(849.368102724328 388.064609355039 -153.659595202352)
(482.548250571176 -188.415447443033 -338.724315853636)
(1027.21463892578 -320.075930722275 346.775090696257)
(1067.80384524406 88.817151259747 -512.382517229708)
(1025.15508178876 -208.169944696265 454.44060997169)
(1473.32592695573 -197.467992961637 -275.017569363979)
(1219.07864037392 -25.3053612400761 -666.468055954243)
(1292.64806368889 21.8165741191352 159.653154737013)
(366.967965598535 -267.28665800279 497.122386317732)
(1056.99413038461 73.3956818939461 -81.9970328633304)
(1164.38460740589 -5.72842518085812 -294.089766287503)
(813.115442145272 -384.999302110961 330.428923355979)
(814.88426989222 740.200086183188 345.182147368866)
(992.538493227828 569.428780782548 -146.821828327111)
(871.506183431202 109.555109852082 184.617517712516)
(1057.64033677506 -652.815204303605 292.144411575494)
(932.993393932515 37.1044640855919 377.410930908029)
(1134.82995425112 -168.429776045063 127.654496493644)
(1241.32334630922 -288.4387124813 -155.313022171865)
(727.932117764311 -330.075118020385 231.843150340724)
(1094.07064818971 117.64751267253 155.801661233114)
(819.84388242894 -204.100950507593 -67.7308859379165)
(405.734190208551 -73.6106753178433 132.425230865192)
(151.261985174424 219.098852766433 176.824638144079)
(1220.61115072129 -92.2324513020426 31.3368656552245)
(643.512813185941 162.798707719699 37.5518188622644)
(1025.16753536511 25.0650029701336 -26.5772456802494)
(1435.83559941709 162.69626869143 399.68640591947)
(988.910800367125 719.56684262668 -8.20838872209638)
(652.269311486178 466.785488623642 122.34737795411)
(1353.77198197594 -585.514830733842 -140.93415223199)
(1341.30779421033 -396.404761070055 -175.385704732071)
(1080.82654863482 -181.668683664687 105.372240396815)
(669.489128075128 64.9762792224404 -209.522117580755)
(1179.21070160317 451.089214179781 -266.135367484643)
(1181.5571164405 -53.6040344461244 -116.864262858445)
(942.245207789638 33.9899233232209 132.059781646268)
(1190.18059360164 -333.657482028552 -77.832254339726)
(571.728128763045 203.952733292297 -398.285066339865)
(1263.44239666744 -507.543783523298 -535.56472562917)
(1239.13934318363 -107.98019361571 190.737511611708)
(616.402697036277 -27.3129104824397 -28.2127213081202)