/*--------------------------------*- C++ -*----------------------------------*\
| =========                 |                                                 |
| \\      /  F ield         | OpenFOAM: The Open Source CFD Toolbox           |
|  \\    /   O peration     | Version:  2406                                  |
|   \\  /    A nd           | Website:  www.openfoam.com                      |
|    \\/     M anipulation  |                                                 |
\*---------------------------------------------------------------------------*/
FoamFile
{
    version     2.0;
    format      ascii;
    arch        "LSB;label=32;scalar=64";
    class       volScalarField;
    location    "0.008";
    object      dsmcRhoNMean;
}
// * * * * * * * * * * * * * * * * * * * * * * * * * * * * * * * * * * * * * //

dimensions      [0 -3 0 0 0 0 0];

internalField   nonuniform List<scalar> 
654
(
7.33475
9.41725
9.45425
9.4645
9.499
9.5085
9.502
9.54075
9.50475
9.4555
9.46825
9.45725
9.44025
9.4675
9.51625
9.57975
9.5645
9.7605
10.24725
13.09625
7.411
9.55225
9.65825
9.603
9.59
9.62375
9.581
9.58375
9.56325
9.596
9.64
9.676
9.6805
9.7025
9.67575
9.74575
9.85325
10.13925
10.78775
12.49325
7.46875
9.641
9.64925
9.62875
9.58325
9.62025
9.65275
9.6205
9.643
9.59825
9.59675
9.57975
9.546
9.6145
9.6645
9.65175
9.7455
9.95525
10.34525
11.39075
7.49125
9.55775
9.635
9.6315
9.5675
9.554
9.549
9.55825
9.52525
9.5605
9.538
9.565
9.58875
9.4935
9.53425
9.5425
9.59425
9.75875
10.108
10.82725
7.45125
9.5625
9.495
9.5285
9.55475
9.55575
9.5235
9.50225
9.465
9.4835
9.457
9.4705
9.5375
9.54825
9.546
9.685
9.748
9.92325
10.14375
10.508
7.4115
9.49
9.6105
9.5385
9.5405
9.52375
9.51425
9.574
9.58675
9.6125
9.5965
9.58
9.5215
9.50075
9.61225
9.59325
9.63175
9.743
9.858
10.1235
7.4545
9.599
9.64825
9.608
9.6655
9.67275
9.65975
9.6145
9.662
9.72625
9.68125
9.69425
9.716
9.684
9.69275
9.6365
9.698
9.7565
9.9055
10.06625
7.438
9.51525
9.5845
9.5895
9.6005
9.5905
9.64225
9.68675
9.70775
9.648
9.64225
9.586
9.6085
9.64025
9.61325
9.68425
9.6935
9.77075
9.83425
9.901
7.459
9.65025
9.6805
9.654
9.615
9.5965
9.628
9.6425
9.56575
9.561
9.6435
9.66775
9.62375
9.607
9.5815
9.64725
9.7325
9.72725
9.7855
9.9405
7.431
9.49
9.593
9.5975
9.6185
9.636
9.621
9.6175
9.67175
9.684
9.64425
9.667
9.71225
9.70825
9.71575
9.73225
9.7385
9.67475
9.73375
9.78075
7.481
9.57075
9.591
9.57975
9.54125
9.47825
9.4345
9.44975
9.462
9.5205
9.56025
9.55
9.60325
9.601
9.59025
9.484
9.538
9.62125
9.73375
9.79775
7.4605
9.6225
9.681
9.628
9.6945
9.692
9.7445
9.7395
9.75525
9.673
9.61825
9.557
9.5165
9.592
9.63175
9.73525
9.77325
9.7115
9.695
9.712
7.47775
9.5825
9.625
9.621
9.56125
9.566
9.58625
9.5455
9.49575
9.514
9.5625
9.583
9.62775
9.6145
9.53725
9.61025
9.63925
9.6835
9.72825
9.69575
7.48
9.6405
9.70225
9.731
9.749
9.747
9.67325
9.71825
9.6935
9.6895
9.64275
9.66425
9.624
9.61175
9.64375
9.544
9.5015
9.4725
9.4875
9.6095
7.377
9.53825
9.573
9.523
9.56775
9.5875
9.617
9.6225
9.677
9.6985
9.68025
9.686
9.7515
9.698
9.66525
9.63875
9.631
9.635
9.5875
9.56575
7.472
9.5895
9.6295
9.62475
9.5495
9.576
9.6145
9.57075
9.588
9.56325
9.5635
9.53425
9.4115
9.4515
9.49125
9.56125
9.6265
9.59925
9.6535
9.60025
7.475
9.526
9.53775
9.545
9.5555
9.57625
9.49525
9.534
9.50175
9.49125
9.524
9.55125
9.56825
9.62625
9.585
9.56075
9.561
9.5985
9.5685
9.5685
7.4135
9.5455
9.606
9.64975
9.60725
9.541
9.5975
9.58775
9.56725
9.56525
9.55025
9.54075
9.56975
9.5745
9.5755
9.5775
9.6105
9.57575
9.60825
9.61125
7.4665
9.60225
9.64025
9.537
9.58475
9.649
9.61425
9.61725
9.59375
9.58975
9.614
9.61525
9.54175
9.5375
9.5275
9.52225
9.537
9.548
9.5415
9.53725
7.4235
9.57275
9.7145
9.71975
9.68775
9.66925
9.643
9.62925
9.644
9.629
9.63825
9.63525
9.672
9.63925
9.6695
9.63925
9.65575
9.6725
9.704
9.698
7.438
9.53325
9.52225
9.539
9.5545
9.5825
9.568
9.496
9.529
9.56475
9.61075
9.62675
9.6015
9.6625
9.66925
9.717
9.68975
9.68475
9.651
9.61875
7.424
9.535
9.575
9.5025
9.52925
9.50725
9.60975
9.67025
9.73875
9.72975
9.65225
9.60075
9.6125
9.656
9.64575
9.61175
9.60725
9.58925
9.647
9.64575
23.09425
26.366
27.4225
28.078
28.2705
28.516
28.605
28.56875
27.62625
27.61925
15.745
18.78775
20.811
22.32325
23.4745
24.15225
24.40925
24.7945
24.824
24.58875
13.03775
15.04825
16.728
18.41725
19.66625
20.8485
21.70725
22.4135
22.7425
22.98325
11.78425
12.95525
14.20725
15.581
16.88225
18.1125
19.33175
20.02675
20.6425
21.296
11.05175
11.81775
12.67
13.68725
14.77175
15.687
16.70075
17.5115
18.64575
19.6745
10.51925
11.035
11.61025
12.31075
13.056
14.081
15.179
16.023
16.93325
17.778
10.32475
10.6425
10.95875
11.51025
12.0095
12.73275
13.533
14.37175
15.361
16.27175
10.06575
10.26175
10.4845
10.84925
11.23475
11.70575
12.4005
13.0185
13.80475
14.5655
9.94225
10.103
10.2155
10.5155
10.7475
11.0805
11.4455
11.88
12.5005
13.15075
9.905
10.0005
10.13525
10.158
10.28375
10.564
10.9185
11.23275
11.51575
11.94825
9.844
9.84875
9.9575
10.0515
10.14375
10.225
10.37425
10.695
10.96325
11.3285
9.683
9.6205
9.604
9.65825
9.6745
9.82175
9.9525
10.18925
10.44425
10.6875
9.686
9.70775
9.67
9.69725
9.6915
9.817
9.9395
9.94575
9.995
10.2685
9.66
9.60575
9.62875
9.55975
9.5485
9.51125
9.55
9.64725
9.7665
9.85875
9.5365
9.48025
9.4795
9.517
9.445
9.50425
9.43575
9.478
9.5355
9.619
9.664
9.62175
9.4915
9.43
9.478
9.441
9.433
9.44675
9.49675
9.4695
9.492
9.5125
9.4295
9.408
9.30925
9.31675
9.31625
9.289
9.212
9.35275
9.5975
9.45725
9.41675
9.3485
9.389
9.3375
9.27675
9.266
9.2305
9.205
9.54325
9.579
9.5495
9.49525
9.387
9.3065
9.258
9.21825
9.19625
9.215
9.64225
9.5645
9.4745
9.399
9.37475
9.3615
9.31825
9.274
9.14575
9.09175
9.57725
9.50225
9.41525
9.344
9.26675
9.165
9.08475
9.0945
9.1745
9.1255
9.60175
9.52
9.46225
9.45825
)
;

boundaryField
{
    flow
    {
        type            calculated;
        value           nonuniform List<scalar> 
42
(
7.33475
7.411
7.46875
7.49125
7.45125
7.4115
7.4545
7.438
7.459
7.431
7.481
7.4605
7.47775
7.48
7.377
7.472
7.475
7.4135
7.4665
7.4235
7.438
7.424
7.33475
9.41725
9.45425
9.4645
9.499
9.5085
9.502
9.54075
9.50475
9.4555
9.46825
9.45725
9.44025
9.4675
9.51625
9.57975
9.5645
9.7605
10.24725
13.09625
)
;
    }
    obstacle
    {
        type            calculated;
        value           nonuniform List<scalar> 10(23.09425 26.366 27.4225 28.078 28.2705 28.516 28.605 28.56875 27.62625 27.61925);
    }
    frontAndBack
    {
        type            empty;
    }
    procBoundary0to1
    {
        type            processor;
        value           nonuniform List<scalar> 
21
(
27.148
24.5355
22.9405
21.5525
20.03525
18.72725
17.0645
15.2925
13.91475
12.5625
11.81425
11.04025
10.4515
9.91475
9.7605
9.44425
9.3825
9.22525
9.197
9.10875
9.02525
)
;
    }
    procBoundary0to2
    {
        type            processor;
        value           nonuniform List<scalar> 
31
(
7.4185
9.57425
9.6805
9.6235
9.6245
9.61275
9.6125
9.56425
9.52775
9.578
9.6115
9.668
9.63375
9.5685
9.565
9.56225
9.585
9.557
9.49425
9.49425
9.40325
9.3405
9.29925
9.229
9.15625
9.13125
9.491
9.464
9.445
9.40325
9.3185
)
;
    }
}


// ************************************************************************* //
