/*--------------------------------*- C++ -*----------------------------------*\
| =========                 |                                                 |
| \\      /  F ield         | OpenFOAM: The Open Source CFD Toolbox           |
|  \\    /   O peration     | Version:  2406                                  |
|   \\  /    A nd           | Website:  www.openfoam.com                      |
|    \\/     M anipulation  |                                                 |
\*---------------------------------------------------------------------------*/
FoamFile
{
    version     2.0;
    format      ascii;
    arch        "LSB;label=32;scalar=64";
    class       volVectorField;
    location    "0.008";
    object      fD;
}
// * * * * * * * * * * * * * * * * * * * * * * * * * * * * * * * * * * * * * //

dimensions      [1 -1 -2 0 0 0 0];

internalField   uniform (0 0 0);

boundaryField
{
    flow
    {
        type            zeroGradient;
    }
    obstacle
    {
        type            calculated;
        value           nonuniform List<vector> 10((7.272298564 -3.02522588 1.613828956) (2.085416283 -1.267598582 -2.76161436) (2.574498131 -6.439738409 0.6131653412) (7.458427257 -4.912556708 -0.627200286) (1.311863667 -2.37770959 0.8661962416) (0.9131859094 -1.9261856 -0.9298878342) (1.418371354 -1.493554424 -0.3708301473) (0.04678188372 -2.041880942 1.955382595) (-0.5335480387 -2.303184916 -0.308876383) (3.338466245 -3.697915757 -0.5953656962));
    }
    frontAndBack
    {
        type            empty;
    }
    procBoundary0to1
    {
        type            processor;
        value           uniform (0 0 0);
    }
    procBoundary0to2
    {
        type            processor;
        value           uniform (0 0 0);
    }
}


// ************************************************************************* //
