/*--------------------------------*- C++ -*----------------------------------*\
| =========                 |                                                 |
| \\      /  F ield         | OpenFOAM: The Open Source CFD Toolbox           |
|  \\    /   O peration     | Version:  2406                                  |
|   \\  /    A nd           | Website:  www.openfoam.com                      |
|    \\/     M anipulation  |                                                 |
\*---------------------------------------------------------------------------*/
FoamFile
{
    version     2.0;
    format      ascii;
    arch        "LSB;label=32;scalar=64";
    class       volScalarField;
    location    "0.008";
    object      iDof;
}
// * * * * * * * * * * * * * * * * * * * * * * * * * * * * * * * * * * * * * //

dimensions      [0 -3 0 0 0 0 0];

internalField   nonuniform List<scalar> 
654
(
1.874519654e+20
1.666239693e+20
2.291079578e+20
1.24967977e+20
6.248398848e+19
2.291079578e+20
2.915919462e+20
2.082799616e+20
2.499359539e+20
1.457959731e+20
3.332479385e+20
1.457959731e+20
1.666239693e+20
2.082799616e+20
8.331198464e+19
3.124199424e+20
2.707639501e+20
8.331198464e+19
2.707639501e+20
2.082799616e+20
1.457959731e+20
1.874519654e+20
2.291079578e+20
2.082799616e+20
1.666239693e+20
2.915919462e+20
1.24967977e+20
2.915919462e+20
1.666239693e+20
2.082799616e+20
1.24967977e+20
2.499359539e+20
2.291079578e+20
1.666239693e+20
2.499359539e+20
3.540759347e+20
2.082799616e+20
1.24967977e+20
1.457959731e+20
1.666239693e+20
1.457959731e+20
2.082799616e+20
2.291079578e+20
2.291079578e+20
1.24967977e+20
1.874519654e+20
2.499359539e+20
2.499359539e+20
1.457959731e+20
2.082799616e+20
2.291079578e+20
2.082799616e+20
2.915919462e+20
1.666239693e+20
1.041399808e+20
1.666239693e+20
1.874519654e+20
2.499359539e+20
3.124199424e+20
2.082799616e+20
1.666239693e+20
1.457959731e+20
2.082799616e+20
1.874519654e+20
2.499359539e+20
1.666239693e+20
1.874519654e+20
1.666239693e+20
1.666239693e+20
1.666239693e+20
2.291079578e+20
3.95731927e+20
1.24967977e+20
1.666239693e+20
2.707639501e+20
1.874519654e+20
1.457959731e+20
1.874519654e+20
1.666239693e+20
2.291079578e+20
2.082799616e+20
1.041399808e+20
1.874519654e+20
2.082799616e+20
3.124199424e+20
6.248398848e+19
2.082799616e+20
2.291079578e+20
2.291079578e+20
2.082799616e+20
2.082799616e+20
1.457959731e+20
1.666239693e+20
2.291079578e+20
1.24967977e+20
2.707639501e+20
2.915919462e+20
1.457959731e+20
1.874519654e+20
2.915919462e+20
1.041399808e+20
2.499359539e+20
1.874519654e+20
1.24967977e+20
1.666239693e+20
1.24967977e+20
2.915919462e+20
2.082799616e+20
2.707639501e+20
1.457959731e+20
1.457959731e+20
2.082799616e+20
2.707639501e+20
1.457959731e+20
2.915919462e+20
2.499359539e+20
2.499359539e+20
2.291079578e+20
2.082799616e+20
2.082799616e+20
1.457959731e+20
1.666239693e+20
2.707639501e+20
3.332479385e+20
2.082799616e+20
1.666239693e+20
1.24967977e+20
3.124199424e+20
1.24967977e+20
1.874519654e+20
3.124199424e+20
2.499359539e+20
1.874519654e+20
2.291079578e+20
2.707639501e+20
2.707639501e+20
1.041399808e+20
1.041399808e+20
1.874519654e+20
2.082799616e+20
2.082799616e+20
2.707639501e+20
6.248398848e+19
8.331198464e+19
1.457959731e+20
2.915919462e+20
1.874519654e+20
1.666239693e+20
1.457959731e+20
1.874519654e+20
2.915919462e+20
1.457959731e+20
1.24967977e+20
2.291079578e+20
2.707639501e+20
3.332479385e+20
1.874519654e+20
4.165599232e+19
3.540759347e+20
2.291079578e+20
1.24967977e+20
2.082799616e+20
2.291079578e+20
1.457959731e+20
2.499359539e+20
2.291079578e+20
1.457959731e+20
1.457959731e+20
1.457959731e+20
2.499359539e+20
1.24967977e+20
1.24967977e+20
2.915919462e+20
1.24967977e+20
2.499359539e+20
1.457959731e+20
1.874519654e+20
1.874519654e+20
2.082799616e+20
1.666239693e+20
1.666239693e+20
1.041399808e+20
2.082799616e+20
3.124199424e+20
2.291079578e+20
2.291079578e+20
2.082799616e+20
1.666239693e+20
1.457959731e+20
1.666239693e+20
1.874519654e+20
1.457959731e+20
1.874519654e+20
2.082799616e+20
2.707639501e+20
2.291079578e+20
2.499359539e+20
2.915919462e+20
1.24967977e+20
2.291079578e+20
1.666239693e+20
2.082799616e+20
1.24967977e+20
1.666239693e+20
2.707639501e+20
1.874519654e+20
2.291079578e+20
1.874519654e+20
1.666239693e+20
2.915919462e+20
1.874519654e+20
2.291079578e+20
2.291079578e+20
1.666239693e+20
1.24967977e+20
2.707639501e+20
1.457959731e+20
1.041399808e+20
1.666239693e+20
3.124199424e+20
1.666239693e+20
1.874519654e+20
3.124199424e+20
2.082799616e+20
2.082799616e+20
1.041399808e+20
1.041399808e+20
2.082799616e+20
1.874519654e+20
2.707639501e+20
2.082799616e+20
1.666239693e+20
1.874519654e+20
1.874519654e+20
3.124199424e+20
2.499359539e+20
3.124199424e+20
2.707639501e+20
2.915919462e+20
1.874519654e+20
1.457959731e+20
2.082799616e+20
2.291079578e+20
2.499359539e+20
1.457959731e+20
2.707639501e+20
2.082799616e+20
1.666239693e+20
2.499359539e+20
1.666239693e+20
1.874519654e+20
1.24967977e+20
2.707639501e+20
1.666239693e+20
1.24967977e+20
1.874519654e+20
3.332479385e+20
2.291079578e+20
1.041399808e+20
1.874519654e+20
1.24967977e+20
2.082799616e+20
1.666239693e+20
1.874519654e+20
1.457959731e+20
2.499359539e+20
2.082799616e+20
1.874519654e+20
3.749039309e+20
1.666239693e+20
2.291079578e+20
2.291079578e+20
1.666239693e+20
2.915919462e+20
1.666239693e+20
1.457959731e+20
1.666239693e+20
1.041399808e+20
2.915919462e+20
8.331198464e+19
1.874519654e+20
2.082799616e+20
2.082799616e+20
2.291079578e+20
1.666239693e+20
2.291079578e+20
2.499359539e+20
1.874519654e+20
1.457959731e+20
2.082799616e+20
1.874519654e+20
2.082799616e+20
2.291079578e+20
1.666239693e+20
2.499359539e+20
1.666239693e+20
2.499359539e+20
3.332479385e+20
1.457959731e+20
2.082799616e+20
1.457959731e+20
2.082799616e+20
1.874519654e+20
1.874519654e+20
1.874519654e+20
2.291079578e+20
1.457959731e+20
1.457959731e+20
1.874519654e+20
2.707639501e+20
3.124199424e+20
2.291079578e+20
2.291079578e+20
2.915919462e+20
1.041399808e+20
1.666239693e+20
1.457959731e+20
2.499359539e+20
2.707639501e+20
1.457959731e+20
1.666239693e+20
2.499359539e+20
2.499359539e+20
2.291079578e+20
1.666239693e+20
2.707639501e+20
1.874519654e+20
1.874519654e+20
1.24967977e+20
1.666239693e+20
2.082799616e+20
1.874519654e+20
1.457959731e+20
1.874519654e+20
1.666239693e+20
8.331198464e+19
2.082799616e+20
1.24967977e+20
1.24967977e+20
1.457959731e+20
1.24967977e+20
2.291079578e+20
2.082799616e+20
1.041399808e+20
1.874519654e+20
1.874519654e+20
1.666239693e+20
2.082799616e+20
2.082799616e+20
2.499359539e+20
2.707639501e+20
1.666239693e+20
2.291079578e+20
1.666239693e+20
2.291079578e+20
1.666239693e+20
1.874519654e+20
4.165599232e+20
3.124199424e+20
1.041399808e+20
1.457959731e+20
2.291079578e+20
2.082799616e+20
2.082799616e+20
1.666239693e+20
1.24967977e+20
3.749039309e+20
1.874519654e+20
1.874519654e+20
1.041399808e+20
2.082799616e+20
4.373879193e+20
2.082799616e+20
2.082799616e+20
8.331198464e+19
8.331198464e+19
2.082799616e+20
2.499359539e+20
2.499359539e+20
2.707639501e+20
1.874519654e+20
1.874519654e+20
8.331198464e+19
1.24967977e+20
2.915919462e+20
2.291079578e+20
1.666239693e+20
2.082799616e+20
1.24967977e+20
2.082799616e+20
1.666239693e+20
2.291079578e+20
1.666239693e+20
2.499359539e+20
1.666239693e+20
2.082799616e+20
2.291079578e+20
1.457959731e+20
2.082799616e+20
2.082799616e+20
1.874519654e+20
1.666239693e+20
2.082799616e+20
1.457959731e+20
1.666239693e+20
1.24967977e+20
1.24967977e+20
2.707639501e+20
1.666239693e+20
2.291079578e+20
1.874519654e+20
3.332479385e+20
1.457959731e+20
1.666239693e+20
2.082799616e+20
1.666239693e+20
1.457959731e+20
1.874519654e+20
2.291079578e+20
2.291079578e+20
1.457959731e+20
1.24967977e+20
2.915919462e+20
2.707639501e+20
1.874519654e+20
2.707639501e+20
2.291079578e+20
1.457959731e+20
2.499359539e+20
2.499359539e+20
1.457959731e+20
1.041399808e+20
1.874519654e+20
8.331198464e+19
1.666239693e+20
2.707639501e+20
1.457959731e+20
2.291079578e+20
2.707639501e+20
1.874519654e+20
5.434482967e+20
5.471851053e+20
7.628866045e+20
5.33476e+20
4.942437811e+20
7.141463582e+20
7.192317429e+20
6.365852151e+20
6.632935708e+20
5.122252883e+20
1.881167182e+20
4.419572004e+20
4.873997753e+20
5.974931202e+20
7.52110102e+20
4.977383712e+20
6.102572368e+20
5.268291439e+20
5.527446424e+20
4.676839589e+20
2.717241484e+20
3.577748764e+20
2.754868294e+20
3.627636801e+20
2.578663208e+20
5.410199684e+20
4.794878286e+20
6.146340012e+20
3.758663568e+20
4.676839589e+20
2.508222908e+20
1.262734859e+20
2.54295535e+20
2.774075199e+20
4.297772008e+20
3.029711823e+20
3.487184211e+20
3.512194293e+20
4.864152853e+20
4.008719647e+20
1.254111454e+20
2.735925526e+20
2.331042404e+20
3.200856003e+20
4.512660615e+20
3.246119812e+20
2.615388158e+20
4.390242866e+20
2.432076428e+20
2.895186414e+20
1.46313003e+20
3.788204574e+20
2.966781239e+20
3.200855999e+20
4.727549209e+20
2.380487859e+20
3.487184206e+20
2.19512143e+20
2.653174281e+20
4.00871965e+20
2.299204332e+20
2.525469716e+20
1.695303566e+20
3.200856003e+20
2.793551809e+20
3.678935787e+20
3.269235197e+20
3.29268215e+20
3.316467854e+20
4.676839589e+20
2.299204332e+20
2.735925527e+20
1.483390621e+20
2.560684799e+20
1.719108803e+20
2.164079873e+20
3.705133224e+20
3.29268215e+20
3.758663568e+20
4.008719647e+20
2.299204332e+20
2.525469716e+20
2.754868294e+20
2.560684801e+20
3.00844041e+20
2.380487861e+20
2.17949013e+20
1.536585003e+20
1.547684999e+20
2.672479765e+20
6.270557274e+19
1.683646478e+20
1.483390621e+20
3.414246401e+20
3.223329008e+20
2.813303837e+20
1.525643092e+20
1.97560929e+20
1.768782856e+20
2.672479765e+20
1.254111454e+20
1.894102287e+20
1.48339062e+20
2.560684801e+20
2.793551807e+20
1.082039937e+20
1.525643091e+20
2.634145718e+20
2.210978569e+20
1.781653177e+20
2.090185757e+20
2.104558098e+20
2.331042404e+20
1.707123199e+20
1.933997405e+20
2.164079875e+20
3.923082251e+20
1.975609302e+20
1.547685006e+20
1.558946536e+20
2.090185757e+20
1.894102292e+20
2.542955358e+20
2.987465601e+20
1.719108797e+20
1.514855909e+20
1.525643089e+20
2.414633556e+20
2.653174272e+20
2.227066471e+20
2.299204325e+20
1.894102275e+20
2.119129442e+20
2.133903993e+20
1.933997406e+20
1.731263895e+20
2.833337155e+20
8.78048572e+19
1.547684992e+20
3.340599682e+20
2.717241498e+20
1.683646482e+20
1.695303565e+20
1.066952004e+20
2.578663226e+20
3.246119826e+20
2.615388162e+20
1.536585012e+20
1.105489288e+20
1.55894653e+20
1.463130028e+20
1.683646482e+20
2.119129471e+20
1.707123206e+20
1.719108806e+20
2.380487872e+20
1.961541121e+20
2.195121415e+20
3.31646784e+20
1.113533235e+20
1.672148603e+20
2.315013897e+20
1.48339061e+20
1.066951997e+20
1.504220205e+20
1.731263895e+20
1.743592108e+20
2.634145734e+20
1.326587145e+20
2.227066471e+20
2.090185754e+20
1.894102292e+20
3.178694206e+20
1.920513594e+20
1.504220195e+20
3.895343764e+20
2.179490119e+20
1.756097144e+20
1.989880718e+20
2.895186412e+20
2.299204345e+20
2.735925533e+20
1.695303565e+20
2.347294409e+20
1.289331604e+20
1.947671882e+20
1.743592108e+20
2.634145716e+20
1.989880704e+20
2.895186433e+20
2.71724148e+20
1.683646482e+20
1.695303565e+20
1.707123195e+20
2.578663208e+20
8.656319536e+19
3.269235202e+20
1.317072858e+20
1.989880718e+20
2.227066471e+20
1.672148603e+20
2.104558088e+20
3.602520076e+20
1.707123206e+20
1.719108806e+20
1.298447921e+20
1.089745067e+20
1.975609301e+20
3.758663579e+20
2.227066471e+20
2.926260055e+20
8.418232352e+19
2.331042402e+20
1.493732806e+20
)
;

boundaryField
{
    flow
    {
        type            zeroGradient;
    }
    obstacle
    {
        type            calculated;
        value           nonuniform List<scalar> 10(233.4564464 144.7316255 631.1717111 1902.489596 94.66281433 119.367349 130.1982662 125.1453099 108.3167117 331.3426615);
    }
    frontAndBack
    {
        type            empty;
    }
    procBoundary0to1
    {
        type            processor;
        value           nonuniform List<scalar> 
21
(
6.05715357e+20
6.505831617e+20
5.159797486e+20
3.589424338e+20
4.486780422e+20
4.71111945e+20
3.140746296e+20
3.589424338e+20
2.692068255e+20
3.589424338e+20
2.01905119e+20
2.692068263e+20
2.467729225e+20
8.973560819e+19
2.243390221e+20
2.692068246e+20
2.243390205e+20
1.346034132e+20
2.467729243e+20
2.467729225e+20
2.019051199e+20
)
;
    }
    procBoundary0to2
    {
        type            processor;
        value           nonuniform List<scalar> 
31
(
1.666239693e+20
2.291079578e+20
1.666239693e+20
2.291079578e+20
2.915919462e+20
1.457959731e+20
1.457959731e+20
1.666239693e+20
1.874519654e+20
1.666239693e+20
2.082799616e+20
1.457959731e+20
1.874519654e+20
1.666239693e+20
1.24967977e+20
2.082799616e+20
1.666239693e+20
2.082799616e+20
1.24967977e+20
2.291079578e+20
1.504220205e+20
6.492239607e+19
2.615388143e+20
2.853657859e+20
1.768782861e+20
2.227066471e+20
2.090185754e+20
2.315013913e+20
2.119129457e+20
1.504220205e+20
1.920513594e+20
)
;
    }
}


// ************************************************************************* //
