/*--------------------------------*- C++ -*----------------------------------*\
| =========                 |                                                 |
| \\      /  F ield         | OpenFOAM: The Open Source CFD Toolbox           |
|  \\    /   O peration     | Version:  2406                                  |
|   \\  /    A nd           | Website:  www.openfoam.com                      |
|    \\/     M anipulation  |                                                 |
\*---------------------------------------------------------------------------*/
FoamFile
{
    version     2.0;
    format      ascii;
    arch        "LSB;label=32;scalar=64";
    class       volScalarField;
    location    "0.008";
    object      iDofMean;
}
// * * * * * * * * * * * * * * * * * * * * * * * * * * * * * * * * * * * * * //

dimensions      [0 -3 0 0 0 0 0];

internalField   nonuniform List<scalar> 
654
(
1.527681448e+20
1.961424468e+20
1.969130827e+20
1.971265696e+20
1.978451355e+20
1.980430015e+20
1.979076195e+20
1.987147044e+20
1.979648965e+20
1.969391177e+20
1.972046746e+20
1.969755667e+20
1.966214907e+20
1.971890536e+20
1.982044185e+20
1.995269962e+20
1.992093693e+20
2.032916565e+20
2.134296836e+20
2.727686447e+20
1.543562795e+20
1.989542263e+20
2.011619939e+20
2.000112471e+20
1.997404832e+20
2.00443428e+20
1.995530312e+20
1.996103082e+20
1.991833343e+20
1.998654511e+20
2.00781883e+20
2.015316908e+20
2.016254168e+20
2.020836327e+20
2.015264838e+20
2.029844436e+20
2.052234532e+20
2.111802601e+20
2.246872156e+20
2.60209363e+20
1.555590963e+20
2.00802711e+20
2.009745419e+20
2.00547568e+20
1.995998942e+20
2.003705301e+20
2.010474399e+20
2.003757371e+20
2.00844367e+20
1.999123141e+20
1.998810721e+20
1.995269962e+20
1.988240513e+20
2.002507691e+20
2.012921689e+20
2.010266119e+20
2.029792366e+20
2.073479088e+20
2.154708273e+20
2.372464973e+20
1.560277262e+20
1.990687803e+20
2.00677743e+20
2.00604845e+20
1.992718533e+20
1.989906753e+20
1.988865353e+20
1.990791943e+20
1.983918704e+20
1.991260573e+20
1.986574274e+20
1.992197833e+20
1.997144482e+20
1.977305815e+20
1.985793224e+20
1.987511534e+20
1.998290022e+20
2.032552075e+20
2.105293852e+20
2.255099214e+20
1.551946064e+20
1.991677133e+20
1.977618235e+20
1.984595614e+20
1.990062963e+20
1.990271243e+20
1.983554214e+20
1.979128265e+20
1.971369836e+20
1.975223016e+20
1.969703597e+20
1.972515376e+20
1.986470134e+20
1.988709143e+20
1.988240513e+20
2.017191428e+20
2.030313066e+20
2.066814129e+20
2.11273986e+20
2.188605836e+20
1.543666935e+20
1.976576836e+20
2.001674571e+20
1.986678414e+20
1.987094974e+20
1.983606284e+20
1.981627625e+20
1.994072352e+20
1.996727922e+20
2.002091131e+20
1.998758651e+20
1.995322032e+20
1.983137654e+20
1.978815845e+20
2.002039061e+20
1.998081742e+20
2.00610052e+20
2.029271666e+20
2.053223861e+20
2.108522191e+20
1.552622974e+20
1.999279351e+20
2.009537139e+20
2.001153871e+20
2.013129969e+20
2.014639999e+20
2.011932359e+20
2.002507691e+20
2.012400989e+20
2.025782976e+20
2.016410378e+20
2.019118018e+20
2.023648107e+20
2.016983148e+20
2.018805598e+20
2.00708985e+20
2.019899068e+20
2.032083445e+20
2.06311716e+20
2.096598163e+20
1.549186354e+20
1.981835905e+20
1.996259292e+20
1.997300692e+20
1.999591771e+20
1.997508972e+20
2.00828746e+20
2.017555918e+20
2.021929797e+20
2.009485069e+20
2.00828746e+20
1.996571712e+20
2.001258011e+20
2.0078709e+20
2.002247341e+20
2.017035218e+20
2.018961808e+20
2.035051435e+20
2.048277212e+20
2.0621799e+20
1.553560234e+20
2.009953699e+20
2.016254168e+20
2.010734749e+20
2.002611831e+20
1.998758651e+20
2.00531947e+20
2.00833953e+20
1.992354043e+20
1.991364713e+20
2.00854781e+20
2.013598599e+20
2.00443428e+20
2.000945591e+20
1.995634452e+20
2.009328859e+20
2.027084726e+20
2.025991256e+20
2.038123564e+20
2.070406958e+20
1.547728395e+20
1.976576836e+20
1.998029672e+20
1.998966931e+20
2.003340811e+20
2.00698571e+20
2.00386151e+20
2.003132531e+20
2.014431719e+20
2.016983148e+20
2.00870402e+20
2.013442389e+20
2.022867057e+20
2.022033937e+20
2.023596037e+20
2.027032656e+20
2.028334406e+20
2.015056558e+20
2.027345076e+20
2.037134234e+20
1.558142393e+20
1.993395442e+20
1.997613112e+20
1.995269962e+20
1.987251184e+20
1.974129546e+20
1.965017298e+20
1.968193567e+20
1.970744997e+20
1.982929374e+20
1.991208503e+20
1.989073633e+20
2.000164541e+20
1.999695911e+20
1.997456902e+20
1.975327156e+20
1.986574274e+20
2.00391358e+20
2.027345076e+20
2.040674994e+20
1.553872653e+20
2.00417393e+20
2.016358308e+20
2.00531947e+20
2.019170088e+20
2.018649388e+20
2.029584086e+20
2.028542686e+20
2.031823095e+20
2.014692068e+20
2.003288741e+20
1.990531593e+20
1.982096255e+20
1.997821392e+20
2.00610052e+20
2.027657496e+20
2.035572135e+20
2.022710847e+20
2.019274228e+20
2.022814987e+20
1.557465483e+20
1.995842732e+20
2.00469463e+20
2.00386151e+20
1.991416783e+20
1.992406113e+20
1.996623782e+20
1.988136373e+20
1.977774445e+20
1.981575555e+20
1.991677133e+20
1.995946872e+20
2.0052674e+20
2.002507691e+20
1.986418064e+20
2.001622501e+20
2.00766262e+20
2.016879008e+20
2.026199536e+20
2.019430438e+20
1.557934113e+20
2.00792297e+20
2.020784257e+20
2.026772306e+20
2.030521346e+20
2.030104786e+20
2.014744138e+20
2.024116737e+20
2.018961808e+20
2.018128688e+20
2.0083916e+20
2.012869619e+20
2.00448635e+20
2.001934921e+20
2.00859988e+20
1.987823953e+20
1.978972055e+20
1.972931936e+20
1.976056136e+20
2.001466291e+20
1.536481277e+20
1.986626344e+20
1.993864072e+20
1.983450074e+20
1.992770603e+20
1.996884132e+20
2.003028391e+20
2.00417393e+20
2.015525188e+20
2.020003208e+20
2.016202098e+20
2.017399708e+20
2.031042045e+20
2.019899068e+20
2.013077899e+20
2.00755848e+20
2.00594431e+20
2.00677743e+20
1.996884132e+20
1.992354043e+20
1.556267873e+20
1.997300692e+20
2.00563189e+20
2.00464256e+20
1.988969493e+20
1.994488912e+20
2.002507691e+20
1.993395442e+20
1.996988272e+20
1.991833343e+20
1.991885413e+20
1.985793224e+20
1.960226859e+20
1.968558057e+20
1.976837185e+20
1.991416783e+20
2.00500705e+20
1.999331421e+20
2.010630609e+20
1.999539701e+20
1.556892713e+20
1.984074914e+20
1.986522204e+20
1.988032233e+20
1.990219173e+20
1.994540982e+20
1.977670305e+20
1.985741154e+20
1.979024125e+20
1.976837185e+20
1.983658354e+20
1.989333983e+20
1.992874743e+20
2.00495498e+20
1.996363432e+20
1.991312643e+20
1.991364713e+20
1.999175211e+20
1.992926813e+20
1.992926813e+20
1.544083495e+20
1.988136373e+20
2.000737311e+20
2.009849559e+20
2.000997661e+20
1.987199114e+20
1.998966931e+20
1.996936202e+20
1.992666463e+20
1.992249903e+20
1.989125703e+20
1.987147044e+20
1.993187162e+20
1.994176492e+20
1.994384772e+20
1.994801332e+20
2.001674571e+20
1.994436842e+20
2.001205941e+20
2.001830781e+20
1.555122333e+20
1.999956261e+20
2.0078709e+20
1.986365994e+20
1.996311362e+20
2.009693349e+20
2.002455621e+20
2.003080461e+20
1.998185882e+20
1.997352762e+20
2.002403551e+20
2.002663901e+20
1.987355324e+20
1.986470134e+20
1.984387334e+20
1.983293864e+20
1.986365994e+20
1.988657073e+20
1.987303254e+20
1.986418064e+20
1.546166295e+20
1.993812002e+20
2.023335687e+20
2.024429157e+20
2.017764198e+20
2.013911019e+20
2.00844367e+20
2.00557982e+20
2.00865195e+20
2.00552775e+20
2.00745434e+20
2.0068295e+20
2.014483789e+20
2.00766262e+20
2.013963089e+20
2.00766262e+20
2.011099239e+20
2.014587929e+20
2.021148747e+20
2.019899068e+20
1.549186354e+20
1.985584944e+20
1.983293864e+20
1.986782554e+20
1.990010893e+20
1.995842732e+20
1.992822673e+20
1.977826515e+20
1.984699754e+20
1.992145763e+20
2.001726641e+20
2.00505912e+20
1.999800051e+20
2.012505129e+20
2.013911019e+20
2.023856387e+20
2.018180758e+20
2.017139358e+20
2.010109909e+20
2.003392881e+20
1.546270435e+20
1.985949434e+20
1.994280632e+20
1.979180335e+20
1.984751824e+20
1.980169665e+20
2.001518361e+20
2.014119299e+20
2.028386476e+20
2.026511956e+20
2.010370259e+20
1.999643841e+20
2.002091131e+20
2.011151309e+20
2.00901644e+20
2.001934921e+20
2.000997661e+20
1.997248622e+20
2.009276789e+20
2.00901644e+20
4.827127241e+20
5.548877879e+20
5.811182753e+20
5.991575651e+20
6.07500818e+20
6.171090167e+20
6.234431517e+20
6.27118754e+20
6.10810467e+20
6.150990562e+20
3.290997475e+20
3.953991139e+20
4.410120315e+20
4.763567248e+20
5.044402454e+20
5.226739816e+20
5.319971949e+20
5.442693837e+20
5.488533201e+20
5.476078068e+20
2.725131935e+20
3.166991638e+20
3.544879755e+20
3.930064346e+20
4.226052944e+20
4.511781924e+20
4.731073713e+20
4.920035424e+20
5.028318012e+20
5.118522546e+20
2.46312715e+20
2.72650763e+20
3.010700199e+20
3.324835821e+20
3.627803074e+20
3.919689671e+20
4.213335835e+20
4.396114816e+20
4.564012512e+20
4.742760756e+20
2.310021044e+20
2.487114145e+20
2.684937023e+20
2.920727755e+20
3.174280687e+20
3.3947921e+20
3.639911982e+20
3.843986897e+20
4.122535369e+20
4.381641931e+20
2.198718652e+20
2.32237986e+20
2.460362277e+20
2.626995866e+20
2.805585567e+20
3.047240868e+20
3.308248066e+20
3.517243067e+20
3.743905283e+20
3.959278774e+20
2.158064539e+20
2.239775954e+20
2.322300995e+20
2.456176854e+20
2.58070465e+20
2.755468803e+20
2.949503995e+20
3.154773645e+20
3.396284181e+20
3.623826885e+20
2.103928728e+20
2.159644906e+20
2.22180128e+20
2.315125796e+20
2.414219703e+20
2.533217798e+20
2.702676738e+20
2.857718838e+20
3.052200641e+20
3.243833668e+20
2.078114934e+20
2.126235045e+20
2.164796696e+20
2.243906752e+20
2.309515236e+20
2.397908704e+20
2.494535428e+20
2.607804262e+20
2.763833761e+20
2.928759439e+20
2.070328993e+20
2.104663326e+20
2.147790684e+20
2.167619684e+20
2.209860646e+20
2.28613398e+20
2.3796763e+20
2.465725028e+20
2.546107646e+20
2.660954696e+20
2.057578859e+20
2.072726655e+20
2.110123156e+20
2.144893606e+20
2.179776242e+20
2.212771671e+20
2.261057548e+20
2.347682371e+20
2.42395108e+20
2.522932251e+20
2.023926868e+20
2.024690118e+20
2.035211931e+20
2.06097783e+20
2.078939766e+20
2.125505151e+20
2.169137561e+20
2.23666412e+20
2.309201304e+20
2.380177301e+20
2.024553924e+20
2.043052392e+20
2.049198193e+20
2.069300057e+20
2.082592864e+20
2.124477209e+20
2.166304212e+20
2.183212881e+20
2.209873071e+20
2.286863205e+20
2.019119434e+20
2.021585881e+20
2.040456762e+20
2.03995887e+20
2.051863804e+20
2.058310465e+20
2.081413064e+20
2.117688521e+20
2.159352211e+20
2.195609141e+20
1.993305657e+20
1.995173695e+20
2.008828768e+20
2.030836444e+20
2.029622848e+20
2.056795624e+20
2.056512404e+20
2.080536106e+20
2.108278621e+20
2.142215238e+20
2.019955512e+20
2.024953192e+20
2.011371737e+20
2.01227148e+20
2.036714158e+20
2.043107818e+20
2.055913044e+20
2.073676322e+20
2.099711064e+20
2.108920594e+20
1.984004318e+20
2.001960881e+20
1.998233108e+20
2.007576877e+20
2.000451706e+20
2.016219112e+20
2.030467497e+20
2.039048311e+20
2.036753464e+20
2.082919593e+20
2.006055777e+20
1.990333211e+20
1.995531245e+20
1.994880148e+20
2.017589058e+20
2.020709578e+20
2.021858497e+20
2.033999517e+20
2.040843774e+20
2.050014686e+20
1.994716533e+20
2.015956206e+20
2.023662675e+20
2.026195203e+20
2.017159295e+20
2.01400093e+20
2.017771967e+20
2.023517812e+20
2.033271158e+20
2.052241767e+20
2.015409358e+20
2.012904597e+20
2.007769204e+20
2.005656363e+20
2.014526909e+20
2.025903383e+20
2.030903395e+20
2.035755614e+20
2.022105731e+20
2.024793159e+20
2.001823151e+20
1.999803709e+20
1.995213362e+20
1.993919905e+20
1.991318941e+20
1.9833792e+20
1.9800123e+20
1.996353198e+20
2.028462294e+20
2.032309508e+20
2.006944106e+20
2.0035393e+20
2.00517327e+20
2.018299758e+20
)
;

boundaryField
{
    flow
    {
        type            calculated;
        value           nonuniform List<scalar> 
42
(
1.527681448e+20
1.543562795e+20
1.555590963e+20
1.560277262e+20
1.551946064e+20
1.543666935e+20
1.552622974e+20
1.549186354e+20
1.553560234e+20
1.547728395e+20
1.558142393e+20
1.553872653e+20
1.557465483e+20
1.557934113e+20
1.536481277e+20
1.556267873e+20
1.556892713e+20
1.544083495e+20
1.555122333e+20
1.546166295e+20
1.549186354e+20
1.546270435e+20
1.527681448e+20
1.961424468e+20
1.969130827e+20
1.971265696e+20
1.978451355e+20
1.980430015e+20
1.979076195e+20
1.987147044e+20
1.979648965e+20
1.969391177e+20
1.972046746e+20
1.969755667e+20
1.966214907e+20
1.971890536e+20
1.982044185e+20
1.995269962e+20
1.992093693e+20
2.032916565e+20
2.134296836e+20
2.727686447e+20
)
;
    }
    obstacle
    {
        type            calculated;
        value           nonuniform List<scalar> 10(278.7742681 287.8191282 290.7954349 275.934998 302.7744248 289.7370333 284.6886765 287.6306846 280.4995252 276.6626817);
    }
    frontAndBack
    {
        type            empty;
    }
    procBoundary0to1
    {
        type            processor;
        value           nonuniform List<scalar> 
21
(
6.090355745e+20
5.504270057e+20
5.146449314e+20
4.835066753e+20
4.494688373e+20
4.201252939e+20
3.828233226e+20
3.43070448e+20
3.121621396e+20
2.818258953e+20
2.65039728e+20
2.476758887e+20
2.344679272e+20
2.224265303e+20
2.189661025e+20
2.118713794e+20
2.10486086e+20
2.069583563e+20
2.063245986e+20
2.043448053e+20
2.024715759e+20
)
;
    }
    procBoundary0to2
    {
        type            processor;
        value           nonuniform List<scalar> 
31
(
1.545124895e+20
1.994124422e+20
2.016254168e+20
2.00438221e+20
2.00459049e+20
2.002143201e+20
2.002091131e+20
1.992041623e+20
1.984439404e+20
1.994905472e+20
2.001882851e+20
2.013650669e+20
2.00651708e+20
1.992926813e+20
1.992197833e+20
1.991625063e+20
1.996363432e+20
1.990531593e+20
1.977462025e+20
1.977462025e+20
2.020651235e+20
2.021358802e+20
2.026762349e+20
2.025877568e+20
2.024427258e+20
2.033590071e+20
1.983795299e+20
1.991753788e+20
2.001517772e+20
2.020651235e+20
1.988478436e+20
)
;
    }
}


// ************************************************************************* //
