/*--------------------------------*- C++ -*----------------------------------*\
| =========                 |                                                 |
| \\      /  F ield         | OpenFOAM: The Open Source CFD Toolbox           |
|  \\    /   O peration     | Version:  2406                                  |
|   \\  /    A nd           | Website:  www.openfoam.com                      |
|    \\/     M anipulation  |                                                 |
\*---------------------------------------------------------------------------*/
FoamFile
{
    version     2.0;
    format      ascii;
    arch        "LSB;label=32;scalar=64";
    class       volScalarField;
    location    "0.008";
    object      internalT;
}
// * * * * * * * * * * * * * * * * * * * * * * * * * * * * * * * * * * * * * //

dimensions      [1 2 -2 0 0 0 0];

internalField   nonuniform List<scalar> 
654
(
297.8617801
299.5004103
299.4527963
298.124074
298.7716897
298.5799796
297.8045961
297.0901504
296.8054128
297.0880866
297.5801019
300.1838963
299.0705575
299.6671483
301.5593804
302.3734828
305.9866202
310.0107245
336.1801333
426.5784586
300.4850524
299.7000225
300.4342089
300.0016478
300.979726
301.2420638
301.2389059
300.5890994
301.8894478
303.5066281
302.6640451
300.8864957
302.7845044
301.8192189
300.1065057
302.4766916
308.7994926
321.324473
354.2309015
420.8648969
298.2999986
297.2044849
297.0731789
295.4998586
296.3367424
297.6922882
296.761599
297.0572014
296.3060613
297.0308024
296.7461153
297.6768125
298.6401922
300.1547771
303.8940643
304.6601289
308.9838855
319.279846
346.2753621
394.9196471
298.3426929
298.0380285
299.4415279
298.9330521
299.9047784
296.6751197
298.0417434
298.5796172
298.7476591
295.0183254
295.3995015
298.0471182
298.9440176
299.8772104
300.6198008
305.9346614
308.9295657
317.4968606
333.4032338
367.1381655
296.7367426
298.2287547
296.6419651
299.9199799
299.1489897
298.9804861
298.3812359
300.0523745
301.6091105
302.6500031
304.5976399
303.8205175
303.4849118
304.268421
305.795472
305.9481861
308.677522
316.2559337
334.0522407
352.6731082
299.9905313
299.5286573
298.3978363
296.5399778
297.2846333
297.9394152
297.6501102
296.59763
295.3479256
298.2399163
298.3485159
298.6576976
298.900748
299.6469106
297.9499669
303.4014973
306.1587476
316.6053128
319.6812295
336.0608435
297.5381881
298.9516743
299.0498356
297.9552929
298.2273992
299.4248289
298.6781086
298.1331655
300.3055224
299.6730636
300.9018458
298.8860259
302.4619772
302.5748327
305.6082494
306.7963001
308.3474028
309.7232961
313.0158129
325.1718975
301.0705969
301.7208218
301.1331129
302.4328749
300.4962663
300.5427508
300.3340799
300.4933578
300.7885187
299.8126363
297.7482066
299.3414358
298.8487485
298.6884844
298.1717582
300.0446549
305.1715231
312.1196999
317.3833348
319.8664777
302.8990312
302.1328966
301.6634146
300.6598934
300.3675138
299.2917975
298.1744687
298.2609258
300.8952727
302.4959959
302.0263247
301.4756467
302.3932537
301.0929626
302.5931995
304.6302295
305.985212
308.0780437
309.6501408
316.8231083
301.2670203
302.7312071
302.7343944
303.2462602
304.0305981
305.48241
304.4241408
303.8725507
300.3900687
300.4243912
300.4082099
300.2580315
302.9222447
304.3137285
302.8075654
303.9319515
304.6161072
306.5474863
311.2001575
314.9274353
302.4258196
301.5967675
302.3592046
302.5766306
302.5830428
302.0367062
301.2430921
299.958153
300.459708
300.1080769
299.1377589
299.4453591
299.2286033
298.3219457
297.9928678
300.1316885
301.5363656
305.365367
304.6011305
307.3569305
301.5440512
302.45617
300.9197882
302.398439
302.796103
302.9266723
301.9210428
301.3286826
301.7956726
301.9302954
302.9160646
304.5706061
304.2087243
304.3414678
303.6722746
300.7734515
300.0502873
301.6304401
303.4978005
309.2691259
296.5209042
296.5394361
296.8860819
296.3711924
295.1382843
295.9249266
298.6964494
302.0893623
301.5575702
300.8265668
297.6740686
297.5425102
298.6743166
299.0361748
299.7226488
298.5807206
301.5716705
302.4291717
301.570911
303.4037055
297.0100206
295.8266977
295.9714378
298.6715558
301.7223572
301.3011177
300.4486392
299.8251276
298.2051729
299.0055804
300.3749647
299.4211769
300.0947544
301.0099187
301.9339324
302.9549563
301.7137177
301.5043174
302.2123441
302.9023023
298.521468
301.5339029
302.2055749
300.1948398
297.52217
298.3512539
295.7021505
297.2807922
295.7784571
297.9284178
299.8994692
299.6265744
298.551984
297.7205649
297.7933387
297.3744067
297.2051563
299.0129586
299.4294449
301.67027
299.6836086
297.9113475
297.2668371
295.5435629
294.4627292
295.869063
297.9585693
299.2074367
296.934546
298.0525633
297.0168426
298.3424752
298.4561341
297.6081373
296.1245422
296.800708
299.0288007
299.1610496
299.2539145
303.255936
298.9240402
299.4956368
299.2865712
299.305416
301.4993217
299.8595593
298.8429629
297.6272794
298.9297458
298.4089037
298.544587
297.967769
298.7709094
298.4940842
298.4050449
297.4473647
298.0785352
299.9131054
300.294628
302.9028023
304.811202
303.1132375
303.3583275
302.057728
301.7551517
300.8479057
300.9193017
301.4142114
301.4489767
299.8265418
298.9007562
298.7549439
298.1605184
299.5445177
301.5509998
299.827711
299.1269516
299.2115491
301.9216581
300.6502936
296.1235474
297.6878066
298.3040139
299.0124563
297.0475995
298.2334348
296.4521795
294.9389729
296.1209542
297.1319416
299.0770941
298.9249155
297.662492
297.0467861
296.9648002
297.6147184
299.540767
299.7829576
299.2734766
301.5111051
297.2851685
297.3754813
298.163815
297.1948749
300.1595681
299.1241542
299.0626216
299.2991844
299.1363946
296.1069394
296.4756218
298.9560588
300.8024411
301.7798077
303.182468
302.7298181
302.9745044
303.1047738
300.5161259
299.5265398
302.1843995
301.2676457
301.5075037
298.6840643
298.2087411
298.742091
298.9072363
301.8410785
302.8239329
304.0657362
302.5967256
301.2166288
301.2858286
299.6520296
299.625286
300.2444882
301.2826852
301.8496822
300.7477071
302.098259
299.6645865
298.993703
299.4247316
300.9138697
300.7515362
301.4391972
302.23531
302.0827808
301.334722
300.6243755
302.0769708
300.9711176
299.4553279
301.7764823
301.8776132
301.1988605
300.6812476
300.097402
300.1352733
299.1499459
546.4037478
604.8385099
632.6136689
656.192702
671.2215601
682.0551995
700.560118
703.2303292
704.5082088
702.3627935
507.1304855
572.0696057
616.1759685
651.2084539
679.8630316
697.9821833
728.8750534
741.1050309
746.6684613
756.3177695
454.6031928
509.7183931
553.876207
603.185319
634.6882381
667.9077747
694.7863741
722.8018663
738.0524538
751.1457769
407.7723245
454.267933
498.2062235
539.0994276
579.7545653
616.680596
641.5797143
668.9383787
691.0661712
713.2786532
383.9396394
416.2231731
452.787512
490.1995085
524.3198183
563.2507933
599.5561807
615.344021
647.1886048
669.5984549
362.2268838
387.1610221
411.1510379
448.5269892
476.6478155
511.185131
553.6552132
577.3373891
604.1579401
633.4073408
345.4557129
366.9498472
376.2159243
407.7859828
431.4634297
455.0058462
488.422644
519.3241972
544.0883972
570.3048811
327.9832896
345.0154491
355.6459723
374.9665968
398.0983456
419.7803988
442.809218
474.0421551
493.2466978
518.2611998
324.61623
333.1459057
337.7768926
355.323951
375.8667603
395.5245714
409.0581576
432.8806312
450.5993381
474.7603598
318.6142968
325.1080603
335.3593128
344.625926
356.4480949
373.8691633
387.9786454
403.4592948
417.2448422
434.0063511
313.5138706
322.6527254
324.1005205
332.01799
338.7229397
353.6671135
364.1112025
373.792219
391.0954344
410.9777267
307.1537006
311.8927167
317.2406449
317.6916262
324.6770148
331.1288702
340.9486118
350.8062369
362.1374874
380.4789633
305.0936157
306.7164059
310.1828265
317.8833381
319.2147902
325.1789735
332.7598499
337.5352154
345.4073457
355.0409862
306.9048901
307.5386218
309.3875173
311.6838444
315.4264788
315.3443401
323.8416083
331.0030576
336.8314473
340.5218107
302.5576984
304.255327
306.2850715
309.3299322
315.4899946
315.3851185
318.9085784
323.538585
332.7172254
337.5336476
302.4972439
304.5303362
303.5605578
304.582917
307.9715891
315.1874164
314.4411813
317.0808573
322.8894315
327.554203
304.3971538
303.4439351
306.8096596
307.4342585
304.8875571
311.0265317
312.2268493
316.2978781
318.2927622
318.5919074
303.8669581
304.98478
305.3808552
302.6827014
304.6031608
305.8752951
306.9457437
310.1626627
314.562391
316.6513086
300.6128577
302.1833945
304.7639905
305.123654
303.4923279
303.8751667
305.5713507
309.2260192
309.6741364
313.6347434
301.2280408
300.8199394
301.8988859
301.9014891
303.1828504
303.8182541
306.1421315
306.8054586
309.3892806
312.8019274
302.5826753
301.9873252
302.4347724
301.6946485
301.8815529
301.9463403
305.4957893
305.7214858
306.6289699
308.189021
300.0258109
298.3732451
299.7874711
302.0676833
)
;

boundaryField
{
    flow
    {
        type            calculated;
        value           nonuniform List<scalar> 
42
(
297.8617801
300.4850524
298.2999986
298.3426929
296.7367426
299.9905313
297.5381881
301.0705969
302.8990312
301.2670203
302.4258196
301.5440512
296.5209042
297.0100206
298.521468
299.6836086
298.9240402
304.811202
296.1235474
297.2851685
302.1843995
299.6645865
297.8617801
299.5004103
299.4527963
298.124074
298.7716897
298.5799796
297.8045961
297.0901504
296.8054128
297.0880866
297.5801019
300.1838963
299.0705575
299.6671483
301.5593804
302.3734828
305.9866202
310.0107245
336.1801333
426.5784586
)
;
    }
    obstacle
    {
        type            calculated;
        value           nonuniform List<scalar> 10(533.526418 582.5706963 588.6570961 593.3061069 601.7099559 611.2799967 624.4466154 630.307988 639.3420216 607.7223853);
    }
    frontAndBack
    {
        type            empty;
    }
    procBoundary0to1
    {
        type            processor;
        value           nonuniform List<scalar> 
21
(
705.7939622
758.3736573
768.2038328
729.8774846
686.4600679
651.7979444
600.6100104
555.7754775
503.958657
456.2746677
429.2075298
402.4340153
370.6467998
356.6238501
335.8020711
333.5706077
323.6256272
321.892136
313.4891249
315.4641083
307.2240783
)
;
    }
    procBoundary0to2
    {
        type            processor;
        value           nonuniform List<scalar> 
31
(
301.494529
304.5506287
303.791724
302.088901
301.1762928
299.6040954
298.8035703
298.4888904
297.7558009
297.3565334
297.7752161
299.6951222
299.9141849
298.2773624
298.6806298
297.5041096
295.3759785
295.609371
295.9262605
297.5620457
305.1557743
305.4246325
305.9925813
304.1573005
304.4728871
302.5701275
297.2533241
299.5777129
300.5434573
305.1557743
301.141771
)
;
    }
}


// ************************************************************************* //
