/*--------------------------------*- C++ -*----------------------------------*\
| =========                 |                                                 |
| \\      /  F ield         | OpenFOAM: The Open Source CFD Toolbox           |
|  \\    /   O peration     | Version:  2406                                  |
|   \\  /    A nd           | Website:  www.openfoam.com                      |
|    \\/     M anipulation  |                                                 |
\*---------------------------------------------------------------------------*/
FoamFile
{
    version     2.0;
    format      ascii;
    arch        "LSB;label=32;scalar=64";
    class       volScalarField;
    location    "0.008";
    object      internalEMean;
}
// * * * * * * * * * * * * * * * * * * * * * * * * * * * * * * * * * * * * * //

dimensions      [1 -1 -2 0 0 0 0];

internalField   nonuniform List<scalar> 
654
(
0.3141240491
0.4055296491
0.4070582354
0.4056914112
0.4080547347
0.4082007378
0.4068623588
0.4075415193
0.4056146249
0.4038971848
0.4051116151
0.4081815311
0.4059366341
0.4079205076
0.412610025
0.4164846199
0.4207903762
0.4350607201
0.4953138448
0.8032430343
0.3201848485
0.4116172305
0.4172044339
0.4142205677
0.4150084506
0.4168319858
0.4149760115
0.4141997134
0.4151017197
0.4187545218
0.4195067532
0.4186004072
0.4214368675
0.4210480232
0.4175044793
0.423846178
0.4374789596
0.4684364983
0.5494376403
0.7559955257
0.3203334303
0.4119822755
0.4121526462
0.4090988689
0.4083188323
0.4117703134
0.4118697075
0.4109025341
0.410822095
0.4099157794
0.4094588988
0.4100154979
0.4098932599
0.4149282974
0.422282125
0.4227881207
0.4329532922
0.4570090144
0.515066937
0.6467882938
0.3213444375
0.4095702837
0.4148249214
0.4139700824
0.4125560372
0.4075373844
0.4092004277
0.4103360117
0.409149462
0.4055371922
0.4051055253
0.4098934627
0.4121477688
0.4093274853
0.4121024615
0.4197511968
0.4261589318
0.4454866749
0.4845472484
0.5715428404
0.3179080684
0.4100360618
0.4049754056
0.4108951614
0.4109679549
0.4107794539
0.4085725499
0.4099440721
0.4104555805
0.4126771492
0.4141722655
0.4137053127
0.4161718929
0.4177166176
0.4197141113
0.426038256
0.4326349655
0.451225574
0.487207558
0.5328359272
0.319679473
0.4087009834
0.4123279201
0.4066908722
0.4077976205
0.4079782756
0.4071755551
0.4082838394
0.4071049824
0.4121954676
0.4116592134
0.4113772895
0.409197964
0.4093254852
0.4117840205
0.4184895063
0.423987414
0.4435187568
0.4531135412
0.4891585971
0.3189057307
0.4125989062
0.4148520177
0.4116093103
0.4144507757
0.4164269842
0.4148302037
0.4121336598
0.4171876488
0.4190773862
0.4188488982
0.4166015835
0.4225317841
0.4212972973
0.4259054279
0.425079865
0.4299555556
0.4344792217
0.4458038046
0.4706323845
0.3219775623
0.4127875362
0.414981815
0.4169903953
0.4147954871
0.4144275298
0.4163744709
0.4185179203
0.4198372117
0.4158994237
0.412789491
0.412577322
0.4128650557
0.4140071735
0.4121334203
0.4177851289
0.4253297005
0.4384803871
0.448772725
0.4553537096
0.3248475398
0.4192158257
0.4198764556
0.4173341116
0.4152439741
0.4129607469
0.4127695255
0.4135110311
0.4138428742
0.4158378713
0.4187748321
0.4190624399
0.4184249001
0.4159005418
0.4168633918
0.4225495283
0.4281795691
0.4308756148
0.4356677307
0.4528205945
0.3218844108
0.4130707998
0.4175584723
0.4184606882
0.4204610144
0.4232374509
0.4211146925
0.4201987507
0.4177262073
0.4183030787
0.4165636284
0.4173375307
0.4230114371
0.4247795368
0.4230036777
0.4252954197
0.4265265039
0.4264210166
0.4355330196
0.4428776308
0.3252966655
0.4150245095
0.4169540299
0.4167644326
0.4150982971
0.4116128985
0.4086364249
0.4075511101
0.4087617738
0.4108076589
0.4111890827
0.4111705953
0.4131639596
0.4118155706
0.4109007072
0.4092648884
0.4135215097
0.422427682
0.4262975032
0.4329826106
0.3234594103
0.4184575988
0.418863057
0.4186168613
0.4220625193
0.4221356301
0.4230133106
0.4219667446
0.4233041268
0.4199223307
0.418908775
0.4185146491
0.4162459369
0.4197313338
0.4205439936
0.4210054314
0.4216325641
0.4211749886
0.4230624225
0.4318633319
0.3188066324
0.4085661439
0.4108579235
0.4099749227
0.4057339161
0.4070174374
0.4116990848
0.4146056393
0.4117187048
0.41151003
0.4092734215
0.40996955
0.4134507402
0.4133819627
0.4110018905
0.412569898
0.4179601499
0.421072741
0.4218181486
0.422963976
0.3194285943
0.4100511319
0.412879532
0.4178808094
0.4229301563
0.4222530539
0.4178724542
0.418945167
0.415620421
0.4165640157
0.4164527465
0.4160559714
0.4152552281
0.4159914104
0.4186575786
0.4157282939
0.4121813329
0.4106380982
0.4122541905
0.4185086666
0.3166331945
0.413528971
0.4159600493
0.4110343313
0.4092891598
0.4112769166
0.4088793612
0.4112973012
0.4115365104
0.4154488784
0.4174104918
0.4172783805
0.418593497
0.4151376328
0.4138368515
0.412121617
0.4115558822
0.4142312121
0.4127632018
0.4149087836
0.3219592768
0.4107561739
0.4115771829
0.4089894004
0.404307741
0.4073660053
0.4118923013
0.4117365736
0.4093453328
0.4098259562
0.4084125038
0.4089806063
0.4038689323
0.4044330427
0.4041093562
0.4080192911
0.4138877043
0.4128986293
0.4153610145
0.4185939467
0.321272188
0.4102061501
0.4104254243
0.4107632665
0.4142293304
0.4128710809
0.4079909482
0.4079894871
0.4083887997
0.4072267333
0.4088176886
0.4091952581
0.4110284787
0.4131368703
0.4112438051
0.4088868825
0.4097652373
0.4139042668
0.4131355001
0.4167237408
0.3249041854
0.4160108673
0.4189860795
0.4190898127
0.4168260721
0.4127071367
0.4152496324
0.4155100349
0.4146694369
0.4123514172
0.4104335411
0.4098252452
0.4102530493
0.4123619355
0.4151674761
0.4128811164
0.4133354159
0.4119573372
0.4170994844
0.4154727999
0.3179004212
0.4109936817
0.4134742654
0.4100172738
0.4093623783
0.4137516391
0.4097992403
0.4078346862
0.4084685538
0.4096922199
0.413417028
0.4132603948
0.4083694426
0.4073432268
0.4068038202
0.4074694707
0.4107417136
0.4115479482
0.4105688289
0.4134543541
0.3173094792
0.4093011506
0.4164630542
0.4153340156
0.4180961855
0.4158582898
0.4146440076
0.4143802863
0.4147893024
0.4099499734
0.4108547063
0.4141631332
0.41831047
0.4182486156
0.4215112713
0.4195652727
0.4206231651
0.4215339958
0.4192949771
0.4176558604
0.3231687098
0.4129472385
0.4127991506
0.4096528603
0.4096655314
0.4116009181
0.4112052836
0.4121166306
0.4148953935
0.4181597215
0.4181408474
0.4169267187
0.4159286929
0.4163013518
0.4165549899
0.4194771771
0.4197472273
0.4203201669
0.4173262771
0.4177995329
0.3198707112
0.4099055794
0.4122185602
0.4111318991
0.4120668385
0.4120555131
0.4175979724
0.4200149634
0.4219427072
0.4205590312
0.4192250933
0.4154617752
0.4138752801
0.4189707839
0.4186662955
0.4162525253
0.4153426467
0.4137594895
0.4163038313
0.414883364
1.820773894
2.316851526
2.537795989
2.714101248
2.814922008
2.905594586
3.015059383
3.044394881
2.970613361
2.982360644
1.152128365
1.561486261
1.875896166
2.141440106
2.367471483
2.518423831
2.676800657
2.784500294
2.829030989
2.859088092
0.8552116655
1.114373622
1.355401055
1.636454841
1.85160773
2.080262788
2.269157333
2.454941211
2.561908216
2.654131596
0.693359036
0.8550123735
1.035452691
1.237350326
1.451915974
1.668651217
1.86608019
2.03005938
2.177308971
2.335307349
0.6122552113
0.7146206716
0.8392322132
0.9883654393
1.148934318
1.319983786
1.506518149
1.632877051
1.841827079
2.025372591
0.5497989954
0.6206953414
0.6983193115
0.8133951375
0.9231552147
1.075322167
1.264419143
1.401798748
1.561453093
1.731222052
0.5146481421
0.5673680692
0.6031277127
0.691425718
0.7686628597
0.8654980161
0.9944853289
1.130994164
1.275636944
1.426685124
0.4763611584
0.5143686525
0.5454773337
0.5992675711
0.6634691967
0.7340882759
0.8261603694
0.9351689162
1.039275926
1.160542033
0.4656862281
0.4889892975
0.5047782737
0.5504056578
0.5992504294
0.6547261908
0.7044145791
0.7792857711
0.8597180967
0.9598685299
0.4553635091
0.4723500568
0.497228401
0.51568516
0.5437694285
0.5900311312
0.637351936
0.6867488961
0.7333669591
0.7972364874
0.4453145142
0.4616692745
0.4721077541
0.4916102987
0.50969471
0.540237693
0.5683282689
0.6057915302
0.6544254772
0.7157765658
0.4291451112
0.4359306429
0.4457096794
0.4519940203
0.4659583002
0.4858618626
0.5105398222
0.5416536557
0.5772831478
0.6251634228
0.4263988945
0.4325836611
0.4387885788
0.4540930304
0.4589242247
0.4769008908
0.4976270337
0.5087082449
0.5269294849
0.5604956931
0.4277789585
0.4291859153
0.4357965475
0.4389239761
0.4467867445
0.4480737732
0.465312292
0.4838911617
0.5020994187
0.5161234194
0.4163280849
0.4190564239
0.4247392056
0.4336611292
0.4420328397
0.4478019066
0.4527423664
0.4646810267
0.4842357977
0.4991531068
0.421809958
0.425695591
0.4214938935
0.4231026203
0.4330064222
0.4445429812
0.4462700717
0.4539046105
0.4680227549
0.4768667105
0.4169047102
0.4193606244
0.4232225316
0.4260671463
0.4210380769
0.4329011766
0.4376429027
0.445222799
0.4475265735
0.4581005855
0.4208042176
0.4190420042
0.4206820103
0.4168290816
0.4242488963
0.4266796231
0.4284162885
0.4355058202
0.4431698023
0.4481174553
0.4139447139
0.4205380441
0.4257507037
0.426786586
0.4226116979
0.4224822607
0.425635967
0.4319531674
0.4346641649
0.4443306686
0.4190947973
0.4180068634
0.4184358637
0.4179991344
0.4216298076
0.4248994755
0.4292061821
0.4311638339
0.4318796336
0.4372236915
0.4181415912
0.41689788
0.4165572224
0.4152684311
0.4149836646
0.4134177568
0.4175675279
0.4213247222
0.4293720048
0.4323750385
0.4156688666
0.4126780264
0.4149721843
0.4208657017
)
;

boundaryField
{
    flow
    {
        type            calculated;
        value           nonuniform List<scalar> 
42
(
0.3141240491
0.3201848485
0.3203334303
0.3213444375
0.3179080684
0.319679473
0.3189057307
0.3219775623
0.3248475398
0.3218844108
0.3252966655
0.3234594103
0.3188066324
0.3194285943
0.3166331945
0.3219592768
0.321272188
0.3249041854
0.3179004212
0.3173094792
0.3231687098
0.3198707112
0.3141240491
0.4055296491
0.4070582354
0.4056914112
0.4080547347
0.4082007378
0.4068623588
0.4075415193
0.4056146249
0.4038971848
0.4051116151
0.4081815311
0.4059366341
0.4079205076
0.412610025
0.4164846199
0.4207903762
0.4350607201
0.4953138448
0.8032430343
)
;
    }
    obstacle
    {
        type            calculated;
        value           nonuniform List<scalar> 10(1.026744097e-18 1.157502374e-18 1.181690025e-18 1.130158114e-18 1.257650555e-18 1.222637733e-18 1.227210637e-18 1.251531047e-18 1.23799526e-18 1.160671759e-18);
    }
    frontAndBack
    {
        type            empty;
    }
    procBoundary0to1
    {
        type            processor;
        value           nonuniform List<scalar> 
21
(
2.96738708
2.881619101
2.729215136
2.436161315
2.129945382
1.89036391
1.587247151
1.316243658
1.085997287
0.887689033
0.7852933344
0.6880690343
0.5999254701
0.5475837771
0.5075909382
0.4878807377
0.4702403577
0.4598825543
0.446505785
0.4450073235
0.4294107521
)
;
    }
    procBoundary0to2
    {
        type            processor;
        value           nonuniform List<scalar> 
31
(
0.3215856249
0.4192425504
0.422838787
0.4179929052
0.4167734554
0.4140916601
0.4129744902
0.4104688283
0.4078980928
0.4094995307
0.4115103941
0.4165982168
0.4154258043
0.4103602122
0.4107647083
0.4090290501
0.4070693287
0.406200893
0.4039664148
0.4061994112
0.42566364
0.4261878568
0.4281217842
0.4253682222
0.4255047409
0.4247594626
0.4070775746
0.4119066033
0.4152602205
0.42566364
0.4133762179
)
;
    }
}


// ************************************************************************* //
