/*--------------------------------*- C++ -*----------------------------------*\
| =========                 |                                                 |
| \\      /  F ield         | OpenFOAM: The Open Source CFD Toolbox           |
|  \\    /   O peration     | Version:  2406                                  |
|   \\  /    A nd           | Website:  www.openfoam.com                      |
|    \\/     M anipulation  |                                                 |
\*---------------------------------------------------------------------------*/
FoamFile
{
    version     2.0;
    format      ascii;
    arch        "LSB;label=32;scalar=64";
    class       volScalarField;
    location    "0.008";
    object      internalE;
}
// * * * * * * * * * * * * * * * * * * * * * * * * * * * * * * * * * * * * * //

dimensions      [1 -1 -2 0 0 0 0];

internalField   nonuniform List<scalar> 
654
(
0.2216392212
0.3739190871
0.5817203065
0.199562648
0.05009481066
0.2387121415
0.5652301573
0.3497397706
0.7300940432
0.4613096004
0.8053945432
0.5427199368
0.3656671781
0.3158392351
0.1588633734
0.7630778261
0.3844081974
0.2142049978
0.5832187466
0.36389937
0.1818701378
0.4452370385
0.4435917748
0.4271381679
0.415417016
0.7451907118
0.1983882207
0.9054360664
0.1041272621
0.4688133731
0.364695965
0.3012231434
0.3766363233
0.3510548678
0.3304404913
0.5974692622
0.3924031206
0.4136192887
0.3093184408
0.3777817679
0.2461692604
0.517776843
0.2577463181
0.2452928833
0.1862619028
0.1836677603
0.5499372807
0.4719574721
0.2554780157
0.3069438451
0.4224827282
0.579812621
0.6512660202
0.419639143
0.2661238961
0.3697510385
0.3123551512
0.4936253064
0.9296600927
0.7219401772
0.2266986883
0.298799545
0.2982992477
0.3020668292
0.3466212443
0.476994913
0.2571791337
0.3203026449
0.2187916808
0.2483153603
0.3756845437
0.6876264623
0.5558765961
0.4235801522
0.6061137779
0.6799495267
0.1774931723
0.4462084315
0.2993795518
0.3481751353
0.4288155371
0.4022288022
0.3185843575
0.3103727991
0.7436863907
0.2769284548
0.426581971
0.3892525476
0.4112597251
0.2186110392
0.3774833626
0.5781100179
0.295462661
0.5595559141
0.1399344649
0.8398704417
0.6513117171
0.3866381555
0.5796244414
0.6588763475
0.1559663091
0.6204564067
0.221858564
0.2607485614
0.4055657922
0.1468050597
0.5984346068
0.6151896867
0.3960575815
0.1284796439
0.4283184486
0.3046926725
0.7477433147
0.3242905622
0.5961163653
0.5572718379
0.2998795085
0.4196359328
0.4482082955
0.2064805671
0.242188763
0.2370188181
0.5206862138
0.5237496888
0.3148154465
0.3159441439
0.2515910926
0.6943085437
0.1313116597
0.4176945104
0.5637549779
0.7069802547
0.6899932564
0.3822945298
0.571167245
0.5786815859
0.1019633955
0.1979267728
0.3561284794
0.4936693695
0.6145389422
0.6419311037
0.1078462568
0.2219788004
0.3922157967
0.5988168683
0.4623587944
0.2257120186
0.3652449692
0.3155835561
0.7800359131
0.5739031322
0.3958389241
0.5551834031
0.4763156747
0.8272949398
0.4288310789
0.1312189025
1.110983553
0.5454684997
0.1408448769
0.2145858556
0.3010924418
0.4719768164
0.4593976224
0.5112452148
0.1756638871
0.3349683395
0.4085373599
0.3789277427
0.1648452928
0.2318649188
0.3895171961
0.2329957888
0.569003561
0.4003912319
0.4033924173
0.5866642885
0.4871484819
0.3718316887
0.2122255766
0.2658356635
0.5147908706
0.6697591009
0.6629763033
0.3929074903
0.3057349452
0.3919119665
0.1871622437
0.3587066308
0.5461422582
0.4588818424
0.1763768511
0.4437085193
0.696925433
0.3577665117
0.3186919452
0.6394293362
0.2224722259
0.6535461639
0.4521498989
0.7139044614
0.3376327427
0.4292169141
0.7546378168
0.4103348896
0.3240551035
0.2534497119
0.3823928364
0.5995589972
0.5279737495
0.6195094666
0.7209358684
0.4240536252
0.1222160787
0.6783892052
0.4322065395
0.3080176716
0.4153186237
0.3674316694
0.1954116522
0.3571358074
0.5566103133
0.1660208336
0.3539911914
0.1312667824
0.2065683302
0.5252633195
0.3230072002
0.544654501
0.5040066085
0.2574671238
0.5096612673
0.5992358703
0.3697970361
0.4269236635
0.5560489243
0.4910580941
0.8068334778
0.6868363376
0.2197407481
0.1721502964
0.3127883068
0.2903879299
0.406103732
0.6799094745
0.216129304
0.2746117817
0.5094208454
0.1685430751
0.4047571552
0.2485986462
0.7021853926
0.2994383113
0.119299806
0.4186060331
0.6942744255
0.4149966549
0.3919638299
0.3416865001
0.1719736371
0.5239373175
0.3768607359
0.5418350287
0.7264225363
0.853732603
0.5068038228
0.2126606135
0.7363637334
0.3530523275
0.3440190705
0.6537542197
0.2535978951
0.9030523208
0.2292065763
0.3898040352
0.527367104
0.2094655371
0.5444753911
0.1888215904
0.180150389
0.8847475891
0.2245984279
0.2192598548
0.3543216556
0.5823509682
0.6135989748
0.5587168864
0.3076693169
0.4579039718
0.2933202019
0.5660613395
0.4629288478
0.507701454
0.4734659295
0.3542520028
0.3100366907
0.8075933717
0.1877286085
0.4441725965
0.3602449792
0.4690554236
0.2964747059
0.4521537328
0.2944152056
0.4688373808
0.5524681592
0.5023999559
0.4412163544
0.5118781546
0.7369605841
0.3544537399
0.5333060552
0.5078783507
0.2532099244
0.5149536168
0.1256908612
1.073748741
0.4145215458
0.3355176755
0.474802219
0.3683645109
0.5458618103
0.529268722
0.5017215969
0.4259627798
0.405829102
0.5937118427
0.3369783326
0.3705513624
0.5247157872
0.4092419659
0.3349952385
0.2032199218
0.3944925913
0.3908851333
0.668619982
0.2159043213
0.2274722107
0.22964109
0.242818977
0.4194940768
0.3778808956
0.1046879342
0.4079322588
0.4181231694
0.2813060301
0.7133073221
0.4114392554
0.6297930279
0.369206282
0.4898446048
0.3903742438
0.3348446752
0.7325485163
0.2325371369
0.2504816026
0.8251108868
0.9094963852
0.3167028751
0.2885574904
0.7799500244
0.8932139801
0.6011087935
0.422386058
0.4067854873
0.8456479759
0.2519125921
0.3379806528
0.2619202618
0.3300878457
1.050226114
0.4766275203
0.3474181311
0.08336921861
0.07659537976
0.3779057737
0.3643523583
0.6287731062
0.6958350382
0.3394084268
0.2322018687
0.1586239129
0.2534709267
0.5159425459
0.3456339821
0.2962506045
0.1970741764
0.2620867157
0.4388479115
0.1479517056
0.3889173011
0.4377823686
0.3825355709
0.2800184832
0.4176268819
0.6264490114
0.4056121408
0.373639713
0.4032611343
0.3420743264
0.3545812574
0.4543773749
0.2415288866
0.3359703738
0.2208423648
0.3795727284
0.3904000341
0.2266964527
0.5907048782
0.3058369021
1.07950386
0.1486297119
0.1942001528
0.4452277443
0.4225669356
0.4481201489
0.4299464349
0.5222518231
0.5263432518
0.2203897583
0.2047390128
0.4664092861
0.5388854033
0.2371656193
0.6961361604
0.4689220087
0.2811853221
0.8094014225
0.44163974
0.4013099653
0.2050201447
0.4649081886
0.1605597192
0.3177506641
0.3538103975
0.1346987437
0.3849327703
0.6275887557
0.5079828622
1.4008682
2.544107884
2.497372772
2.595067427
2.088618146
3.101643527
3.817624126
2.346289679
3.564783592
3.03556547
0.5864526731
1.360257098
1.343474687
2.234101051
3.037107293
2.38902237
2.786311947
2.462742415
2.261336836
2.396609302
1.227247994
2.24778187
1.011105594
1.088537221
0.6838548787
2.478346908
3.218810978
1.930621847
1.927028975
1.513633059
0.8605289574
0.3316660441
1.177522634
1.132161511
2.644342864
1.53329217
1.593123923
0.9294320371
2.72345376
2.444093091
0.3010105376
0.9025752475
0.6750586215
1.477442456
1.130951511
1.441535466
0.9842338857
1.42489293
1.322897494
1.282569532
0.2823703744
1.312120699
1.107757727
0.8598854473
1.305705689
1.467634725
1.016370879
1.58709792
1.0702099
1.439658554
0.794348036
0.5769064587
0.6633791471
0.4713379818
0.6879617252
1.139725235
1.163424285
1.437735152
0.435977052
1.430612866
0.3953077261
0.6252979946
0.2551795079
0.8022338791
1.034814134
0.3318038037
0.713617041
0.6754346837
1.084378246
0.9766653491
1.16778019
1.046510085
0.523317487
0.534070007
0.6698073979
0.5809655627
0.3977448596
0.4182045694
0.5826649171
1.402775511
0.1140730506
0.5789670465
0.1522051057
0.6814616477
0.690848273
1.279669654
0.4478878402
1.005486008
0.2281646196
0.9887331412
0.2885147509
0.5330013594
0.172261517
0.4777857117
0.4650741409
0.2119544538
0.5530453561
0.9174593951
0.2714807108
0.3253260455
0.4004301135
0.4201003198
0.4784979524
0.2626041653
0.4369267774
0.2870225268
0.8096983944
0.5186579395
0.2956826865
0.2954639434
0.1703294765
0.4610009317
0.5510911185
0.8284398851
0.1741606542
0.3874276637
0.3832838629
0.7449548241
0.5196736242
0.5173386468
0.3114005518
0.5083654582
0.8353582139
0.2632133523
0.494694095
0.2355631967
0.5564237786
0.3042646097
0.373347048
0.8932431631
0.3989056512
0.3931601804
0.536420655
0.09397569138
0.7659632905
0.7879383912
0.9028457192
0.3571742899
0.227215281
0.2579013549
0.4552211084
0.2609050613
0.3977634732
0.2084889202
0.4507993921
0.4880976742
1.082763993
0.4423840168
0.7856875948
0.1292263448
0.1605367907
0.5924188629
0.2680854981
0.1404252558
0.1469715514
0.3234873442
0.4093982578
0.4272507284
0.2576408195
0.3254207415
0.39158895
0.5202178577
0.8782400317
0.4300590358
0.4132822628
0.5898961321
0.6424644323
0.4139725325
0.3442389084
0.5955110289
0.4687306472
0.3748389612
0.2763525972
0.746991078
0.3338693192
0.3761438889
0.3527635061
0.5640880656
0.2713241944
0.8312790459
0.5887287738
0.3019430989
0.3245152721
0.2071529539
0.4451386582
0.2544569419
0.9781999075
0.29209069
0.2298288872
0.6206224713
0.5399127869
0.4701752866
0.8328737557
0.4269096143
0.2446568277
0.08681582479
0.2247809463
0.4614310483
0.5819260567
0.399396565
0.5721185839
0.1240589059
0.5911757904
0.3775361534
)
;

boundaryField
{
    flow
    {
        type            zeroGradient;
    }
    obstacle
    {
        type            calculated;
        value           nonuniform List<scalar> 10(1.493951903e-18 3.65187495e-19 3.133547914e-18 3.089263576e-18 1.046445398e-19 1.052339152e-18 4.887269998e-19 2.887984743e-19 7.104668863e-19 2.797207356e-18);
    }
    frontAndBack
    {
        type            empty;
    }
    procBoundary0to1
    {
        type            processor;
        value           nonuniform List<scalar> 
21
(
2.161216836
3.559288692
3.181383951
1.751136015
1.772943726
1.727844454
1.320894272
1.547090315
0.8804095853
1.765885254
0.5475768366
0.6854382962
0.614746584
0.07922879677
0.8339783339
0.7231422872
0.4757365105
0.2751150122
0.3784771
0.2391714161
0.5274073809
)
;
    }
    procBoundary0to2
    {
        type            processor;
        value           nonuniform List<scalar> 
31
(
0.2021370247
0.4419305314
0.3341835241
0.5869613225
0.4650467986
0.4231109055
0.07856657438
0.3174776636
0.3454228459
0.2701587293
0.2866931301
0.2273958775
0.5720125992
0.3725381409
0.1610399913
0.3206811887
0.2464464862
0.3580548277
0.4330711687
0.5927548607
0.2910586914
0.3151925248
0.5375828187
0.5606484784
0.3380932853
0.4583266786
0.2563910853
0.4838738119
0.4996258262
0.2910586914
0.7109288394
)
;
    }
}


// ************************************************************************* //
