/*--------------------------------*- C++ -*----------------------------------*\
| =========                 |                                                 |
| \\      /  F ield         | OpenFOAM: The Open Source CFD Toolbox           |
|  \\    /   O peration     | Version:  2406                                  |
|   \\  /    A nd           | Website:  www.openfoam.com                      |
|    \\/     M anipulation  |                                                 |
\*---------------------------------------------------------------------------*/
FoamFile
{
    version     2.0;
    format      ascii;
    arch        "LSB;label=32;scalar=64";
    class       volScalarField;
    location    "0.008";
    object      linearKEMean;
}
// * * * * * * * * * * * * * * * * * * * * * * * * * * * * * * * * * * * * * //

dimensions      [1 -1 -2 0 0 0 0];

internalField   nonuniform List<scalar> 
654
(
5.798009718
7.770364945
7.731973817
7.752050308
7.767527728
7.78918987
7.781977485
7.800095553
7.761866523
7.709068704
7.723981761
7.705027505
7.685635489
7.712880556
7.743627842
7.788465781
7.733569031
7.774344368
7.837834902
8.323432807
5.877834317
7.902922618
7.883838909
7.835715384
7.828334104
7.849135466
7.809121448
7.814048384
7.814207129
7.853687533
7.89811298
7.925089601
7.922186697
7.931819107
7.907092274
7.954057401
7.98342176
8.06642436
8.206672903
8.462428459
5.9189488
7.974065044
7.894122102
7.873972672
7.83767243
7.85384134
7.889265743
7.88075027
7.871195069
7.830416032
7.814322564
7.799324399
7.78404874
7.818144381
7.851484173
7.838518902
7.858936285
7.956671838
7.991409874
8.216127774
5.921327195
7.868072365
7.846769794
7.852225678
7.824784717
7.825672859
7.828188174
7.830788895
7.803784908
7.836868916
7.816678437
7.832822362
7.852186524
7.756325754
7.770897299
7.73458064
7.727472451
7.791332597
7.917958159
8.144465093
5.893937379
7.906481308
7.793494527
7.811954368
7.830216475
7.814067287
7.785023123
7.772485452
7.750506571
7.769483734
7.748848158
7.739150901
7.799391746
7.801184504
7.798116692
7.896466312
7.888945955
7.960262685
7.995740518
8.078682347
5.880990108
7.868417908
7.874994468
7.79919236
7.802091464
7.776332489
7.781922317
7.839806311
7.840834167
7.867988212
7.851884651
7.856037345
7.808194813
7.791906519
7.866866325
7.824534821
7.825278435
7.843935035
7.858791692
7.948656639
5.904722472
7.935998758
7.889948333
7.854334424
7.899744343
7.903350524
7.897408275
7.840566213
7.877657588
7.9217901
7.884290216
7.866928945
7.885909039
7.860595689
7.858307399
7.794872165
7.828412248
7.850934211
7.944190315
7.965558543
5.903308184
7.87572703
7.826804768
7.83014843
7.842343738
7.852645123
7.885061975
7.918210198
7.920506019
7.87666695
7.865028971
7.84141543
7.844809758
7.874679017
7.833181462
7.901724274
7.91649825
7.925414743
7.937389204
7.942079526
5.888919751
7.959521324
7.909813852
7.887846419
7.844384187
7.8382539
7.856864448
7.880911026
7.829054371
7.827366061
7.891126222
7.910127369
7.864255316
7.860323991
7.839102941
7.868976027
7.907702385
7.893610821
7.905329441
7.996965653
5.903330912
7.869738327
7.856018528
7.866777975
7.871556838
7.873611995
7.865528818
7.839596565
7.891648447
7.904809938
7.857262478
7.881075609
7.928638612
7.916029996
7.93110973
7.955451915
7.943993395
7.905278198
7.913506863
7.911919003
5.887451873
7.858743161
7.807067575
7.8041227
7.77987817
7.743878865
7.702144331
7.736226714
7.743235506
7.775058661
7.81538117
7.808382864
7.838465465
7.83246929
7.826723675
7.726616134
7.777377515
7.841610558
7.920789219
7.96330881
5.903591821
7.942034033
7.897613279
7.83082614
7.896124216
7.885703262
7.916640476
7.910938794
7.91598744
7.859753864
7.82398576
7.777200494
7.764235267
7.837944819
7.859983374
7.936795272
7.965754987
7.88655224
7.872150739
7.878512667
5.889495999
7.875078887
7.829000876
7.833717207
7.784629952
7.790823807
7.818491164
7.792302318
7.760685927
7.778194834
7.817235918
7.819607953
7.857139689
7.828505119
7.775453683
7.822420183
7.856753088
7.913595775
7.94824375
7.911905065
5.887974113
7.942663093
7.915426477
7.933429965
7.964945867
7.968440957
7.916121997
7.968129604
7.938321273
7.924864287
7.882223936
7.892337675
7.858505845
7.85817577
7.889374807
7.801823623
7.763910099
7.712163751
7.715736836
7.806585201
5.867194278
7.92122856
7.855461031
7.81705035
7.850975284
7.847722784
7.860777815
7.852186757
7.898236158
7.910069618
7.90252267
7.916699304
7.974887049
7.928489439
7.887949315
7.869984836
7.853249187
7.857267934
7.82740345
7.808063065
5.912412491
7.920364806
7.861704622
7.839340438
7.764936253
7.802327024
7.848761346
7.819965973
7.836034582
7.817566318
7.818653627
7.809906522
7.719287127
7.751993983
7.786770013
7.853475154
7.888525485
7.879044789
7.905688267
7.855034312
5.90677002
7.879391049
7.799169376
7.809230749
7.814930022
7.834532231
7.754401444
7.793834155
7.753559385
7.752873413
7.777859043
7.798230496
7.803183858
7.855625067
7.819956007
7.773483455
7.774481243
7.816099766
7.793121154
7.786625895
5.895513363
7.906812343
7.87292317
7.896011369
7.876164043
7.821867521
7.865924013
7.86624586
7.850227947
7.826629902
7.792620108
7.79247729
7.792599343
7.806990259
7.826727225
7.837792704
7.867430809
7.829355825
7.849217736
7.859813547
5.892367515
7.913944807
7.870641227
7.7744212
7.818741777
7.866594393
7.835837412
7.840754916
7.82046039
7.848083469
7.853261572
7.853649227
7.794424005
7.788947596
7.769612882
7.766907045
7.785880597
7.78991674
7.794320665
7.788869219
5.89143272
7.920851191
7.949211477
7.94495724
7.930678685
7.900912878
7.876836494
7.8627713
7.879335478
7.852136646
7.869228287
7.875325728
7.91374066
7.884453868
7.90438296
7.903100891
7.898359973
7.9407765
7.940451686
7.923627739
5.898322313
7.892038919
7.79166581
7.814549598
7.822403098
7.845972476
7.855952481
7.781958539
7.816377853
7.854025901
7.900140615
7.900183069
7.873180478
7.922671449
7.919850529
7.954053038
7.925406838
7.902974897
7.884304473
7.853530007
5.880713155
7.909788172
7.853141429
7.812709228
7.820191598
7.795176302
7.863309512
7.920722592
7.956556896
7.937702761
7.865035012
7.815489957
7.829253199
7.868369676
7.869262664
7.862268345
7.845770111
7.844488707
7.898923028
7.903458487
9.716827233
9.837488962
9.604152322
9.1759808
8.778010202
8.493535909
8.17669246
7.809728136
7.46980555
7.250717612
9.112751584
9.794855837
10.23968141
10.50578303
10.52787038
10.38254406
10.04017012
9.77641935
9.421454913
9.088313352
8.672687078
9.314622516
9.852204045
10.41833394
10.69863617
10.99771917
11.04711437
11.00917587
10.84206081
10.51896825
8.446831708
8.818459484
9.238459006
9.764829449
10.23605706
10.67528636
11.12688749
11.33992605
11.50638339
11.54040639
8.227259944
8.521266985
8.917883418
9.337102067
9.849469624
10.24382519
10.61478629
10.98651005
11.39276411
11.71834377
8.108009955
8.336522723
8.62362548
8.95514309
9.308448821
9.801782016
10.32519467
10.73977166
11.19102776
11.57937469
8.097817592
8.268847668
8.41261331
8.694581298
8.944268346
9.367282141
9.796551806
10.24807996
10.77715652
11.25294939
8.013179972
8.088158578
8.267314903
8.434725258
8.701710648
8.951853072
9.364714243
9.709102371
10.12549802
10.52211826
7.966191206
8.094583402
8.166756788
8.341552932
8.518692715
8.7287464
8.954579601
9.221025529
9.626820995
9.984414518
8.010673611
8.088373589
8.212120382
8.21898445
8.312987185
8.503624952
8.766815703
8.97061402
9.171793614
9.460376554
8.003807635
8.025715539
8.139675674
8.218464969
8.312894659
8.359033834
8.469087972
8.653599808
8.854029015
9.114135141
7.888612223
7.868030277
7.886560046
7.926247761
7.96856866
8.096607657
8.201588954
8.361688429
8.566230965
8.795364491
7.895772929
7.925538874
7.920062096
7.996023003
8.015334832
8.137758452
8.266628619
8.334516973
8.407228046
8.585540562
7.85450808
7.86565019
7.931550634
7.916194057
7.941028595
7.96236618
8.019171314
8.149405214
8.247864526
8.348078938
7.802073988
7.788817587
7.865183004
7.931438497
7.923945428
8.02872612
7.998961225
8.060962437
8.140524092
8.242497578
7.939846559
7.959479006
7.883558029
7.889877718
7.958414839
7.957559782
7.994470982
8.022184778
8.072814476
8.099182998
7.746721209
7.818962055
7.810496095
7.832788292
7.801964723
7.847874125
7.879368702
7.915413721
7.91709386
8.107755041
7.859422704
7.783233335
7.793407684
7.793367512
7.87153657
7.883473348
7.884814491
7.943741198
7.932378384
7.946115519
7.820953137
7.911348407
7.931334509
7.940755583
7.936986089
7.911167798
7.907250857
7.918844286
7.936147335
7.996163938
7.909225636
7.889889162
7.871393454
7.864254364
7.888389197
7.93146527
7.950742166
7.963717711
7.921896558
7.928352506
7.857786852
7.859557302
7.847298732
7.841010743
7.838300566
7.800342357
7.780608999
7.824729451
7.927979341
7.933862069
7.885946284
7.877160723
7.853907362
7.919101166
)
;

boundaryField
{
    flow
    {
        type            calculated;
        value           nonuniform List<scalar> 
42
(
5.798009718
5.877834317
5.9189488
5.921327195
5.893937379
5.880990108
5.904722472
5.903308184
5.888919751
5.903330912
5.887451873
5.903591821
5.889495999
5.887974113
5.867194278
5.912412491
5.90677002
5.895513363
5.892367515
5.89143272
5.898322313
5.880713155
5.798009718
7.770364945
7.731973817
7.752050308
7.767527728
7.78918987
7.781977485
7.800095553
7.761866523
7.709068704
7.723981761
7.705027505
7.685635489
7.712880556
7.743627842
7.788465781
7.733569031
7.774344368
7.837834902
8.323432807
)
;
    }
    obstacle
    {
        type            calculated;
        value           nonuniform List<scalar> 10(4.125368336e-18 3.618564921e-18 3.347588402e-18 3.046554128e-18 3.085938175e-18 2.860639735e-18 2.753066174e-18 2.659321127e-18 2.532124353e-18 2.486320126e-18);
    }
    frontAndBack
    {
        type            empty;
    }
    procBoundary0to1
    {
        type            processor;
        value           nonuniform List<scalar> 
21
(
6.998147856
8.776778918
10.26874251
11.37503653
11.85734906
11.92009171
11.66003806
10.96036548
10.50276951
9.814048154
9.452793907
9.033303276
8.761247147
8.398567919
8.369741612
8.113833159
8.148000673
8.014024989
7.997665856
7.998573667
7.907057403
)
;
    }
    procBoundary0to2
    {
        type            processor;
        value           nonuniform List<scalar> 
31
(
5.873730185
7.88869315
7.892592486
7.828662353
7.840784719
7.844044748
7.855246821
7.816306311
7.805236062
7.856053668
7.886039924
7.948756253
7.921703041
7.856732334
7.844114401
7.843282404
7.854998934
7.842305277
7.789739963
7.783250623
7.930438295
7.924722106
7.949939011
7.942259604
7.940414472
7.973836073
7.799812798
7.845957463
7.893623314
7.930438295
7.825581773
)
;
    }
}


// ************************************************************************* //
