/*--------------------------------*- C++ -*----------------------------------*\
| =========                 |                                                 |
| \\      /  F ield         | OpenFOAM: The Open Source CFD Toolbox           |
|  \\    /   O peration     | Version:  2406                                  |
|   \\  /    A nd           | Website:  www.openfoam.com                      |
|    \\/     M anipulation  |                                                 |
\*---------------------------------------------------------------------------*/
FoamFile
{
    version     2.0;
    format      ascii;
    arch        "LSB;label=32;scalar=64";
    class       volScalarField;
    location    "0.008";
    object      linearKE;
}
// * * * * * * * * * * * * * * * * * * * * * * * * * * * * * * * * * * * * * //

dimensions      [1 -1 -2 0 0 0 0];

internalField   nonuniform List<scalar> 
654
(
6.035315133
5.139687635
9.153307416
4.972593642
3.10963425
9.126813434
11.25645983
8.232613702
9.719014086
5.376677752
13.71845733
6.02340756
6.360202652
9.835840592
3.694184061
13.27966065
11.2279946
3.048723841
10.404626
5.74373267
5.792436216
7.921030852
9.126534488
8.632939611
5.743135247
11.68388301
5.90254575
11.77327184
6.797756889
8.134123005
4.983665145
10.55815204
10.02249703
6.553398699
10.02312733
14.15422979
9.507230115
4.600372644
7.167895153
3.882886308
6.812774863
8.978389434
8.393636547
8.9690308
4.298067184
8.650912408
9.804640836
11.15149908
7.105979647
6.574673531
9.19094051
7.601471974
11.12064651
6.816316051
4.207161167
6.556175808
7.078107195
9.240036462
11.70805445
8.263131934
6.343497958
4.823800208
9.556502259
7.455739268
9.859343065
7.641083538
7.880223533
5.78412285
6.515061159
8.213022697
9.179315675
15.28014907
4.710244387
6.174550912
11.33139917
6.910875876
5.319269445
6.126805611
6.174845324
8.532030967
7.113684435
4.045754968
6.932974485
8.8048625
12.09313252
2.45272498
8.023300362
9.100777961
9.460210829
9.84406111
7.832918067
5.900449288
6.657636368
10.02912326
4.268845397
11.97252726
12.06837833
5.697085168
7.531777763
9.557832802
3.352816814
9.784791148
7.819690976
3.878943323
7.171550093
4.510572568
12.61508027
6.844781862
11.93788677
5.516279357
6.020547207
9.156079179
9.501198658
5.727055586
10.44431418
9.586658855
9.896145459
8.80066181
8.366508526
7.28035783
6.601777961
6.960143497
11.15731324
14.27019627
8.609810318
6.482868247
5.242455068
10.42582458
5.001107961
6.449699076
11.93580457
10.58177719
7.317371742
10.97475457
9.781162436
8.397750277
4.423854867
3.461447282
7.603134919
8.879063066
6.592834113
10.71716393
2.552537357
2.264578646
5.46998262
11.75342011
7.152888709
6.15728555
5.071415545
7.815588322
12.82779582
6.404626313
6.347733355
7.470399559
10.42446412
12.9368003
6.449190903
1.333548781
14.43898428
6.816225737
4.00082989
8.654448203
7.939671854
5.744265855
8.774082547
9.166722145
5.291765606
5.902894316
5.146502443
10.58133664
4.249708737
5.218380466
9.195317119
5.522897294
10.14435594
6.564096681
7.038797534
7.357968483
9.038136771
6.725064669
5.463725688
4.168307195
7.198462397
12.4271471
9.24191581
9.839251939
7.294209696
5.165641475
4.311056072
7.182178333
5.889587506
5.349304239
8.090456338
6.709816286
11.8663983
10.57932454
10.53223109
11.23841657
4.964744058
8.868534365
7.400492903
6.618606404
4.721825228
6.714774985
10.12585749
6.850989309
8.360613845
8.008120997
6.535157964
11.65986661
7.336783676
9.394681275
7.856998049
6.38018062
4.642523981
10.05235125
6.109136118
4.572148563
6.241707285
11.56249787
6.741582389
7.779920162
11.83400184
9.046956705
7.988048125
4.659029349
5.075324759
7.787342401
7.643284256
9.2620538
9.255955317
6.805347537
8.122146107
6.676564361
11.95190358
9.837044127
11.62823446
9.533186363
9.898834559
6.738866366
6.151877919
7.423261117
7.632513133
9.16875414
5.859000041
10.63657921
7.324491525
6.474451496
11.38937316
6.305649929
8.28480538
5.308274592
9.692751028
6.641000604
4.584427522
8.741307717
13.6349871
8.278954706
4.419040895
7.078013836
5.182448157
8.518494343
6.057177512
8.136988099
4.405628775
10.02398787
7.167351537
7.489279677
16.73539555
6.886695363
9.841272698
8.756914684
6.205300832
11.63057749
6.652659951
4.966352612
5.97655013
5.314305334
12.52046909
3.242492339
6.874777409
6.24033646
7.676381225
8.175482655
6.206072908
9.762900186
10.33895841
7.200404566
6.028573423
7.389944028
7.642713634
7.801761882
9.377462737
6.358043977
8.088136099
6.028528135
11.2821729
10.98907522
5.40273676
6.852130567
3.997525857
8.230515569
8.4790423
8.06524259
6.291150937
9.372314076
4.795161632
4.385491591
7.642915013
11.3442356
10.14823286
8.342021808
10.23766222
11.68299714
5.666054505
6.144417793
4.3656517
9.728373079
10.37287361
5.902558806
6.044468687
9.959386019
10.26367883
8.662491079
7.029453998
10.73407679
8.206219873
7.340197663
4.656172889
7.667969609
8.321194884
7.532435166
6.27385807
8.163993227
7.635854372
3.201085282
9.215585067
5.090090016
4.8208328
6.225634995
4.947921834
8.626429695
7.016502687
3.987235003
6.70563946
8.02004219
6.66759871
8.413196235
8.691409801
11.01096859
9.26403349
6.782431119
9.610232636
7.050503227
9.889438672
6.086042518
7.265589741
15.99950298
12.3093406
3.595107681
5.128259998
8.198718147
8.499362825
8.281189042
7.099124233
4.604589809
14.23601932
5.832328707
8.497193496
4.206466438
7.49850828
18.20954277
7.78516573
9.468853887
3.443981256
2.751637222
7.727726435
9.157343789
9.136483994
11.33849168
7.6245823
6.330014557
3.642627063
4.210417516
11.56261197
10.48438557
6.262632266
7.998215321
3.94940453
7.953276511
5.499464815
10.69706705
5.436532726
9.2077464
6.477602125
8.960926414
9.075770283
6.438738087
8.237106336
8.320474153
6.027321083
6.194802354
7.838233711
7.177126067
6.267948271
6.034938562
4.66607359
11.28106075
6.361645775
8.371032436
7.383080559
11.86032523
6.697810386
7.097387523
8.962050781
5.840864672
5.751256804
8.438679088
8.349892551
8.729958769
5.753442665
5.752394424
13.12664312
11.49478726
6.497304677
10.08905566
10.98538535
6.960633146
10.20318579
8.957324537
7.464563987
3.104504404
5.810664123
2.485820465
5.791875476
11.09086205
4.959925935
9.168682536
10.0460514
6.867020933
11.87691777
11.29389422
9.609811823
5.416278085
5.978111476
10.19934875
11.85405033
8.599457828
9.277990155
5.942682297
4.289280111
11.95857669
10.07860927
17.06902817
14.98644
10.21458351
13.39315796
11.39148512
9.330505089
7.289862139
9.154447697
8.110748671
8.783055493
14.11105211
4.994580406
13.7994761
11.64393506
17.63014593
7.800250432
8.302091347
8.665047987
3.747818266
7.054711275
9.697635541
14.45765414
9.110543692
8.794748386
10.41252494
10.18484472
9.357292544
4.634284486
11.91859265
5.641542451
11.19842663
12.47095942
10.1788581
4.935232804
12.84532351
6.0634043
8.358814254
6.276184719
13.42970653
10.22729789
8.529027591
13.41128472
7.759780792
13.16669011
7.601893267
7.038589745
12.26674557
10.38118293
7.855777395
6.328958161
10.83152645
9.44435057
15.19626436
11.88647817
10.67345951
8.935342963
16.14048005
9.652779687
11.52276812
5.559140517
8.77806679
5.061024062
8.703828112
10.13028504
12.18978777
11.55375622
14.07324043
7.849092087
11.17365968
9.723470229
9.835815132
10.90534877
7.649585325
8.699164516
5.359587719
5.679874332
7.867490032
2.617389322
7.183451916
6.770547158
12.9022759
10.03983172
10.08349626
5.219565842
5.501068027
5.535438333
10.3297919
5.309363206
5.842790398
5.675123129
11.2441942
10.90643078
3.154175547
4.79595761
10.69034538
9.778668627
5.418859338
9.544767836
7.844103263
8.634973791
5.454248919
5.486146417
6.096776109
14.85372873
6.978367073
4.947787756
5.512970011
6.631686283
7.527299387
10.54018245
11.3635857
5.94755128
5.6969983
5.94292985
8.657492951
10.13302966
9.53279056
9.05205351
7.228500836
8.287305628
7.196114398
6.614326979
5.261398349
11.06765765
3.585887375
6.364044865
11.92164003
12.57417259
5.989164628
5.331721644
4.783060628
11.32165725
13.11700403
11.06304153
5.332151023
4.509935481
5.353275316
5.986936074
7.710951097
8.542452139
7.463674983
6.443604366
7.692444788
6.595316546
9.780700067
12.24192716
3.704979725
7.844856952
9.066279065
4.394313657
3.902641536
5.989593802
6.221634404
7.003407243
9.655420103
4.073114872
8.932076712
7.178379426
7.505652496
13.64390607
8.535714635
4.048005996
15.19055719
9.718312625
7.154801697
7.62999071
13.67159963
10.44233199
9.88038615
6.013504012
9.545719027
3.918913779
8.037845139
6.166750848
10.04423257
7.923513026
10.54273252
9.666889772
5.965504246
7.375846508
5.951250519
10.47872015
2.891764352
12.06456967
5.923759624
7.301273468
8.567189862
7.524750882
7.986236881
15.19625325
8.005528019
7.040495154
4.615602673
4.337985148
8.511525665
15.65506764
9.683329389
12.81075611
3.344144112
10.25576074
5.545331854
)
;

boundaryField
{
    flow
    {
        type            zeroGradient;
    }
    obstacle
    {
        type            calculated;
        value           nonuniform List<scalar> 10(3.552789039e-18 2.860118084e-18 3.663629993e-18 3.622869822e-17 7.456076158e-19 1.437090036e-18 8.108132214e-19 2.158774004e-18 6.15086677e-19 4.215060293e-18);
    }
    frontAndBack
    {
        type            empty;
    }
    procBoundary0to1
    {
        type            processor;
        value           nonuniform List<scalar> 
21
(
3.880783877
9.165394234
8.669080666
11.14647367
10.40713743
16.03699217
7.56403227
14.78161519
8.139939081
13.71131222
8.430881615
11.55313348
8.664133851
3.004982367
7.645149285
10.29264906
9.208928181
5.219639583
10.17050292
10.57714192
7.344245717
)
;
    }
    procBoundary0to2
    {
        type            processor;
        value           nonuniform List<scalar> 
31
(
6.070866892
10.71059859
6.303515489
9.790100533
11.37246501
4.451645107
5.982658954
6.889803802
6.542786961
6.714521686
7.270167217
5.169403063
6.662493443
6.857373722
5.320902355
8.710415666
6.398650677
7.74256013
4.952734159
9.65153004
5.594219593
2.904893319
9.718376808
10.36939082
7.9895289
9.707225322
9.848309164
8.961546329
7.729672579
5.594219593
7.029953178
)
;
    }
}


// ************************************************************************* //
