/*--------------------------------*- C++ -*----------------------------------*\
| =========                 |                                                 |
| \\      /  F ield         | OpenFOAM: The Open Source CFD Toolbox           |
|  \\    /   O peration     | Version:  2406                                  |
|   \\  /    A nd           | Website:  www.openfoam.com                      |
|    \\/     M anipulation  |                                                 |
\*---------------------------------------------------------------------------*/
FoamFile
{
    version     2.0;
    format      ascii;
    arch        "LSB;label=32;scalar=64";
    class       volVectorField;
    location    "0.008";
    object      momentumMean;
}
// * * * * * * * * * * * * * * * * * * * * * * * * * * * * * * * * * * * * * //

dimensions      [1 -2 -1 0 0 0 0];

internalField   nonuniform List<vector> 
654
(
(0.006255269036 -3.407247237e-05 -6.377145983e-06)
(0.008203294341 -3.54501496e-05 -1.515570759e-05)
(0.008206611597 -4.526029571e-05 -1.21856962e-05)
(0.008219287436 -4.269005611e-05 -7.180075807e-06)
(0.008239751777 -4.002582428e-05 -7.363382728e-06)
(0.00825838391 -4.448676403e-05 -4.13610606e-06)
(0.008249026481 -3.900161471e-05 6.236716571e-06)
(0.008274788333 -3.939038311e-05 -5.925066952e-06)
(0.008236173678 -3.598125307e-05 7.778659553e-06)
(0.008186652383 -3.476702837e-05 5.67303607e-06)
(0.008203594817 -2.599917605e-05 1.96169244e-06)
(0.008187062535 -2.00457833e-05 -6.717841025e-06)
(0.008169518509 -2.185044443e-05 -7.658037243e-06)
(0.00818836007 -2.914437312e-05 -1.14645357e-05)
(0.008215163419 -2.243089041e-05 -8.140468365e-06)
(0.008244128117 -3.563378651e-05 -6.957274993e-06)
(0.008168030886 -4.227854782e-05 6.119618949e-06)
(0.008155004653 -7.973185459e-05 1.568200786e-06)
(0.008030822311 -0.0001011761534 -9.52131654e-06)
(0.00772128983 7.98198808e-05 1.04702234e-05)
(0.006331736648 -7.425742791e-06 3.035260154e-06)
(0.008332281553 -1.543062643e-05 7.408257394e-06)
(0.008369771828 -7.206974808e-06 1.091954743e-05)
(0.008318533173 -1.541051889e-05 2.730915824e-07)
(0.008310329047 -1.00409642e-05 -2.815960501e-06)
(0.008334629677 -2.012588801e-05 -7.636818637e-06)
(0.00829422687 -2.350922885e-05 -1.556842484e-05)
(0.008297144399 -1.464982893e-05 -8.89662356e-06)
(0.008289690384 -8.047734566e-06 -4.348895713e-06)
(0.008326729903 -7.889162713e-06 3.813710235e-06)
(0.008370134796 -1.320825686e-05 3.717176194e-06)
(0.008396986951 -1.358592921e-05 5.613819454e-06)
(0.008386523891 -1.0144828e-05 8.66144716e-06)
(0.00839457989 -1.11751471e-05 4.960799573e-06)
(0.008367535411 -8.359609605e-06 -3.487322931e-06)
(0.008397317139 -1.579215753e-05 -1.251007044e-06)
(0.008399030001 -7.169395604e-06 5.629846686e-06)
(0.008416763838 1.909625319e-05 4.599896865e-09)
(0.008360173772 9.847253607e-05 -4.269912302e-06)
(0.008173428771 0.0004371590752 1.297227987e-05)
(0.006376874836 -1.450583517e-06 1.575736468e-05)
(0.008402381271 -1.056274943e-05 1.794209574e-05)
(0.008371049477 -1.908189179e-05 5.003399656e-06)
(0.00834909365 -1.960315129e-05 4.932085364e-06)
(0.00831258417 -2.731671808e-05 1.000390474e-05)
(0.00833748219 -1.896443386e-05 8.64248386e-06)
(0.00837295241 -9.982360651e-06 1.257884538e-05)
(0.008354058661 -7.366510243e-06 1.005593126e-05)
(0.008356702181 -9.216055148e-06 8.582785482e-07)
(0.00831526927 -1.620241082e-05 -2.338599844e-06)
(0.008307558091 -1.80682069e-05 -6.898830662e-06)
(0.008293963897 -2.355954661e-05 -1.183276229e-05)
(0.008269733102 -1.985274428e-05 -1.003423976e-05)
(0.008303997681 -1.289280669e-05 -7.8753448e-06)
(0.00833196865 -8.948145331e-06 -1.214873975e-05)
(0.008298071364 7.189060948e-06 -7.020778921e-07)
(0.008273101808 1.677561435e-05 -5.656742596e-07)
(0.008300237873 4.51353633e-05 -3.854053092e-06)
(0.008198094327 0.0001467411459 3.425054368e-06)
(0.008229837654 0.000372387183 1.203249618e-05)
(0.006391967766 -1.804764227e-05 -2.1377115e-06)
(0.008316360426 -1.747354211e-05 -4.456267602e-06)
(0.008342630313 -9.78116229e-06 2.645407603e-06)
(0.008344719545 -8.704048929e-06 7.698274791e-06)
(0.008305695658 9.645608405e-07 3.070643271e-06)
(0.008298694241 -5.630618607e-06 -1.117262856e-06)
(0.008299352556 -1.283327801e-05 -7.857277583e-06)
(0.008303364228 -1.91735282e-05 -9.75537063e-06)
(0.008273689381 -1.565591361e-05 -7.622873505e-06)
(0.00830701729 2.200813943e-06 -4.534779802e-06)
(0.008283516275 5.581488474e-06 8.093962377e-07)
(0.008302201289 1.298089117e-05 -3.246767514e-06)
(0.008320351233 1.878435704e-05 -6.923311402e-06)
(0.008223516648 1.217348736e-05 7.484951862e-06)
(0.008233006449 9.361807563e-06 4.271848572e-06)
(0.008183634864 6.298072386e-07 4.925180953e-06)
(0.008160598065 2.045088478e-05 3.404756661e-06)
(0.008160861397 4.952289915e-05 1.087987074e-05)
(0.008200059106 0.0001224909698 2.07786762e-06)
(0.008292124303 0.0003008226613 1.74935298e-05)
(0.006358232606 -7.446710391e-06 -9.114653058e-07)
(0.008338842351 -8.89088263e-06 5.852620409e-06)
(0.008256812911 -4.606395546e-06 3.196803267e-06)
(0.008282060107 -2.820734068e-06 1.142748224e-06)
(0.008298069862 -7.625525441e-07 1.518817748e-06)
(0.008287187094 -9.526930724e-07 1.931906153e-07)
(0.008258526944 1.281094698e-05 1.733318227e-05)
(0.008242801702 9.43459203e-06 1.325856311e-05)
(0.008216792591 6.398689455e-06 4.271225354e-06)
(0.008234767902 -3.312364371e-08 6.661734516e-06)
(0.008212996815 -6.349968186e-06 1.136683704e-05)
(0.008208618605 -4.78185728e-06 1.321990769e-05)
(0.008268756053 -6.804099625e-06 2.669677776e-06)
(0.008271916607 -4.800427356e-06 -1.489966112e-08)
(0.008260605222 7.363981337e-06 -3.275135911e-07)
(0.008348710495 1.578039311e-05 -4.394762102e-07)
(0.00833067587 2.919396977e-05 -2.599526184e-07)
(0.008363771661 4.959437955e-05 -6.949919755e-06)
(0.008358217496 0.0001071073641 -6.436163398e-06)
(0.008357384095 0.0002384322078 1.164716925e-06)
(0.006334806745 2.083102127e-05 -1.004722146e-05)
(0.008286897488 1.384741835e-05 -7.938239743e-06)
(0.00834512945 8.802767794e-06 3.804754601e-07)
(0.008271790078 7.338326729e-06 -8.83528415e-06)
(0.008276471502 1.16947205e-05 -1.922624811e-06)
(0.008258848794 3.573148953e-07 2.58954927e-06)
(0.008257715729 2.032938073e-06 -8.207502793e-06)
(0.008312068261 3.24185741e-07 -8.786684365e-06)
(0.008319762444 3.632465916e-06 6.132105369e-07)
(0.008340004871 5.362653845e-06 7.882879494e-07)
(0.008326397305 4.173801225e-06 -1.817055426e-06)
(0.008324105265 -9.548892254e-07 -7.361190124e-06)
(0.008269015594 -1.139427511e-05 -8.550918713e-06)
(0.008249985225 -1.894019906e-05 -5.142841913e-06)
(0.008322011742 -5.352402132e-06 -6.819756592e-07)
(0.00827290942 -4.837467509e-06 -5.569966872e-06)
(0.008260741638 2.122622717e-05 -1.245632066e-05)
(0.008245764087 6.103988324e-05 -1.189674286e-05)
(0.008241953572 8.981212225e-05 -1.166645466e-05)
(0.008267436249 0.0001915368891 -4.549076553e-06)
(0.00636421025 -6.13063273e-07 -1.614371318e-05)
(0.00836915845 9.607361945e-06 -2.412012426e-05)
(0.00837153669 1.182989991e-05 -2.092574464e-05)
(0.0083335038 1.230662299e-05 -2.469402605e-05)
(0.008381034834 5.224647931e-06 -2.838272754e-05)
(0.008384273494 1.280378819e-05 -2.388662286e-05)
(0.008378306605 -1.44418949e-06 -1.881361145e-05)
(0.008330839176 -9.326511559e-06 -1.814295012e-05)
(0.008370286068 -1.063227647e-05 -1.644547348e-05)
(0.008419091697 -1.002424066e-05 -1.297267179e-05)
(0.008378104419 -7.703109591e-06 -1.800406614e-05)
(0.008371022613 -3.562284934e-06 -7.080312321e-06)
(0.008388485834 1.124123769e-05 4.141195356e-06)
(0.008360404176 1.605509073e-05 -1.046380023e-05)
(0.008349972338 1.095917946e-05 -5.51391859e-06)
(0.008283511078 1.380738755e-05 -1.068111325e-05)
(0.008296301908 3.775236158e-05 -1.453935825e-05)
(0.008302777766 4.095214307e-05 -2.072904692e-05)
(0.008364505364 8.788367532e-05 -9.16798645e-06)
(0.008346562 0.000142535064 -5.390863596e-06)
(0.006359035832 -1.15228705e-05 -1.505165775e-05)
(0.008302332512 -7.402283578e-06 -2.089972608e-05)
(0.008309731408 -9.737919406e-06 -1.970405857e-05)
(0.008309065065 -5.511132684e-06 -1.325421287e-05)
(0.008324408772 2.954192789e-07 -8.5552962e-06)
(0.008324539028 -3.691581116e-06 -2.288795424e-05)
(0.008363525795 1.166450419e-05 -2.40419229e-05)
(0.008398355321 7.621418878e-06 -1.824461094e-05)
(0.008408450483 7.646384282e-06 -1.978122684e-05)
(0.00835916258 -2.480509433e-06 -2.407227094e-05)
(0.008352062472 -5.336383223e-06 -2.259033458e-05)
(0.008314303295 2.935417508e-06 -2.41069014e-05)
(0.008324293649 1.062778044e-05 -2.733874587e-05)
(0.008351346405 1.179291021e-05 -1.688686568e-05)
(0.008302710774 2.292657263e-05 -2.199466062e-05)
(0.008366166492 1.656875461e-05 -1.360888522e-05)
(0.008367570795 9.84926669e-06 -6.244074706e-06)
(0.008370223587 4.07090127e-05 -2.296643989e-05)
(0.008372755911 6.290411913e-05 -1.662253166e-05)
(0.008353437192 0.0001005916569 -1.883953401e-05)
(0.00635551651 -4.679857465e-06 -1.315143981e-05)
(0.008399119911 -4.41112589e-06 -1.813720463e-05)
(0.008392868441 -2.370926037e-06 -2.372297599e-05)
(0.008368567655 3.826629265e-07 -2.424152019e-05)
(0.00832771234 -3.662628434e-06 -1.895302036e-05)
(0.008315737573 -7.802708166e-07 -1.347638522e-05)
(0.008337868769 -8.591787924e-06 -1.028527417e-05)
(0.008356538381 5.102768709e-06 -1.106904826e-05)
(0.008298262645 7.845760154e-06 -1.26106495e-05)
(0.008296496423 2.012445124e-05 -2.218854012e-06)
(0.008363810826 1.583410886e-05 -3.113095558e-07)
(0.008387174563 1.717492167e-05 -1.413499088e-05)
(0.008340677015 -8.503817909e-06 -1.050055118e-05)
(0.0083252937 -9.349520913e-06 -6.30153508e-06)
(0.008302413417 -1.253898792e-05 -3.287340698e-06)
(0.008336506413 2.877642849e-06 -6.764766514e-06)
(0.008374771378 2.291861913e-05 9.784664261e-07)
(0.008354400546 3.987225475e-05 -9.934483135e-06)
(0.008354585002 5.532499714e-05 -1.553494489e-05)
(0.008431518986 9.562737755e-05 -6.217229028e-06)
(0.00635433713 -1.657149972e-06 9.965853791e-06)
(0.008287920647 -1.308720778e-05 1.112013331e-05)
(0.008328878703 -1.688540502e-05 1.13053642e-05)
(0.008337929981 -1.880050913e-05 1.004289531e-05)
(0.008348131313 -1.115586317e-05 1.882975082e-06)
(0.008354847251 -6.298026445e-06 1.927222353e-08)
(0.008345397404 -6.211208458e-06 3.775927019e-06)
(0.008329289498 2.101473171e-06 -6.186091933e-06)
(0.008378990867 5.805159478e-06 -1.17150507e-05)
(0.008388434204 8.942037498e-06 -1.74574596e-05)
(0.008342925502 8.225131825e-06 -8.414905248e-06)
(0.008362550997 7.621220804e-06 -4.428369475e-06)
(0.008405255701 3.256011525e-06 5.122050895e-06)
(0.008398119361 4.843070357e-06 -4.029456449e-06)
(0.008408211728 1.003579606e-05 -8.012601176e-06)
(0.008421354704 1.241078966e-05 -8.680379249e-06)
(0.008413002552 2.309737517e-05 -6.809634842e-06)
(0.008357015871 3.846800177e-05 -4.297122129e-06)
(0.008365189723 5.861855221e-05 2.096301414e-06)
(0.008344296784 8.063541295e-05 -5.238010208e-06)
(0.006364432489 1.513948664e-05 -8.985504676e-06)
(0.008315283237 2.151607357e-05 -1.2736497e-05)
(0.008299190673 1.031761991e-05 -1.65941616e-05)
(0.008291494142 4.972950839e-06 -1.394411377e-05)
(0.008263553239 -5.214755899e-07 -1.017711968e-05)
(0.008219343318 -1.167383384e-05 -7.023846577e-06)
(0.008178124578 -9.6140582e-06 -2.458098721e-06)
(0.008200759095 -1.710377861e-05 -6.50222919e-06)
(0.008208814929 -1.539647832e-05 -5.402732933e-06)
(0.008251140302 -2.001089995e-05 -1.031509211e-05)
(0.008288548402 -1.281900049e-05 -1.280268188e-05)
(0.00828246128 -9.687698324e-06 -1.251071784e-05)
(0.008319194009 7.490826752e-06 -1.590224973e-05)
(0.008313096708 2.113243559e-05 -2.123320768e-05)
(0.008298900451 2.614764044e-05 -2.017354987e-05)
(0.00820177819 2.103669187e-05 -1.081973372e-05)
(0.008245044376 1.852559904e-05 -7.173336109e-06)
(0.008303169718 6.535568312e-06 -6.802019425e-06)
(0.008386667641 1.386200355e-05 -1.294735776e-05)
(0.008404857212 4.751991714e-05 -5.944204416e-06)
(0.006364243441 3.63032101e-06 3.574203506e-06)
(0.008377703296 -2.818500492e-06 5.410062017e-06)
(0.008385731922 9.744961836e-08 1.216814537e-05)
(0.00832870295 7.743043719e-07 8.270780434e-06)
(0.008393025798 -6.719666093e-06 5.182814909e-07)
(0.008389445418 -7.211794482e-06 -5.764039118e-06)
(0.008426610805 1.710774507e-06 -8.379217259e-06)
(0.008424337444 -7.878310727e-06 -8.708532485e-06)
(0.008426382844 -5.941684686e-06 6.761574392e-07)
(0.008361535717 -3.714535342e-06 -1.78191575e-07)
(0.008321533203 4.089017104e-06 -3.171317523e-06)
(0.008270543792 1.142502452e-05 -8.496689966e-06)
(0.008248311828 5.796100998e-06 -3.163699589e-06)
(0.008317314434 -7.443499692e-08 -1.090324668e-06)
(0.008343756736 -9.254307943e-06 1.384671052e-06)
(0.008419704311 -2.604695304e-06 -1.069661491e-05)
(0.008444343289 -1.393153566e-06 -1.558371573e-06)
(0.008366487114 1.151987608e-05 5.172533133e-06)
(0.008351673122 1.057713158e-05 -3.131977611e-06)
(0.008342004262 2.734364963e-05 1.202843089e-05)
(0.006364772261 4.067214065e-06 3.529671187e-06)
(0.008324646757 1.597966749e-06 -1.025902007e-05)
(0.008325611839 -3.587080687e-08 -7.998015293e-06)
(0.008324386479 5.38216323e-06 -4.709535998e-06)
(0.008273366401 5.620367035e-06 -5.688229094e-06)
(0.008276300898 9.200631934e-06 -1.780603591e-07)
(0.008298684872 -4.778019929e-06 -3.200387478e-06)
(0.008265365637 1.599284629e-06 -1.1634054e-05)
(0.008229247341 7.110951396e-06 -7.611885118e-06)
(0.008249887662 5.728094298e-07 -3.4222598e-06)
(0.008291445136 -3.792548073e-06 -8.0666453e-07)
(0.00830289986 -2.082325002e-05 -4.703887179e-06)
(0.008337096377 -2.703149368e-05 -2.268790356e-06)
(0.00831549634 -2.620008978e-05 3.409468404e-06)
(0.008257300541 -1.244554135e-05 5.615787546e-06)
(0.008309779036 -8.532719995e-06 5.097416386e-06)
(0.00833772218 -3.013491609e-06 1.823339146e-08)
(0.008385198203 8.995532625e-06 3.507258553e-06)
(0.008412877931 1.80252766e-05 7.961264478e-06)
(0.008372388639 4.363619692e-05 7.161895657e-07)
(0.006364372653 -6.825345929e-06 -2.571044713e-06)
(0.00838920046 -5.656119263e-06 -6.982566485e-06)
(0.008403600887 3.972236617e-06 -9.784754978e-06)
(0.00842398698 2.414890243e-06 -1.892406128e-05)
(0.008451892215 -2.055120879e-06 -1.143849471e-05)
(0.008450553884 8.748606795e-06 -1.31050618e-05)
(0.008393616943 2.06639988e-05 -4.375259342e-06)
(0.008442876496 1.238786947e-05 2.379279908e-06)
(0.008414608742 -1.124309712e-06 1.311094253e-06)
(0.008406466327 -5.138635667e-06 7.548488055e-06)
(0.008357993019 -8.194410374e-06 -3.333769598e-06)
(0.008372056221 -5.979833991e-07 2.91019131e-06)
(0.008337516491 2.854824209e-06 4.009461923e-06)
(0.008336182712 -1.550913202e-06 3.795713322e-06)
(0.008363412215 -6.127132234e-06 2.466572916e-06)
(0.008273303233 -6.689825731e-06 -7.206750875e-06)
(0.008232212648 -2.469295803e-06 -1.498829875e-05)
(0.008186772957 1.377686276e-06 -6.362112914e-06)
(0.008189946408 9.408764358e-06 -1.350782772e-05)
(0.008278557036 1.152404589e-05 -1.626486022e-05)
(0.006310280433 -5.393339714e-06 1.045991408e-06)
(0.008331449907 -5.503945564e-06 6.408267822e-06)
(0.008317872071 -5.027835297e-06 1.593578304e-05)
(0.008279117948 -1.085006725e-05 1.677911822e-05)
(0.008311937997 -3.288907689e-06 1.334083228e-05)
(0.008321401821 -5.453562218e-06 2.873908248e-06)
(0.008340891699 -5.989318525e-06 5.075693482e-06)
(0.008339972432 -6.935793738e-06 -8.645146822e-06)
(0.008385356191 3.499033067e-06 -3.199654969e-06)
(0.00839990586 5.823038512e-06 -2.482123675e-06)
(0.008388548422 8.907002794e-06 8.390517435e-07)
(0.008398534651 -4.172149751e-06 -1.738919689e-06)
(0.008459680783 6.057823924e-06 -4.831310165e-06)
(0.008412137571 1.278971037e-05 -1.563378235e-05)
(0.008375939508 1.603021855e-05 -1.654862174e-05)
(0.008350130127 2.19358197e-05 -1.00351828e-05)
(0.008334126182 1.558687109e-05 -2.947639561e-06)
(0.008336059593 1.312263777e-05 -4.385322347e-06)
(0.008299482087 2.264141239e-05 1.308504202e-07)
(0.008275551778 1.096131556e-05 -4.146916473e-06)
(0.006376798929 -1.044997462e-05 8.991775685e-06)
(0.008357858796 -2.039554417e-05 6.23982367e-06)
(0.008347185929 -1.49517351e-05 4.308507878e-06)
(0.008332467528 -2.297104505e-06 1.116204654e-05)
(0.00826021864 -6.227651132e-06 1.122716834e-05)
(0.008291623725 -8.42458483e-06 1.840415353e-05)
(0.008332759991 7.65451557e-07 1.549827467e-05)
(0.008297444486 -3.13900174e-06 1.591621633e-05)
(0.008313517154 -1.027863295e-05 1.535042971e-05)
(0.008292414854 -4.559777801e-06 7.471438697e-06)
(0.008290172503 3.52649858e-06 3.837012096e-06)
(0.008276679902 1.732480178e-05 1.60064707e-06)
(0.008177385123 2.573955251e-05 1.048070778e-05)
(0.008211217635 1.451504262e-05 2.116527003e-05)
(0.008247448292 7.441971046e-06 2.513801201e-05)
(0.008311843276 5.07371389e-06 1.700176257e-05)
(0.008356680497 1.163513539e-05 7.670316414e-06)
(0.008339750471 2.031464304e-05 4.295742399e-06)
(0.008375741829 2.142858355e-05 -4.451777205e-06)
(0.00831983021 1.939696759e-05 -6.510369392e-06)
(0.006371125821 1.146110379e-05 -3.477100883e-06)
(0.008304466696 1.591233928e-05 2.326163886e-06)
(0.0082756534 -3.965040098e-06 -4.271062764e-06)
(0.008281263205 2.044252896e-06 -1.428117061e-05)
(0.008286857038 2.614275991e-06 -1.29032841e-05)
(0.008307234063 -5.186060438e-06 -1.857545929e-05)
(0.008228811847 2.072429121e-06 -1.748073232e-05)
(0.008269309075 4.192141084e-06 -1.283067688e-05)
(0.008232959534 1.058448952e-05 -1.295110979e-05)
(0.008231149621 1.304611417e-05 -1.01851744e-05)
(0.008259150429 6.141486251e-06 -2.788506073e-06)
(0.008279779667 6.40999529e-06 -2.538199657e-06)
(0.008289813785 -2.502844446e-07 -1.253510833e-05)
(0.008339816216 6.027828041e-06 -2.354769099e-05)
(0.008304055353 1.217701392e-05 -2.244563952e-05)
(0.008264168871 3.728969284e-06 -1.199592794e-05)
(0.008263533981 6.02252054e-06 -1.628945358e-05)
(0.008297584552 -4.306314267e-07 -7.859176519e-06)
(0.008274412189 1.591463076e-05 -6.310654709e-06)
(0.008263219168 1.432262179e-05 4.686910285e-07)
(0.006345341443 4.390879812e-06 3.871066609e-06)
(0.008333761653 -3.685540136e-06 1.217367831e-06)
(0.008341964338 1.263482907e-05 6.549740137e-06)
(0.008375344382 1.804358614e-05 3.44841012e-06)
(0.00834678084 1.833134334e-05 1.225905794e-05)
(0.008288459653 1.050848752e-05 5.72333768e-06)
(0.008336860182 2.445919728e-06 9.048284667e-06)
(0.008333721537 8.811674472e-07 5.925234662e-06)
(0.008319345035 -8.166531521e-06 7.526647403e-06)
(0.008304694736 -9.024918786e-06 -3.339675379e-07)
(0.00827969402 1.757875648e-07 -7.047849675e-06)
(0.008277767009 2.43361244e-06 9.544620006e-08)
(0.008286655038 9.41112169e-06 3.993677434e-06)
(0.008294558279 6.144597627e-06 1.00371144e-05)
(0.008303857236 8.188036622e-06 1.300699123e-05)
(0.008311815249 2.068041429e-05 1.183572279e-05)
(0.008344109658 1.659552672e-05 1.839178661e-05)
(0.008306910316 1.223686329e-05 8.763686182e-06)
(0.008329072039 1.285681155e-05 1.731010562e-05)
(0.008332285493 1.499387374e-05 1.391447144e-05)
(0.00636352824 1.128207467e-05 -3.596841607e-06)
(0.008358863033 1.402049278e-05 -6.888651519e-06)
(0.008358997737 1.775538688e-05 -1.14418838e-05)
(0.008262566631 4.920843937e-06 -1.272636315e-06)
(0.008306519633 -8.229758071e-06 -1.606142538e-05)
(0.008359784006 9.372592176e-06 -1.221099117e-05)
(0.008325086628 1.471498227e-05 -5.777559842e-06)
(0.008328014202 1.804509656e-05 3.033217359e-06)
(0.008306181821 2.266118457e-05 3.487967777e-06)
(0.008319194659 2.091254922e-05 5.8715155e-06)
(0.008333604813 3.645242333e-06 8.584286793e-06)
(0.00833244206 3.782084794e-06 6.064977488e-06)
(0.008271444033 5.911121843e-07 5.104909023e-06)
(0.008268974362 -4.32190985e-06 -1.037015752e-07)
(0.008252895356 -3.734208437e-06 -7.824831158e-06)
(0.008247568704 -4.480937631e-06 -1.033028574e-05)
(0.008264947012 9.682530156e-07 -8.854283624e-06)
(0.008272863141 3.413572959e-07 -1.273948064e-06)
(0.008272270296 6.566879182e-06 2.3930907e-06)
(0.00826957254 1.009894776e-05 7.710936104e-06)
(0.006344117509 5.425709325e-06 -8.485258553e-06)
(0.008348619109 5.190683125e-06 -1.375568415e-05)
(0.008429631767 -7.066829884e-06 -1.311963776e-05)
(0.008429099614 4.458720312e-06 -1.205187976e-05)
(0.008409241687 1.973237057e-05 -5.922589025e-06)
(0.008385691468 2.025236405e-05 -2.185558414e-06)
(0.008360161473 3.66190538e-06 -7.153844753e-06)
(0.008347543033 1.709487315e-05 -6.978318947e-06)
(0.008364920157 6.090385844e-06 -9.449731152e-06)
(0.008345992796 1.335728363e-05 -1.695115499e-05)
(0.008358951016 1.458180597e-05 -1.141812678e-05)
(0.00836095993 1.48406896e-05 -9.197649825e-06)
(0.008393339159 1.800898659e-05 -1.0805559e-05)
(0.008362502962 2.375691791e-05 -1.167714097e-05)
(0.008386180077 8.76959892e-06 -5.823594165e-06)
(0.008374873567 7.482067246e-06 -8.483147059e-06)
(0.008380757575 8.912482669e-06 -3.270373696e-06)
(0.008409563604 -5.668490845e-06 -9.927612639e-06)
(0.00841822432 2.772103887e-06 -1.559872804e-05)
(0.008403365938 -7.436685366e-06 -2.453506977e-05)
(0.006355107085 -1.929528452e-05 -1.684839999e-06)
(0.00831930867 -9.337857189e-06 -1.66988109e-06)
(0.00826710415 1.379440786e-05 -3.598922047e-06)
(0.008284738295 5.661133484e-06 4.523525704e-07)
(0.008293813569 1.102719919e-05 -9.893089086e-06)
(0.008317175573 1.316521979e-05 -8.42704459e-06)
(0.008317843828 1.974815522e-05 -4.110371322e-06)
(0.008248197465 1.554188036e-05 -1.771805243e-05)
(0.008280211329 1.033134255e-05 -7.581071377e-06)
(0.008313363329 8.617137673e-06 -1.148304902e-05)
(0.008355976954 4.11485557e-06 -1.329422147e-05)
(0.008361645052 4.39140342e-06 -2.055496381e-05)
(0.008340446766 -7.123307638e-06 -1.651380991e-05)
(0.008395485821 1.19145637e-06 -7.550606208e-06)
(0.00839749636 1.328320836e-05 -1.233375887e-06)
(0.008433216135 9.82261516e-06 -7.839426607e-07)
(0.008404684204 1.225155118e-06 -4.425408003e-07)
(0.008389983414 -2.333100492e-06 -1.784184443e-06)
(0.008366846496 -1.618170818e-06 5.915033144e-07)
(0.008334789646 8.162098733e-07 -2.275119789e-06)
(0.00633915502 1.772383707e-05 2.757613946e-07)
(0.00832732418 1.482464549e-05 -6.038526931e-06)
(0.008320764668 -9.981137253e-06 -1.214665917e-05)
(0.008269074816 1.04182178e-06 -1.006284953e-05)
(0.008284201655 1.077135537e-07 -9.230271156e-06)
(0.008261188154 1.100594407e-05 -6.68650436e-06)
(0.008341137148 5.500992368e-06 -1.487572907e-05)
(0.008394713906 7.388137408e-06 1.669363528e-06)
(0.008441267406 7.844167405e-06 4.997067351e-06)
(0.008428415435 1.00835199e-05 1.873792399e-07)
(0.008357621556 1.212890468e-05 2.028715186e-05)
(0.008311378823 -3.743682321e-06 1.267276099e-05)
(0.008318528221 -5.22674526e-06 8.764881958e-06)
(0.008358734499 -1.095675697e-05 1.044106758e-06)
(0.008353635098 -1.842972679e-05 -1.434210921e-05)
(0.008339543784 -1.081070965e-05 -1.167068299e-05)
(0.008329597289 -6.652165922e-07 -9.16784071e-06)
(0.008317503284 1.756692007e-05 -1.376005286e-05)
(0.008370347193 2.11673725e-05 -1.19502766e-05)
(0.008371711677 3.027752626e-05 -1.443498826e-05)
(0.007773820629 0.001740491239 -6.463711208e-05)
(0.008063424263 0.002283745028 2.136118966e-05)
(0.007981550285 0.0023034759 9.858557191e-06)
(0.007645325864 0.002200529565 5.018229568e-05)
(0.007296140103 0.002141980385 6.900661622e-05)
(0.007037350818 0.00200740291 1.048601733e-05)
(0.006639157359 0.001927403276 -7.028044608e-06)
(0.006285569339 0.001847886273 -7.547789578e-05)
(0.005961421727 0.001688085339 -6.879100248e-05)
(0.005742945999 0.001674075012 -2.529088191e-05)
(0.008400858276 0.001263005599 -5.087231933e-05)
(0.008967753482 0.002097890856 -3.887814408e-05)
(0.009464133805 0.002582148843 1.958906946e-05)
(0.009803680199 0.002844968912 -1.346225323e-05)
(0.009931149921 0.002956860614 -9.249643035e-05)
(0.009790523175 0.003045027162 -0.0001087489189)
(0.009593090688 0.002954078757 -7.135296789e-05)
(0.009316024824 0.002934683807 -6.910497896e-05)
(0.009040212651 0.002801480277 -4.420365349e-06)
(0.008733649281 0.002652105764 1.942413178e-05)
(0.008422634637 0.0008900201532 8.126929939e-06)
(0.008923959299 0.001506996015 -5.193035666e-05)
(0.009436395771 0.002072308934 -4.052655291e-06)
(0.00995804671 0.002558393515 -4.755405838e-05)
(0.01027691768 0.002876397546 -2.971005702e-05)
(0.01061423115 0.003195632652 -3.517478553e-06)
(0.01076784846 0.003365321021 -4.015516002e-05)
(0.01085256511 0.003448168163 -6.666459457e-06)
(0.01078612824 0.003411656222 -2.57801875e-05)
(0.01051960613 0.003422541246 -2.498090893e-05)
(0.008435035546 0.0006149321818 2.535291835e-05)
(0.0086980134 0.001038762225 2.665847869e-05)
(0.009060862377 0.001486036244 5.565337479e-05)
(0.009522986595 0.002007980565 -1.157057867e-05)
(0.009977664054 0.002444379221 2.752403293e-05)
(0.01047865115 0.002808077467 -1.983371442e-05)
(0.0109255458 0.003158962561 1.337814154e-05)
(0.01126351287 0.003403749351 -4.022492376e-05)
(0.01141455011 0.003613407302 -7.892227224e-06)
(0.01148295748 0.003699794072 -3.767338958e-05)
(0.008419214241 0.0004446154365 -1.524698732e-06)
(0.008606924073 0.0007510360374 6.403280337e-06)
(0.008924386891 0.001094458676 1.53225852e-05)
(0.009266112775 0.001476566846 5.282094515e-06)
(0.009751287019 0.001883170747 1.976462555e-05)
(0.01009695744 0.002319048871 2.535753396e-05)
(0.01045686304 0.00267822401 -5.64911396e-06)
(0.01088218062 0.002995863419 -8.942359767e-07)
(0.01129620966 0.003351928767 -3.070854509e-05)
(0.01167345107 0.003605431179 -1.266934987e-06)
(0.008357504072 0.0003266237565 3.016764226e-06)
(0.008505375718 0.0005305948668 1.118575131e-05)
(0.00872960492 0.0007816828304 3.330909732e-05)
(0.008999500625 0.001103485315 2.166360726e-05)
(0.009320361417 0.001432328749 5.971399866e-06)
(0.009778118934 0.001782602084 -1.975174277e-05)
(0.01025883889 0.002217536416 -1.94243909e-05)
(0.01065806619 0.002541806716 1.126039832e-05)
(0.0110666198 0.002914194746 2.504263207e-05)
(0.01149903702 0.003216221687 -1.378596385e-05)
(0.008439883885 0.0002397719964 -8.343431479e-06)
(0.008540399364 0.0003834106847 -4.820015909e-07)
(0.008646644129 0.0005525280107 -2.810818726e-05)
(0.008847483133 0.0008113707021 -1.189948e-05)
(0.0090873969 0.001041191783 -3.209715039e-06)
(0.009436916475 0.001349306039 -4.172361945e-05)
(0.009827797886 0.00168544934 -4.095952491e-05)
(0.01025094768 0.002046444612 -1.977715473e-05)
(0.01076534117 0.002411766017 -3.352038288e-05)
(0.01122891821 0.002754461422 -1.126105294e-05)
(0.008391039569 0.0001743085282 -1.102542852e-05)
(0.008423827533 0.0002906680104 -1.726588313e-05)
(0.008568511154 0.0004090104377 6.037801361e-07)
(0.00867660669 0.0005794218223 2.694905059e-06)
(0.008902794444 0.0007521364819 1.699732648e-05)
(0.009114100014 0.0009935516859 2.126505144e-05)
(0.009508789327 0.001234533042 5.734508106e-06)
(0.009808780911 0.001524692008 -5.730720165e-06)
(0.01018023163 0.001875558685 -9.27659825e-06)
(0.01057763913 0.002219483217 1.553814369e-05)
(0.008371415659 0.000153084334 -1.444288706e-05)
(0.008454287741 0.0002174180375 6.033110074e-06)
(0.008525348527 0.0003024787004 4.831760086e-07)
(0.008660982084 0.0004040713847 -1.177861325e-05)
(0.008808663958 0.0005514904793 1.281881758e-05)
(0.008970656936 0.0007168024229 3.629119176e-05)
(0.009128491763 0.0009381259559 -5.089270153e-07)
(0.009368982548 0.001157750516 -1.559656937e-05)
(0.009738901844 0.001416936404 -2.349052658e-05)
(0.0100838212 0.001719546963 -2.795895966e-05)
(0.008437341753 0.0001023953162 2.609314374e-06)
(0.008507007339 0.0001601342428 -6.215488153e-06)
(0.00858985867 0.0002198423203 -6.1876027e-06)
(0.008558652319 0.0003096627803 -1.427894392e-06)
(0.008653051257 0.0003933195893 -4.597876535e-06)
(0.008802726672 0.0005369789701 9.199069252e-06)
(0.009023112934 0.0007233465933 -1.637463495e-05)
(0.009204194091 0.0008607592896 8.854490406e-06)
(0.009349367306 0.001077876436 1.983542476e-06)
(0.009607876698 0.001309823315 -9.819330154e-06)
(0.008442795853 6.85426998e-05 -1.193889448e-05)
(0.008448347201 0.0001130578887 -1.819679875e-06)
(0.008542616515 0.0001635242888 -2.147683571e-05)
(0.008596205569 0.0002453400907 -8.355275942e-06)
(0.008679151394 0.0003073918288 -8.067623899e-06)
(0.008687979398 0.0004044041746 -5.96132382e-06)
(0.008764965919 0.0005330672176 2.116093739e-05)
(0.008949635588 0.0006705424533 2.974782411e-05)
(0.009124535086 0.0008381033585 3.855668415e-05)
(0.009364279538 0.001023017189 1.999482601e-05)
(0.008333454334 4.024133511e-05 1.801848629e-05)
(0.008298758765 6.17987486e-05 1.36375503e-05)
(0.008300776369 9.931219026e-05 1.430789637e-05)
(0.00832755819 0.0001616399772 1.977968821e-05)
(0.008365218922 0.0001995790068 1.515492331e-05)
(0.008467328623 0.0002777723625 1.439120031e-05)
(0.008555877041 0.0003701875659 1.172086343e-05)
(0.008718042585 0.0004858102758 -5.54515834e-06)
(0.008895345024 0.0005945373146 8.09886328e-06)
(0.00909146546 0.0007406186093 1.252743543e-06)
(0.008356482182 5.879508879e-05 5.305725271e-06)
(0.008388452614 8.455393181e-05 9.681870045e-06)
(0.008366651969 0.0001152247863 9.633082632e-06)
(0.008436319252 0.0001296989919 -2.709252785e-06)
(0.008452582943 0.0001575558313 -5.568398337e-06)
(0.008548209236 0.0002289647775 -1.400598928e-05)
(0.008669483746 0.0002714682798 -9.863523982e-06)
(0.008693969872 0.00035244844 -1.88182146e-05)
(0.008749562644 0.0004344966943 -2.586626039e-05)
(0.008921242807 0.0005486246593 -1.012209994e-05)
(0.008323528202 3.174667887e-05 -1.117392314e-05)
(0.008327657384 3.934131249e-05 -1.226165418e-05)
(0.008384011875 7.043097031e-05 -1.62874263e-05)
(0.008359423984 9.895095819e-05 -1.279745303e-05)
(0.008380621008 0.0001183586313 -2.012060821e-05)
(0.008388792592 0.0001476324846 -2.454794797e-05)
(0.008431990102 0.0001814839464 -1.375224385e-05)
(0.008536902527 0.000258263362 -1.122695287e-05)
(0.008625760666 0.0003184887155 -2.595281313e-05)
(0.008713176841 0.0003926143893 -8.91586192e-06)
(0.008256419807 2.446769167e-05 -7.374587961e-06)
(0.008250892011 3.289299694e-05 -6.456939355e-06)
(0.008311602803 4.300375742e-05 4.008716225e-06)
(0.008384545505 4.966254949e-05 5.663209105e-07)
(0.008355938424 8.614753556e-05 6.142166503e-06)
(0.008448483048 0.0001121978953 3.381086054e-06)
(0.008411366619 0.0001529455746 7.337792072e-06)
(0.008459465745 0.000186884454 2.816220272e-06)