/*--------------------------------*- C++ -*----------------------------------*\
| =========                 |                                                 |
| \\      /  F ield         | OpenFOAM: The Open Source CFD Toolbox           |
|  \\    /   O peration     | Version:  2406                                  |
|   \\  /    A nd           | Website:  www.openfoam.com                      |
|    \\/     M anipulation  |                                                 |
\*---------------------------------------------------------------------------*/
FoamFile
{
    version     2.0;
    format      ascii;
    arch        "LSB;label=32;scalar=64";
    class       volVectorField;
    location    "0.008";
    object      momentum;
}
// * * * * * * * * * * * * * * * * * * * * * * * * * * * * * * * * * * * * * //

dimensions      [1 -2 -1 0 0 0 0];

internalField   nonuniform List<vector> 
654
(
(0.007103838862 -0.000242460063 -6.386080407e-05)
(0.006124815966 0.0004343094806 -4.644035552e-05)
(0.009770246136 0.001262911618 -0.0007371551574)
(0.00514423097 0.0003060272598 -5.192085623e-05)
(0.00290104862 7.376271135e-05 -0.0004310290901)
(0.009503689299 -0.0005009441895 0.0004863453033)
(0.0119207072 5.548709813e-05 -0.0001066085244)
(0.008959123002 0.0003396747841 0.0008206991261)
(0.01036810995 0.000810737742 -0.0003046211423)
(0.005746216244 9.096997614e-05 -0.0005847116582)
(0.01429931252 0.0007728475364 -0.0001829370922)
(0.00613705645 0.0003710631137 0.0002102142011)
(0.006865786777 -4.171713517e-05 -3.050479203e-05)
(0.009793708105 0.0002340682962 -0.0005739119543)
(0.003686110918 -0.0002387176651 -0.0005442693307)
(0.01379868048 0.0004207616859 -0.0007816424931)
(0.0116488408 0.0004714359936 0.0003939061553)
(0.002903328634 -4.596033684e-05 -0.0001575674063)
(0.0110069134 -0.0005162977721 0.0002953363084)
(0.007075153059 -0.0001704449327 -3.069524998e-05)
(0.006126063919 0.000112142639 -2.748055602e-05)
(0.007903529466 -0.001525288262 3.593306026e-05)
(0.009449734787 -0.0004097560876 -0.001238322431)
(0.009051785149 0.0002044355072 -0.0001459564779)
(0.006552880431 0.000315862365 0.0001696779253)
(0.01238374707 0.0005389024963 0.0001121565298)
(0.005681763761 2.240331908e-05 -0.0001360093198)
(0.01248715322 -0.0001385633135 5.895542052e-05)
(0.00701827441 0.0001012593037 -0.0006764923677)
(0.008768596622 -0.001117116101 0.000310765575)
(0.005279133265 -0.0005603242579 -0.0003452906706)
(0.01091157019 0.0008861569215 -7.90013959e-05)
(0.01018954211 -0.0007071479077 -0.0006445104535)
(0.006966328021 -1.267600692e-05 2.438285546e-05)
(0.01050794705 0.0004856492902 9.007025755e-05)
(0.01487088622 -0.0001009484016 -0.0003601162903)
(0.009543051743 -0.0003673277099 -0.0009217259678)
(0.005002113297 -0.0003567438715 -0.0003010944286)
(0.006931455916 0.0006414382277 0.0003109499118)
(0.003269583269 0.0005342961622 0.001487066317)
(0.006771344068 0.0006316714883 0.0001917084819)
(0.00925100887 -0.0005503366454 0.000515168648)
(0.009128169142 -0.0005013660783 0.0005827772846)
(0.009501859059 0.0001818226522 -0.0001869211577)
(0.00474169104 0.0004160729801 5.381227995e-05)
(0.008312386337 -7.019897506e-05 -0.0008540493351)
(0.01040857064 -0.0001321880494 -0.000301379683)
(0.01141126726 -0.0002567298919 0.0006894032049)
(0.006749164317 0.0001558634544 7.15647895e-05)
(0.007417730019 0.001427710234 -0.0003131641733)
(0.009513469522 0.0004978564671 -0.0003936150193)
(0.008447503037 -0.000712928387 -0.0006063435511)
(0.01206696541 0.0004775726706 1.329263549e-05)
(0.006987902736 0.0003822282947 -0.000306839455)
(0.004531840827 0.0002068647758 0.00013590865)
(0.006803702265 -0.0003924905118 0.0004202300597)
(0.006884387864 0.0002852831214 2.180255137e-05)
(0.01017203642 -8.175408092e-07 0.0004256904855)
(0.01159301611 0.001566999086 -0.0007387958833)
(0.008150124893 0.0001396631635 0.000977617119)
(0.006825641553 -0.0001726316378 -0.0003145885995)
(0.005563247257 -0.0005817290918 -0.0007233416069)
(0.009444316235 0.001280147259 -9.121439305e-05)
(0.007762471604 -0.001009898113 0.0008814514492)
(0.01045562612 -0.0006277484937 -0.0005990444862)
(0.007675033457 0.0002295153207 -0.0002455344898)
(0.008277021109 -1.627906121e-05 -0.0002604738398)
(0.006365808815 -0.0003149923047 -0.000104406622)
(0.007192809151 5.081303368e-05 0.0003911866375)
(0.007896700119 0.000281499437 -2.390813776e-05)
(0.009785367937 -3.241868365e-05 -0.000440772205)
(0.01622874338 -0.000759166422 -0.0001362935909)
(0.005068130527 -8.721768355e-05 -0.0003945384769)
(0.006766839584 0.0004207395947 0.0004142415436)
(0.01161432126 -0.0002292567107 -0.0002021731215)
(0.00783371089 -0.0007034504201 -0.0002186154363)
(0.005947346358 0.0003753481839 0.0002902454903)
(0.006716217695 0.0001063482912 0.0005058640134)
(0.006236939311 0.0002454081132 0.000214568798)
(0.008197660419 -0.0007302089573 0.001076754189)
(0.008063164972 8.603743987e-06 -0.0005975770836)
(0.004482157327 0.000125994049 6.062175215e-05)
(0.007384027676 -0.0004926175263 -0.001067702368)
(0.009043464948 0.000477441922 0.0006315022174)
(0.01297244998 0.0002790927882 -0.0008925529629)
(0.002653635375 -8.708804577e-05 -7.424276311e-05)
(0.008793493635 -0.0001461106736 -0.0001007840631)
(0.009644298983 0.000393911325 0.0007689235441)
(0.009925468573 0.0006557218366 -0.0004481386871)
(0.00955109297 -0.0005456845847 0.0002333495432)
(0.008406257099 -0.0008282060799 -0.0003042065574)
(0.006263654669 0.0001435377159 0.0003405532702)
(0.007057928698 1.056714244e-05 -0.0003691077866)
(0.01031503405 -0.0002960786489 -0.0003835289947)
(0.004740436049 8.397989514e-05 -6.533596797e-05)
(0.01204643632 -0.0003469536046 0.0007845967451)
(0.01247345381 0.0009228280149 0.0001526221624)
(0.006109074664 0.0003815729841 0.0004731097073)
(0.007933650692 0.000110049105 -0.0004811367167)
(0.01101263433 0.0004319594577 0.00014782803)
(0.003872626368 -0.0005486057397 -0.0005353053656)
(0.01025460813 -0.0002887468321 -0.001264670269)
(0.007979932805 -0.000192304655 -0.0001200864714)
(0.004508599262 7.741531976e-06 0.0002636058217)
(0.007569108473 -0.0001208998702 -6.428123808e-05)
(0.004969007574 0.0004476267512 0.0001587288178)
(0.01265724033 -0.0007584903154 0.0001741866916)
(0.007871822825 -0.000259381559 -5.242916308e-06)
(0.01171254285 -0.0003029901125 -0.0007294362238)
(0.005947601122 0.0002969631724 0.0004802647136)
(0.00631883636 -0.0001847476227 0.0009943025375)
(0.009081633515 0.0002061267883 0.000125932502)
(0.0106571424 0.0006984681048 0.0001206054739)
(0.006029375109 -0.000394275258 0.0003367459411)
(0.01174415659 0.0006351866424 5.199114123e-05)
(0.01028630106 0.000961093392 -0.0005506411367)
(0.0106212385 0.0001589535184 -0.0003827678355)
(0.009449287385 0.000692434757 -0.0007829604993)
(0.008777146872 0.0006405811845 0.0003227572575)
(0.007103123782 0.0004173033514 0.0001634810596)
(0.006454504958 0.0001887318468 0.0003340395945)
(0.007097583503 2.885748901e-05 -0.001056568087)
(0.01162287963 -0.000680971236 0.0002790130012)
(0.01441684308 -0.000393826758 0.000807169794)
(0.008815491935 -8.810902805e-05 0.0004247323585)
(0.006959078348 0.0004416107407 4.829961026e-05)
(0.005397191552 -0.0003460016442 -0.0003905661602)
(0.01201389655 -0.0001979056088 -0.0003830010477)
(0.005248969418 9.291314251e-05 0.0006761571845)
(0.007419216133 0.0006191021556 -0.0004273016634)
(0.01265306299 -0.0006405610603 -0.0004649089402)
(0.01078319716 -0.0007621443872 0.0005364136376)
(0.007776270851 1.002171753e-05 4.672361735e-05)
(0.01041283172 0.0006767738155 0.0003323114751)
(0.01057304599 -6.516582702e-05 -0.0008798206906)
(0.009987335916 -0.0004106074693 0.000327784644)
(0.004503808924 -0.0007665576745 0.0004637418149)
(0.00393085638 -4.563927718e-05 -0.0001171954267)
(0.007994590459 0.0003982402475 -0.0005876298548)
(0.007686077175 0.001442085698 0.000230313311)
(0.007654818906 -0.0001793580046 -0.0003828114961)
(0.01145262687 -0.0001564527972 -0.0001650651502)
(0.002575181412 0.0002200091801 0.0001701895177)
(0.002810661953 0.0002492224112 -0.0001016794636)
(0.006053519814 0.000837112579 0.0003816285189)
(0.01212925633 -4.035252085e-05 0.0002463458052)
(0.007697472764 0.0002550365222 -0.000584573132)
(0.00648211447 -0.0002961330511 0.0002123778573)
(0.005749132112 -0.000259686253 0.0009536990571)
(0.008279771255 -1.192406555e-05 0.0003885085819)
(0.01298214991 -0.0007417362933 -0.0001595739263)
(0.006551600398 -0.0004147972289 -0.0006321747574)
(0.005890848607 -0.0007438992869 0.0002788456389)
(0.008709585055 0.000108369958 0.0001400362451)
(0.01102776604 0.0002710438388 0.0008916777845)
(0.01357305937 0.00012600228 -0.0003522672071)
(0.007300095363 -0.000176903091 3.867550352e-05)
(0.00159181903 -1.890160349e-06 -0.000110495755)
(0.01506372889 -0.0002530750516 -0.0006750692561)
(0.007599776286 0.0006996427529 0.001406982772)
(0.00465792409 -0.0001571129281 -0.0007603080589)
(0.009019569334 0.000186752355 0.0002574329109)
(0.008849247282 0.0002791862826 -0.000313262688)
(0.006022176356 -0.0003820415212 0.0004203514892)
(0.009793607872 0.0004124381248 0.0006237729706)
(0.009874279754 0.000155021158 -0.0005585551982)
(0.00582231859 -0.0002055378231 -0.0001487376127)
(0.006114244598 -0.0001342555884 -0.0007240582274)
(0.005808946262 -0.0003793551672 -0.0001889878303)
(0.01111049094 0.0008436190277 0.0009100077786)
(0.004652064199 -9.595641817e-05 0.0001198567518)
(0.005376195855 0.0005000078799 0.0002289622482)
(0.01077011173 -0.0003987477094 -0.0004491984069)
(0.005607441185 -4.880354391e-05 -0.0005575617339)
(0.01062018224 -0.0003826258432 0.0001805701617)
(0.006634693633 -0.0004343604407 0.0001394077534)
(0.00757509509 -0.0003665647932 -0.0002130695914)
(0.007921729139 -5.480479539e-06 0.0004948190121)
(0.009141230814 0.0002451636524 0.0003628628024)
(0.007209250364 0.0005264024838 0.0001511500412)
(0.006398160923 3.439032643e-05 -0.000161590096)
(0.004426850322 0.000518965549 0.000324702965)
(0.008235731086 0.0009325719542 -5.414222649e-05)
(0.01295164111 0.0007802028579 -4.02367898e-05)
(0.009676465646 0.0002165835924 0.00064709988)
(0.0100584029 -0.001135955713 -0.000543045697)
(0.008089217733 0.0003786757819 -0.0001497508545)
(0.006025270012 0.0003500696034 0.0001609064265)
(0.005255569753 0.0002282875612 0.0003573460754)
(0.007415538356 0.000431020937 0.00016752276)
(0.007081852518 -0.0002520641307 0.0006109309449)
(0.005945248446 0.000134678387 -0.000102136419)
(0.008218522267 0.000610430984 0.0005472755481)
(0.007920000422 0.0004136376449 0.0003144490728)
(0.01201943917 -7.54644805e-06 0.0007996806891)
(0.01019674467 3.681434669e-05 0.0005398264524)
(0.0107801639 0.0001110892072 -0.0004288287362)
(0.01201960507 -0.0004381176708 -0.0006078224424)
(0.005242652832 0.0002133193877 0.0001913450366)
(0.00941508625 0.0006911055489 -0.0003106821387)
(0.007399031193 0.0001143011923 0.000350263062)
(0.007616054736 0.0003368546127 -0.0002242779875)
(0.005065831195 0.0001998030581 4.865963806e-05)
(0.006938581114 -0.0007514258637 -2.863306299e-06)
(0.01101143211 1.67288797e-05 -0.0007051653728)
(0.007638140687 0.0003590377133 0.0005180339821)
(0.009182806227 -0.0005346324277 -0.0005480196596)
(0.008235422365 0.0004991415298 0.0002917508935)
(0.006981612185 0.0002553858068 -0.000716642124)
(0.01215894581 -0.0006577222182 0.0001044932391)
(0.00762944597 0.000290743086 -6.827682455e-05)
(0.009442496685 -0.0001911397383 0.0006165694201)
(0.008913388193 -0.0006945722112 -0.0005538912775)
(0.006832041509 0.0004473548312 -0.000242669119)
(0.005051374265 -3.29342123e-05 -0.0001357398928)
(0.01099715236 -0.0006625804392 -8.371295711e-05)
(0.006369374161 0.0003141508455 0.0006176002061)
(0.004771598302 4.616049693e-05 0.0001311261411)
(0.006596199016 -0.0006564334758 -0.0001041764829)
(0.01276945528 0.0005892698111 0.0001723584574)
(0.007155753656 0.0001660551786 0.0004594207719)
(0.00792955811 0.001287032116 -0.0003076733168)
(0.01294254705 0.0009389916644 7.928489731e-05)
(0.009181238738 -0.0003833227524 0.0002633159121)
(0.008404266959 0.0004259619775 -0.0005062733465)
(0.00482003904 0.0003895162645 -0.0002056477798)
(0.004771737517 0.0002177671971 -0.0004447110071)
(0.008348217024 0.0002906865091 -0.000861865005)
(0.007979604586 -0.000561930307 -0.0006119395578)
(0.01052395954 -0.0005410922899 0.0001876761916)
(0.00935897379 -8.770309085e-05 -0.0003018499853)
(0.007179375615 0.0001021617354 -0.0003851985584)
(0.008198627839 0.0002599064718 -0.0008803329885)
(0.007434149628 0.0001422061184 0.0005318977936)
(0.01279558201 0.0001802245513 -0.0004550032688)
(0.0105295323 -0.0006526613863 0.0003160027468)
(0.01273269493 -0.0006861965036 0.0002128156503)
(0.01052454376 -0.0002077807728 0.0001738347183)
(0.01143054259 -0.0002067089164 -0.0006006760823)
(0.007362085756 0.0005189696507 0.0006551202685)
(0.006278610692 -0.0005911535264 2.616699327e-05)
(0.008341106943 0.000325854302 -0.0002121881701)
(0.008761084193 5.360821838e-05 0.000712397382)
(0.01000463282 -0.0003952160424 -0.0001357112049)
(0.006169051316 0.0005726878927 0.0003743271149)
(0.0113023349 0.0001573096818 -0.001064806433)
(0.008156057605 0.0005068399684 0.0004449757241)
(0.007018889902 -4.505188238e-05 -0.0005452302011)
(0.01153855039 0.0002650663429 0.0003511685251)
(0.006762715544 0.0002587146204 -0.000181212828)
(0.008452985265 -0.0002769250525 -2.420315615e-05)
(0.005315961623 0.0005533643961 0.0006958461991)
(0.01045041041 -0.001028629732 -0.0005601935201)
(0.007110195281 -0.0001957794814 -0.0001220413959)
(0.005004166775 0.0001884092327 6.192809694e-05)
(0.008418993664 0.0004328613276 8.796548661e-05)
(0.01416365332 -0.0003808252126 0.0002609447517)
(0.009255229671 0.0001221702021 -0.0003436764596)
(0.004521809025 0.0001057980683 0.0002633463296)
(0.007515511557 -0.000365880835 -0.000564346951)
(0.005481765066 0.0003361970722 -0.0003242598407)
(0.008910828703 -1.804646941e-05 0.0003089146045)
(0.006642029855 -0.0002848420451 2.661397811e-06)
(0.008279566545 -3.74255266e-05 -0.0004309663213)
(0.00547789863 0.0001175454817 -3.125752348e-05)
(0.01056456623 -0.0001613261633 -0.0002524815608)
(0.007751539127 -0.001056092165 -0.0008406007293)
(0.007802454956 0.000604480445 4.643463545e-05)
(0.01660758036 -0.001436725438 0.0001116383714)
(0.007028569199 -0.0001358700826 -0.0002386963858)
(0.009800548431 -6.75365169e-05 0.0002598892828)
(0.009538516275 0.0006192714431 7.608451951e-05)
(0.006785640668 8.462632752e-05 -0.000763517564)
(0.01235178602 -0.0001282108518 0.0003145331488)
(0.00709241034 -0.0001773235909 0.0003671164298)
(0.005607792993 0.0004386433565 -0.0004059147974)
(0.00669237843 -0.0001190593227 5.548073512e-05)
(0.004654806746 -0.000502379528 0.0007597694144)
(0.01298171377 -3.836481639e-05 -1.361440243e-05)
(0.003390774235 0.0003960846101 0.0001596421253)
(0.007582142918 4.527069328e-05 -0.0001715755825)
(0.007620587153 -0.0004417404433 0.0001554405347)
(0.008432119796 -3.902235466e-06 5.128825025e-05)
(0.008934780752 3.035895755e-05 -0.0004798614967)
(0.006812717907 -2.671497772e-05 -7.470367608e-05)
(0.01005049211 -5.187803362e-05 -0.0005438503798)
(0.01057379771 -0.000300093568 -0.0008136736039)
(0.007858820653 0.0003334408747 0.0004920970862)
(0.00614236914 6.133655092e-05 -0.0005823590164)
(0.008468991417 8.722182254e-05 0.0001594870776)
(0.008098736366 -0.0003158671282 0.0002159120761)
(0.008492865556 -0.0002680511669 -0.0001569087799)
(0.009560936013 1.889410982e-05 0.0006840753238)
(0.006876121604 -0.0003888957194 7.248333866e-05)
(0.009567857853 0.0002809590031 0.0006510639193)
(0.006614468433 -0.0001607538272 -0.0005100161205)
(0.01131823135 -0.000507229666 -0.0003898530826)
(0.01237037364 -0.0001142495324 -0.0001639265509)
(0.005935104788 -0.0001019416275 -0.0002047576695)
(0.008026279593 0.0001210131276 0.0003279145753)
(0.005015850979 0.0005216840386 8.169253761e-05)
(0.00879768755 -0.0001608284893 0.0006337106562)
(0.008368420886 8.312542781e-05 -0.00058155547)
(0.008147620808 0.0005899378927 -0.0003279090565)
(0.007007645438 -0.0007358889035 -0.0004715415229)
(0.009589273606 0.0003859921297 -0.001029397892)
(0.005545412014 -0.0005675128684 0.0003509095759)
(0.005467128273 -0.0006581149644 -0.000212916167)
(0.008088643374 -0.0004650845296 5.898652658e-05)
(0.0116816744 -0.0001276958401 0.0006722734694)
(0.01162378457 0.0001073029805 0.0007699389118)
(0.00932778965 0.0004674275909 0.0002966446546)
(0.01024706978 0.0006196377365 0.0001372597351)
(0.01216912137 -0.0008229691054 4.854758594e-05)
(0.005307940337 -0.0003688652252 -0.0001318374303)
(0.006806688885 -0.0001518607004 3.467020217e-06)
(0.005113709293 -0.0005882253715 -3.511214872e-05)
(0.01018858262 0.0008857678443 0.000393617218)
(0.01106997171 0.0002483607455 0.0007849349763)
(0.005960519762 -0.0002951690083 -0.0008748161856)
(0.006760413315 0.0005272406315 0.001003935817)
(0.01039311992 -0.0001498080867 0.0002241350516)
(0.01040865573 -0.0004456262346 0.0005103906807)
(0.009387946643 0.0006738351201 6.493524845e-06)
(0.007105222164 0.000163117299 -0.0002793309346)
(0.01134553486 -0.0005248066168 -8.321481139e-05)
(0.008279217165 0.0004988254932 -0.0003567337316)
(0.007852569678 0.0001452942709 0.0004429536169)
(0.00505573518 -0.0007086096644 0.0001577912715)
(0.007834546929 -0.0002302274964 -0.0001782445083)
(0.008853191219 -0.0002425277226 0.0001223180277)
(0.007967333419 -7.253298241e-05 -0.0002093443469)
(0.006437919351 -0.0005659346241 0.0001107852535)
(0.008344718483 0.0004709999164 0.0008224144492)
(0.007610113822 0.0002518755758 -3.203922109e-05)
(0.0034107535 -0.0005419834407 -0.000284042656)
(0.009380838074 0.000178248733 0.0004234254915)
(0.005356229768 0.0001897557733 -9.684115842e-05)
(0.00515777974 -0.0001682573153 0.0005387263089)
(0.006294360447 -0.0002375789456 -0.0006086639927)
(0.005128079621 0.0001249501943 -0.0002252733714)
(0.009197619828 6.983894478e-05 -0.0007124701771)
(0.008087974881 0.0001123818027 -0.0002348525234)
(0.004194757574 0.0004681142368 -9.378138829e-05)
(0.007635758191 0.0001884828332 -0.0002243109064)
(0.00818670084 0.0003987102508 -0.0004325679285)
(0.00704927579 -0.0009021062876 -0.0002063726769)
(0.008643695465 0.000324267119 0.0004107298653)
(0.008859473484 -0.0009922537988 3.949507792e-05)
(0.01063179383 -6.070732053e-05 -0.0005444215318)
(0.01046645684 0.0003394723041 -0.0004321807483)
(0.007146050986 -0.0003142663623 0.0002404117673)
(0.01001570163 0.0004675211987 0.0002654660839)
(0.007254483977 0.0004223674477 0.000175966316)
(0.009973407943 0.0003011301313 -0.0009395817669)
(0.006649122191 0.0002291420466 0.0001673816676)
(0.007814683032 -0.0001955188754 -0.000210572076)
(0.0171707771 0.0001187189524 0.000836956843)
(0.01289484049 0.0002165667283 -0.0004565431126)
(0.004039731651 0.0002293951131 -0.0002675857211)
(0.005738254572 7.279549448e-05 0.0004711747361)
(0.009118238256 -6.87328602e-05 0.000312020143)
(0.008850595612 0.0001300678282 0.0002056322839)
(0.008707887032 0.0002475732236 -2.560176817e-05)
(0.007465435592 -0.000360148821 0.0002315580374)
(0.005108152338 9.893695001e-07 0.0001522268405)
(0.01542395281 -2.668689343e-05 -0.0008860212985)
(0.006819939806 -0.0004194828334 -0.0006402377223)
(0.008465308967 0.0009359646047 -8.630232675e-05)
(0.004383653674 2.32683669e-06 -0.0001654641098)
(0.008319196164 3.50552442e-05 -0.0003409690477)
(0.01882556843 -0.0006623726188 -0.0006008085414)
(0.008465260477 0.0001033613009 0.0009053152813)
(0.009534236119 -0.0004417892827 -0.0004777543446)
(0.00359621257 0.0001338504941 0.0001713986381)
(0.003109615364 -0.0004822303875 -4.167647261e-05)
(0.008360129223 0.0001073608577 -0.0004413378938)
(0.009940285181 0.0001099094705 0.000755920441)
(0.01005420199 0.0004964540177 -0.0007079184023)
(0.0116299706 -6.75831632e-05 0.0002296413838)
(0.007979200854 -0.0002527232094 -0.0007691583588)
(0.007303485894 0.000110701392 -7.035470228e-06)
(0.003609658169 0.0002710644822 -0.0004136204732)
(0.004879758687 0.0003147717711 -0.0001275570896)
(0.0122765309 -0.0007451728683 -0.0005923939159)
(0.01027278961 0.0001635558282 -8.891673385e-05)
(0.006802191479 0.0005789288104 0.0003908717236)
(0.008550183037 -7.876145295e-05 5.313699159e-05)
(0.004664308821 -2.028285561e-05 -0.0002703265041)
(0.008464149915 -0.0006926966984 -6.668112483e-05)
(0.006054559495 -0.000779776838 3.108930759e-05)
(0.0103592063 1.199325877e-05 0.0003364438398)
(0.005939973721 0.0001980368209 -5.033343223e-06)
(0.01009692736 -0.0003461907369 0.0003601989186)
(0.006819935604 -0.0001322281531 -0.0003409753114)
(0.009143029039 0.0006989865006 0.0004973253307)
(0.009518055806 -0.000564262249 0.0002780268042)
(0.006501201927 0.000111188022 -0.0003655445297)
(0.008576916584 6.505953443e-05 -0.0001780841603)
(0.008744001151 -2.005211776e-05 -0.0002193206)
(0.006976096206 0.0008754610546 0.0002522022376)
(0.00674294588 -0.0003667572553 0.0005079140837)
(0.008686556305 8.868514149e-05 -0.0003110608073)
(0.006771555034 -0.0002628102526 0.0004300087147)
(0.00678993053 0.0003233964086 -0.0001155153911)
(0.005729723884 -0.0001395483035 -1.980034328e-05)
(0.005038004571 0.0001588473647 -0.0004425623982)
(0.01160481219 0.000202495006 0.0002741417161)
(0.006935212608 -0.000305498857 -0.0004009754655)
(0.009212040863 0.0007389256275 0.0003917451991)
(0.007820523868 -4.817440136e-05 -0.0001437818742)
(0.01329261172 -0.0003533616848 0.000701519196)
(0.006771617201 -5.867733882e-05 0.000281486496)
(0.007306642507 -0.0004040587027 0.0008237369908)
(0.008918311037 0.0004220038923 -0.0002806618827)
(0.006566099892 0.0004869762939 6.2211414e-05)
(0.006037252501 -0.0008961438609 0.0007660892896)
(0.008417607764 0.0002036142876 0.0001391778095)
(0.009054917941 0.001481306885 0.000255132733)
(0.009497353925 -0.0007462435559 0.0007539941153)
(0.006192512541 -0.0004131582927 -0.0003494610639)
(0.005709247816 0.0001325691127 6.44521068e-05)
(0.01306025901 0.0002264170843 8.8385378e-05)
(0.01194195273 0.000410927441 0.0003538476132)
(0.007294782072 -8.115458175e-05 -0.0006704757428)
(0.01098478173 -0.0001288723204 0.0008292574529)
(0.01063480613 -0.0004202533305 -0.0003994897255)
(0.006987337813 0.0002875920547 -0.0001049949954)
(0.01059828402 0.0004780353487 0.0006470577242)
(0.00953341635 -0.0001449125345 0.0001249285918)
(0.00713866095 -0.0003986574444 0.0002986656916)
(0.003742776223 6.528260409e-05 0.0004569830932)
(0.006893212476 0.0005395845942 -3.006721732e-05)
(0.003042555488 -0.0004360425181 0.0004090029675)
(0.006652356269 -0.0002311709693 0.0001281150011)
(0.01150670473 0.0003542756581 8.238026531e-05)
(0.005496861816 -0.0005931689757 3.71346407e-06)
(0.009847439886 -0.0006842418651 0.0009818488799)
(0.01081851564 0.0005398469637 0.0003194117939)
(0.007624163764 2.204890491e-05 0.0008156630917)
(0.01109486048 0.002188748465 -3.679870455e-05)
(0.008708511753 0.001351490877 0.0006645351463)
(0.005689405639 0.00366039573 -0.001618543151)
(0.00397390967 0.0003503950827 -0.001879611267)
(0.005819321879 0.001196668626 -0.0008442807079)
(0.009881965496 0.001349279819 -0.0003164991268)
(0.010565557 0.003458976738 0.0002467787194)
(0.008332143844 0.002522652976 -0.001497871354)
(0.008382302625 0.002175700568 0.0002056457665)
(0.00509742635 0.0008315889127 0.0004734669945)
(0.004498261143 0.0001205963552 -0.0006963187738)
(0.01138144201 0.001462940024 0.0006772787811)
(0.01003512615 0.004231288905 -0.002341984127)
(0.01609278782 0.002500967766 0.0007102186203)
(0.01436250617 0.003876269945 0.001796779975)
(0.008953681061 0.001796628883 0.0007721914087)
(0.01359045712 0.001582249658 -0.0002223231935)
(0.01188113947 0.002825047844 -0.001026836025)
(0.009780566996 0.001238689853 -0.0001742773758)
(0.007008643402 0.002210399928 0.002404965618)
(0.008107480015 0.0004270941454 -9.548071474e-05)
(0.007734407844 0.002328280916 -0.0004811435976)
(0.008043850492 0.001999094869 -0.0003209043492)
(0.01263663903 0.00358467469 -0.0005847916876)
(0.005801260369 0.001786588219 -0.0003854565886)
(0.01461627881 0.002410057304 -0.0006066481822)
(0.009982624402 0.005152698043 0.002135123926)
(0.01859261621 0.0031006402 -0.0006216823462)
(0.007951559235 0.003877519574 -0.002039869898)
(0.00892252004 0.003515518973 -0.0001034892828)
(0.008532146764 0.000436113981 -0.0001500646233)
(0.003795315113 0.001023113364 -5.648237409e-05)
(0.007773364792 0.0005182892326 0.0006392273729)
(0.009195689568 0.001454280901 -0.001181697402)
(0.01313003746 0.003857491054 0.0004341138817)
(0.008222175457 0.001987866583 0.0002441855755)
(0.008168626305 0.002542121978 -0.001275967107)
(0.01001351027 0.003541616342 -0.001024750896)
(0.01138362299 0.001961926883 -0.0005349089585)
(0.009843578502 0.003658301235 -0.0007650397427)
(0.00496281202 0.0005926619468 -5.598243291e-05)
(0.01066803457 0.0003038340574 -0.0008008851317)
(0.006447466098 -0.0001722228254 0.0006487760488)
(0.01037570129 0.001851669058 -0.0002494371934)
(0.01182707581 0.002454557262 -0.001487306074)
(0.01042096736 0.002735121074 0.0006278250064)
(0.005449387466 0.001184110814 -0.001627592972)
(0.01396365777 0.00275183753 0.001121057941)
(0.006695715495 0.00293447794 -4.495393588e-05)
(0.00871100687 0.002225334727 -0.0008580873164)
(0.006561079136 -0.0004725977669 -7.820287633e-05)
(0.01334035473 0.00265887241 0.0008491450639)
(0.008575759973 0.001147725799 -0.001093291978)
(0.008464493139 0.002723314652 -0.0005695198703)
(0.01549754667 0.001367352222 -0.0001904125377)
(0.006530131053 0.003666326975 0.0004530189552)
(0.01311108227 0.001139814837 -0.0009532028772)
(0.006332818261 0.003157305402 0.000625761161)
(0.006945222246 0.001408331423 -0.0009883139751)
(0.01140001558 0.003562420785 0.0006573875785)
(0.009953009352 -0.0008915003054 0.0009707425188)
(0.009237849721 -0.0009274887505 0.0004748850487)
(0.006926585297 -0.0002270730478 0.0001321681619)
(0.01112935691 -0.002418491921 -0.0002116312945)
(0.01021483203 0.0004048815482 -0.001028202835)
(0.01445860632 0.001724240157 -0.001023418181)
(0.01075810865 0.003268643289 0.0004656240843)
(0.01074494525 0.001214186201 0.001868767991)
(0.008580971439 0.002302964125 0.001088287741)
(0.01618386422 0.001039141606 -0.0007977710583)
(0.009786055231 -0.0003303621323 0.0001305539007)
(0.01150790055 0.0009702358379 -1.659802017e-05)
(0.005904979904 0.0002550422249 -0.0001603100725)
(0.009653785636 0.000749614987 0.0005101082516)
(0.005241502308 0.001210822596 0.0006433692242)
(0.008308776814 0.000972808816 -0.0008436968)
(0.0117901571 0.000561351403 0.0004094128682)
(0.0128432819 0.0009093406454 0.001007517727)
(0.01257570044 0.002349382007 0.001228893104)
(0.01488102921 0.002063552076 -0.0006233707623)
(0.008387962684 0.0009236320826 -0.0005322668909)
(0.01111474803 -0.0001390845707 0.0003621416771)
(0.01030225606 0.0009652651797 0.0004018672783)
(0.01012509499 0.000428077641 -0.0006095622879)
(0.01143037959 0.001472668752 -0.0003045054457)
(0.00820430968 0.00119888322 -0.0008153457875)
(0.0085165516 0.0003286142473 -0.0007725193316)
(0.006033601092 -0.00020650037 -0.0002217406872)
(0.005771745699 0.001041769519 -0.0002364489616)
(0.008585067168 0.001857202118 0.0002433442208)
(0.002653083175 -0.0002913286563 -0.0003363167739)
(0.007349262478 1.09646545e-05 -0.0001837030787)
(0.006822310774 0.0005114708891 0.0004893147445)
(0.01413412278 -0.0003533207219 -0.0001236892494)
(0.01089395298 0.001447889565 -0.000428183113)
(0.01095336943 -0.0006544327746 -0.0006787585763)
(0.005361693707 0.0005201056951 -0.0005286227042)
(0.005984748948 0.001218890196 0.0003514142788)
(0.005762881668 9.522436432e-05 0.000482891005)
(0.01095515807 0.0007726818047 0.001058660489)
(0.005528972813 -7.89834715e-05 9.129620361e-05)
(0.006763112321 -0.0007762728138 -0.0009841496845)
(0.00611233828 -0.0001080474655 -0.0002263975451)
(0.01145205621 -0.0002285518807 -0.0002827091908)
(0.0116660813 0.0005013663009 0.0003701287563)
(0.003852765704 4.167028611e-05 0.0002200729814)
(0.005307351477 -0.0001372561815 -0.0009141850042)
(0.01038521218 0.002621386438 -1.173963235e-05)
(0.009061162616 0.0002467123611 -0.0002294396688)
(0.0060482325 0.0005132529815 -0.0004480474173)
(0.009527737858 0.0006225842346 -0.0004766252835)
(0.00867668226 0.0004810972543 0.0002813872023)
(0.009376276787 2.354739503e-05 -0.0003125727663)
(0.006299436494 0.000515430216 0.0007125208084)
(0.00621213207 -1.458592719e-05 0.000839519423)
(0.006039239205 0.0009624108681 0.0003849216852)
(0.01580413337 0.001134026671 -0.001299635608)
(0.007893619037 -0.0004162458957 -0.0001374514297)
(0.005914296602 -6.043743808e-05 0.0005226833915)
(0.005042189547 0.002436096314 0.0004786362879)
(0.007786551267 -0.0008952311452 -2.588920524e-05)
(0.007694298431 0.0007987462787 0.0009815250533)
(0.01092569533 0.0001551969484 -0.0007330473042)
(0.01182945909 0.0003819114116 0.0008670601297)
(0.006601692383 0.0005158215145 -0.000487286853)
(0.005920919697 0.0001610425818 -0.0006634834515)
(0.006098574238 0.0002645329151 -9.821861284e-05)
(0.007780039235 0.0006719831707 -0.0007651080716)
(0.01085939712 0.0006943406919 -0.0001603836592)
(0.00944608266 0.000810175707 0.0002685261318)
(0.00964638555 0.0001930986177 -0.0004994594995)
(0.007801657287 5.932439566e-05 -0.0002880667134)
(0.008635866728 0.0002474166569 0.0004830633127)
(0.008208148976 0.0002458927287 -0.0001007919374)
(0.007589712888 0.001026008604 -0.0004152374331)
(0.00571203481 0.0003651010443 0.0007127032382)
(0.01143121492 -0.000173798375 0.0003699875089)
(0.003730957001 6.818008451e-06 -0.0004615755274)
(0.006428253978 0.0004693486844 0.0001328612318)
(0.01214544333 0.000927463623 -0.0004860265688)
(0.01213874108 -0.001206973411 -2.290782378e-06)
(0.006080224875 0.0002438647349 -0.001027302931)
(0.006370750906 -0.0004248863893 0.0001881241546)
(0.004637203488 -0.0001287603343 -0.0009793485029)
(0.0111304642 -0.0005184779827 0.0006080276676)
(0.0138013537 -0.001043478948 0.0006994396038)
(0.01047245359 0.0002924458777 0.0006336516477)
(0.005764485562 0.0004891759121 0.000192602129)
(0.004749002836 -0.0005034186726 0.000235093318)
(0.006077367838 0.0004397373041 0.0001051306246)
(0.006252748763 -4.179329136e-05 6.298009549e-05)
(0.007737262688 0.0003637162433 0.0003961763842)