/*--------------------------------*- C++ -*----------------------------------*\
| =========                 |                                                 |
| \\      /  F ield         | OpenFOAM: The Open Source CFD Toolbox           |
|  \\    /   O peration     | Version:  2406                                  |
|   \\  /    A nd           | Website:  www.openfoam.com                      |
|    \\/     M anipulation  |                                                 |
\*---------------------------------------------------------------------------*/
FoamFile
{
    version     2.0;
    format      ascii;
    arch        "LSB;label=32;scalar=64";
    class       volScalarField;
    location    "0.008";
    object      overallT;
}
// * * * * * * * * * * * * * * * * * * * * * * * * * * * * * * * * * * * * * //

dimensions      [1 2 -2 0 0 0 0];

internalField   nonuniform List<scalar> 
654
(
293.3496275
302.4174702
296.8757139
298.2279597
299.5763056
298.8173389
299.0096167
298.8909487
299.0982166
298.8484448
297.4871246
299.390047
298.4932681
301.820973
307.7928523
319.6616736
339.6443704
394.533002
551.5531583
970.6482076
294.5920362
302.9500605
300.2470315
300.4803249
300.3974895
301.087825
301.011992
301.1757821
302.1426149
301.7226714
301.1600453
301.3720145
307.2292375
310.14835
311.5403311
325.9289709
355.4675324
424.4402268
586.2089019
858.4197812
294.6314744
304.7921471
299.3551062
299.115565
298.662236
299.2877453
297.8153791
298.8953114
298.6454065
299.2334462
298.2992892
297.9668642
300.2130512
307.2863191
313.5841944
324.4819732
361.992222
416.9519115
538.9778605
707.9107715
291.638349
301.6986168
298.6653449
298.5377078
297.7503456
296.7419346
296.8527501
298.0946524
298.6848702
297.3600693
298.6969499
300.2802872
302.3371739
304.3513176
313.2223449
330.6003505
350.3144493
401.9773749
480.721033
605.0703096
292.4846288
302.7007505
297.6229437
298.6625711
300.4873098
300.7105852
300.5180729
301.0761586
301.01743
300.8588046
301.3589037
302.6988647
304.0019305
304.6527906
309.1813635
320.5158256
340.4467809
379.2477559
435.3782119
516.6675835
293.7809394
302.9313844
299.2301681
299.2306821
298.2624167
296.4583987
296.8279045
297.3811442
296.7127592
300.2467107
299.598344
299.7602238
301.1402654
301.828642
309.1004845
320.5601163
336.054784
373.7257746
400.1584627
461.739437
293.5089838
303.1607459
298.5608052
298.5595837
299.7884972
301.367044
299.6482728
298.1305624
299.3911065
300.387718
301.3444525
300.9653577
302.9891338
304.3238966
311.5021097
315.5940852
331.1898473
346.3888362
372.0970313
417.4938381
293.3194667
303.5243567
299.9295667
302.5758052
300.2818702
301.0696015
301.9293866
302.3941008
302.086613
301.5985505
299.4728026
301.0524857
301.2401145
303.2929275
309.3959356
312.2437181
320.1230105
339.1018539
354.3309943
378.0101587
296.4045013
305.9443647
300.8624727
300.6180141
300.7005402
300.7059128
300.2982765
301.2046946
301.2700791
301.5525915
302.8039916
302.2263953
303.7952142
306.117601
307.0054004
311.2889842
319.4945625
325.2265745
340.466852
360.1924733
295.5468897
304.220573
300.2512669
300.3283633
301.01026
302.2202442
301.0557653
300.0637473
300.4980826
301.5514824
302.5038138
303.0759809
305.7265588
306.1454229
306.291333
310.8421083
313.775237
318.0041713
329.1608599
349.2965166
295.2597076
303.6732858
301.0299032
301.7735815
301.5542029
300.3277068
300.1857984
301.6911867
301.6859634
301.79145
301.252531
300.6836383
300.9744604
301.187362
305.2281885
304.7652241
308.455967
316.3281099
319.3988294
335.870562
295.9236311
306.2324943
301.9297274
301.3575067
301.3258394
300.2099068
300.4250393
298.8488378
302.6230148
301.3538827
300.6792038
301.1433436
300.9256221
302.6670323
302.7567171
305.3138377
309.0147126
313.5878949
314.8499276
326.6320887
293.5111953
303.5613035
298.6959165
299.5086229
298.5939421
299.3253457
301.3014293
303.4856239
302.0737039
300.68641
299.9239896
299.2470872
301.8134731
301.6825442
301.2331433
302.3928957
304.8016655
306.8864241
311.4612095
315.959883
292.9610021
301.4828523
298.6237983
299.9737759
300.4930243
301.6838131
300.0974498
299.8385323
299.1979456
298.881317
301.3013562
301.3137285
300.5125072
299.0729658
300.6408914
300.9640683
302.3455995
304.0309414
307.5200472
313.3144757
295.2704274
306.6117725
301.9267967
299.4594911
300.0519639
298.8611194
297.3321457
297.3796836
297.8352457
299.3607674
299.7873527
300.3116474
299.3099281
298.2106901
298.5987413
301.4159527
302.6052171
303.5920182
303.5846032
305.9341196
293.8809219
301.9563507
298.3583714
297.5312031
296.6969374
297.7165899
299.6085048
300.18404
299.2646505
299.7569801
301.1126147
300.2702808
299.9025052
300.1549737
299.6779587
300.5849033
302.2567597
303.1504644
304.672682
308.9115394
295.3245344
304.6802844
298.8374049
299.8397076
301.0616198
299.8246104
299.2569058
298.5677513
299.3196845
298.5927642
298.9512904
299.0257479
299.4482524
300.4591902
300.5278621
301.2354243
301.6911695
304.5995321
303.7747648
308.0223975
295.0170823
303.3416333
301.6441128
300.5076107
300.5413953
300.8509091
300.2513538
299.664923
298.4201936
297.5511911
296.7302496
296.1106105
297.3017547
298.7301652
301.1773589
299.7784627
298.2889662
299.49162
301.7152396
303.8006683
291.0470067
301.5878588
297.1707854
297.9419091
297.6701592
298.6105731
299.1416798
298.704227
299.4148583
300.7127971
300.3701082
301.0359945
299.369785
297.5288958
298.2125796
299.4822519
300.2373318
299.5857957
300.2279201
300.7674591
293.9012384
303.0323761
299.8676951
298.8585843
299.4399335
298.1326372
297.9819887
298.0347576
297.4759053
295.4530477
296.0036216
297.4510412
300.0219273
300.8014227
301.381774
300.4739896
300.1802721
301.3792903
301.3100221
302.1959203
294.724261
303.5652552
298.363927
298.2814499
298.7375125
299.3955927
299.3806234
300.0521888
300.8307417
302.1080998
301.8338972
302.5289564
301.0449609
299.4793933
299.0483757
300.4564077
301.423731
301.5126808
300.6467572
301.8183464
294.3793123
303.8334942
299.1054415
299.7707319
299.2006619
299.8700463
300.347966
301.5167733
301.6719092
301.0333739
301.0763643
299.6924402
300.4891502
301.8883879
302.8404002
300.780496
299.8362439
301.279247
301.3986064
301.2978529
1056.16946
993.9646891
964.078531
937.1370602
916.7177357
900.5340031
891.6911621
871.2215951
866.3491827
849.8626965
1002.731117
1008.663765
994.2408641
983.8783679
971.8819435
965.4217888
955.4997044
948.5170786
934.5546047
929.0038136
859.2064849
921.603975
935.5327365
951.2589636
951.0322525
950.6671006
944.2262258
938.6903072
933.2867356
927.4130005
726.4143492
808.9950533
853.7184521
882.5565209
898.6544561
899.18664
907.1381838
897.3904128
906.5794405
913.9302491
607.792381
694.4412179
751.4352906
802.8622012
826.1537746
849.7665212
868.1302157
860.7873933
873.4261043
878.5420742
535.1814003
609.4996754
663.4455054
715.2983498
748.2269755
782.2710636
813.5509117
827.0824787
844.6929416
848.637225
463.8242263
526.2298538
567.6916232
633.774565
662.9743523
704.9534912
739.2484622
763.706111
781.4635551
797.691616
416.0149547
468.9109258
497.6757314
556.4997135
592.7939792
633.2079901
664.3891736
701.0031167
730.5251833
745.6989434
389.7180764
427.5628296
445.3337884
493.2514413
523.0238916
565.2131512
607.4029566
637.8911129
666.5269752
690.2218708
362.2218609
382.0520816
415.0547965
447.9787415
465.2077981
507.782165
543.0918494
571.9091768
603.1108774
630.4112593
346.022497
365.4832396
384.9799765
412.0690715
429.3791839
463.9497677
494.1369874
520.6446565
546.7746125
572.5498976
333.3402172
347.8432995
362.7562864
382.4686443
394.4056017
419.723028
443.5826728
464.9531214
493.1615771
518.7805034
324.5710226
334.1813284
348.8810759
357.6626542
366.3299911
391.7616522
406.8131202
426.379836
443.1978291
471.0173386
322.1951155
326.9925881
335.4361769
342.596571
351.5486156
359.5394211
378.5810686
397.105338
417.4632414
433.3955237
315.7325314
317.2646369
322.8563124
327.799394
341.6429683
349.8805951
360.0673103
376.8368069
394.7830421
405.5289709
307.309379
312.8962141
317.2326405
323.244805
329.8114198
341.2818041
344.1535228
356.6922747
371.4934889
381.4549336
309.28024
312.0056413
315.4911199
315.411939
316.937268
327.9329843
335.1214537
342.4855553
349.1799161
358.9088657
307.2112435
307.8263043
308.5155456
309.6121114
312.8032484
317.8828484
323.1325189
329.6420617
339.0051593
345.1663289
301.7272537
307.808381
310.4715065
310.6000665
311.458608
315.4808891
318.104433
324.9679747
327.7888033
336.5241973
303.5033017
304.0150541
305.9079724
304.974463
308.5127176
310.7255603
313.3013087
318.8362929
324.0608319
327.4054334
301.6300409
302.202118
303.979534
302.3553164
304.8671889
306.8403586
309.8073221
315.7693422
319.185584
322.3350599
298.8877095
299.8862511
301.6729844
303.7559688
)
;

boundaryField
{
    flow
    {
        type            calculated;
        value           nonuniform List<scalar> 
42
(
293.3496275
294.5920362
294.6314744
291.638349
292.4846288
293.7809394
293.5089838
293.3194667
296.4045013
295.5468897
295.2597076
295.9236311
293.5111953
292.9610021
295.2704274
293.8809219
295.3245344
295.0170823
291.0470067
293.9012384
294.724261
294.3793123
293.3496275
302.4174702
296.8757139
298.2279597
299.5763056
298.8173389
299.0096167
298.8909487
299.0982166
298.8484448
297.4871246
299.390047
298.4932681
301.820973
307.7928523
319.6616736
339.6443704
394.533002
551.5531583
970.6482076
)
;
    }
    obstacle
    {
        type            calculated;
        value           nonuniform List<scalar> 10(937.4328155 877.1575181 829.0747214 818.6568388 777.5556039 769.2243973 776.5309468 753.3082778 744.5475234 732.8460351);
    }
    frontAndBack
    {
        type            empty;
    }
    procBoundary0to1
    {
        type            processor;
        value           nonuniform List<scalar> 
21
(
842.2634431
916.8255171
926.2774524
908.274761
878.3385411
847.5618498
812.0492504
766.4044535
716.0656888
659.2354049
599.4564294
553.7825152
496.7479931
456.5243689
416.9592014
396.1881838
373.9221911
359.2000443
343.8338494
337.5152534
323.6575838
)
;
    }
    procBoundary0to2
    {
        type            processor;
        value           nonuniform List<scalar> 
31
(
292.426206
303.9792339
300.5227104
301.2631443
300.8973946
299.5438161
300.0120413
301.158306
300.2244214
299.6118041
301.3312258
301.883969
301.0947909
299.4214733
298.3052748
298.4680977
297.3820689
297.3928784
297.9778157
299.5716991
305.2925664
307.1352535
306.3969166
306.5900561
310.6647225
313.2539672
300.5758144
302.9088043
302.5906534
305.2925664
303.0544881
)
;
    }
}


// ************************************************************************* //
