/*--------------------------------*- C++ -*----------------------------------*\
| =========                 |                                                 |
| \\      /  F ield         | OpenFOAM: The Open Source CFD Toolbox           |
|  \\    /   O peration     | Version:  2406                                  |
|   \\  /    A nd           | Website:  www.openfoam.com                      |
|    \\/     M anipulation  |                                                 |
\*---------------------------------------------------------------------------*/
FoamFile
{
    version     2.0;
    format      ascii;
    arch        "LSB;label=32;scalar=64";
    class       volScalarField;
    location    "0.008";
    object      p;
}
// * * * * * * * * * * * * * * * * * * * * * * * * * * * * * * * * * * * * * //

dimensions      [1 -1 -2 0 0 0 0];

internalField   nonuniform List<scalar> 
654
(
0.3061932137
0.41211258
0.4012196824
0.4059270264
0.4098862746
0.4087415769
0.4096062024
0.4116586762
0.4108368722
0.4078859218
0.4049006568
0.4063824416
0.4046306831
0.4128069806
0.4268249866
0.4561721035
0.4979334952
0.6327545417
1.024183293
2.510706328
0.3097192446
0.4190567341
0.4167712206
0.4153221054
0.4136704144
0.4164762826
0.4144550306
0.4155470887
0.4156818997
0.4146522504
0.4160323947
0.4197261827
0.4317476903
0.4404137227
0.4440154747
0.4786171141
0.5476706641
0.7189785864
1.149128617
2.065954839
0.3137676077
0.4295121946
0.4174291372
0.4174416896
0.4136592818
0.4154483947
0.4143072428
0.4151401247
0.4162278493
0.4149820243
0.4130307562
0.4106813526
0.4134912589
0.4313591457
0.4447239846
0.4686339639
0.5567468777
0.6900178461
0.9927921643
1.501135065
0.3093090406
0.4179543827
0.4130328072
0.4130576109
0.407616557
0.407690355
0.406479687
0.4092252051
0.4090061414
0.4109021936
0.4126422936
0.415012124
0.4199445563
0.4195059571
0.4408959711
0.4761545938
0.521307577
0.6430473865
0.8413845903
1.188878157
0.310315585
0.4202836738
0.4072074577
0.4080240444
0.41403224
0.4147411907
0.4134491576
0.4122752997
0.4091135644
0.4086065138
0.406832557
0.4111597654
0.4173535477
0.418596091
0.4274595193
0.4598477484
0.5068466764
0.601017341
0.7335102466
0.9457874974
0.3086509078
0.4164392408
0.4142447886
0.4128411666
0.4100330638
0.4045982677
0.4053009712
0.4100814272
0.4102404401
0.4168180971
0.4145333871
0.4139083601
0.4143078316
0.4142926551
0.4374684502
0.4579350489
0.4929905224
0.5768814178
0.6432264868
0.7940476555
0.3117081318
0.4222808408
0.4137213518
0.413000636
0.4180665751
0.4209288977
0.4170759514
0.4121276622
0.4150704547
0.4207430652
0.4198757299
0.4214320364
0.4237591584
0.4253562155
0.439595215
0.4453960667
0.4830408951
0.5202031325
0.586045026
0.6933335432
0.3081619212
0.4168999291
0.4122175347
0.417318846
0.4143022444
0.4156383473
0.4200606159
0.422930081
0.4228569873
0.4200284507
0.4167743744
0.4165078413
0.4183712496
0.4246440777
0.4379902098
0.4460952885
0.4600605059
0.5016567119
0.5358446243
0.5933067969
0.3132389845
0.4280299808
0.4180184431
0.4172372268
0.4160112964
0.4162127243
0.4176695825
0.4203131339
0.4147020377
0.4136763921
0.4205719566
0.420801721
0.4216580805
0.42746812
0.4269940725
0.4379433478
0.4596866902
0.4708486234
0.507931257
0.5561303023
0.3116984255
0.4164578173
0.4118502182
0.4117498324
0.4134993553
0.4157047163
0.4133488147
0.4114206492
0.4179765498
0.4209186326
0.4214067738
0.4238654496
0.4295381777
0.4290408536
0.4311146954
0.4414111876
0.4479010117
0.45298227
0.4774271658
0.5234321522
0.3124499211
0.4197869722
0.4138988471
0.41492092
0.4127459418
0.4077312168
0.4062460591
0.4114755452
0.411542215
0.4146481783
0.4160339586
0.4140044123
0.4171816528
0.4184081297
0.4275286129
0.4197955071
0.4293372029
0.4477032292
0.4608138016
0.4999292415
0.31341125
0.4271653706
0.4212060192
0.4162152185
0.4186468921
0.415825833
0.4195199615
0.4161789779
0.4252382022
0.4185862134
0.4137531078
0.4106655684
0.4087588739
0.4158825153
0.4184307932
0.4315977183
0.442627343
0.4490025342
0.4494363556
0.4722727268
0.313413448
0.4246904597
0.4150322794
0.4172083507
0.4136515469
0.4148123753
0.4176832415
0.4177994951
0.4128931733
0.4111904884
0.4144291324
0.4138839748
0.4206932254
0.4194791145
0.4144540604
0.4213491472
0.4254211138
0.43141581
0.4448746794
0.4521374869
0.3121708577
0.4231179747
0.4190462608
0.4209174382
0.4200581894
0.4231469233
0.4170583807
0.4189763842
0.4179265324
0.4162754833
0.4185933946
0.4204389133
0.4162186685
0.4115300085
0.4156693893
0.4111749852
0.4136200582
0.4163733841
0.4243214389
0.4424855109
0.3108860514
0.4251354391
0.4153205256
0.4093562347
0.4150893843
0.4124483317
0.4126357955
0.4115253335
0.4163060915
0.418777799
0.4171504123
0.4188685051
0.4203646597
0.4162766731
0.4157022686
0.4214566979
0.424018804
0.4248037159
0.4223096714
0.4246827479
0.3115692702
0.4200515009
0.4140959673
0.4135737431
0.4094204857
0.4116056039
0.4156937007
0.4139763982
0.4146990235
0.4137319465
0.4177989778
0.4133851368
0.4071309659
0.4102013932
0.412191366
0.4166896697
0.4213341027
0.4220755365
0.4278963268
0.4316049662
0.3148245014
0.4220414607
0.4093988204
0.4119853592
0.4132270674
0.4127908801
0.4089328306
0.4101381625
0.4092766705
0.4076449117
0.4097459003
0.4116167726
0.4125815485
0.417669946
0.4161197025
0.4175656611
0.4180423175
0.4246836779
0.4211152636
0.4284626927
0.3075046145
0.4165333076
0.4150400743
0.415505297
0.4140317242
0.4127140034
0.4137134224
0.411490943
0.4077255102
0.4071359344
0.4054661806
0.4037795176
0.4082836938
0.410493499
0.4143101112
0.4127680865
0.4114055272
0.4126000111
0.4166242118
0.4227287104
0.3088173069
0.4199678307
0.4108563498
0.4075706487
0.410792298
0.4146236719
0.4159956032
0.4165121944
0.4160412265
0.4179211605
0.4163959368
0.4181246338
0.412273228
0.4084450966
0.4096526507
0.4117309247
0.4123336406
0.4110968353
0.4127511402
0.4117547834
0.3112897086
0.4222778625
0.4204295712
0.4192091109
0.4164255381
0.4135608572
0.4121468829
0.4114626175
0.4109518488
0.4084411555
0.4097645463
0.4106881364
0.4165014359
0.4159886445
0.4173387959
0.4143545356
0.4141577209
0.417534554
0.421141116
0.4238594422
0.3098717331
0.4181961233
0.4056259416
0.4087325336
0.4108762014
0.4131015542
0.4122906776
0.4080458835
0.4103439817
0.4136727274
0.4163840002
0.4199541326
0.4153744917
0.4159016174
0.4152182377
0.4199706383
0.4200747358
0.4195380531
0.4170928088
0.417154338
0.3104679517
0.4209641034
0.4114859481
0.4085288266
0.4085253556
0.4084805672
0.4132517395
0.4187033382
0.4227296154
0.4215126461
0.4169106756
0.4125199559
0.4162566787
0.4192297239
0.4208917363
0.4152889026
0.413397253
0.4164752721
0.4192243501
0.4198481588
4.651916325
4.801116796
4.753972672
4.650807317
4.530829811
4.456815146
4.386037245
4.256495973
4.107971671
4.026213171
3.028685326
3.547654189
3.794207721
3.964698316
4.062289443
4.126693812
4.063936014
4.083324085
4.015491802
3.947088912
2.123795861
2.615184115
2.91199937
3.210340409
3.389751413
3.548064496
3.626932637
3.677022151
3.691395034
3.692182225
1.596368362
1.967777385
2.266924307
2.55119809
2.782984536
2.94268745
3.153406322
3.185549955
3.308987804
3.430211714
1.207205535
1.510749523
1.761794598
2.039043086
2.251274845
2.439071173
2.631271399
2.718391377
2.914905184
3.078712037
0.987325049
1.214783066
1.412501703
1.619703092
1.799797289
2.025743371
2.253654226
2.412450868
2.597562187
2.711662016
0.8085504342
0.9778255678
1.114732409
1.330054493
1.456066996
1.657902453
1.845669576
2.018026837
2.20319615
2.37474315
0.6894556834
0.8222193569
0.9085444486
1.08280802
1.204267541
1.356138491
1.515172592
1.681399444
1.87252299
2.009377401
0.6213419967
0.7199634967
0.7726690294
0.9064941924
0.9902754034
1.122878975
1.273677431
1.39439665
1.546347664
1.685900514
0.5592367169
0.6102401668
0.6941657175
0.7734405462
0.8202949711
0.9422614817
1.062038973
1.164627632
1.277843468
1.398537823
0.5222731675
0.5638097023
0.6199099607
0.6891595143
0.7370536253
0.8210047591
0.9065826665
1.002455587
1.088592399
1.184778355
0.490123353
0.5196771785
0.5522889292
0.605595933
0.632742583
0.702517302
0.7666819184
0.8353964248
0.9253921835
1.003901244
0.4717682736
0.4971431721
0.5300269733
0.5488002601
0.5718174223
0.6396489025
0.6821991267
0.7318750381
0.7755667808
0.865644716
0.4632993913
0.474434261
0.4969491759
0.5114779284
0.5320622523
0.5527353244
0.596399749
0.6449486329
0.7024230388
0.7507354022
0.4465429993
0.4489196912
0.4630393402
0.4768161709
0.5031043656
0.529433005
0.5501281739
0.5922632978
0.6347865155
0.6667417165
0.4329935668
0.4451863551
0.453133376
0.4663086643
0.4841842327
0.5058825539
0.5165520492
0.5484115509
0.585440683
0.6076514979
0.4280512318
0.4390811398
0.4431816468
0.4444939994
0.4487717281
0.4721198203
0.4911278456
0.5066593524
0.519906595
0.5547196029
0.4285229981
0.4255489847
0.4278790772
0.4327334131
0.443283926
0.4545961107
0.4660704903
0.4810915329
0.500563275
0.5153737611
0.4165022577
0.4335848718
0.4390395602
0.4395533194
0.4411000463
0.4493749476
0.4547319025
0.4686026681
0.4770409498
0.4983770105
0.4243707007
0.4254065274
0.4276969422
0.4250903019
0.4339833585
0.4409996206
0.4459345947
0.4593427145
0.4660132456
0.471244149
0.4159475018
0.4173920876
0.4201033401
0.4167840615
0.4218240416
0.4245857126
0.4273895731
0.4444035182
0.4586770124
0.4654521098
0.4130409074
0.4161657405
0.4193221303
0.4247861336
)
;

boundaryField
{
    flow
    {
        type            calculated;
        value           nonuniform List<scalar> 
42
(
0.3061932137
0.3097192446
0.3137676077
0.3093090406
0.310315585
0.3086509078
0.3117081318
0.3081619212
0.3132389845
0.3116984255
0.3124499211
0.31341125
0.313413448
0.3121708577
0.3108860514
0.3115692702
0.3148245014
0.3075046145
0.3088173069
0.3112897086
0.3098717331
0.3104679517
0.3061932137
0.41211258
0.4012196824
0.4059270264
0.4098862746
0.4087415769
0.4096062024
0.4116586762
0.4108368722
0.4078859218
0.4049006568
0.4063824416
0.4046306831
0.4128069806
0.4268249866
0.4561721035
0.4979334952
0.6327545417
1.024183293
2.510706328
)
;
    }
    obstacle
    {
        type            calculated;
        value           nonuniform List<scalar> 10(3.67115153 3.661192161 3.631272151 3.496307869 3.554629905 3.474169632 3.451306718 3.46963134 3.34313722 3.313175871);
    }
    frontAndBack
    {
        type            empty;
    }
    procBoundary0to1
    {
        type            processor;
        value           nonuniform List<scalar> 
21
(
3.923657125
3.885077623
3.665201343
3.428575687
3.122211568
2.836631141
2.518540129
2.147631707
1.84779146
1.545794166
1.304449053
1.119353883
0.9401025054
0.8032401849
0.7120497917
0.6405216306
0.5920450615
0.5487179863
0.5185396237
0.4968511562
0.4676929294
)
;
    }
    procBoundary0to2
    {
        type            processor;
        value           nonuniform List<scalar> 
31
(
0.3054645899
0.4179315861
0.4152553802
0.4160886069
0.4161302143
0.4139528037
0.4157581901
0.4165869337
0.4135343985
0.4146758771
0.419700772
0.4216693131
0.4181513294
0.4129835961
0.4099043547
0.4112379783
0.4116771164
0.4102854631
0.4086340156
0.4107716789
0.4259816602
0.4301661753
0.4290646435
0.4310386266
0.4399266891
0.4497567639
0.4146609566
0.4195401182
0.4199745642
0.4259816602
0.4177521841
)
;
    }
}


// ************************************************************************* //
