/*--------------------------------*- C++ -*----------------------------------*\
| =========                 |                                                 |
| \\      /  F ield         | OpenFOAM: The Open Source CFD Toolbox           |
|  \\    /   O peration     | Version:  2406                                  |
|   \\  /    A nd           | Website:  www.openfoam.com                      |
|    \\/     M anipulation  |                                                 |
\*---------------------------------------------------------------------------*/
FoamFile
{
    version     2.0;
    format      ascii;
    arch        "LSB;label=32;scalar=64";
    class       volScalarField;
    location    "0.008";
    object      rhoM;
}
// * * * * * * * * * * * * * * * * * * * * * * * * * * * * * * * * * * * * * //

dimensions      [1 -3 0 0 0 0 0];

internalField   nonuniform List<scalar> 
654
(
4.565080198e-06
3.942947953e-06
5.602522687e-06
2.974446132e-06
1.452752732e-06
5.395700685e-06
6.986334752e-06
5.256153111e-06
5.879951596e-06
3.458697042e-06
8.02377724e-06
3.389756375e-06
4.080829287e-06
5.187212443e-06
2.00594431e-06
7.677407664e-06
6.364202506e-06
2.074884977e-06
6.433143174e-06
4.911449774e-06
3.458697042e-06
4.358258196e-06
5.53358202e-06
5.187212443e-06
4.080829287e-06
6.986334752e-06
2.905505464e-06
7.055275419e-06
3.942947953e-06
5.118271776e-06
2.974446132e-06
6.01783293e-06
5.53358202e-06
4.080829287e-06
6.086773598e-06
8.370146817e-06
5.118271776e-06
2.905505464e-06
3.596578377e-06
3.942947953e-06
3.596578377e-06
5.049331109e-06
5.395700685e-06
5.464641352e-06
2.905505464e-06
4.496139531e-06
5.948892263e-06
6.155714265e-06
3.389756375e-06
4.980390442e-06
5.326760018e-06
5.049331109e-06
6.986334752e-06
3.942947953e-06
2.628076555e-06
3.874007286e-06
4.496139531e-06
5.948892263e-06
7.677407664e-06
4.980390442e-06
3.942947953e-06
3.458697042e-06
4.980390442e-06
4.496139531e-06
6.01783293e-06
4.080829287e-06
4.565080198e-06
3.874007286e-06
4.149769955e-06
4.149769955e-06
5.464641352e-06
9.407589305e-06
2.905505464e-06
3.942947953e-06
6.433143174e-06
4.7719022e-06
3.596578377e-06
4.565080198e-06
4.080829287e-06
5.53358202e-06
4.980390442e-06
2.628076555e-06
4.496139531e-06
5.049331109e-06
7.470585662e-06
1.521693399e-06
5.187212443e-06
5.464641352e-06
5.602522687e-06
5.049331109e-06
4.911449774e-06
3.458697042e-06
4.01188862e-06
5.53358202e-06
2.974446132e-06
6.433143174e-06
7.055275419e-06
3.458697042e-06
4.496139531e-06
6.848453417e-06
2.490195221e-06
5.948892263e-06
4.496139531e-06
2.905505464e-06
4.080829287e-06
2.974446132e-06
6.848453417e-06
4.911449774e-06
6.364202506e-06
3.389756375e-06
3.596578377e-06
4.842509107e-06
6.433143174e-06
3.389756375e-06
7.124216086e-06
6.01783293e-06
5.948892263e-06
5.53358202e-06
5.049331109e-06
4.842509107e-06
3.458697042e-06
4.01188862e-06
6.502083841e-06
7.954836573e-06
4.980390442e-06
4.01188862e-06
2.974446132e-06
7.608466997e-06
2.974446132e-06
4.496139531e-06
7.53952633e-06
5.879951596e-06
4.427198864e-06
5.395700685e-06
6.364202506e-06
6.502083841e-06
2.490195221e-06
2.421254554e-06
4.496139531e-06
4.980390442e-06
4.911449774e-06
6.639965176e-06
1.452752732e-06
1.937003643e-06
3.52763771e-06
7.055275419e-06
4.427198864e-06
3.874007286e-06
3.596578377e-06
4.565080198e-06
7.055275419e-06
3.52763771e-06
2.974446132e-06
5.395700685e-06
6.295261839e-06
7.954836573e-06
4.496139531e-06
9.685018214e-07
8.576968818e-06
5.53358202e-06
2.974446132e-06
5.118271776e-06
5.395700685e-06
3.458697042e-06
6.086773598e-06
5.671463354e-06
3.389756375e-06
3.458697042e-06
3.52763771e-06
6.224654932e-06
2.905505464e-06
2.974446132e-06
6.986334752e-06
3.112327466e-06
6.086773598e-06
3.596578377e-06
4.427198864e-06
4.496139531e-06
4.911449774e-06
4.01188862e-06
3.942947953e-06
2.490195221e-06
5.049331109e-06
7.470585662e-06
5.395700685e-06
5.602522687e-06
4.911449774e-06
3.942947953e-06
3.389756375e-06
4.080829287e-06
4.702961533e-06
3.52763771e-06
4.565080198e-06
5.049331109e-06
6.571024508e-06
5.53358202e-06
6.01783293e-06
6.917394084e-06
2.974446132e-06
5.464641352e-06
4.080829287e-06
4.980390442e-06
2.905505464e-06
4.01188862e-06
6.433143174e-06
4.565080198e-06
5.464641352e-06
4.634020865e-06
4.01188862e-06
7.055275419e-06
4.496139531e-06
5.464641352e-06
5.326760018e-06
3.942947953e-06
2.905505464e-06
6.433143174e-06
3.52763771e-06
2.559135888e-06
3.874007286e-06
7.608466997e-06
4.080829287e-06
4.427198864e-06
7.470585662e-06
5.049331109e-06
4.842509107e-06
2.628076555e-06
2.421254554e-06
4.911449774e-06
4.496139531e-06
6.364202506e-06
4.980390442e-06
4.01188862e-06
4.427198864e-06
4.427198864e-06
7.470585662e-06
6.086773598e-06
7.608466997e-06
6.433143174e-06
7.124216086e-06
4.496139531e-06
3.458697042e-06
4.911449774e-06
5.464641352e-06
5.948892263e-06
3.52763771e-06
6.502083841e-06
4.911449774e-06
4.01188862e-06
6.155714265e-06
3.874007286e-06
4.565080198e-06
3.043386799e-06
6.502083841e-06
4.080829287e-06
2.974446132e-06
4.358258196e-06
8.092717908e-06
5.671463354e-06
2.490195221e-06
4.427198864e-06
3.043386799e-06
4.980390442e-06
3.942947953e-06
4.496139531e-06
3.52763771e-06
6.086773598e-06
4.911449774e-06
4.427198864e-06
8.854397727e-06
3.942947953e-06
5.395700685e-06
5.464641352e-06
4.01188862e-06
6.986334752e-06
4.01188862e-06
3.389756375e-06
4.01188862e-06
2.421254554e-06
7.124216086e-06
1.937003643e-06
4.496139531e-06
4.980390442e-06
5.118271776e-06
5.326760018e-06
3.942947953e-06
5.671463354e-06
5.948892263e-06
4.634020865e-06
3.389756375e-06
5.187212443e-06
4.565080198e-06
4.911449774e-06
5.464641352e-06
4.01188862e-06
6.155714265e-06
3.942947953e-06
6.086773598e-06
7.885895906e-06
3.458697042e-06
4.980390442e-06
3.389756375e-06
5.049331109e-06
4.496139531e-06
4.565080198e-06
4.427198864e-06
5.602522687e-06
3.458697042e-06
3.52763771e-06
4.496139531e-06
6.433143174e-06
7.470585662e-06
5.602522687e-06
5.602522687e-06
6.917394084e-06
2.559135888e-06
3.942947953e-06
3.389756375e-06
5.948892263e-06
6.571024508e-06
3.389756375e-06
4.01188862e-06
6.086773598e-06
5.811010928e-06
5.53358202e-06
3.874007286e-06
6.433143174e-06
4.565080198e-06
4.702961533e-06
2.974446132e-06
4.149769955e-06
5.049331109e-06
4.496139531e-06
3.458697042e-06
4.565080198e-06
4.01188862e-06
1.937003643e-06
5.118271776e-06
3.112327466e-06
2.974446132e-06
3.458697042e-06
2.974446132e-06
5.464641352e-06
4.980390442e-06
2.421254554e-06
4.565080198e-06
4.496139531e-06
4.149769955e-06
4.842509107e-06
5.118271776e-06
5.811010928e-06
6.364202506e-06
3.942947953e-06
5.602522687e-06
4.01188862e-06
5.464641352e-06
4.01188862e-06
4.496139531e-06
1.002972155e-05
7.470585662e-06
2.490195221e-06
3.52763771e-06
5.53358202e-06
4.980390442e-06
4.911449774e-06
4.149769955e-06
2.974446132e-06
8.992279062e-06
4.358258196e-06
4.565080198e-06
2.490195221e-06
5.049331109e-06
1.051397246e-05
5.049331109e-06
5.118271776e-06
2.00594431e-06
1.937003643e-06
4.980390442e-06
5.811010928e-06
6.01783293e-06
6.364202506e-06
4.565080198e-06
4.496139531e-06
1.937003643e-06
3.043386799e-06
6.848453417e-06
5.464641352e-06
3.942947953e-06
4.980390442e-06
2.974446132e-06
4.911449774e-06
3.874007286e-06
5.395700685e-06
3.942947953e-06
5.948892263e-06
4.080829287e-06
4.980390442e-06
5.395700685e-06
3.458697042e-06
4.911449774e-06
4.980390442e-06
4.427198864e-06
3.942947953e-06
5.187212443e-06
3.458697042e-06
3.942947953e-06
2.905505464e-06
2.905505464e-06
6.364202506e-06
4.01188862e-06
5.464641352e-06
4.565080198e-06
7.954836573e-06
3.596578377e-06
4.01188862e-06
4.842509107e-06
3.942947953e-06
3.52763771e-06
4.496139531e-06
5.395700685e-06
5.602522687e-06
3.458697042e-06
3.043386799e-06
6.917394084e-06
6.639965176e-06
4.496139531e-06
6.502083841e-06
5.53358202e-06
3.665519044e-06
5.948892263e-06
5.879951596e-06
3.596578377e-06
2.490195221e-06
4.427198864e-06
2.00594431e-06
3.942947953e-06
6.502083841e-06
3.389756375e-06
5.809344689e-06
6.295261839e-06
4.496139531e-06
1.311946894e-05
1.320967981e-05
1.808782948e-05
1.268584589e-05
1.177568042e-05
1.717695118e-05
1.715498476e-05
1.552719145e-05
1.622659282e-05
1.227781745e-05
4.512083994e-06
1.062380928e-05
1.16827607e-05
1.488056616e-05
1.798445676e-05
1.178731026e-05
1.476560974e-05
1.283004575e-05
1.329041328e-05
1.116851564e-05
6.455956746e-06
8.666570242e-06
6.615498338e-06
8.504887785e-06
6.137648213e-06
1.308013157e-05
1.158093876e-05
1.472619165e-05
9.031626358e-06
1.138966334e-05
6.108358855e-06
3.075180293e-06
6.263087113e-06
6.449724838e-06
1.02057043e-05
7.330604163e-06
8.179844413e-06
8.23851025e-06
1.138233877e-05
9.39398908e-06
2.91580913e-06
6.639670339e-06
5.489816774e-06
7.724519097e-06
1.077644844e-05
7.762121695e-06
6.080777467e-06
1.049794874e-05
5.874127867e-06
6.952456113e-06
3.678517913e-06
9.086219126e-06
6.897766381e-06
7.51262242e-06
1.156057692e-05
5.892789491e-06
8.468408895e-06
5.248974363e-06
6.168630204e-06
9.762568588e-06
5.553205518e-06
6.080699709e-06
3.941580792e-06
7.724519097e-06
6.566136083e-06
8.911680925e-06
8.033818574e-06
8.164095634e-06
7.783971152e-06
1.124223154e-05
5.48402037e-06
6.77899209e-06
3.448883193e-06
6.165488825e-06
4.139184221e-06
5.246378837e-06
8.975140362e-06
7.946120075e-06
9.031626358e-06
9.688852681e-06
5.345650072e-06
6.080699709e-06
6.545355153e-06
6.236121052e-06
7.136880207e-06
5.60626532e-06
5.067314552e-06
3.790535691e-06
3.671551012e-06
6.360947254e-06
1.457904566e-06
3.984138935e-06
3.589169563e-06
8.291283995e-06
7.778752452e-06
6.827455597e-06
3.619261313e-06
4.811267157e-06
4.18560353e-06
6.582094954e-06
3.054179428e-06
4.47344869e-06
3.519026376e-06
6.165488829e-06
6.779520459e-06
2.515742853e-06
3.547120187e-06
6.415022871e-06
5.286891955e-06
4.289775436e-06
5.06723733e-06
5.17174107e-06
5.630103144e-06
4.039693661e-06
4.709928347e-06
5.103116753e-06
9.626154098e-06
4.883925707e-06
3.744734422e-06
3.698266597e-06
4.998052181e-06
4.403787829e-06
5.982514393e-06
7.016489745e-06
4.06805608e-06
3.522039989e-06
3.835684675e-06
5.759340055e-06
6.314996963e-06
5.251645445e-06
5.484020351e-06
4.543109536e-06
5.067262322e-06
5.102591229e-06
4.638800223e-06
4.025188556e-06
6.659650009e-06
2.04146293e-06
3.671550997e-06
8.13547376e-06
6.386771632e-06
3.91447807e-06
4.081867159e-06
2.551295632e-06
6.066520128e-06
7.905383816e-06
6.297200846e-06
3.645218672e-06
2.643445985e-06
3.845698382e-06
3.540147611e-06
4.053799817e-06
5.137405576e-06
4.180958123e-06
4.139184227e-06
5.606265347e-06
4.704865354e-06
5.321632845e-06
7.930337899e-06
2.736396573e-06
4.095300947e-06
5.521729056e-06
3.589169536e-06
2.692560059e-06
3.63956823e-06
4.240081687e-06
4.125992774e-06
6.415022912e-06
3.084315113e-06
5.620224946e-06
5.136422471e-06
4.543109575e-06
7.530750401e-06
4.747722995e-06
3.497311952e-06
9.199936339e-06
5.283737897e-06
4.155584379e-06
4.772839451e-06
6.952456108e-06
5.553205548e-06
6.570009484e-06
4.011723974e-06
5.810620614e-06
3.068824107e-06
4.743230257e-06
4.270275021e-06
6.632998425e-06
4.772839418e-06
6.952456158e-06
6.594327035e-06
3.984138943e-06
4.222153529e-06
4.110325872e-06
6.279904467e-06
2.15585638e-06
7.817395215e-06
3.207511433e-06
4.772839451e-06
5.399077245e-06
3.956930651e-06
4.962758428e-06
8.866861472e-06
4.180958123e-06
3.996927973e-06
3.090522461e-06
2.533657282e-06
4.738608664e-06
9.104809775e-06
5.546509045e-06
7.149480371e-06
2.096560767e-06
5.700246325e-06
3.543560996e-06
)
;

boundaryField
{
    flow
    {
        type            zeroGradient;
    }
    obstacle
    {
        type            calculated;
        value           nonuniform List<scalar> 10(6.200603218e-24 3.844071973e-24 1.617983097e-23 4.42328831e-23 2.514244349e-24 3.170396788e-24 3.027109689e-24 2.909628455e-24 2.518363547e-24 7.96727649e-24);
    }
    frontAndBack
    {
        type            empty;
    }
    procBoundary0to1
    {
        type            processor;
        value           nonuniform List<scalar> 
21
(
1.445416313e-05
1.572010824e-05
1.229355402e-05
8.568180233e-06
1.095155799e-05
1.095335272e-05
7.376491353e-06
8.790948881e-06
6.556083558e-06
8.642436449e-06
5.065575097e-06
6.630339793e-06
5.88598288e-06
2.160609106e-06
5.215882263e-06
6.481827318e-06
5.364394658e-06
3.203785574e-06
5.811726706e-06
5.960239096e-06
4.84280647e-06
)
;
    }
    procBoundary0to2
    {
        type            processor;
        value           nonuniform List<scalar> 
31
(
3.874007286e-06
5.602522687e-06
4.080829287e-06
5.464641352e-06
7.055275419e-06
3.596578377e-06
3.458697042e-06
3.874007286e-06
4.427198864e-06
4.01188862e-06
4.980390442e-06
3.52763771e-06
4.565080198e-06
3.942947953e-06
2.974446132e-06
4.980390442e-06
3.942947953e-06
5.049331109e-06
2.905505464e-06
5.464641352e-06
3.568440103e-06
1.72433884e-06
6.152918556e-06
6.707413041e-06
4.405153714e-06
5.472793145e-06
5.136422471e-06
5.661050839e-06
4.926975987e-06
3.568440103e-06
4.535826328e-06
)
;
    }
}


// ************************************************************************* //
