/*--------------------------------*- C++ -*----------------------------------*\
| =========                 |                                                 |
| \\      /  F ield         | OpenFOAM: The Open Source CFD Toolbox           |
|  \\    /   O peration     | Version:  2406                                  |
|   \\  /    A nd           | Website:  www.openfoam.com                      |
|    \\/     M anipulation  |                                                 |
\*---------------------------------------------------------------------------*/
FoamFile
{
    version     2.0;
    format      ascii;
    arch        "LSB;label=32;scalar=64";
    class       volScalarField;
    location    "0.008";
    object      rhoMMean;
}
// * * * * * * * * * * * * * * * * * * * * * * * * * * * * * * * * * * * * * //

dimensions      [1 -3 0 0 0 0 0];

internalField   nonuniform List<scalar> 
654
(
3.664698004e-06
4.704535765e-06
4.722952868e-06
4.728898845e-06
4.746122556e-06
4.752101753e-06
4.746937608e-06
4.766633029e-06
4.746683662e-06
4.721731254e-06
4.728336333e-06
4.723337041e-06
4.714260252e-06
4.726060041e-06
4.750511796e-06
4.783571241e-06
4.77470419e-06
4.872409466e-06
5.118132229e-06
6.541574867e-06
3.70303542e-06
4.772064034e-06
4.825480085e-06
4.79695e-06
4.790740914e-06
4.807756554e-06
4.785779425e-06
4.786921528e-06
4.778338728e-06
4.793784301e-06
4.815694572e-06
4.832403728e-06
4.834238154e-06
4.845770667e-06
4.834626648e-06
4.872436594e-06
4.924924446e-06
5.068883755e-06
5.391210586e-06
6.245573009e-06
3.731879904e-06
4.815989236e-06
4.820794359e-06
4.808885171e-06
4.787179223e-06
4.806888964e-06
4.823092468e-06
4.807802844e-06
4.818267611e-06
4.796373325e-06
4.79625018e-06
4.788224736e-06
4.773225611e-06
4.807947963e-06
4.831436632e-06
4.82498667e-06
4.872315532e-06
4.976851609e-06
5.169794199e-06
5.689487485e-06
3.74334431e-06
4.775640877e-06
4.815100245e-06
4.813905187e-06
4.781723902e-06
4.773152765e-06
4.771058979e-06
4.776693056e-06
4.760195721e-06
4.778506497e-06
4.766559507e-06
4.779737692e-06
4.792720876e-06
4.74433817e-06
4.767001373e-06
4.769841686e-06
4.794160559e-06
4.878025214e-06
5.0523721e-06
5.411769015e-06
3.72362957e-06
4.778440889e-06
4.745788423e-06
4.763424112e-06
4.775722055e-06
4.774603435e-06
4.759606809e-06
4.748627071e-06
4.730088904e-06
4.737703203e-06
4.724560321e-06
4.730253185e-06
4.76571415e-06
4.769403153e-06
4.767245008e-06
4.835865757e-06
4.867735143e-06
4.95521986e-06
5.066461094e-06
5.247951098e-06
3.703415427e-06
4.740144192e-06
4.800444001e-06
4.764854058e-06
4.765529562e-06
4.756901304e-06
4.752593919e-06
4.781562381e-06
4.789890976e-06
4.801739971e-06
4.794474541e-06
4.788466445e-06
4.757156083e-06
4.746039296e-06
4.80232555e-06
4.79438295e-06
4.815301652e-06
4.871777076e-06
4.92736252e-06
5.060033106e-06
3.72468633e-06
4.795805814e-06
4.820447989e-06
4.799560842e-06
4.829232197e-06
4.833415187e-06
4.826620106e-06
4.804742222e-06
4.828502488e-06
4.861097833e-06
4.837910494e-06
4.842861413e-06
4.852704463e-06
4.838776834e-06
4.84254868e-06
4.814016929e-06
4.844573943e-06
4.874970841e-06
4.951984544e-06
5.031034339e-06
3.715972313e-06
4.753491814e-06
4.789645934e-06
4.791722486e-06
4.798290178e-06
4.792965084e-06
4.820782695e-06
4.841745865e-06
4.851794488e-06
4.821292096e-06
4.817594189e-06
4.789493317e-06
4.800630255e-06
4.818194088e-06
4.803102799e-06
4.83874278e-06
4.844480269e-06
4.883836225e-06
4.913862281e-06
4.948185309e-06
3.726917165e-06
4.820347911e-06
4.836116787e-06
4.821922559e-06
4.802468013e-06
4.792923376e-06
4.807522343e-06
4.815698738e-06
4.777394959e-06
4.775473941e-06
4.817561802e-06
4.832114219e-06
4.809824774e-06
4.800489874e-06
4.787745067e-06
4.818136811e-06
4.858385091e-06
4.855601481e-06
4.885773906e-06
4.963142309e-06
3.714064781e-06
4.74047166e-06
4.791952375e-06
4.795148379e-06
4.805438294e-06
4.813998861e-06
4.806131866e-06
4.802868588e-06
4.832120884e-06
4.837208434e-06
4.816821939e-06
4.826063425e-06
4.849337357e-06
4.849003224e-06
4.852686812e-06
4.861935119e-06
4.866461146e-06
4.832763583e-06
4.861489504e-06
4.885369582e-06
3.73758792e-06
4.782401489e-06
4.792293746e-06
4.786380573e-06
4.768098852e-06
4.736057115e-06
4.714784961e-06
4.723462425e-06
4.728153567e-06
4.758912404e-06
4.776610212e-06
4.772215401e-06
4.797743235e-06
4.795964263e-06
4.792533788e-06
4.739358612e-06
4.765008342e-06
4.807683448e-06
4.864505658e-06
4.896704178e-06
3.727229897e-06
4.806410128e-06
4.839151009e-06
4.812830775e-06
4.84599863e-06
4.845994464e-06
4.871986397e-06
4.86982367e-06
4.877898736e-06
4.833829248e-06
4.806644339e-06
4.77588092e-06
4.75694093e-06
4.794604924e-06
4.81299214e-06
4.862646759e-06
4.882823516e-06
4.852197145e-06
4.845137704e-06
4.852783974e-06
3.737548035e-06
4.787195208e-06
4.809292567e-06
4.806907449e-06
4.777163404e-06
4.777584963e-06
4.787856393e-06
4.766968412e-06
4.741446411e-06
4.751904095e-06
4.777096546e-06
4.788212916e-06
4.809503971e-06
4.80243271e-06
4.765541382e-06
4.801718987e-06
4.815159032e-06
4.838086594e-06
4.860428994e-06
4.84529407e-06
3.736845142e-06
4.815195585e-06
4.845753015e-06
4.859175409e-06
4.869529266e-06
4.868750351e-06
4.831830385e-06
4.855965659e-06
4.842119051e-06
4.840026931e-06
4.81478569e-06
4.826110549e-06
4.804568465e-06
4.798584686e-06
4.813374073e-06
4.763191411e-06
4.743455271e-06
4.728205533e-06
4.737468576e-06
4.797443416e-06
3.686415773e-06
4.765077699e-06
4.783094644e-06
4.758020341e-06
4.779001162e-06
4.789409641e-06
4.80338481e-06
4.806927183e-06
4.833405034e-06
4.844781598e-06
4.83508226e-06
4.838883578e-06
4.872204883e-06
4.844177534e-06
4.828818136e-06
4.816743834e-06
4.81195678e-06
4.812290913e-06
4.787496537e-06
4.775102682e-06
3.734005244e-06
4.790912433e-06
4.811488931e-06
4.808861271e-06
4.77088746e-06
4.784426751e-06
4.805052455e-06
4.781763788e-06
4.790341173e-06
4.777304618e-06
4.778046147e-06
4.763933513e-06
4.703492074e-06
4.723810045e-06
4.744455067e-06
4.778835215e-06
4.811828636e-06
4.79937391e-06
4.828953674e-06
4.801857441e-06
3.734579004e-06
4.758576865e-06
4.765886919e-06
4.768260217e-06
4.772155625e-06
4.782203831e-06
4.74118705e-06
4.762864516e-06
4.74686825e-06
4.743610544e-06
4.761365629e-06
4.773475651e-06
4.782724791e-06
4.810621757e-06
4.791559871e-06
4.777903683e-06
4.776990636e-06
4.795184515e-06
4.780191638e-06
4.778950706e-06
3.704590751e-06
4.768709164e-06
4.798971514e-06
4.822570414e-06
4.80138652e-06
4.768891253e-06
4.796406546e-06
4.790375227e-06
4.780706611e-06
4.77887635e-06
4.770974886e-06
4.76716732e-06
4.781831062e-06
4.783579729e-06
4.784994678e-06
4.785308244e-06
4.801495346e-06
4.785064036e-06
4.801439891e-06
4.804185282e-06
3.729377055e-06
4.796190403e-06
4.815953516e-06
4.765420319e-06
4.789870408e-06
4.823293042e-06
4.805103744e-06
4.805729209e-06
4.793590965e-06
4.792102076e-06
4.803724514e-06
4.803847243e-06
4.76704834e-06
4.764025104e-06
4.759544533e-06
4.757277979e-06
4.765299673e-06
4.770505787e-06
4.768547383e-06
4.768074952e-06
3.709829669e-06
4.782180764e-06
4.854701243e-06
4.855692395e-06
4.83954143e-06
4.829307386e-06
4.814441404e-06
4.808575771e-06
4.81708005e-06
4.810850397e-06
4.815743362e-06
4.81492831e-06
4.832534944e-06
4.81595185e-06
4.831307082e-06
4.816175907e-06
4.825889564e-06
4.834310999e-06
4.848082679e-06
4.84486694e-06
3.716541074e-06
4.763483732e-06
4.757277979e-06
4.765492593e-06
4.772877835e-06
4.78636792e-06
4.779742691e-06
4.744376806e-06
4.760684554e-06
4.777220941e-06
4.798427903e-06
4.808468195e-06
4.797395615e-06
4.828468851e-06
4.831978837e-06
4.855153523e-06
4.841388925e-06
4.838812554e-06
4.822107148e-06
4.805662768e-06
3.710537144e-06
4.763762411e-06
4.784149322e-06
4.748506841e-06
4.760943498e-06
4.750979384e-06
4.802614382e-06
4.831653035e-06
4.865513629e-06
4.862017129e-06
4.82414298e-06
4.799359175e-06
4.80217085e-06
4.825493571e-06
4.820702351e-06
4.803496708e-06
4.801093522e-06
4.791101603e-06
4.818601744e-06
4.817824078e-06
1.158577398e-05
1.332316405e-05
1.395184982e-05
1.43869271e-05
1.45896431e-05
1.480774548e-05
1.495751395e-05
1.506289094e-05
1.46778953e-05
1.47699599e-05
7.896778592e-06
9.480902957e-06
1.057936236e-05
1.142928489e-05
1.210743753e-05
1.253885235e-05
1.277285293e-05
1.306411171e-05
1.317952187e-05
1.315010867e-05
6.536637864e-06
7.595800967e-06
8.509897612e-06
9.433666461e-06
1.0143338e-05
1.082471438e-05
1.135009975e-05
1.180164837e-05
1.206233656e-05
1.228508548e-05
5.909229157e-06
6.539788384e-06
7.220758853e-06
7.975654941e-06
8.704786773e-06
9.398101422e-06
1.011030666e-05
1.055030985e-05
1.09545226e-05
1.13796862e-05
5.53895343e-06
5.966549582e-06
6.441457259e-06
7.011276462e-06
7.619424271e-06
8.149097968e-06
8.737328402e-06
9.219747695e-06
9.888367958e-06
1.051146473e-05
5.277978741e-06
5.574085906e-06
5.904661049e-06
6.298984472e-06
6.72749759e-06
7.303506686e-06
7.931329565e-06
8.429551712e-06
8.976620743e-06
9.489774381e-06
5.177144784e-06
5.372261889e-06
5.568605318e-06
5.891217779e-06
6.188076605e-06
6.604077109e-06
7.073659453e-06
7.566102628e-06
8.14403161e-06
8.690590457e-06
5.046574433e-06
5.182160685e-06
5.328893632e-06
5.551655069e-06
5.788409425e-06
6.07536323e-06
6.482075434e-06
6.855214802e-06
7.322612942e-06
7.779167903e-06
4.9831154e-06
5.098073957e-06
5.192324742e-06
5.383704611e-06
5.537734252e-06
5.748359508e-06
5.977334175e-06
6.250040787e-06
6.627241001e-06
7.017649972e-06
4.963819645e-06
5.046334925e-06
5.148191384e-06
5.195371525e-06
5.296826237e-06
5.484758461e-06
5.71109829e-06
5.915147244e-06
6.104213901e-06
6.385476164e-06
4.936406803e-06
4.971263651e-06
5.062788821e-06
5.146683038e-06
5.232339081e-06
5.306508662e-06
5.423189983e-06
5.632687465e-06
5.813558492e-06
6.047232315e-06
4.854205075e-06
4.858098408e-06
4.881816335e-06
4.942732172e-06
4.98734953e-06
5.095465973e-06
5.20027802e-06
5.362545048e-06
5.536300038e-06
5.707052446e-06
4.85761746e-06
4.900773279e-06
4.913264709e-06
4.962363879e-06
4.992659998e-06
5.09345207e-06
5.193311741e-06
5.230950569e-06
5.297183651e-06
5.481601416e-06
4.838444274e-06
4.847049709e-06
4.891152229e-06
4.888106564e-06
4.917391798e-06
4.934224155e-06
4.991990096e-06
5.078370294e-06
5.178167504e-06
5.266818801e-06
4.778928837e-06
4.783847609e-06
4.817196286e-06
4.871187832e-06
4.870020391e-06
4.933907639e-06
4.932869663e-06
4.991064533e-06
5.057152724e-06
5.137665296e-06
4.849468707e-06
4.860538653e-06
4.826633385e-06
4.829383959e-06
4.885636366e-06
4.902370016e-06
4.934794643e-06
4.975042875e-06
5.036775757e-06
5.062171863e-06
4.759084738e-06
4.802222684e-06
4.795156672e-06
4.816738518e-06
4.801095e-06
4.840784975e-06
4.874731981e-06
4.896930481e-06
4.889850463e-06
5.000724371e-06
4.81409038e-06
4.776163604e-06
4.78859427e-06
4.788595952e-06
4.8426642e-06
4.848825668e-06
4.849774388e-06
4.880432902e-06
4.897311299e-06
4.918212616e-06
4.78715586e-06
4.838906637e-06
4.857086143e-06
4.861968514e-06
4.841433835e-06
4.832422213e-06
4.842491547e-06
4.853719701e-06
4.876686151e-06
4.918635905e-06
4.833225717e-06
4.826134285e-06
4.814294403e-06
4.809077216e-06
4.829907801e-06
4.858537443e-06
4.868296873e-06
4.881990944e-06
4.848787173e-06
4.85658707e-06
4.801862637e-06
4.796841539e-06
4.784505854e-06
4.780359649e-06
4.773708737e-06
4.754618727e-06
4.746277846e-06
4.787219683e-06
4.862614799e-06
4.871795818e-06
4.81198734e-06
4.803854927e-06
4.808995361e-06
4.841210109e-06
)
;

boundaryField
{
    flow
    {
        type            calculated;
        value           nonuniform List<scalar> 
42
(
3.664698004e-06
3.70303542e-06
3.731879904e-06
3.74334431e-06
3.72362957e-06
3.703415427e-06
3.72468633e-06
3.715972313e-06
3.726917165e-06
3.714064781e-06
3.73758792e-06
3.727229897e-06
3.737548035e-06
3.736845142e-06
3.686415773e-06
3.734005244e-06
3.734579004e-06
3.704590751e-06
3.729377055e-06
3.709829669e-06
3.716541074e-06
3.710537144e-06
3.664698004e-06
4.704535765e-06
4.722952868e-06
4.728898845e-06
4.746122556e-06
4.752101753e-06
4.746937608e-06
4.766633029e-06
4.746683662e-06
4.721731254e-06
4.728336333e-06
4.723337041e-06
4.714260252e-06
4.726060041e-06
4.750511796e-06
4.783571241e-06
4.77470419e-06
4.872409466e-06
5.118132229e-06
6.541574867e-06
)
;
    }
    obstacle
    {
        type            calculated;
        value           nonuniform List<scalar> 10(6.691963249e-24 6.9099554e-24 6.977103999e-24 6.628667929e-24 7.272242026e-24 6.94908165e-24 6.823608444e-24 6.919678547e-24 6.734014475e-24 6.639780688e-24);
    }
    frontAndBack
    {
        type            empty;
    }
    procBoundary0to1
    {
        type            processor;
        value           nonuniform List<scalar> 
21
(
1.461918473e-05
1.321153623e-05
1.235246236e-05
1.159899962e-05
1.078654969e-05
1.007368162e-05
9.183020075e-06
8.227763772e-06
7.482264852e-06
6.763228334e-06
6.354831429e-06
5.93511995e-06
5.620906249e-06
5.334446352e-06
5.251745156e-06
5.088073762e-06
5.049628167e-06
4.966011946e-06
4.944835352e-06
4.902276634e-06
4.854157295e-06
)
;
    }
    procBoundary0to2
    {
        type            processor;
        value           nonuniform List<scalar> 
31
(
3.706339834e-06
4.782700318e-06
4.836271903e-06
4.807566551e-06
4.808188683e-06
4.802877908e-06
4.801877852e-06
4.779115977e-06
4.759751772e-06
4.785395253e-06
4.802014067e-06
4.829339773e-06
4.81175454e-06
4.77932988e-06
4.776790479e-06
4.776320547e-06
4.787268315e-06
4.773157764e-06
4.743391485e-06
4.742857195e-06
4.84679638e-06
4.848472707e-06
4.862131716e-06
4.86005987e-06
4.856965694e-06
4.879988528e-06
4.758529585e-06
4.779971487e-06
4.802600623e-06
4.84679638e-06
4.769774225e-06
)
;
    }
}


// ************************************************************************* //
