/*--------------------------------*- C++ -*----------------------------------*\
| =========                 |                                                 |
| \\      /  F ield         | OpenFOAM: The Open Source CFD Toolbox           |
|  \\    /   O peration     | Version:  2406                                  |
|   \\  /    A nd           | Website:  www.openfoam.com                      |
|    \\/     M anipulation  |                                                 |
\*---------------------------------------------------------------------------*/
FoamFile
{
    version     2.0;
    format      ascii;
    arch        "LSB;label=32;scalar=64";
    class       volScalarField;
    location    "0.008";
    object      rhoN;
}
// * * * * * * * * * * * * * * * * * * * * * * * * * * * * * * * * * * * * * //

dimensions      [0 -3 0 0 0 0 0];

internalField   nonuniform List<scalar> 
654
(
9.372598272e+19
8.331198464e+19
1.145539789e+20
6.248398848e+19
3.124199424e+19
1.145539789e+20
1.457959731e+20
1.041399808e+20
1.24967977e+20
7.289798656e+19
1.666239693e+20
7.289798656e+19
8.331198464e+19
1.041399808e+20
4.165599232e+19
1.562099712e+20
1.35381975e+20
4.165599232e+19
1.35381975e+20
1.041399808e+20
7.289798656e+19
9.372598272e+19
1.145539789e+20
1.041399808e+20
8.331198464e+19
1.457959731e+20
6.248398848e+19
1.457959731e+20
8.331198464e+19
1.041399808e+20
6.248398848e+19
1.24967977e+20
1.145539789e+20
8.331198464e+19
1.24967977e+20
1.770379674e+20
1.041399808e+20
6.248398848e+19
7.289798656e+19
8.331198464e+19
7.289798656e+19
1.041399808e+20
1.145539789e+20
1.145539789e+20
6.248398848e+19
9.372598272e+19
1.24967977e+20
1.24967977e+20
7.289798656e+19
1.041399808e+20
1.145539789e+20
1.041399808e+20
1.457959731e+20
8.331198464e+19
5.20699904e+19
8.331198464e+19
9.372598272e+19
1.24967977e+20
1.562099712e+20
1.041399808e+20
8.331198464e+19
7.289798656e+19
1.041399808e+20
9.372598272e+19
1.24967977e+20
8.331198464e+19
9.372598272e+19
8.331198464e+19
8.331198464e+19
8.331198464e+19
1.145539789e+20
1.978659635e+20
6.248398848e+19
8.331198464e+19
1.35381975e+20
9.372598272e+19
7.289798656e+19
9.372598272e+19
8.331198464e+19
1.145539789e+20
1.041399808e+20
5.20699904e+19
9.372598272e+19
1.041399808e+20
1.562099712e+20
3.124199424e+19
1.041399808e+20
1.145539789e+20
1.145539789e+20
1.041399808e+20
1.041399808e+20
7.289798656e+19
8.331198464e+19
1.145539789e+20
6.248398848e+19
1.35381975e+20
1.457959731e+20
7.289798656e+19
9.372598272e+19
1.457959731e+20
5.20699904e+19
1.24967977e+20
9.372598272e+19
6.248398848e+19
8.331198464e+19
6.248398848e+19
1.457959731e+20
1.041399808e+20
1.35381975e+20
7.289798656e+19
7.289798656e+19
1.041399808e+20
1.35381975e+20
7.289798656e+19
1.457959731e+20
1.24967977e+20
1.24967977e+20
1.145539789e+20
1.041399808e+20
1.041399808e+20
7.289798656e+19
8.331198464e+19
1.35381975e+20
1.666239693e+20
1.041399808e+20
8.331198464e+19
6.248398848e+19
1.562099712e+20
6.248398848e+19
9.372598272e+19
1.562099712e+20
1.24967977e+20
9.372598272e+19
1.145539789e+20
1.35381975e+20
1.35381975e+20
5.20699904e+19
5.20699904e+19
9.372598272e+19
1.041399808e+20
1.041399808e+20
1.35381975e+20
3.124199424e+19
4.165599232e+19
7.289798656e+19
1.457959731e+20
9.372598272e+19
8.331198464e+19
7.289798656e+19
9.372598272e+19
1.457959731e+20
7.289798656e+19
6.248398848e+19
1.145539789e+20
1.35381975e+20
1.666239693e+20
9.372598272e+19
2.082799616e+19
1.770379674e+20
1.145539789e+20
6.248398848e+19
1.041399808e+20
1.145539789e+20
7.289798656e+19
1.24967977e+20
1.145539789e+20
7.289798656e+19
7.289798656e+19
7.289798656e+19
1.24967977e+20
6.248398848e+19
6.248398848e+19
1.457959731e+20
6.248398848e+19
1.24967977e+20
7.289798656e+19
9.372598272e+19
9.372598272e+19
1.041399808e+20
8.331198464e+19
8.331198464e+19
5.20699904e+19
1.041399808e+20
1.562099712e+20
1.145539789e+20
1.145539789e+20
1.041399808e+20
8.331198464e+19
7.289798656e+19
8.331198464e+19
9.372598272e+19
7.289798656e+19
9.372598272e+19
1.041399808e+20
1.35381975e+20
1.145539789e+20
1.24967977e+20
1.457959731e+20
6.248398848e+19
1.145539789e+20
8.331198464e+19
1.041399808e+20
6.248398848e+19
8.331198464e+19
1.35381975e+20
9.372598272e+19
1.145539789e+20
9.372598272e+19
8.331198464e+19
1.457959731e+20
9.372598272e+19
1.145539789e+20
1.145539789e+20
8.331198464e+19
6.248398848e+19
1.35381975e+20
7.289798656e+19
5.20699904e+19
8.331198464e+19
1.562099712e+20
8.331198464e+19
9.372598272e+19
1.562099712e+20
1.041399808e+20
1.041399808e+20
5.20699904e+19
5.20699904e+19
1.041399808e+20
9.372598272e+19
1.35381975e+20
1.041399808e+20
8.331198464e+19
9.372598272e+19
9.372598272e+19
1.562099712e+20
1.24967977e+20
1.562099712e+20
1.35381975e+20
1.457959731e+20
9.372598272e+19
7.289798656e+19
1.041399808e+20
1.145539789e+20
1.24967977e+20
7.289798656e+19
1.35381975e+20
1.041399808e+20
8.331198464e+19
1.24967977e+20
8.331198464e+19
9.372598272e+19
6.248398848e+19
1.35381975e+20
8.331198464e+19
6.248398848e+19
9.372598272e+19
1.666239693e+20
1.145539789e+20
5.20699904e+19
9.372598272e+19
6.248398848e+19
1.041399808e+20
8.331198464e+19
9.372598272e+19
7.289798656e+19
1.24967977e+20
1.041399808e+20
9.372598272e+19
1.874519654e+20
8.331198464e+19
1.145539789e+20
1.145539789e+20
8.331198464e+19
1.457959731e+20
8.331198464e+19
7.289798656e+19
8.331198464e+19
5.20699904e+19
1.457959731e+20
4.165599232e+19
9.372598272e+19
1.041399808e+20
1.041399808e+20
1.145539789e+20
8.331198464e+19
1.145539789e+20
1.24967977e+20
9.372598272e+19
7.289798656e+19
1.041399808e+20
9.372598272e+19
1.041399808e+20
1.145539789e+20
8.331198464e+19
1.24967977e+20
8.331198464e+19
1.24967977e+20
1.666239693e+20
7.289798656e+19
1.041399808e+20
7.289798656e+19
1.041399808e+20
9.372598272e+19
9.372598272e+19
9.372598272e+19
1.145539789e+20
7.289798656e+19
7.289798656e+19
9.372598272e+19
1.35381975e+20
1.562099712e+20
1.145539789e+20
1.145539789e+20
1.457959731e+20
5.20699904e+19
8.331198464e+19
7.289798656e+19
1.24967977e+20
1.35381975e+20
7.289798656e+19
8.331198464e+19
1.24967977e+20
1.24967977e+20
1.145539789e+20
8.331198464e+19
1.35381975e+20
9.372598272e+19
9.372598272e+19
6.248398848e+19
8.331198464e+19
1.041399808e+20
9.372598272e+19
7.289798656e+19
9.372598272e+19
8.331198464e+19
4.165599232e+19
1.041399808e+20
6.248398848e+19
6.248398848e+19
7.289798656e+19
6.248398848e+19
1.145539789e+20
1.041399808e+20
5.20699904e+19
9.372598272e+19
9.372598272e+19
8.331198464e+19
1.041399808e+20
1.041399808e+20
1.24967977e+20
1.35381975e+20
8.331198464e+19
1.145539789e+20
8.331198464e+19
1.145539789e+20
8.331198464e+19
9.372598272e+19
2.082799616e+20
1.562099712e+20
5.20699904e+19
7.289798656e+19
1.145539789e+20
1.041399808e+20
1.041399808e+20
8.331198464e+19
6.248398848e+19
1.874519654e+20
9.372598272e+19
9.372598272e+19
5.20699904e+19
1.041399808e+20
2.186939597e+20
1.041399808e+20
1.041399808e+20
4.165599232e+19
4.165599232e+19
1.041399808e+20
1.24967977e+20
1.24967977e+20
1.35381975e+20
9.372598272e+19
9.372598272e+19
4.165599232e+19
6.248398848e+19
1.457959731e+20
1.145539789e+20
8.331198464e+19
1.041399808e+20
6.248398848e+19
1.041399808e+20
8.331198464e+19
1.145539789e+20
8.331198464e+19
1.24967977e+20
8.331198464e+19
1.041399808e+20
1.145539789e+20
7.289798656e+19
1.041399808e+20
1.041399808e+20
9.372598272e+19
8.331198464e+19
1.041399808e+20
7.289798656e+19
8.331198464e+19
6.248398848e+19
6.248398848e+19
1.35381975e+20
8.331198464e+19
1.145539789e+20
9.372598272e+19
1.666239693e+20
7.289798656e+19
8.331198464e+19
1.041399808e+20
8.331198464e+19
7.289798656e+19
9.372598272e+19
1.145539789e+20
1.145539789e+20
7.289798656e+19
6.248398848e+19
1.457959731e+20
1.35381975e+20
9.372598272e+19
1.35381975e+20
1.145539789e+20
7.289798656e+19
1.24967977e+20
1.24967977e+20
7.289798656e+19
5.20699904e+19
9.372598272e+19
4.165599232e+19
8.331198464e+19
1.35381975e+20
7.289798656e+19
1.145539789e+20
1.35381975e+20
9.372598272e+19
2.717241484e+20
2.735925526e+20
3.814433022e+20
2.66738e+20
2.471218906e+20
3.570731791e+20
3.596158715e+20
3.182926076e+20
3.316467854e+20
2.561126441e+20
9.405835908e+19
2.209786002e+20
2.436998877e+20
2.987465601e+20
3.76055051e+20
2.488691856e+20
3.051286184e+20
2.63414572e+20
2.763723212e+20
2.338419794e+20
1.358620742e+20
1.788874382e+20
1.377434147e+20
1.813818401e+20
1.289331604e+20
2.705099842e+20
2.397439143e+20
3.073170006e+20
1.879331784e+20
2.338419794e+20
1.254111454e+20
6.313674294e+19
1.271477675e+20
1.387037599e+20
2.148886004e+20
1.514855911e+20
1.743592105e+20
1.756097146e+20
2.432076426e+20
2.004359824e+20
6.27055727e+19
1.367962763e+20
1.165521202e+20
1.600428002e+20
2.256330307e+20
1.623059906e+20
1.307694079e+20
2.195121433e+20
1.216038214e+20
1.447593207e+20
7.315650148e+19
1.894102287e+20
1.48339062e+20
1.600427999e+20
2.363774605e+20
1.19024393e+20
1.743592103e+20
1.097560715e+20
1.326587141e+20
2.004359825e+20
1.149602166e+20
1.262734858e+20
8.476517832e+19
1.600428002e+20
1.396775905e+20
1.839467894e+20
1.634617599e+20
1.646341075e+20
1.658233927e+20
2.338419794e+20
1.149602166e+20
1.367962764e+20
7.416953103e+19
1.2803424e+20
8.595544016e+19
1.082039937e+20
1.852566612e+20
1.646341075e+20
1.879331784e+20
2.004359824e+20
1.149602166e+20
1.262734858e+20
1.377434147e+20
1.2803424e+20
1.504220205e+20
1.19024393e+20
1.089745065e+20
7.682925016e+19
7.738424993e+19
1.336239882e+20
3.135278637e+19
8.418232392e+19
7.416953103e+19
1.707123201e+20
1.611664504e+20
1.406651919e+20
7.628215461e+19
9.878046449e+19
8.843914278e+19
1.336239882e+20
6.27055727e+19
9.470511435e+19
7.416953098e+19
1.2803424e+20
1.396775904e+20
5.410199684e+19
7.628215455e+19
1.317072859e+20
1.105489285e+20
8.908265883e+19
1.045092878e+20
1.052279049e+20
1.165521202e+20
8.535615997e+19
9.669987025e+19
1.082039937e+20
1.961541125e+20
9.878046511e+19
7.738425031e+19
7.794732681e+19
1.045092878e+20
9.47051146e+19
1.271477679e+20
1.4937328e+20
8.595543987e+19
7.574279546e+19
7.628215445e+19
1.207316778e+20
1.326587136e+20
1.113533235e+20
1.149602162e+20
9.470511377e+19
1.059564721e+20
1.066951997e+20
9.669987032e+19
8.656319476e+19
1.416668578e+20
4.39024286e+19
7.73842496e+19
1.670299841e+20
1.358620749e+20
8.418232409e+19
8.476517826e+19
5.33476002e+19
1.289331613e+20
1.623059913e+20
1.307694081e+20
7.682925059e+19
5.527446439e+19
7.794732648e+19
7.315650138e+19
8.418232409e+19
1.059564735e+20
8.535616032e+19
8.595544028e+19
1.190243936e+20
9.807705606e+19
1.097560707e+20
1.65823392e+20
5.567666177e+19
8.360743015e+19
1.157506948e+20
7.416953048e+19
5.334759983e+19
7.521101025e+19
8.656319476e+19
8.717960539e+19
1.317072867e+20
6.632935727e+19
1.113533235e+20
1.045092877e+20
9.47051146e+19
1.589347103e+20
9.60256797e+19
7.521100973e+19
1.947671882e+20
1.08974506e+20
8.78048572e+19
9.949403591e+19
1.447593206e+20
1.149602172e+20
1.367962766e+20
8.476517826e+19
1.173647204e+20
6.446658021e+19
9.73835941e+19
8.717960539e+19
1.317072858e+20
9.94940352e+19
1.447593216e+20
1.35862074e+20
8.418232409e+19
8.476517826e+19
8.535615974e+19
1.289331604e+20
4.328159768e+19
1.634617601e+20
6.58536429e+19
9.949403591e+19
1.113533235e+20
8.360743015e+19
1.052279044e+20
1.801260038e+20
8.535616032e+19
8.595544028e+19
6.492239607e+19
5.448725337e+19
9.878046504e+19
1.879331789e+20
1.113533235e+20
1.463130028e+20
4.209116176e+19
1.165521201e+20
7.468664028e+19
)
;

boundaryField
{
    flow
    {
        type            zeroGradient;
    }
    obstacle
    {
        type            calculated;
        value           nonuniform List<scalar> 10(116.7282232 72.36581274 315.5858555 951.2447978 47.33140717 59.68367448 65.0991331 62.57265495 54.15835585 165.6713308);
    }
    frontAndBack
    {
        type            empty;
    }
    procBoundary0to1
    {
        type            processor;
        value           nonuniform List<scalar> 
21
(
3.028576785e+20
3.252915809e+20
2.579898743e+20
1.794712169e+20
2.243390211e+20
2.355559725e+20
1.570373148e+20
1.794712169e+20
1.346034128e+20
1.794712169e+20
1.009525595e+20
1.346034132e+20
1.233864613e+20
4.486780409e+19
1.12169511e+20
1.346034123e+20
1.121695102e+20
6.730170662e+19
1.233864621e+20
1.233864613e+20
1.009525599e+20
)
;
    }
    procBoundary0to2
    {
        type            processor;
        value           nonuniform List<scalar> 
31
(
8.331198464e+19
1.145539789e+20
8.331198464e+19
1.145539789e+20
1.457959731e+20
7.289798656e+19
7.289798656e+19
8.331198464e+19
9.372598272e+19
8.331198464e+19
1.041399808e+20
7.289798656e+19
9.372598272e+19
8.331198464e+19
6.248398848e+19
1.041399808e+20
8.331198464e+19
1.041399808e+20
6.248398848e+19
1.145539789e+20
7.521101025e+19
3.246119803e+19
1.307694072e+20
1.426828929e+20
8.843914303e+19
1.113533235e+20
1.045092877e+20
1.157506956e+20
1.059564728e+20
7.521101025e+19
9.60256797e+19
)
;
    }
}


// ************************************************************************* //
