/*--------------------------------*- C++ -*----------------------------------*\
| =========                 |                                                 |
| \\      /  F ield         | OpenFOAM: The Open Source CFD Toolbox           |
|  \\    /   O peration     | Version:  2406                                  |
|   \\  /    A nd           | Website:  www.openfoam.com                      |
|    \\/     M anipulation  |                                                 |
\*---------------------------------------------------------------------------*/
FoamFile
{
    version     2.0;
    format      ascii;
    arch        "LSB;label=32;scalar=64";
    class       volScalarField;
    location    "0.008";
    object      rhoNMean;
}
// * * * * * * * * * * * * * * * * * * * * * * * * * * * * * * * * * * * * * //

dimensions      [0 -3 0 0 0 0 0];

internalField   nonuniform List<scalar> 
654
(
7.638407241e+19
9.807122342e+19
9.845654134e+19
9.856328482e+19
9.892256776e+19
9.902150074e+19
9.895380975e+19
9.935735218e+19
9.898244825e+19
9.846955884e+19
9.860233732e+19
9.848778334e+19
9.831074537e+19
9.859452682e+19
9.910220923e+19
9.97634981e+19
9.960468463e+19
1.016458283e+20
1.067148418e+20
1.363843224e+20
7.717813977e+19
9.947711316e+19
1.00580997e+20
1.000056236e+20
9.987024158e+19
1.00221714e+20
9.97765156e+19
9.98051541e+19
9.959166714e+19
9.993272557e+19
1.003909415e+20
1.007658454e+20
1.008127084e+20
1.010418164e+20
1.007632419e+20
1.014922218e+20
1.026117266e+20
1.0559013e+20
1.123436078e+20
1.301046815e+20
7.777954816e+19
1.004013555e+20
1.00487271e+20
1.00273784e+20
9.97999471e+19
1.00185265e+20
1.0052372e+20
1.001878685e+20
1.004221835e+20
9.995615707e+19
9.994053607e+19
9.97634981e+19
9.941202567e+19
1.001253845e+20
1.006460844e+20
1.00513306e+20
1.014896183e+20
1.036739544e+20
1.077354136e+20
1.186232486e+20
7.801386311e+19
9.953439015e+19
1.003388715e+20
1.003024225e+20
9.963592663e+19
9.949533765e+19
9.944326766e+19
9.953959714e+19
9.919593521e+19
9.956302864e+19
9.932871368e+19
9.960989163e+19
9.985722409e+19
9.886529077e+19
9.928966119e+19
9.937557668e+19
9.991450108e+19
1.016276038e+20
1.052646926e+20
1.127549607e+20
7.759730319e+19
9.958385664e+19
9.888091177e+19
9.92297807e+19
9.950314815e+19
9.951356215e+19
9.917771071e+19
9.895641325e+19
9.856849182e+19
9.876115079e+19
9.848517984e+19
9.862576881e+19
9.932350668e+19
9.943545716e+19
9.941202567e+19
1.008595714e+20
1.015156533e+20
1.033407064e+20
1.05636993e+20
1.094302918e+20
7.718334677e+19
9.882884178e+19
1.000837285e+20
9.933392068e+19
9.935474868e+19
9.918031421e+19
9.908138123e+19
9.970361761e+19
9.983639609e+19
1.001045565e+20
9.993793257e+19
9.97661016e+19
9.915688272e+19
9.894079226e+19
1.00101953e+20
9.990408708e+19
1.00305026e+20
1.014635833e+20
1.026611931e+20
1.054261096e+20
7.763114868e+19
9.996396757e+19
1.00476857e+20
1.000576935e+20
1.006564984e+20
1.007319999e+20
1.005966179e+20
1.001253845e+20
1.006200494e+20
1.012891488e+20
1.008205189e+20
1.009559009e+20
1.011824053e+20
1.008491574e+20
1.009402799e+20
1.003544925e+20
1.009949534e+20
1.016041723e+20
1.03155858e+20
1.048299082e+20
7.745931772e+19
9.909179523e+19
9.981296459e+19
9.986503458e+19
9.997958856e+19
9.987544858e+19
1.00414373e+20
1.008777959e+20
1.010964899e+20
1.004742535e+20
1.00414373e+20
9.982858559e+19
1.000629005e+20
1.00393545e+20
1.00112367e+20
1.008517609e+20
1.009480904e+20
1.017525717e+20
1.024138606e+20
1.03108995e+20
7.767801168e+19
1.00497685e+20
1.008127084e+20
1.005367375e+20
1.001305915e+20
9.993793257e+19
1.002659735e+20
1.004169765e+20
9.961770213e+19
9.956823564e+19
1.004273905e+20
1.006799299e+20
1.00221714e+20
1.000472796e+20
9.97817226e+19
1.00466443e+20
1.013542363e+20
1.012995628e+20
1.019061782e+20
1.035203479e+20
7.738641973e+19
9.882884178e+19
9.990148358e+19
9.994834657e+19
1.001670405e+20
1.003492855e+20
1.001930755e+20
1.001566265e+20
1.007215859e+20
1.008491574e+20
1.00435201e+20
1.006721194e+20
1.011433528e+20
1.011016969e+20
1.011798018e+20
1.013516328e+20
1.014167203e+20
1.007528279e+20
1.013672538e+20
1.018567117e+20
7.790711963e+19
9.966977212e+19
9.988065558e+19
9.97634981e+19
9.936255918e+19
9.87064773e+19
9.825086488e+19
9.840967835e+19
9.853724983e+19
9.914646872e+19
9.956042514e+19
9.945368166e+19
1.000082271e+20
9.998479556e+19
9.987284508e+19
9.876635779e+19
9.932871368e+19
1.00195679e+20
1.013672538e+20
1.020337497e+20
7.769363267e+19
1.002086965e+20
1.008179154e+20
1.002659735e+20
1.009585044e+20
1.009324694e+20
1.014792043e+20
1.014271343e+20
1.015911548e+20
1.007346034e+20
1.00164437e+20
9.952657965e+19
9.910481273e+19
9.989106958e+19
1.00305026e+20
1.013828748e+20
1.017786067e+20
1.011355424e+20
1.009637114e+20
1.011407493e+20
7.787327414e+19
9.97921366e+19
1.002347315e+20
1.001930755e+20
9.957083914e+19
9.962030563e+19
9.983118909e+19
9.940681867e+19
9.888872226e+19
9.907877773e+19
9.958385664e+19
9.97973436e+19
1.0026337e+20
1.001253845e+20
9.932090319e+19
1.00081125e+20
1.00383131e+20
1.008439504e+20
1.013099768e+20
1.009715219e+20
7.789670564e+19
1.003961485e+20
1.010392129e+20
1.013386153e+20
1.015260673e+20
1.015052393e+20
1.007372069e+20
1.012058368e+20
1.009480904e+20
1.009064344e+20
1.0041958e+20
1.006434809e+20
1.002243175e+20
1.00096746e+20
1.00429994e+20
9.939119767e+19
9.894860275e+19
9.864659681e+19
9.880280678e+19
1.000733145e+20
7.682406383e+19
9.933131718e+19
9.969320362e+19
9.917250371e+19
9.963853013e+19
9.984420659e+19
1.001514195e+20
1.002086965e+20
1.007762594e+20
1.010001604e+20
1.008101049e+20
1.008699854e+20
1.015521023e+20
1.009949534e+20
1.006538949e+20
1.00377924e+20
1.002972155e+20
1.003388715e+20
9.984420659e+19
9.961770213e+19
7.781339365e+19
9.986503458e+19
1.002815945e+20
1.00232128e+20
9.944847466e+19
9.972444561e+19
1.001253845e+20
9.966977212e+19
9.984941359e+19
9.959166714e+19
9.959427063e+19
9.928966119e+19
9.801134293e+19
9.842790285e+19
9.884185927e+19
9.957083914e+19
1.002503525e+20
9.996657107e+19
1.005315305e+20
9.997698506e+19
7.784463565e+19
9.920374571e+19
9.932611018e+19
9.940161167e+19
9.951095865e+19
9.972704911e+19
9.888351527e+19
9.928705769e+19
9.895120625e+19
9.884185927e+19
9.918291771e+19
9.946669916e+19
9.964373713e+19
1.00247749e+20
9.981817159e+19
9.956563214e+19
9.956823564e+19
9.995876057e+19
9.964634063e+19
9.964634063e+19
7.720417476e+19
9.940681867e+19
1.000368656e+20
1.00492478e+20
1.000498831e+20
9.935995568e+19
9.994834657e+19
9.984681009e+19
9.963332313e+19
9.961249513e+19
9.945628516e+19
9.935735218e+19
9.965935812e+19
9.970882461e+19
9.971923861e+19
9.974006661e+19
1.000837285e+20
9.972184211e+19
1.00060297e+20
1.00091539e+20
7.775611666e+19
9.999781306e+19
1.00393545e+20
9.931829969e+19
9.981556809e+19
1.004846675e+20
1.00122781e+20
1.00154023e+20
9.990929408e+19
9.986763808e+19
1.001201775e+20
1.00133195e+20
9.936776618e+19
9.932350668e+19
9.92193667e+19
9.916469321e+19
9.931829969e+19
9.943285366e+19
9.936516268e+19
9.932090319e+19
7.730831474e+19
9.969060012e+19
1.011667843e+20
1.012214578e+20
1.008882099e+20
1.006955509e+20
1.004221835e+20
1.00278991e+20
1.004325975e+20
1.002763875e+20
1.00372717e+20
1.00341475e+20
1.007241894e+20
1.00383131e+20
1.006981544e+20
1.00383131e+20
1.00554962e+20
1.007293964e+20
1.010574374e+20
1.009949534e+20
7.745931772e+19
9.927924719e+19
9.916469321e+19
9.933912768e+19
9.950054465e+19
9.97921366e+19
9.964113363e+19
9.889132576e+19
9.92349877e+19
9.960728813e+19
1.00086332e+20
1.00252956e+20
9.999000256e+19
1.006252564e+20
1.006955509e+20
1.011928193e+20
1.009090379e+20
1.008569679e+20
1.005054955e+20
1.00169644e+20
7.731352174e+19
9.929747169e+19
9.971403161e+19
9.895901675e+19
9.92375912e+19
9.900848324e+19
1.00075918e+20
1.007059649e+20
1.014193238e+20
1.013255978e+20
1.00518513e+20
9.998219206e+19
1.001045565e+20
1.005575655e+20
1.00450822e+20
1.00096746e+20
1.000498831e+20
9.986243109e+19
1.004638395e+20
1.00450822e+20
2.413563621e+20
2.774438939e+20
2.905591377e+20
2.995787825e+20
3.03750409e+20
3.085545083e+20
3.117215759e+20
3.13559377e+20
3.054052335e+20
3.075495281e+20
1.645498737e+20
1.97699557e+20
2.205060158e+20
2.381783624e+20
2.522201227e+20
2.613369908e+20
2.659985975e+20
2.721346919e+20
2.7442666e+20
2.738039034e+20
1.362565967e+20
1.583495819e+20
1.772439877e+20
1.965032173e+20
2.113026472e+20
2.255890962e+20
2.365536856e+20
2.460017712e+20
2.514159006e+20
2.559261273e+20
1.231563575e+20
1.363253815e+20
1.5053501e+20
1.662417911e+20
1.813901537e+20
1.959844835e+20
2.106667918e+20
2.198057408e+20
2.282006256e+20
2.371380378e+20
1.155010522e+20
1.243557072e+20
1.342468512e+20
1.460363878e+20
1.587140344e+20
1.69739605e+20
1.819955991e+20
1.921993449e+20
2.061267685e+20
2.190820965e+20
1.099359326e+20
1.16118993e+20
1.230181139e+20
1.313497933e+20
1.402792783e+20
1.523620434e+20
1.654124033e+20
1.758621534e+20
1.871952642e+20
1.979639387e+20
1.07903227e+20
1.119887977e+20
1.161150497e+20
1.228088427e+20
1.290352325e+20
1.377734401e+20
1.474751998e+20
1.577386823e+20
1.69814209e+20
1.811913442e+20
1.051964364e+20
1.079822453e+20
1.11090064e+20
1.157562898e+20
1.207109852e+20
1.266608899e+20
1.351338369e+20
1.428859419e+20
1.52610032e+20
1.621916834e+20
1.039057467e+20
1.063117522e+20
1.082398348e+20
1.121953376e+20
1.154757618e+20
1.198954352e+20
1.247267714e+20
1.303902131e+20
1.38191688e+20
1.46437972e+20
1.035164497e+20
1.052331663e+20
1.073895342e+20
1.083809842e+20
1.104930323e+20
1.14306699e+20
1.18983815e+20
1.232862514e+20
1.273053823e+20
1.330477348e+20
1.028789429e+20
1.036363328e+20
1.055061578e+20
1.072446803e+20
1.089888121e+20
1.106385835e+20
1.130528774e+20
1.173841185e+20
1.21197554e+20
1.261466126e+20
1.011963434e+20
1.012345059e+20
1.017605966e+20
1.030488915e+20
1.039469883e+20
1.062752576e+20
1.084568781e+20
1.11833206e+20
1.154600652e+20
1.19008865e+20
1.012276962e+20
1.021526196e+20
1.024599096e+20
1.034650029e+20
1.041296432e+20
1.062238604e+20
1.083152106e+20
1.09160644e+20
1.104936535e+20
1.143431603e+20
1.009559717e+20
1.010792941e+20
1.020228381e+20
1.019979435e+20
1.025931902e+20
1.029155233e+20
1.040706532e+20
1.058844261e+20
1.079676105e+20
1.097804571e+20
9.966528287e+19
9.975868475e+19
1.004414384e+20
1.015418222e+20
1.014811424e+20
1.028397812e+20
1.028256202e+20
1.040268053e+20
1.05413931e+20
1.071107619e+20
1.009977756e+20
1.012476596e+20
1.005685869e+20
1.00613574e+20
1.018357079e+20
1.021553909e+20
1.027956522e+20
1.036838161e+20
1.049855532e+20
1.054460297e+20
9.920021588e+19
1.000980441e+20
9.991165538e+19
1.003788438e+20
1.000225853e+20
1.008109556e+20
1.015233748e+20
1.019524155e+20
1.018376732e+20
1.041459797e+20
1.003027889e+20
9.951666056e+19
9.977656223e+19
9.974400741e+19
1.008794529e+20
1.010354789e+20
1.010929248e+20
1.016999758e+20
1.020421887e+20
1.025007343e+20
9.973582664e+19
1.007978103e+20
1.011831337e+20
1.013097602e+20
1.008579647e+20
1.007000465e+20
1.008885983e+20
1.011758906e+20
1.016635579e+20
1.026120884e+20
1.007704679e+20
1.006452298e+20
1.003884602e+20
1.002828182e+20
1.007263455e+20
1.012951692e+20
1.015451697e+20
1.017877807e+20
1.011052865e+20
1.012396579e+20
1.000911576e+20
9.999018546e+19
9.976066808e+19
9.969599525e+19
9.956594703e+19
9.916895999e+19
9.9000615e+19
9.981765992e+19
1.014231147e+20
1.016154754e+20
1.003472053e+20
1.00176965e+20
1.002586635e+20
1.009149879e+20
)
;

boundaryField
{
    flow
    {
        type            calculated;
        value           nonuniform List<scalar> 
42
(
7.638407241e+19
7.717813977e+19
7.777954816e+19
7.801386311e+19
7.759730319e+19
7.718334677e+19
7.763114868e+19
7.745931772e+19
7.767801168e+19
7.738641973e+19
7.790711963e+19
7.769363267e+19
7.787327414e+19
7.789670564e+19
7.682406383e+19
7.781339365e+19
7.784463565e+19
7.720417476e+19
7.775611666e+19
7.730831474e+19
7.745931772e+19
7.731352174e+19
7.638407241e+19
9.807122342e+19
9.845654134e+19
9.856328482e+19
9.892256776e+19
9.902150074e+19
9.895380975e+19
9.935735218e+19
9.898244825e+19
9.846955884e+19
9.860233732e+19
9.848778334e+19
9.831074537e+19
9.859452682e+19
9.910220923e+19
9.97634981e+19
9.960468463e+19
1.016458283e+20
1.067148418e+20
1.363843224e+20
)
;
    }
    obstacle
    {
        type            calculated;
        value           nonuniform List<scalar> 10(139.387134 143.9095641 145.3977174 137.967499 151.3872124 144.8685166 142.3443383 143.8153423 140.2497626 138.3313409);
    }
    frontAndBack
    {
        type            empty;
    }
    procBoundary0to1
    {
        type            processor;
        value           nonuniform List<scalar> 
21
(
3.045177873e+20
2.752135028e+20
2.573224657e+20
2.417533376e+20
2.247344186e+20
2.10062647e+20
1.914116613e+20
1.71535224e+20
1.560810698e+20
1.409129476e+20
1.32519864e+20
1.238379443e+20
1.172339636e+20
1.112132652e+20
1.094830513e+20
1.059356897e+20
1.05243043e+20
1.034791782e+20
1.031622993e+20
1.021724026e+20
1.01235788e+20
)
;
    }
    procBoundary0to2
    {
        type            processor;
        value           nonuniform List<scalar> 
31
(
7.725624475e+19
9.970622111e+19
1.008127084e+20
1.002191105e+20
1.002295245e+20
1.0010716e+20
1.001045565e+20
9.960208113e+19
9.92219702e+19
9.974527361e+19
1.000941425e+20
1.006825334e+20
1.00325854e+20
9.964634063e+19
9.960989163e+19
9.958125314e+19
9.981817159e+19
9.952657965e+19
9.887310127e+19
9.887310127e+19
1.010325617e+20
1.010679401e+20
1.013381175e+20
1.012938784e+20
1.012213629e+20
1.016795036e+20
9.918976495e+19
9.95876894e+19
1.000758886e+20
1.010325617e+20
9.942392181e+19
)
;
    }
}


// ************************************************************************* //
