/*--------------------------------*- C++ -*----------------------------------*\
| =========                 |                                                 |
| \\      /  F ield         | OpenFOAM: The Open Source CFD Toolbox           |
|  \\    /   O peration     | Version:  2406                                  |
|   \\  /    A nd           | Website:  www.openfoam.com                      |
|    \\/     M anipulation  |                                                 |
\*---------------------------------------------------------------------------*/
FoamFile
{
    version     2.0;
    format      ascii;
    arch        "LSB;label=32;scalar=64";
    class       volScalarField;
    location    "0.008";
    object      translationalT;
}
// * * * * * * * * * * * * * * * * * * * * * * * * * * * * * * * * * * * * * //

dimensions      [1 2 -2 0 0 0 0];

internalField   nonuniform List<scalar> 
654
(
290.3415257
304.3621768
295.157659
298.2972168
300.1127163
298.9755784
299.8129638
300.0914809
300.6267525
300.022017
297.4251397
298.8608141
298.1084086
303.2568562
311.9485003
331.1871341
362.0828705
450.881187
695.135175
1333.361374
290.6633587
305.1167525
300.1222465
300.7994429
300.0093318
300.9849991
300.860716
301.5669039
302.311393
300.533367
300.1573789
301.6956937
310.192393
315.701104
319.1628813
341.5638237
386.5795588
493.1840627
740.8609021
1150.123037
292.1857916
309.8505885
300.876391
301.5260359
300.2125651
300.3513833
298.5178992
300.1207181
300.2049699
300.7018755
299.3347384
298.160232
301.2616238
312.0406804
320.0442812
337.696536
397.331113
482.0666217
667.4461929
916.571521
287.1687863
304.139009
298.1478896
298.2741449
296.3140571
296.7864778
296.0600879
297.7713426
298.643011
298.9212319
300.8952488
301.7690665
304.5992781
307.3340557
321.624041
347.0441432
377.9043717
458.2977178
578.9328992
763.691739
289.6498863
305.682081
298.2769294
297.8242985
301.3795233
301.8639847
301.9426309
301.7586814
300.6229764
299.6646723
299.1997462
301.9510963
304.3466096
304.909037
311.4386244
330.2275852
361.6262868
421.2423039
502.9288594
625.9972337
289.6412114
305.1998692
299.785056
301.024485
298.9142724
295.4710544
296.2797674
297.903487
297.6226483
301.5845737
300.4315627
300.4952412
302.633277
303.2831296
316.5341629
331.9991956
355.9854749
411.8060824
453.8099515
545.525166
290.8228477
305.9667937
298.2347849
298.9624443
300.8292292
302.6618542
300.2950489
298.128827
298.7814958
300.8641542
301.6395236
302.3515789
303.3405716
305.4899392
315.43135
321.4592752
346.4181437
370.8325296
411.4845102
479.0417984
288.1520466
304.7267133
299.1272026
302.6710921
300.1389394
301.4208354
302.9929244
303.6612627
302.9520092
302.78916
300.6225333
302.1931856
302.8343586
306.3625562
316.8787206
320.376427
330.0906687
357.0899565
378.9627674
416.7726128
292.0748146
308.4853434
300.3285115
300.5900946
300.9225578
301.6486563
301.7141483
303.1672072
301.51995
300.9236552
303.3224363
302.7268943
304.7298545
309.46736
309.9468677
315.728154
328.5007961
336.6589284
361.0113262
389.1053833
291.7334693
305.2134836
298.5958486
298.3830987
298.9967013
300.045467
298.8101816
297.524545
300.5700919
302.3028765
303.9008831
304.9546138
307.5961015
307.3665526
308.6138448
315.4488796
319.8813236
325.6419613
341.1346615
372.2092374
290.4822997
305.0576314
300.1437022
301.2382154
300.8683096
299.1883738
299.4809359
302.8465425
302.503467
302.9136987
302.662379
301.5091578
302.1383651
303.0976395
310.0517356
307.8542478
313.0690345
323.6366051
329.263962
354.8796496
292.1766843
308.7500438
302.6030201
300.6635518
300.3456636
298.3987298
299.4277037
297.1956079
303.1745763
300.9696076
299.1879632
298.8585019
298.7368873
301.5507419
302.1463454
308.3407617
314.9909962
321.5595315
322.4180124
338.2073972
291.5047228
308.2425485
299.9024729
301.6002432
300.897714
301.5922917
303.0380826
304.4164649
302.417793
300.5929721
301.423937
300.3834719
303.9062441
303.4467904
302.2401397
304.9343459
306.9549955
309.8579257
318.0547418
324.3306681
290.2616564
305.253622
300.3920387
300.8419226
299.673469
301.9389433
299.8633235
299.8474688
299.8597941
298.7984747
301.9189504
302.5754295
300.7910091
297.7816639
299.778864
299.6368097
302.766854
305.7153574
311.058516
320.2559246
293.1030671
309.9970189
301.7409446
298.9692586
301.7384932
299.2010297
298.4188092
297.4456112
299.2064381
300.3156671
299.7126083
300.7683627
299.8152242
298.5374402
299.1356764
304.1103167
306.2052576
306.6447245
306.3547088
308.776686
290.0124641
304.6530195
299.086061
298.8562966
298.1864095
298.9482745
300.7084618
300.8351089
300.8180536
300.893258
303.8431294
301.5554845
300.8667526
301.8528647
302.046903
303.1077002
304.4087324
305.8100743
308.2851937
312.6819416
292.9248639
308.1367161
298.5379607
300.1959021
300.7698185
299.8013112
299.5328677
299.1947325
299.5796436
298.7153378
299.222426
299.7310671
299.8998144
301.769261
301.9430736
303.7607974
304.0995923
307.7238165
306.0948561
311.435461
288.4876692
303.4938972
300.5013029
299.4741991
299.7322244
300.8529113
299.8060551
298.4987308
296.401005
296.0342906
295.2832452
294.3477215
296.7292455
298.1872636
300.928265
299.7456305
297.7303093
299.678334
301.5776273
305.9009181
287.6626463
304.1878936
296.4152997
297.228211
298.085199
298.8619987
300.9346799
301.2143963
301.6107943
303.1000341
301.2321175
302.4433805
300.5079803
297.8503023
299.0444326
300.7272742
300.7017084
299.4543545
300.8642157
300.2716951
291.6452849
306.8036393
301.0036152
299.9677238
298.9601771
297.4716259
297.2615667
297.1918064
296.3689124
295.01712
295.6889548
296.4476961
299.5015847
300.149166
300.1813113
298.970104
298.3174505
300.228968
301.8392863
303.9755073
289.7508353
305.0969948
296.2682092
298.0130403
299.0900268
299.8312605
299.6962148
298.8595956
299.5019476
300.8030089
301.3253449
303.4038415
300.8843825
299.3643025
298.6637689
300.5976874
301.5177615
301.2880132
300.5794573
301.631738
290.8557961
307.0600216
298.8925814
299.0086401
298.1667458
298.8239457
299.0897366
301.1394349
301.8967006
301.3060394
300.4092933
298.8399886
301.1783651
301.9629917
303.4822582
300.5015864
299.2729082
302.0671437
302.2408285
302.7297908
1396.013268
1253.382142
1185.055106
1124.433299
1080.381853
1046.186539
1019.111858
983.2157724
974.2431653
948.1959651
1333.131538
1299.726538
1246.284128
1205.658311
1166.561218
1143.714859
1106.582805
1086.791777
1059.812034
1044.127843
1128.942013
1196.194363
1189.970423
1183.30806
1161.928262
1139.173318
1110.51946
1082.615934
1063.442923
1044.924483
938.8423658
1045.4798
1090.726604
1111.527916
1111.254383
1087.524003
1084.177163
1049.691769
1050.254953
1047.69798
757.027542
879.9199145
950.5338096
1011.303996
1027.376412
1040.777007
1047.179572
1024.416308
1024.251104
1017.83782
650.4844114
757.7254443
831.6418171
893.1459235
929.2797487
962.9950186
986.8147107
993.5792051
1005.049609
992.1238145
542.7365686
632.4165249
695.3420891
784.4336197
817.3149674
871.5852544
906.4656744
926.6273869
939.7136604
949.2827725
474.7027315
551.5079103
592.3622374
677.5217913
722.5910683
775.4930509
812.109144
852.3104244
888.7108403
897.3241059
433.1193072
490.5074455
517.0383856
585.2031014
621.1286458
678.3388711
739.6328225
774.5647674
810.4787332
833.8628781
391.2935704
420.0147624
468.1851189
516.8806185
537.714267
597.0574995
646.500652
684.2090982
727.0215675
761.3478647
367.6949146
394.0369158
425.5662805
465.4364592
489.81668
537.4715372
580.8208441
618.5462816
650.5607313
680.2646783
350.7978949
371.8103548
393.1000473
425.653323
440.8913262
478.7857999
512.0053802
541.0510444
580.5109702
610.9815301
337.5559605
352.4912767
374.6799088
384.1821983
397.7401251
436.1501047
456.181967
485.609583
508.3914847
548.3349069
332.3885991
339.9618989
352.80195
363.2050553
375.6300401
389.0028085
415.0740421
441.173525
471.2177708
495.3113323
324.5157533
325.9375102
333.9038063
340.1123685
359.0782841
372.8775795
387.5064649
412.3689548
436.1602532
450.8591864
310.5174691
318.4734661
326.3473623
335.6860637
344.371307
358.6780625
363.9617505
383.0998863
403.8961938
417.388754
312.5356309
317.7134454
321.2787601
320.7303927
324.9704085
339.2039527
350.3845232
359.9440067
369.7713521
385.7868379
309.4407671
309.7206538
310.6053392
314.2317181
318.2699735
325.887884
333.9237024
342.6283277
355.3003382
364.1763425
302.4701844
311.558372
314.2765172
314.2510082
316.7694613
323.2180373
326.4598212
335.4626117
339.8652479
351.7838333
305.0201423
306.1451306
308.5806967
307.0231122
312.0659623
315.3304311
318.0740936
326.8568491
333.8418661
337.1411041
300.9949514
302.3453132
305.009375
302.7957617
306.8576129
310.1030374
312.6816772
322.467913
327.5566601
331.7657525
298.1289751
300.8949218
302.9299933
304.8814925
)
;

boundaryField
{
    flow
    {
        type            calculated;
        value           nonuniform List<scalar> 
42
(
290.3415257
290.6633587
292.1857916
287.1687863
289.6498863
289.6412114
290.8228477
288.1520466
292.0748146
291.7334693
290.4822997
292.1766843
291.5047228
290.2616564
293.1030671
290.0124641
292.9248639
288.4876692
287.6626463
291.6452849
289.7508353
290.8557961
290.3415257
304.3621768
295.157659
298.2972168
300.1127163
298.9755784
299.8129638
300.0914809
300.6267525
300.022017
297.4251397
298.8608141
298.1084086
303.2568562
311.9485003
331.1871341
362.0828705
450.881187
695.135175
1333.361374
)
;
    }
    obstacle
    {
        type            calculated;
        value           nonuniform List<scalar> 10(1206.703747 1073.548733 989.3531383 968.89066 894.7860359 874.5206644 877.920501 835.308471 814.6845247 816.2618017);
    }
    frontAndBack
    {
        type            empty;
    }
    procBoundary0to1
    {
        type            processor;
        value           nonuniform List<scalar> 
21
(
933.2430971
1022.46009
1031.659865
1027.206279
1006.257523
978.07112
953.0087438
906.8237709
857.4703767
794.5425631
712.9556959
654.6815151
580.8154554
523.1247149
471.0639549
437.9332346
407.4532337
384.0719832
364.0636658
352.2160168
334.6132542
)
;
    }
    procBoundary0to2
    {
        type            processor;
        value           nonuniform List<scalar> 
31
(
286.3806574
303.598304
298.343368
300.7126399
300.7114625
299.5036298
300.8176886
302.9379164
301.8701685
301.1153178
303.7018989
303.3432003
301.8818615
300.184214
298.0550382
299.1107564
298.7194625
298.5818834
299.3455192
300.9114679
305.3837612
308.2756674
306.6664735
308.2118932
314.7926128
320.376527
302.790808
305.1295319
303.9554508
305.3837612
304.3296328
)
;
    }
}


// ************************************************************************* //
