/*--------------------------------*- C++ -*----------------------------------*\
| =========                 |                                                 |
| \\      /  F ield         | OpenFOAM: The Open Source CFD Toolbox           |
|  \\    /   O peration     | Version:  2406                                  |
|   \\  /    A nd           | Website:  www.openfoam.com                      |
|    \\/     M anipulation  |                                                 |
\*---------------------------------------------------------------------------*/
FoamFile
{
    version     2.0;
    format      ascii;
    arch        "LSB;label=32;scalar=64";
    class       volVectorField;
    location    "0.008";
    object      UMean;
}
// * * * * * * * * * * * * * * * * * * * * * * * * * * * * * * * * * * * * * //

dimensions      [0 1 -1 0 0 0 0];

internalField   nonuniform List<vector> 
654
(
(1706.898912 -9.297484356 -1.740155935)
(1743.699007 -7.53531302 -3.221509698)
(1737.601841 -9.583050472 -2.580101166)
(1738.097537 -9.027483462 -1.518339902)
(1736.101771 -8.433373519 -1.551452294)
(1737.83819 -9.361492312 -0.8703740523)
(1737.757511 -8.216163332 1.313840014)
(1735.981831 -8.263775052 -1.243029811)
(1735.142736 -7.580293027 1.638756679)
(1733.824299 -7.363195086 1.201473732)
(1734.985466 -5.498588557 0.4148800554)
(1733.321689 -4.243987488 -1.422265862)
(1732.937528 -4.634967791 -1.624440916)
(1732.597555 -6.166737805 -2.425812538)
(1729.32176 -4.721783963 -1.713598179)
(1723.425387 -7.449201593 -1.454410239)
(1710.688361 -8.854694685 1.281674991)
(1673.710863 -16.36394789 0.3218532427)
(1569.092386 -19.76817888 -1.860310776)
(1180.341124 12.20193645 1.600566165)
(1709.87742 -2.005312385 0.8196681397)
(1746.054012 -3.233532978 1.552422043)
(1734.495155 -1.49352493 2.262893482)
(1734.129639 -3.212566086 0.0569302541)
(1734.664678 -2.095910502 -0.587792275)
(1733.579807 -4.186128766 -1.58843705)
(1733.098443 -4.912309314 -3.253059421)
(1733.294425 -3.060386271 -1.858527136)
(1734.84779 -1.68421182 -0.9101271301)
(1736.984683 -1.645706652 0.795553157)
(1738.095029 -2.742752195 0.7718878634)
(1737.64185 -2.811422633 1.16170332)
(1734.818109 -2.098537076 1.791688139)
(1732.351873 -2.306165081 1.023738)
(1730.751105 -1.729111721 -0.7213220762)
(1723.43282 -3.241121198 -0.2567518366)
(1705.412965 -1.455737176 1.143133615)
(1660.476792 3.767348813 0.0009074772845)
(1550.704362 18.26538483 -0.7920136366)
(1308.675562 69.99503081 2.077035983)
(1708.756713 -0.388700482 4.222366497)
(1744.684396 -2.193266826 3.725526546)
(1736.446082 -3.958246374 1.037878674)
(1736.180706 -4.076444039 1.025619284)
(1736.426355 -5.70622423 2.089728476)
(1734.48612 -3.945261478 1.79793707)
(1736.013246 -2.069701279 2.60804566)
(1737.604251 -1.532198903 2.091585614)
(1734.379004 -1.912732105 0.1781301118)
(1733.657642 -3.378054567 -0.4875766929)
(1732.094403 -3.767152719 -1.438380068)
(1732.158442 -4.920309281 -2.471221161)
(1732.525084 -4.159188335 -2.102192642)
(1727.139675 -2.681561196 -1.637984616)
(1724.532325 -1.852067203 -2.514519113)
(1719.812288 1.489964935 -0.1455087734)
(1697.981536 3.443047611 -0.116099677)
(1667.768807 9.069059488 -0.7743958218)
(1585.768023 28.38433026 0.6625127107)
(1446.498946 65.45179753 2.114864689)
(1707.555394 -4.821261626 -0.5710699641)
(1741.412439 -3.658889467 -0.9331245202)
(1732.597431 -2.031351746 0.5493982405)
(1733.46155 -1.808105601 1.599174577)
(1736.966799 0.2017182214 0.6421623946)
(1738.619032 -1.179643494 -0.2340723022)
(1739.520009 -2.689817515 -1.646862388)
(1738.308099 -4.013975353 -2.04228543)
(1738.098571 -3.288922248 -1.601378169)
(1738.41289 0.4605652298 -0.9489952152)
(1737.839686 1.170967963 0.169807224)
(1736.957512 2.715816643 -0.6792773417)
(1736.039183 3.919351351 -1.444547175)
(1733.332734 2.565897903 1.577659854)
(1727.082878 1.963877673 0.8961290837)
(1715.703665 0.1320394428 1.032566965)
(1702.195403 4.265790545 0.7101882842)
(1672.984669 10.15224337 2.230384277)
(1623.011715 24.24424951 0.4112657538)
(1532.23914 55.58675185 3.232497497)
(1707.536286 -1.999852631 -0.244778727)
(1745.096893 -1.860624173 1.224797072)
(1739.819009 -0.9706280886 0.6736084675)
(1738.677874 -0.592165216 0.2399005835)
(1737.552933 -0.1596727229 0.3180289244)
(1735.680713 -0.1995334451 0.040462128)
(1735.127979 2.691597751 3.641725664)
(1735.828394 1.986804163 2.792083462)
(1737.132802 1.352763042 0.902990502)
(1738.135031 -0.006991498261 1.406110562)
(1738.362145 -1.344033678 2.405903674)
(1735.344448 -1.010909373 2.794756892)
(1735.05078 -1.427718787 0.5601842015)
(1734.371438 -1.00650484 -0.003124009576)
(1732.783863 1.54470377 -0.06870080949)
(1726.414858 3.263199168 -0.09087849668)
(1711.406974 5.997444173 -0.05340319691)
(1687.870952 10.00851243 -1.402545185)
(1649.715125 21.14046908 -1.27034695)
(1592.504187 45.43338978 0.2219374577)
(1710.53096 5.62481355 -2.712960956)
(1748.237427 2.921307409 -1.674683179)
(1738.407832 1.833740336 0.07925838944)
(1736.00072 1.540094752 -1.854261231)
(1736.736997 2.454023282 -0.4034441053)
(1736.182499 0.07511505336 0.5443773382)
(1737.517632 0.4277533717 -1.726952257)
(1738.358218 0.06779912405 -1.837617846)
(1736.941923 0.7583608759 0.1280218151)
(1736.871409 1.116814712 0.1641671465)
(1736.665245 0.8705440376 -0.3789894828)
(1738.365583 -0.199414413 -1.537275077)
(1738.226674 -2.395186308 -1.797485423)
(1738.288436 -3.990737934 -1.083607107)
(1732.912868 -1.114543793 -0.1420094602)
(1725.542058 -1.008986466 -1.161769289)
(1715.519034 4.408078394 -2.586820423)
(1692.557758 12.52928496 -2.441971929)
(1672.690722 18.22722032 -2.367687503)
(1633.869992 37.85289248 -0.8990211048)
(1708.656699 -0.1645946044 -4.334247706)
(1745.099525 2.003284186 -5.029420538)
(1736.671925 2.454107986 -4.341037323)
(1736.305482 2.564114384 -5.145059489)
(1735.479781 1.081879628 -5.877275388)
(1734.647898 2.649014763 -4.941976208)
(1735.853749 -0.2992134161 -3.897885278)
(1733.878487 -1.941105501 -3.776050677)
(1733.515948 -2.201982187 -3.405915917)
(1731.932165 -2.06213514 -2.6686712)
(1731.760939 -1.592238964 -3.721454988)
(1728.528219 -0.7355744115 -1.462010105)
(1728.620792 2.316489244 0.8533788503)
(1727.792883 3.318006032 -2.1624887)
(1724.292906 2.263101556 -1.138639785)
(1720.706678 2.868163481 -2.218752739)
(1712.493607 7.792710366 -3.001163452)
(1703.144088 8.400489851 -4.252137622)
(1689.121864 17.74716269 -1.851376225)
(1659.015113 28.33116501 -1.071521924)
(1711.271047 -3.100903218 -4.050530112)
(1746.575536 -1.557230741 -4.39671023)
(1734.93647 -2.033118844 -4.113886254)
(1734.045552 -1.150136032 -2.766064378)
(1734.869811 0.06156761428 -1.782988499)
(1736.824467 -0.7702082221 -4.775322549)
(1734.889607 2.419628704 -4.987140972)
(1734.571693 1.574105517 -3.768188469)
(1733.059903 1.575990966 -4.077094958)
(1733.801316 -0.5144905936 -4.992908635)
(1733.658366 -1.107686329 -4.689131896)
(1735.946319 0.6128868575 -5.03328845)
(1734.000164 2.213830243 -5.694824308)
(1733.293897 2.447578905 -3.504812253)
(1728.614007 4.773283769 -4.579260854)
(1728.995913 3.424185861 -2.812483705)
(1727.238079 2.033090475 -1.288904972)
(1713.862464 8.335458199 -4.702540959)
(1703.905285 12.80135981 -3.382783381)
(1688.181964 20.32899954 -3.807362261)
(1705.301253 -1.255691301 -3.528771699)
(1742.430228 -0.9151052935 -3.762633935)
(1735.456113 -0.4902540906 -4.905376986)
(1735.525105 0.07935899463 -5.027355768)
(1734.048476 -0.7626554563 -3.946516729)
(1735.003237 -0.1627964304 -2.811725571)
(1734.338017 -1.787155069 -2.139412661)
(1735.270173 1.059611281 -2.298534202)
(1736.984845 1.642267433 -2.63964977)
(1737.313725 4.214126491 -0.4646353512)
(1736.108673 3.286747427 -0.06461973267)
(1735.715296 3.55432858 -2.925218702)
(1734.091658 -1.768009919 -2.183146305)
(1734.259194 -1.947618089 -1.312685839)
(1734.096803 -2.618975686 -0.6866156514)
(1730.234475 0.5972522081 -1.40402126)
(1723.776774 4.717332757 0.2013974619)
(1720.569651 8.211599511 -2.04598404)
(1709.981911 11.32369164 -3.179628282)
(1698.826763 19.26750667 -1.252679984)
(1710.88484 -0.4461823015 2.683274089)
(1748.332495 -2.760739589 2.345786265)
(1738.097137 -3.523700508 2.359239682)
(1738.826272 -3.920735637 2.094386768)
(1737.225785 -2.321507943 0.3918425265)
(1735.531622 -1.308273356 0.004003371021)
(1736.406249 -1.29235082 0.7856478192)
(1734.232229 0.4375454237 -1.287999415)
(1734.019299 1.201368844 -2.424411761)
(1734.147767 1.848594622 -3.608994699)
(1732.039425 1.707584779 -1.746982835)
(1732.789286 1.579179578 -0.9175945454)
(1733.279226 0.6714343188 1.056237279)
(1731.926949 0.9987764769 -0.8309865476)
(1732.692023 2.068090617 -1.651168)
(1732.099359 2.552644031 -1.785375378)
(1728.772161 4.746236428 -1.399299129)
(1729.241608 7.959835217 -0.8891645649)
(1720.705088 12.05773501 0.4312055826)
(1708.017509 16.50548881 -1.072182998)
(1702.818134 4.05060348 -2.404091855)
(1738.725462 4.499010303 -2.663201119)
(1731.778375 2.152960661 -3.462676221)
(1732.309835 1.038979405 -2.913289814)
(1733.091846 -0.109367613 -2.134418769)
(1735.482305 -2.464884514 -1.483057828)
(1734.570006 -2.039129733 -0.5213596677)
(1736.175364 -3.621025652 -1.376581119)
(1736.156581 -3.256340579 -1.142672897)
(1733.828993 -4.204931349 -2.16753141)
(1735.236503 -2.683702441 -2.680286085)
(1735.558977 -2.030021177 -2.621574425)
(1733.980666 1.561322977 -3.314527049)
(1733.352513 4.406295466 -4.427307318)
(1731.631078 5.455911548 -4.209370401)
(1730.567121 4.438721269 -2.28295316)
(1730.331572 3.887841891 -1.505419423)
(1727.062484 1.359400714 -1.414822648)
(1724.053425 2.849622247 -2.661597842)
(1716.431483 9.704469663 -1.213919445)
(1707.499568 0.9739997558 0.9589436671)
(1743.027139 -0.5864044924 1.125593088)
(1732.893209 0.02013775106 2.514520697)
(1730.520631 0.160883357 1.718485611)
(1731.949685 -1.386642178 0.1069503998)
(1731.21234 -1.488197012 -1.189444016)
(1729.604748 0.3511451732 -1.719876982)
(1729.906053 -1.617781518 -1.788264437)
(1727.461618 -1.218082828 0.1386165388)
(1729.795425 -0.7684457087 -0.03686344012)
(1731.256281 0.8507009913 -0.6597778616)
(1731.731576 2.39223396 -1.779083295)
(1733.952965 1.218451329 -0.665070186)
(1734.723625 -0.01552474043 -0.2274065716)
(1733.590352 -1.922776451 0.2876944346)
(1731.506467 -0.5356538183 -2.199751583)
(1729.397604 -0.2853172066 -0.319153778)
(1724.267762 2.374156643 1.066018749)
(1723.722551 2.183040448 -0.6464166351)
(1719.014138 5.634631539 2.47866605)
(1702.927214 1.088203824 0.9443814913)
(1738.940318 0.3338002065 -2.143012688)
(1731.151042 -0.00745864519 -1.663033634)
(1731.755098 1.119672739 -0.9797434313)
(1731.857527 1.176507178 -1.190712691)
(1732.318936 1.925791379 -0.03726995134)
(1733.277732 -0.997945539 -0.6684384859)
(1733.883031 0.33549302 -2.440556134)
(1735.598513 1.49974307 -1.605393051)
(1736.122509 0.1205431377 -0.7201870517)
(1735.666227 -0.7939023289 -0.1688608388)
(1734.028959 -4.348856323 -0.9823888915)
(1733.462833 -5.620432761 -0.4717306336)
(1731.517512 -5.455587066 0.7099461064)
(1732.70986 -2.611569254 1.17841544)
(1730.584205 -1.777013611 1.061581571)
(1731.556969 -0.6258342847 0.003786664435)
(1733.164142 1.859316167 0.7249267835)
(1730.892055 3.708577292 1.637975678)
(1727.942312 9.005892375 0.1478113723)
(1703.140593 -1.826499539 -0.6880254908)
(1742.234622 -1.174639568 -1.450110668)
(1734.219813 0.8197356746 -2.019243438)
(1733.624797 0.4969753177 -3.894500544)
(1735.669251 -0.4220368678 -2.348993934)
(1735.672046 1.796889584 -2.691668468)
(1737.150577 4.276639938 -0.9055076427)
(1738.660668 2.551062 0.4899704971)
(1737.794683 -0.2321937358 0.2707686944)
(1736.863544 -1.061695677 1.559596292)
(1735.901358 -1.701926296 -0.6924024894)
(1734.741908 -0.1239058644 0.603009666)
(1735.330978 0.5941895157 0.8345103108)
(1737.216963 -0.3232022157 0.7910068428)
(1737.536308 -1.272939136 0.5124415594)
(1736.924368 -1.404483917 -1.513008874)
(1735.488621 -0.5205690077 -3.159784987)
(1731.475694 0.2913761397 -1.345566065)
(1728.760049 1.986032035 -2.851275425)
(1725.618484 2.402122317 -3.390318302)
(1711.765797 -1.463030772 0.2837421149)
(1748.439466 -1.155058933 1.344840153)
(1739.014736 -1.051167846 3.331688837)
(1740.034165 -2.280374289 3.526491485)
(1739.262602 -0.6881998094 2.791552424)
(1737.458778 -1.138671074 0.6000548008)
(1736.461272 -1.246895421 1.056690997)
(1734.990382 -1.442874725 -1.798476759)
(1734.875545 0.7239271369 -0.6619877595)
(1733.804856 1.201919714 -0.5123293228)
(1734.933962 1.842161584 0.1735341197)
(1735.634784 -0.8622132945 -0.3593638204)
(1736.314664 1.243343429 -0.9916065274)
(1736.546093 2.640223295 -3.227334722)
(1734.573403 3.319698134 -3.427054255)
(1733.563256 4.554076458 -2.083395577)
(1731.961978 3.239195988 -0.6125656767)
(1732.243487 2.726900348 -0.9112754042)
(1733.574536 4.729280159 0.02733170023)
(1733.062581 2.295514105 -0.8684455078)
(1707.763785 -2.798596665 2.408077948)
(1744.523389 -4.257131487 1.30242908)
(1734.84467 -3.107506911 0.895462494)
(1732.731942 -0.4776815915 2.321141308)
(1731.379897 -1.30534438 2.353266229)
(1733.044345 -1.760834739 3.846678921)
(1734.16629 0.1593013946 3.22541217)
(1735.22676 -0.6564526981 3.328524168)
(1735.47496 -2.14569956 3.20445437)
(1735.793615 -0.954466622 1.563944377)
(1735.054926 0.7380628968 0.8030504474)
(1737.362597 3.63665902 0.3359927391)
(1738.577422 5.472434546 2.228282223)
(1738.261606 3.072740539 4.480550622)
(1738.334156 1.568561814 5.298398163)
(1739.303178 1.061705136 3.557721035)
(1736.695367 2.418027797 1.59405436)
(1737.674669 4.232769402 0.8950630809)
(1734.483781 4.437521043 -0.9218927133)
(1732.627491 4.039471773 -1.355802306)
(1705.982338 3.068914536 -0.9310556503)
(1745.157624 3.343928181 0.4888360433)
(1736.435115 -0.8319626894 -0.8961737525)
(1736.747331 0.4287209177 -2.9950485)
(1736.501843 0.5478186791 -2.703869093)
(1737.114175 -1.084449894 -3.884288489)
(1735.601604 0.4371118666 -3.686994868)
(1736.204976 0.8801722305 -2.693899195)
(1734.398155 2.229783714 -2.728348273)
(1735.207717 2.750249846 -2.147135458)
(1734.61798 1.289858148 -0.5856525817)
(1734.538997 1.342836071 -0.5317298846)
(1733.282626 -0.05233093174 -2.620913574)
(1733.625431 1.253024733 -4.894937116)
(1733.058874 2.541346503 -4.684411784)
(1729.664183 0.7804613763 -2.510709453)
(1729.861876 1.260735262 -3.409982313)
(1730.39943 -0.08980497526 -1.638972701)
(1730.979177 3.329287184 -1.320167723)
(1729.086504 2.99702229 0.09807404538)
(1712.831962 1.185253678 1.044937719)
(1747.592769 -0.7728590712 0.2552824652)
(1738.281695 2.632820186 1.364821633)
(1736.697168 3.741487337 0.7150564581)
(1738.410521 3.817927022 2.553232882)
(1738.026559 2.203549413 1.200140111)
(1738.147111 0.5099483759 1.886471587)
(1739.680326 0.1839453917 1.23690408)
(1740.191506 -1.708226877 1.574379692)
(1737.792344 -1.88850226 -0.06988411362)
(1735.430225 0.03684520858 -1.477234704)
(1736.412098 0.510494446 0.02002157543)
(1732.946006 1.968099995 0.8351774419)
(1733.964677 1.284518703 2.09824336)
(1735.395292 1.71119033 2.718287502)
(1736.944587 4.321647265 2.473345956)
(1737.814797 3.45632465 3.830428914)
(1736.008182 2.557303978 1.831466855)
(1734.70297 2.677699158 3.605190529)
(1734.380546 3.121002389 2.896322816)
(1706.324715 3.025190134 -0.9644617729)
(1742.81301 2.923256085 -1.436275656)
(1735.68904 3.686785353 -2.375829369)
(1733.858942 1.032614881 -0.2670564672)
(1734.184628 -1.718158816 -3.353206666)
(1733.210886 1.943193601 -2.53167101)
(1732.550861 3.062365154 -1.202379834)
(1732.934554 3.754913308 0.6311669316)
(1732.768165 4.727392207 0.7276314985)
(1736.022006 4.363961554 1.225248421)
(1734.821551 0.7588366739 1.787006471)
(1734.535184 0.7873033013 1.262525051)
(1735.129045 0.1239996204 1.070874189)
(1735.711752 -0.9071971192 -0.02176763827)
(1733.967462 -0.7845726436 -1.644029403)
(1733.673908 -0.9419120874 -2.171469859)
(1734.402363 0.203188274 -1.858074881)
(1734.168977 0.07155578698 -0.2670467496)
(1734.756862 1.377123609 0.5018489925)
(1734.36295 2.118034608 1.61720111)
(1710.083232 1.46252249 -2.287236696)
(1745.776565 1.085421773 -2.876445878)
(1736.385278 -1.455667307 -2.702460379)
(1735.92125 0.9182460396 -2.482010552)
(1737.611261 4.077322377 -1.223791368)
(1736.417005 4.193637397 -0.4525614625)
(1736.475901 0.7606085677 -1.485913765)
(1735.969948 3.555080331 -1.451223664)
(1736.512591 1.264331458 -1.961713539)
(1734.826924 2.776491168 -3.523525695)
(1735.755082 3.027944987 -2.370999848)
(1736.46613 3.082224416 -1.910236089)
(1736.839828 3.726612803 -2.236002249)
(1736.417477 4.932964167 -2.42467976)
(1735.79943 1.815160736 -1.205386879)
(1738.905249 1.553528648 -1.761386466)
(1736.624401 1.84680618 -0.6776727177)
(1739.557841 -1.17255403 -2.053573434)
(1736.402796 0.5717938556 -3.217504543)
(1734.488489 -1.534961735 -5.064136966)
(1709.952065 -5.191731811 -0.4533354982)
(1746.475718 -1.960300006 -0.3505587892)
(1737.780341 2.899643015 -0.7565086722)
(1738.48519 1.187942983 0.09492252094)
(1737.696596 2.310387898 -2.072772325)
(1737.679951 2.750565776 -1.760634521)
(1740.228369 4.131635634 -0.8599566101)
(1738.520738 3.275852866 -3.734537361)
(1739.290061 2.17013802 -1.59243304)
(1740.209095 1.803797182 -2.40370901)
(1741.398875 0.8575424395 -2.770536879)
(1738.941533 0.9132645247 -4.274742595)
(1738.536372 -1.484828063 -3.442244759)
(1738.747019 0.2467565614 -1.563768234)
(1737.90007 2.749020392 -0.2552527501)
(1736.961786 2.023131733 -0.161466091)
(1736.006822 0.2530586031 -0.09140781853)
(1733.893041 -0.4821638503 -0.368723612)
(1735.101739 -0.335573385 0.1226649049)
(1734.3684 0.1698433521 -0.4734247698)
(1708.419772 4.776623001 0.07431845685)
(1748.05615 3.111961558 -1.267596158)
(1739.235987 -2.086293002 -2.538938138)
(1741.405265 0.2193998692 -2.119160795)
(1740.0336 0.02262441336 -1.938748309)
(1738.838981 2.316563213 -1.407394943)
(1736.79094 1.145416211 -3.097423171)
(1737.441378 1.529111746 0.3455056719)
(1734.918048 1.612197191 1.027037993)
(1733.522366 2.073937551 0.0385394035)
(1732.457266 2.514209204 4.205338014)
(1731.768455 -0.780037956 2.640511061)
(1732.243288 -1.088413016 1.825191613)
(1732.203012 -2.27059819 0.2163730492)
(1732.866809 -3.823037692 -2.975107809)
(1736.14021 -2.250591663 -2.429622357)
(1734.93752 -0.1385552248 -1.909531791)
(1736.031496 3.666572225 -2.872001891)
(1737.090475 4.392845399 -2.480029941)
(1737.654082 6.284481493 -2.996163418)
(670.9798279 150.2265832 -5.579006824)
(605.2184174 171.4116121 1.603312065)
(572.0782827 165.1018273 0.7066129093)
(531.4078407 152.9534104 3.488048235)
(500.0903761 146.8151326 4.7298358)
(475.2479591 135.5643851 0.7081440819)
(443.867703 128.8585311 -0.4698671606)
(417.2883787 122.6780623 -5.010850579)
(406.1496287 115.0086783 -4.686707533)
(388.8261064 113.3432334 -1.712318929)
(1063.833585 159.9393454 -6.442161033)
(945.8754639 221.2754276 -4.100679467)
(894.5845203 244.0741468 1.851630447)
(857.7684685 248.9192402 -1.177873625)
(820.2520059 244.2185315 -7.639637216)
(780.8149341 242.8473576 -8.672956331)
(751.053092 231.2779121 -5.5862984)
(713.1005174 224.6370723 -5.289680651)
(685.9287265 212.5631191 -0.335396488)
(664.1503504 201.6793801 1.477108081)
(1288.52704 136.158706 1.243288998)
(1174.854283 198.3985654 -6.836718983)
(1108.873009 243.5174932 -0.4762284431)
(1055.586049 271.1982161 -5.040888246)
(1013.169203 283.5750466 -2.92902169)
(980.555309 295.2163484 -0.3249488559)
(948.7007777 296.501449 -3.537868469)
(919.5804487 292.176826 -0.5648752824)
(894.1989124 282.835436 -2.137246574)
(856.2908365 278.5931975 -2.03343387)
(1427.434158 104.0630115 4.290393497)
(1330.014503 158.8372841 4.076351882)
(1254.8352 205.800564 7.707413573)
(1194.006845 251.763721 -1.450737119)
(1146.227279 280.8086268 3.161942234)
(1114.975321 298.7919943 -2.110395869)
(1080.634463 312.4497277 1.323218177)
(1067.600196 322.6207949 -3.812677004)
(1041.9943 329.8552966 -0.7204537808)
(1009.075056 325.1226798 -3.310582465)
(1520.000908 80.27065801 -0.2752683789)
(1442.529548 125.8744316 1.073196535)
(1385.460856 169.9085521 2.378745147)
(1321.601398 210.5988622 0.7533713075)
(1279.793154 247.1539423 2.593978868)
(1239.027618 284.5773704 3.111698259)
(1196.803252 306.5266506 -0.6465493456)
(1180.312193 324.9398485 -0.09699137181)
(1142.373515 338.9769456 -3.105522087)
(1110.544664 342.9998836 -0.120528872)
(1583.466793 61.88425011 0.5715756683)
(1525.878119 95.18957471 2.006741823)
(1478.426085 132.3840308 5.641153156)
(1428.722466 175.184638 3.439222204)
(1385.412821 212.9066164 0.8876108518)
(1338.825218 244.0748206 -2.704419072)
(1293.457648 279.5920152 -2.449071211)
(1264.369276 301.5352184 1.335824099)
(1232.826931 324.6427391 2.789761625)
(1211.729232 338.9144523 -1.452717767)
(1630.219791 46.31355822 -1.611589366)
(1589.721339 71.36857671 -0.0897204196)
(1552.748603 99.22197374 -5.047617069)
(1501.808873 137.725464 -2.019867615)
(1468.533355 168.2577397 -0.5186934881)
(1428.953103 204.3140951 -6.317857705)
(1389.35129 238.2712019 -5.790429293)
(1354.851789 270.475397 -2.613915738)
(1321.868785 296.1390786 -4.115944594)
(1292.077709 316.9475578 -1.295775356)
(1662.719867 34.53996975 -2.184735143)
(1625.543484 56.09011918 -3.331792313)
(1607.934357 76.75334993 0.113303094)
(1562.886487 104.3692043 0.4854237206)
(1538.038136 129.9383694 2.936441643)
(1500.17368 163.5378245 3.500210709)
(1466.935926 190.4533594 0.8846716094)
(1430.849535 222.4134548 -0.8359650762)
(1390.245765 256.1324352 -1.266842632)
(1359.739147 285.3111342 1.997404335)
(1679.956209 30.72060783 -2.898364959)
(1658.329756 42.64709366 1.183409681)
(1641.913584 58.25496584 0.09305581463)
(1608.74021 75.05452358 -2.187826803)
(1590.662094 99.58774731 2.3148127)
(1560.559482 124.6968673 6.313312817)
(1527.184443 156.9472157 -0.08514280787)
(1499.027425 185.2388738 -2.495434815)
(1469.525832 213.8048705 -3.54454087)
(1436.922793 245.0317371 -3.984091508)
(1699.767993 20.62833132 0.525666636)
(1685.779375 31.73278135 -1.231683637)
(1668.519686 42.70282588 -1.201898344)
(1647.360978 59.6035873 -0.2748397078)
(1633.629436 74.2557093 -0.8680436791)
(1604.94336 97.90385008 1.6772059)
(1579.926045 126.6563026 -2.867160416)
(1556.038034 145.5178128 1.496918004)
(1531.625113 176.5790737 0.3249464235)
(1504.6453 205.1253942 -1.537760051)
(1710.312012 13.88514005 -2.418539427)
(1699.436561 22.74228379 -0.366039704)
(1687.334158 32.29925138 -4.242095902)
(1670.241883 47.66955511 -1.623429281)
(1658.751709 58.74845342 -1.541877117)
(1637.230796 76.20908592 -1.12339849)
(1616.201156 98.29403345 3.901935477)
(1588.874874 119.0448534 5.281284341)
(1569.526667 144.163572 6.632200261)
(1548.5232 169.1711407 3.306442512)
(1716.749541 8.289994858 3.711933471)
(1708.231919 12.7207692 2.807178685)
(1700.345896 20.34328689 2.930855115)
(1684.808705 32.70255632 4.001772203)
(1677.287479 40.01704825 3.038672789)
(1661.737841 54.51363309 2.824314868)
(1645.273004 71.18611052 2.253891692)
(1625.72855 90.59322978 -1.034053475)
(1606.731023 107.3889259 1.462865673)
(1593.022939 129.7725255 0.219507978)
(1720.284121 12.10368854 1.092248477)
(1711.658984 17.25318169 1.975580075)
(1702.870182 23.45177658 1.960627648)
(1700.060588 26.13653394 -0.5459601213)
(1693.001916 31.55749266 -1.115316953)
(1678.274208 44.95276963 -2.7498029)
(1669.355544 52.27267173 -1.899274389)
(1662.024857 67.377513 -3.597475135)
(1651.738588 82.02409487 -4.883021261)
(1627.488416 100.0847412 -1.846558912)
(1720.290186 6.561340188 -2.309404121)
(1718.087885 8.116548179 -2.529714965)
(1714.117959 14.39966843 -3.329977384)
(1710.155839 20.24320806 -2.618079795)
(1704.281732 24.06939211 -4.091723628)
(1700.123936 29.92010091 -4.975037046)
(1689.103933 36.35502933 -2.754862007)
(1681.031912 50.85555938 -2.210739316)
(1665.794059 61.50606662 -5.011968638)
(1654.352878 74.54488262 -1.692836275)
(1727.671637 5.119911282 -1.543146636)
(1724.739725 6.875845476 -1.349737676)
(1725.40256 8.927134139 0.8321679222)
(1721.252761 10.19516208 0.1162593047)
(1715.79126 17.68935828 1.261219874)
(1712.33101 22.74016936 0.685275506)
(1705.167011 31.00539545 1.487530094)
(1694.922133 37.44380639 0.5642524263)
(1685.308698 50.76339095 0.3993921839)
(1678.002663 60.25498125 2.375579147)
(1733.969258 3.14936182 -1.585740535)
(1732.146594 5.534739291 -2.090665164)
(1727.702317 8.559678306 -4.004797144)
(1725.584743 11.58682003 0.4888524765)
(1720.584586 12.64315855 -0.7594241116)
(1713.615654 18.98054493 0.4703117846)
(1710.414462 22.31339532 -0.1479504886)
(1701.011519 28.83433496 1.386265857)
(1689.867352 34.5691089 1.461072964)
(1684.609367 43.15699482 -0.5276957888)
(1727.916521 4.117419437 2.516220015)
(1726.870992 1.148718591 3.084615389)
(1726.380208 1.116903958 1.506578758)
(1724.951498 3.665293356 2.424118911)
(1723.258436 5.9526366 1.944068184)
(1717.442556 13.71531064 3.388689444)
(1711.798208 14.732807 4.46645401)
(1709.358155 22.00848241 4.746249956)
(1708.297468 29.94291381 5.152551405)
(1705.449718 35.81213269 2.728002359)
(1731.504772 4.104495603 2.441843386)
(1729.696791 7.007929791 1.793119029)
(1728.262537 5.395736363 2.404878408)
(1727.377315 5.762980079 1.295947523)
(1725.185654 5.854113365 0.4095235915)
(1723.484965 5.638708914 -3.22289546)
(1721.372072 13.09734314 -4.833730908)
(1720.278905 15.663376 -3.354140146)
(1712.461889 17.29365339 -4.75987999)
(1707.723486 24.57601051 -3.488903921)
(1733.912097 3.191951936 0.3046812058)
(1732.35731 2.965290337 -2.930208274)
(1730.511882 4.837318529 -3.510125923)
(1730.669422 4.623420533 -4.495255302)
(1733.602923 6.397287939 -5.179080228)
(1730.642224 10.22862466 -1.336099413)
(1727.40292 10.81965449 -5.134123509)
(1724.282355 13.74027922 -5.159986812)
(1720.718223 19.63843067 -3.247985142)
(1716.659078 21.73775724 -3.314622969)
(1734.768652 -1.67418862 -4.73765033)
(1733.548942 -1.013534237 -4.412219353)
(1733.056604 -0.3634129537 -2.637314062)
(1733.60512 4.392898952 -1.310444029)
(1731.142987 7.545792213 -1.758349569)
(1729.912537 7.249267606 -2.480946384)
(1729.5728 10.54767764 -1.299485153)
(1726.273862 14.02068374 -1.421542458)
(1725.986853 14.68234258 -2.162424411)
(1724.439197 14.02931701 -2.470152931)
(1735.782567 0.07485369052 0.6078602674)
(1736.636987 4.508603447 1.287152327)
(1736.90754 5.808430507 0.1102877391)
(1737.506192 4.754839258 -0.3951661779)
(1737.479833 4.173465529 0.5137156956)
(1735.865879 5.772213542 1.273657005)
(1734.487513 4.604405832 2.230858935)
(1729.29655 6.884389826 -0.4782182032)
(1725.607399 8.954593995 2.401813643)
(1723.45758 10.61344158 4.404973149)
(1737.840612 3.794505443 -3.696353219)
(1737.693825 5.504934532 -3.390119551)
(1733.413329 4.359296062 -3.645186477)
(1734.435674 5.529934023 -2.971904719)
)
;

boundaryField
{
    flow
    {
        type            calculated;
        value           nonuniform List<vector> 
42
(
(1706.898912 -9.297484356 -1.740155935)
(1709.87742 -2.005312385 0.8196681397)
(1708.756713 -0.388700482 4.222366497)
(1707.555394 -4.821261626 -0.5710699641)
(1707.536286 -1.999852631 -0.244778727)
(1710.53096 5.62481355 -2.712960956)
(1708.656699 -0.1645946044 -4.334247706)
(1711.271047 -3.100903218 -4.050530112)
(1705.301253 -1.255691301 -3.528771699)
(1710.88484 -0.4461823015 2.683274089)
(1702.818134 4.05060348 -2.404091855)
(1707.499568 0.9739997558 0.9589436671)
(1702.927214 1.088203824 0.9443814913)
(1703.140593 -1.826499539 -0.6880254908)
(1711.765797 -1.463030772 0.2837421149)
(1707.763785 -2.798596665 2.408077948)
(1705.982338 3.068914536 -0.9310556503)
(1712.831962 1.185253678 1.044937719)
(1706.324715 3.025190134 -0.9644617729)
(1710.083232 1.46252249 -2.287236696)
(1709.952065 -5.191731811 -0.4533354982)
(1708.419772 4.776623001 0.07431845685)
(1706.898912 -9.297484356 -1.740155935)
(1743.699007 -7.53531302 -3.221509698)
(1737.601841 -9.583050472 -2.580101166)
(1738.097537 -9.027483462 -1.518339902)
(1736.101771 -8.433373519 -1.551452294)
(1737.83819 -9.361492312 -0.8703740523)
(1737.757511 -8.216163332 1.313840014)
(1735.981831 -8.263775052 -1.243029811)
(1735.142736 -7.580293027 1.638756679)
(1733.824299 -7.363195086 1.201473732)
(1734.985466 -5.498588557 0.4148800554)
(1733.321689 -4.243987488 -1.422265862)
(1732.937528 -4.634967791 -1.624440916)
(1732.597555 -6.166737805 -2.425812538)
(1729.32176 -4.721783963 -1.713598179)
(1723.425387 -7.449201593 -1.454410239)
(1710.688361 -8.854694685 1.281674991)
(1673.710863 -16.36394789 0.3218532427)
(1569.092386 -19.76817888 -1.860310776)
(1180.341124 12.20193645 1.600566165)
)
;
    }
    obstacle
    {
        type            calculated;
        value           nonuniform List<vector> 10((423.1077706 113.3713854 -1.244610601) (336.3907248 90.13562309 -1.030927562) (313.9240855 84.11570517 2.582402485) (279.8003573 74.97227977 4.49116294) (268.3164308 71.8951709 3.32198409) (251.7257244 67.4497047 16.41676019) (212.1921261 56.85670866 10.596625) (214.9258859 57.58921767 -6.796446326) (213.337091 57.16350134 -21.79014399) (203.8595434 54.62399985 -1.820865629));
    }
    frontAndBack
    {
        type            empty;
    }
    procBoundary0to1
    {
        type            processor;
        value           nonuniform List<vector> 
21
(
(376.0347753 104.0050202 -0.5088531821)
(637.9953532 198.420954 -6.608663191)
(836.7775125 268.7390138 -7.117848333)
(987.2947222 315.9972888 -0.3217782393)
(1100.057766 346.4838835 1.680920309)
(1182.730066 350.6606197 -1.653889546)
(1266.169443 336.900202 -3.066262768)
(1336.090763 309.8720778 -3.521944005)
(1410.665097 276.644168 -0.7651436769)
(1470.228317 234.364494 2.161781861)
(1523.564251 194.779921 -0.733320292)
(1566.773941 153.0969112 1.66335758)
(1613.028149 117.2915907 -2.926230724)
(1639.55361 94.55154771 -1.214415916)
(1666.094433 69.20955261 -1.56725122)
(1675.891161 55.44749542 2.720583299)
(1695.113053 44.9376857 2.254807101)
(1701.443504 33.86818541 -2.911923723)
(1708.662839 25.10549809 -1.229196874)
(1720.13324 16.66008984 -4.308005158)
(1722.974706 12.06055843 3.944275609)
)
;
    }
    procBoundary0to2
    {
        type            processor;
        value           nonuniform List<vector> 
31
(
(1709.474297 2.28270229 0.6574485358)
(1742.606362 3.924312522 0.6706645795)
(1733.870049 4.592185988 1.182787129)