/*--------------------------------*- C++ -*----------------------------------*\
| =========                 |                                                 |
| \\      /  F ield         | OpenFOAM: The Open Source CFD Toolbox           |
|  \\    /   O peration     | Version:  2406                                  |
|   \\  /    A nd           | Website:  www.openfoam.com                      |
|    \\/     M anipulation  |                                                 |
\*---------------------------------------------------------------------------*/
FoamFile
{
    version     2.0;
    format      ascii;
    arch        "LSB;label=32;scalar=64";
    class       Cloud<dsmcParcel>;
    location    "0.008/lagrangian/dsmc";
    object      coordinates;
}
// * * * * * * * * * * * * * * * * * * * * * * * * * * * * * * * * * * * * * //

5114
(
(0.07727695706 0.166732187 0.2946293345 0.4613615215) 482 932 1
(0.5501479474 0.2249260263 0.0848015319 0.1401244944) 375 2215 2
(0.5420588834 0.01372093084 0.2289705583 0.2152496275) 404 782 1
(0.183171484 0.0207224892 0.3876917688 0.408414258) 515 2229 1
(0.2205982356 0.3897008822 0.1055706333 0.284130249) 473 915 2
(0.6519382264 0.1740308868 0.1695855244 0.00444536242) 484 918 1
(0.04862535983 0.4756873201 0.3541352955 0.1215520246) 381 741 1
(0.2727196252 0.3636401874 0.008699355486 0.3549408319) 511 988 1
(0.1664929932 0.4167535034 0.09822113814 0.3185323652) 465 881 1
(0.5343296579 0.232835171 0.04036761466 0.1924675564) 414 804 1
(0.1119242733 0.4440378633 0.1773524877 0.2666853756) 372 724 1
(0.2219428091 0.2398182167 0.1492103787 0.3890285955) 534 1013 2
(0.2453126497 0.3773436752 0.198583634 0.1787600411) 365 2214 2
(0.5607604033 0.2196197983 0.01940686912 0.2002129292) 484 937 1
(0.3447690041 0.02315388951 0.3044616084 0.3276154979) 478 906 2
(0.7474214042 0.01366084892 0.1262892979 0.112628449) 393 764 2
(0.7953111027 0.1023444486 0.05489284813 0.0474516005) 505 974 2
(0.081751907 0.1681868831 0.4591240465 0.2909371634) 404 785 2
(0.4260186494 0.2869906753 0.1233140529 0.1636766224) 394 765 2
(0.1729648687 0.4135175657 0.2086419501 0.2048756155) 422 818 2
(0.04908440099 0.4754577995 0.1857655909 0.2896922086) 363 706 2
(0.01585735518 0.4920713224 0.08509810679 0.4069732156) 443 858 2
(0.04901283032 0.3003851567 0.4754935848 0.1751084282) 394 766 2
(0.1899375435 0.4050312282 0.1416113203 0.2634199079) 384 746 2
(0.1907524035 0.4046237983 0.1471133221 0.2575104761) 432 835 2
(0.08028952432 0.372925912 0.4598552378 0.08692932583) 404 782 1
(0.1910823428 0.4044588286 0.2067933296 0.1976654991) 395 748 1
(0.1556925882 0.3699288918 0.05222481409 0.4221537059) 464 880 2
(0.07826614246 0.2510348179 0.4608669288 0.2098321109) 444 858 1
(0.7139449323 0.1430275339 0.02416538419 0.1188621497) 524 1010 2
(0.3141957081 0.1600721282 0.1828300178 0.3429021459) 412 781 2
(0.07356334458 0.1603183836 0.4632183277 0.3028999441) 414 804 2
(0.4457714618 0.2771142691 0.003560390045 0.2735538791) 423 818 2
(0.401918592 0.2918494139 0.007191290127 0.299040704) 424 822 1
(0.5741261705 0.1597111035 0.05322581126 0.2129369147) 425 805 2
(0.09208189757 0.4539590512 0.05463758057 0.3993214706) 454 879 2
(0.3461026443 0.3269486778 0.1497782003 0.1771704776) 524 994 1
(0.03155584305 0.4842220785 0.4841004542 0.0001216242598) 375 2215 2
(0.2217074267 0.03082730084 0.3583189858 0.3891462866) 362 2205 1
(0.2447717308 0.3644588353 0.3776141346 0.01315529936) 399 772 1
(0.01279609482 0.4936019526 0.0266352366 0.466966716) 394 765 2
(0.6528683291 0.1735658355 0.04538296202 0.1281828734) 443 858 2
(0.774183629 0.1129081855 0.06574812213 0.04716006335) 485 2226 2
(0.1666909304 0.4166545348 0.0701192166 0.3465353182) 372 724 1
(0.09726753323 0.4513662334 0.197127757 0.2542384764) 433 821 1
(0.3451124442 0.2585230765 0.3274437779 0.06892070143) 405 786 2
(0.5394853516 0.2302573242 0.1298443524 0.1004129717) 385 746 2
(0.4103779974 0.1481256304 0.2948110013 0.1466853709) 423 818 1
(0.1182059875 0.4129966533 0.4408970062 0.0279003529) 451 871 1
(0.06265927919 0.3899607058 0.0787096546 0.4686703604) 512 989 1
(0.07028609198 0.1280651883 0.464856954 0.3367917657) 545 1042 1
(0.2681100324 0.3659449838 0.3273381418 0.03860684202) 391 741 1
(0.2905717591 0.3547141204 0.1460808622 0.2086332583) 385 748 1
(0.1203819464 0.4398090268 0.01924090123 0.4205681256) 444 858 2
(0.5267365081 0.2366317459 0.0800127177 0.1566190282) 473 913 2
(0.3150394113 0.3424802943 0.2036045076 0.1388757867) 392 743 1
(0.6888857618 0.1555571191 0.04213765678 0.1134194623) 445 860 2
(0.3127130466 0.3436434767 0.105453607 0.2381898698) 393 764 1
(0.7007989574 0.1496005213 0.1284456868 0.02115483452) 404 766 1
(0.6009399619 0.06616166086 0.1333683582 0.199530019) 383 744 1
(0.7671814384 0.1137690062 0.1164092808 0.002640274582) 505 974 1
(0.2838714105 0.3229141144 0.03515018038 0.3580642948) 523 992 2
(0.555398503 0.2223007485 0.1114178655 0.110882883) 533 1011 1
(0.1806641688 0.4096679156 0.1059453868 0.3037225288) 375 727 2
(0.6463022095 0.1768488952 0.09626784174 0.08058105349) 392 743 1
(0.1530511828 0.4234744086 0.1386766432 0.2847977654) 384 746 2
(0.3544602528 0.3227698736 0.2092200299 0.1135498437) 365 2208 2
(0.165971783 0.4170141085 0.260236273 0.1567778355) 482 932 2
(0.2348944613 0.05407544994 0.3825527694 0.3284773194) 393 764 2
(0.1981342562 0.4009328719 0.2281508995 0.1727819724) 363 707 1
(0.6491442681 0.064982979 0.175427866 0.110444887) 395 767 2
(0.00870480196 0.3522766619 0.1433709371 0.495647599) 443 840 2
(0.1088973695 0.4455513153 0.141004522 0.3045467933) 514 975 1
(0.281152081 0.3496765399 0.009747419581 0.3594239595) 514 993 1
(0.08060671772 0.4561014634 0.4596966411 0.003595177789) 503 973 2
(0.4552895932 0.2723552034 0.2538247786 0.01853042481) 420 796 1
(0.3482843362 0.005944913903 0.319912918 0.3258578319) 391 759 1
(0.4060925264 0.06390762042 0.2969537368 0.2330461164) 444 861 2
(0.3137376177 0.3343417183 0.3431311911 0.008789472794) 365 710 2
(0.2617901232 0.3691049384 0.1613678834 0.207737055) 365 710 1
(0.1005833534 0.08494916564 0.3647591577 0.4497083233) 503 972 1
(0.1850746771 0.4074626614 0.390649087 0.0168135744) 432 835 2
(0.7367480153 0.1316259923 0.01378469917 0.1178412932) 465 898 2
(0.02296801576 0.4087856361 0.07973035598 0.4885159921) 505 957 2
(0.2775862468 0.3612068766 0.02926866927 0.3319382073) 425 2220 2
(0.1083235435 0.4062256504 0.4458382283 0.03961257782) 494 956 2
(0.6664905983 0.1667547009 0.1383959987 0.02835870219) 523 1008 2
(0.1921990996 0.1030109509 0.4039004502 0.3008894994) 503 973 2
(0.370204057 0.06170867725 0.2531892943 0.3148979715) 515 2229 1
(0.6947970025 0.1526014987 0.002320980454 0.1502805183) 370 717 2
(0.6284564088 0.05488106818 0.1857717956 0.1308907274) 464 899 2
(0.02886970408 0.485565148 0.4620682682 0.02349687977) 407 771 1
(0.01727842719 0.02967390157 0.4913607864 0.4616868848) 383 745 2
(0.1736165931 0.3845325947 0.02865910881 0.4131917035) 385 2216 1
(0.1765145747 0.1978260714 0.2139166413 0.4117427126) 533 1029 1
(0.6087143758 0.00184316447 0.1937996476 0.1956428121) 485 2226 1
(0.0831095308 0.08745750295 0.4584452346 0.3709877317) 493 954 2
(0.7184695847 0.06381258403 0.1407652076 0.0769526236) 453 878 2
(0.2463858404 0.05958553214 0.3172215477 0.3768070798) 430 815 2
(0.6909555108 0.1545222446 0.1398421844 0.0146800602) 432 835 2
(0.1792676673 0.4103661664 0.2306712628 0.1796949036) 473 897 1
(0.5984730287 0.01791027432 0.1828532113 0.2007634856) 444 842 2
(0.4636259168 0.2681870416 0.1929580581 0.07522898352) 432 835 2
(0.1448929352 0.4275535324 0.05941616581 0.3681373666) 434 842 1
(0.3349991868 0.3325004066 0.1069714102 0.2255289964) 403 780 2
(0.4597649287 0.2701175357 0.2619216323 0.008195903362) 393 763 2
(0.6155213735 0.04267130361 0.1922393132 0.1495680096) 393 764 2
(0.2968137698 0.3515931151 0.07594932727 0.2756437878) 451 871 2
(0.02882434825 0.4855878259 0.2929720265 0.1926157994) 512 989 2
(0.009364504371 0.4953177478 0.3266428853 0.1686748625) 399 774 2
(0.6584467603 0.1701180528 0.0006585670796 0.1707766198) 402 780 1
(0.006756927411 0.4966215363 0.3247708847 0.1718506516) 443 859 1
(0.01586605733 0.4920669713 0.3411095319 0.1509574394) 362 705 1
(0.4546872036 0.2726563982 0.05712628215 0.215530116) 494 953 2
(0.5133610626 0.002613885346 0.2407055833 0.2433194687) 430 815 2
(0.4467267028 0.009820496043 0.2766366486 0.2668161526) 444 861 2
(0.7123506433 0.1438246784 0.02526704177 0.1185576366) 414 785 1
(0.4033868086 0.2983065957 0.1063710796 0.1919355161) 522 1008 2
(0.2138779072 0.3930610464 0.2191996084 0.1738614381) 452 876 1
(0.8666215239 0.01250675463 0.0541824834 0.06668923804) 465 2224 1
(0.6145629532 0.1541206516 0.03859787181 0.1927185234) 483 916 2
(0.02082912989 0.4895854351 0.1977913173 0.2917941178) 544 1041 2
(0.5497624676 0.0275719605 0.2251187662 0.1975468057) 432 835 1
(0.5600832693 0.2199583654 0.1183594816 0.1015988837) 515 993 2
(0.5482204641 0.2258897679 0.1267728074 0.09911696053) 534 1031 2
(0.2345305465 0.3827347268 0.2136617778 0.169072949) 394 747 1
(0.3850941504 0.300700365 0.3074529248 0.006752559806) 383 742 1
(0.4243761717 0.2878119142 0.1308596405 0.1569522737) 369 2213 2
(0.4088906455 0.1326404517 0.1629142256 0.2955546773) 372 705 2
(0.4820940908 0.1690833534 0.08986960122 0.2589529546) 445 2222 1
(0.1098184782 0.1327782317 0.4450907609 0.3123125292) 503 973 2
(0.6252683062 0.1873658469 0.002259472726 0.1851063742) 363 704 2
(0.3334020009 0.3332989996 0.1836383843 0.1496606153) 381 722 1
(0.1360557848 0.4319721076 0.2201632097 0.2118088979) 402 762 1
(0.4290972404 0.2854513798 0.1466289689 0.1388224109) 414 803 2
(0.5036592995 0.08970419965 0.2481703502 0.1584661506) 464 896 1
(0.1702676968 0.1784474184 0.2364187332 0.4148661516) 441 854 1
(0.08271754878 0.4586412256 0.06332642887 0.3953147967) 533 1027 2
(0.4481096361 0.275945182 0.1826217686 0.09332341336) 463 878 1
(0.6975934165 0.1321374864 0.1512032917 0.01906580531) 453 878 2
(0.09381602868 0.4530919857 0.003889600921 0.4492023847) 501 950 1
(0.5518831376 0.1566095063 0.2240584312 0.06744892489) 404 785 2
(0.5430595343 0.1018228195 0.2284702328 0.1266474133) 503 970 1
(0.224138127 0.08242118663 0.3879309365 0.3055097499) 486 940 2
(0.2022468501 0.398876575 0.3874387746 0.01143780033) 474 915 2
(0.3372105871 0.0005693033614 0.3308254031 0.3313947064) 514 975 2
(0.4549789367 0.2725105316 0.2285595351 0.04395099659) 475 919 1
(0.5007381178 0.2496309411 0.03409253502 0.2155384061) 462 892 2
(0.786836205 0.1013838637 0.005198033845 0.1065818975) 404 784 1
(0.2394338504 0.08334913455 0.2969339403 0.3802830748) 425 2220 1
(0.8924462291 0.05377688543 0.04133147777 0.01244540765) 474 915 2
(0.1825536072 0.4087231964 0.1662437829 0.2424794134) 415 803 2
(0.2272485006 0.193675122 0.1927006277 0.3863757497) 441 854 1
(0.2937160453 0.1900680673 0.3531419773 0.16307391) 405 784 1
(0.2367622468 0.3461028125 0.03551606412 0.3816188766) 410 795 1
(0.5543189837 0.2228405081 0.1745643358 0.04827617239) 455 879 2
(0.7680050582 0.006165649906 0.109831821 0.1159974709) 368 715 1
(0.3837215758 0.2025021022 0.3081392121 0.1056371099) 414 804 2
(0.5437845204 0.2281077398 0.2149248431 0.0131828967) 405 786 1
(0.2262193954 0.3125318727 0.3868903023 0.07435842957) 495 957 2
(0.1511873037 0.1532775962 0.4244063482 0.2711287519) 406 788 2
(0.05499928025 0.4725003599 0.3652632396 0.1072371203) 474 899 1
(0.3694328347 0.3152835827 0.1065650577 0.2087185249) 513 989 2
(0.235041082 0.382479459 0.345283707 0.037195752) 402 781 1
(0.04067484207 0.08712978586 0.3925327931 0.479662579) 459 870 2
(0.1643637264 0.4178181368 0.09441469468 0.3234034421) 525 2230 2
(0.4851751578 0.2574124211 0.01786448725 0.2395479339) 459 870 1
(0.3020298287 0.3489850856 0.06018541148 0.2887996742) 535 2231 2
(0.01879560504 0.3691792379 0.4906021975 0.1214229595) 512 990 2
(0.5694945575 0.2152527212 0.0209603661 0.1942923551) 523 1011 1
(0.3214427657 0.1746231028 0.1646555143 0.3392786172) 442 838 2
(0.02244442072 0.4887777896 0.3809760191 0.1078017706) 395 2217 2
(0.1588737544 0.4205631228 0.01351802017 0.4070451026) 453 859 1
(0.2089663947 0.3955168026 0.2764345695 0.1190822332) 415 803 2
(0.3851408009 0.1691819849 0.1382476147 0.3074295996) 371 703 2
(0.1579512213 0.4210243893 0.3828596136 0.03816477574) 430 815 1
(0.7497840205 0.1251079897 0.06556418367 0.05954380606) 375 2215 2
(0.07002276148 0.2534390606 0.4649886193 0.2115495587) 398 773 2
(0.465622163 0.2165983628 0.2671889185 0.05059055567) 424 823 2
(0.3169433261 0.06497366827 0.3415283369 0.2765546687) 402 778 1
(0.4086715399 0.29566423 0.1861961535 0.1094680766) 462 895 1
(0.6872504192 0.1563747904 0.1372395174 0.019135273) 444 842 1
(0.3320245004 0.3339877498 0.1715946023 0.1623931475) 465 881 1
(0.4177745312 0.00391372218 0.2911127344 0.2871990122) 473 913 1
(0.4924068995 0.2403060846 0.2537965503 0.01349046566) 420 812 1
(0.358197012 0.320901494 0.001881066741 0.3190204272) 398 754 1
(0.06709066214 0.05990713031 0.4664546689 0.4065475386) 433 837 1
(0.8359046402 0.08204767989 0.03845627028 0.04359140961) 512 971 1
(0.5117140718 0.2441429641 0.1151451594 0.1289978048) 490 948 1
(0.828443548 0.085778226 0.006093080782 0.07968514522) 451 855 1
(0.1873222934 0.4063388533 0.3602122071 0.04612664623) 523 1008 2
(0.2383926543 0.3808036729 0.2400104525 0.1407932203) 384 728 1
(0.005039696648 0.4069253126 0.4974801517 0.09055483911) 423 818 1
(0.4584786047 0.249516432 0.02124426569 0.2707606976) 455 2223 1
(0.6589439253 0.1705280373 0.07135021302 0.09917782431) 484 918 1
(0.1657706238 0.4171146881 0.1010180007 0.3160966874) 543 1088 1
(0.1982246666 0.3843075442 0.01658012244 0.4008876667) 503 972 1
(0.181219294 0.3957455349 0.409390353 0.01364481808) 412 800 2
(0.4219371509 0.2447964932 0.04423493131 0.2890314246) 374 727 1
(0.3863465864 0.3068267068 0.03632389313 0.2705028137) 374 709 1
(0.06438150292 0.3978836799 0.06992556863 0.4678092485) 425 805 2
(0.1128012991 0.4329576247 0.01064172575 0.4435993505) 403 764 2
(0.4893816934 0.2400285252 0.01528062809 0.2553091533) 463 878 2
(0.1051758893 0.4474120554 0.2549885885 0.1924234668) 382 742 2
(0.2143045632 0.3928477184 0.06312792289 0.3297197955) 403 782 2
(0.006436110011 0.1818146194 0.496781945 0.3149673256) 383 745 2
(0.2222667685 0.387742905 0.001123710786 0.3888666157) 398 772 1
(0.1321242618 0.09780435889 0.4339378691 0.3361335102) 463 897 2
(0.2753013302 0.3623493349 0.01555243208 0.3467969028) 453 877 2
(0.4587221569 0.09041799358 0.2706389215 0.180220928) 382 740 1
(0.4596740134 0.2701629933 0.1066417653 0.163521228) 450 853 1
(0.7595398479 0.1202300761 0.0008629096546 0.1193671664) 469 889 1
(0.0731362544 0.3952383558 0.06819351697 0.4634318728) 495 2227 1
(0.2118267323 0.117650104 0.2764365298 0.3940866338) 471 911 1
(0.7828252887 0.1085873556 0.09491309045 0.01367426518) 523 1011 1
(0.1983646099 0.4008176951 0.3832614998 0.01755619522) 453 877 2
(0.4974751325 0.2512624338 0.1840732871 0.06718914667) 484 934 2
(0.4313118998 0.07437700405 0.2843440501 0.2099670461) 463 897 2
(0.615373945 0.1923130275 0.1545150104 0.03779801705) 453 877 2
(0.5045284112 0.2477357944 0.02671229059 0.2210235038) 488 925 1
(0.183925659 0.1102999359 0.2977372346 0.4080371705) 471 911 1
(0.527392003 0.2363039985 0.005822545332 0.2304814532) 525 1014 1
(0.8543576551 0.01670821978 0.07282117243 0.05611295266) 524 1013 2
(0.2735323899 0.2049853856 0.363233805 0.1582484195) 535 1033 2
(0.8120950094 0.09043881873 0.003513676559 0.09395249529) 413 783 2
(0.3095039513 0.0787971292 0.3452480244 0.2664508952) 363 707 2
(0.04194143569 0.2111371538 0.4790292822 0.2678921284) 429 832 2
(0.3282690598 0.3358654701 0.22934326 0.1065222101) 384 746 2
(0.098110617 0.4509446915 0.2758761108 0.1750685807) 372 721 2
(0.31167767 0.08647025644 0.2576909085 0.344161165) 396 750 2
(0.1231245305 0.1676869898 0.270750745 0.4384377348) 433 821 2
(0.09962224864 0.4501888757 0.01263511173 0.4375537639) 442 857 1
(0.10397883 0.1171836757 0.3308269093 0.448010585) 407 789 1
(0.2289753928 0.06135395619 0.3241583474 0.3855123036) 448 849 2
(0.07691025181 0.4615448741 0.07438685023 0.3871580239) 404 785 1
(0.4084051815 0.04059319685 0.2552042124 0.2957974092) 435 2221 1
(0.04586176027 0.1296239663 0.3474451536 0.4770691199) 443 840 2
(0.01614673282 0.3269270766 0.164999557 0.4919266336) 403 782 1
(0.4260120883 0.2869939559 0.03090283781 0.2560911181) 465 881 1
(0.6001793819 0.199910309 0.1659331795 0.03397712951) 373 707 1
(0.2085765795 0.3957117102 0.02939696715 0.3663147431) 422 800 1
(0.5910950273 0.1437728874 0.06067959897 0.2044524864) 475 900 2
(0.1073598834 0.4463200583 0.183059474 0.2632605844) 414 804 1
(0.3733363123 0.04515219478 0.3133318438 0.2681796491) 495 955 1
(0.06789967939 0.1986246079 0.4660501603 0.2674255524) 413 799 1
(0.0277145122 0.1804281103 0.4861427439 0.3057146336) 413 799 1
(0.3484346753 0.3257826624 0.2443132215 0.08146944087) 521 1006 2
(0.2750012997 0.3624993501 0.1325516599 0.2299476902) 442 854 2
(0.5304050353 0.2107313627 0.2347974823 0.02406611964) 422 819 2
(0.359703839 0.118635212 0.3201480805 0.2015128685) 465 900 2
(0.03695487226 0.2339282762 0.4815225639 0.2475942877) 443 859 2
(0.4224920737 0.1718002428 0.2887539632 0.1169537204) 512 987 1
(0.1290068847 0.4354965576 0.2211252179 0.2143713397) 474 917 2
(0.167161409 0.2111632228 0.2052560727 0.4164192955) 463 896 1
(0.4249508901 0.2875245549 0.006136297089 0.2813882578) 511 987 2
(0.1342270351 0.1393651022 0.4328864824 0.2935213803) 465 900 2
(0.2842185834 0.1073938031 0.2504969052 0.3578907083) 455 862 2
(0.1228917173 0.4385541414 0.3276310623 0.1109230791) 501 969 1
(0.3436527222 0.01088329312 0.3281736389 0.3172903458) 500 964 1
(0.5610463278 0.2194768361 0.02742659466 0.1920502414) 451 873 2
(0.4501090451 0.2749454774 0.09454243008 0.1804030474) 424 820 2
(0.1355437273 0.1102364059 0.3219917305 0.4322281363) 383 726 2
(0.4518140131 0.2277680124 0.2740929934 0.04632498099) 422 816 1
(0.07860904505 0.1643851613 0.4606954775 0.2963103162) 422 819 2
(0.03475668748 0.4826216563 0.01794646379 0.4646751925) 374 727 2
(0.05626218314 0.3619657922 0.1099031163 0.4718689084) 415 2219 1
(0.5980520569 0.2009739716 0.03735877167 0.1636151999) 439 848 2
(0.6240348699 0.04020822011 0.1879825651 0.1477743449) 416 807 2
(0.4878783995 0.2560608002 0.03875672177 0.2173040785) 400 776 2
(0.3622619113 0.3188690444 0.2884139237 0.03045512063) 422 816 2
(0.4548003925 0.2598697715 0.2725998037 0.0127300322) 441 852 1
(0.1111813446 0.07694007121 0.3674692565 0.4444093277) 492 951 1
(0.1997188464 0.4001405768 0.3113418537 0.0887987231) 381 722 1
(0.2505172034 0.1588214492 0.2159199491 0.3747413983) 454 879 1
(0.4194381735 0.07250677951 0.2902809133 0.2177741337) 445 860 1
(0.5176169568 0.07995260059 0.161238921 0.2411915216) 473 915 1
(0.5967860502 0.2016069749 0.06077832244 0.1408286525) 405 784 2
(0.1068203367 0.4465898317 0.1656239163 0.2809659154) 470 909 2
(0.1907477616 0.1211040041 0.283522115 0.4046261192) 392 743 2
(0.04740703086 0.4762964846 0.1439726723 0.3323238123) 491 949 2
(0.1800385771 0.3486983599 0.06128235159 0.4099807115) 454 861 2
(0.2611040598 0.3694479701 0.01173445074 0.3577135194) 434 823 1
(0.259116716 0.3675038811 0.00293776093 0.370441642) 448 849 2
(0.3235937135 0.05933538117 0.2788677621 0.3382031433) 521 988 2
(0.1016912251 0.4491543875 0.4147670042 0.03438738322) 217 395 1
(0.3607498671 0.03906569973 0.3196250664 0.2805593667) 512 987 1
(0.2675611729 0.1457459716 0.220473442 0.3662194136) 515 2229 1
(0.6022873239 0.1063400312 0.09251630684 0.1988563381) 471 893 2
(0.6875257667 0.1562371167 0.007081776218 0.1491553404) 475 900 1
(0.4953954749 0.1456789181 0.2523022625 0.1066233445) 452 876 2
(0.3373017155 0.3313491423 0.1609236928 0.1704254494) 470 910 1
(0.2036929236 0.3981535382 0.04104210943 0.3571114288) 474 918 1
(0.3121890164 0.3439054918 0.05588900116 0.2880164906) 480 929 1
(0.4127960467 0.1413916929 0.1522102838 0.2936019766) 513 991 1
(0.7040292871 0.1479853565 0.1323186164 0.01566674006) 511 988 1
(0.1743369572 0.1947288338 0.4128315214 0.2181026876) 472 914 2
(0.1479606127 0.1203682399 0.3056514538 0.4260196937) 504 974 1
(0.9234173811 0.03829130946 0.02966239235 0.008628917108) 502 970 2
(0.3135843459 0.259512782 0.08369504508 0.343207827) 423 802 2
(0.04302724575 0.2315308039 0.4784863771 0.2469555732) 448 868 2
(0.5758940234 0.2120529883 0.06504946998 0.1470035183) 385 729 1
(0.1779407592 0.2194510707 0.4110296204 0.1915785497) 395 765 1
(0.64035773 0.179821135 0.167212153 0.01260898206) 375 729 1
(0.1120083984 0.4439958008 0.3498288757 0.0941669251) 471 909 2
(0.4129797809 0.2935101095 0.03307989462 0.2604302149) 420 815 1
(0.8093101416 0.01407762199 0.08126730722 0.0953449292) 504 956 2
(0.08865408374 0.4556729581 0.1960489613 0.2596239968) 404 785 1
(0.613610283 0.09059144961 0.1931948585 0.1026034089) 415 803 1
(0.3051185363 0.08824155207 0.3474407319 0.2591991798) 405 784 1
(0.003164794529 0.4984176027 0.398203278 0.1002143247) 414 803 2
(0.3832616151 0.1959454785 0.3083691925 0.112423714) 401 779 2
(0.6961169348 0.1519415326 0.06880030069 0.08314123193) 384 747 1
(0.5314845911 0.2342577045 0.2195346322 0.01472307227) 463 896 2
(0.7119554423 0.09637503046 0.0476472484 0.1440222789) 478 906 2
(0.4387273829 0.02619705312 0.2544392554 0.2806363085) 419 794 2
(0.01545127897 0.4922743605 0.3846949666 0.1075793939) 473 915 2
(0.1033841118 0.4483079441 0.03845381263 0.4098541315) 433 821 1
(0.5040174522 0.2479912739 0.1108424243 0.1371488496) 432 837 2
(0.1447286384 0.2386724054 0.1889632754 0.4276356808) 432 837 1
(0.1596662842 0.3473926261 0.07277423181 0.4201668579) 465 881 2
(0.06917751044 0.4654112448 0.2371187792 0.2282924656) 412 799 2
(0.4451022756 0.2774488622 0.1581480213 0.1193008409) 414 801 2
(0.4448936877 0.03769860143 0.2398545547 0.2775531561) 483 916 2
(0.3017044787 0.3491477606 0.1095353072 0.2396124534) 425 805 1
(0.06938785348 0.2919136063 0.4653060733 0.1733924669) 518 998 1
(0.6984491777 0.09677158423 0.05400382693 0.1507754112) 521 1006 1
(0.5335793321 0.05600979147 0.1772005425 0.2332103339) 524 994 2
(0.3041413132 0.3479293434 0.3040118297 0.04391751364) 512 971 1
(0.132466946 0.433766527 0.232061247 0.20170528) 453 877 2
(0.09123962175 0.4543801891 0.4356442417 0.01873594739) 545 1042 2
(0.1393279723 0.2827076315 0.4303360139 0.1476283823) 525 1014 2
(0.459815894 0.0153209823 0.270092053 0.2547710707) 474 918 2
(0.03799087914 0.4810045604 0.2965997992 0.1844047612) 491 947 2
(0.6418178987 0.09361328127 0.08547776937 0.1790910506) 545 1033 2
(0.01056443465 0.2425314962 0.2521862864 0.4947177827) 467 885 2
(0.005379816964 0.2734471215 0.22386297 0.4973100915) 489 945 1
(0.3218244971 0.3390877514 0.06378871819 0.2752990332) 543 1030 1
(0.4419288936 0.2790355532 0.02481693774 0.2542186155) 492 951 2
(0.7125688488 0.1437155756 0.04481863648 0.09889693909) 482 930 2
(0.3204954841 0.1599687552 0.339752258 0.1797835028) 509 981 1
(0.3083092169 0.3033732352 0.04247215635 0.3458453916) 433 821 2
(0.05398295113 0.0770009221 0.4730085244 0.3960076023) 539 1036 1
(0.7536949088 0.1134447349 0.009707810704 0.1231525456) 477 904 2
(0.09304464547 0.4534776773 0.2337997851 0.2196778922) 545 2232 2
(0.1325124298 0.3640932819 0.4337437851 0.06965050316) 543 1088 2
(0.2810486612 0.3594756694 0.06799314483 0.2914825246) 462 894 2
(0.8202371088 0.07790996854 0.01197147707 0.08988144561) 525 995 2
(0.137145124 0.366487008 0.06494043001 0.431427438) 383 726 2
(0.04527851653 0.0804167712 0.4773607417 0.3969439705) 375 727 1
(0.7099112279 0.03480652384 0.1102378622 0.1450443861) 389 737 2
(0.7373260103 0.1313369948 0.0645298826 0.06680711224) 371 703 1
(0.2047839218 0.3976080391 0.09461432875 0.3029937103) 393 764 1
(0.1487687462 0.4256156269 0.09086249503 0.3347531319) 404 782 2
(0.2893435389 0.3553282305 0.09432677295 0.2610014576) 424 820 2
(0.02465180638 0.4876740968 0.2502968715 0.2373772253) 369 717 2
(0.2630621713 0.3684689144 0.241074116 0.1273947983) 445 2222 2
(0.660049017 0.1699754915 0.07894182543 0.09103366609) 374 709 1
(0.5927060763 0.09660150333 0.1070454585 0.2036469618) 411 797 1
(0.1591845867 0.2691638469 0.1512438597 0.4204077067) 445 843 2
(0.2637615552 0.3681192224 0.2088076859 0.1593115365) 388 751 2
(0.02641697648 0.3059667445 0.1808247673 0.4867915118) 363 706 1
(0.8291386324 0.0009156584824 0.0854306838 0.08451502532) 423 821 2
(0.3862127117 0.0675404446 0.2393531995 0.3068936441) 432 819 2
(0.3595764863 0.3202117568 0.05471948454 0.2654922723) 395 765 2
(0.007528038908 0.03041892249 0.4658170581 0.4962359805) 403 782 1
(0.1545764842 0.3153760228 0.1073357352 0.4227117579) 424 822 1
(0.01187467 0.2382361887 0.494062665 0.2558264763) 392 762 2
(0.04751416419 0.09567602163 0.4762429179 0.3805668963) 405 786 2
(0.5209853107 0.2395073446 0.07336367115 0.1661436735) 372 721 2
(0.6879776649 0.1560111676 0.01328908745 0.1427220801) 500 967 1
(0.5786120571 0.2106939714 0.2058585314 0.00483544008) 455 881 1
(0.2015832082 0.3992083959 0.2919819561 0.1072264398) 432 835 2
(0.7392183361 0.1303908319 0.04511167126 0.08527916067) 434 842 1
(0.2939838673 0.3530080663 0.1930462833 0.159961783) 505 976 1
(0.3489763779 0.1506418425 0.1748699685 0.325511811) 444 842 2
(0.5608803743 0.1455246595 0.07403515331 0.2195598128) 504 956 2
(0.1715106092 0.04971554872 0.3645291467 0.4142446954) 446 845 2
(0.3454532173 0.3272733914 0.257589255 0.06968413638) 493 954 1
(0.3886347658 0.2200898471 0.08559277003 0.3056826171) 492 951 1
(0.8557033098 0.01030341905 0.06184492603 0.07214834508) 493 953 1
(0.726909764 0.136545118 0.01603970707 0.1205054109) 512 987 2
(0.2469713157 0.1067727942 0.269741548 0.3765143422) 475 2225 1
(0.3506492362 0.3246753819 0.1357854187 0.1888899632) 525 995 1
(0.3279518521 0.3360240739 0.1810208332 0.1550032408) 359 678 1
(0.1894615375 0.05056230115 0.3547069301 0.4052692312) 513 973 2
(0.06810146093 0.3809945584 0.0849547111 0.4659492695) 514 993 1
(0.02244102647 0.4887794868 0.1121934806 0.3765860061) 504 956 1
(0.5777607914 0.2111196043 0.002192784431 0.2089268199) 500 966 2
(0.5232746767 0.2383626617 0.1050222879 0.1333403737) 504 975 1
(0.3860975748 0.3069512126 0.2396686457 0.06728256695) 484 934 2
(0.1251413734 0.4374293133 0.1001854767 0.3372438366) 374 728 1
(0.1269783952 0.1891076369 0.4365108024 0.2474031655) 388 751 1
(0.7189101498 0.1405449251 0.01381763363 0.1267272915) 414 803 2
(0.2616071324 0.1468114944 0.2223849394 0.3691964338) 386 749 1
(0.01784670101 0.4910766495 0.1561012327 0.3349754168) 380 738 2
(0.01481584591 0.492592077 0.2382843871 0.25430769) 429 813 1
(0.395104435 0.1755925367 0.1268552457 0.3024477825) 56 73 2
(0.5814826775 0.2092586612 0.1465488541 0.06270980712) 381 738 2
(0.3932378075 0.2009791329 0.1024019633 0.3033810962) 400 776 1
(0.2219231169 0.3890384415 0.02388194559 0.365156496) 461 892 2
(0.04383871763 0.4780806412 0.1598654794 0.3182151618) 415 2219 2
(0.06710600032 0.4664469998 0.4163093565 0.05013764335) 424 820 2
(0.1296889794 0.03570695183 0.3994485585 0.4351555103) 385 729 2
(0.3525581944 0.06209937623 0.3237209028 0.2616215266) 433 840 2
(0.02160338335 0.03460821561 0.4545900927 0.4891983083) 413 801 1
(0.1032871007 0.4483564496 0.3366532435 0.1117032061) 395 2217 2
(0.6699949113 0.1650025444 0.1342816098 0.03072093454) 432 819 1
(0.4013257331 0.2993371334 0.1323831301 0.1669540033) 364 706 2
(0.279438089 0.3602809555 0.2703447038 0.08993625175) 365 710 1
(0.7063917289 0.1468041356 0.1031891778 0.04361495772) 433 837 2
(0.1753974829 0.4123012585 0.03164327898 0.3806579795) 390 739 1
(0.4385425508 0.2807287246 0.05025395829 0.2304747663) 459 870 1
(0.2218682731 0.3890658634 0.3019040728 0.08716179061) 454 861 1
(0.09686734902 0.297771465 0.1537948604 0.4515663255) 420 814 1
(0.04869292056 0.3498186098 0.1258349299 0.4756535397) 451 873 1
(0.2744064535 0.3627967732 0.1112383304 0.2515584428) 391 759 2
(0.042306689 0.4788466555 0.357215867 0.1216307885) 473 913 2
(0.2046370215 0.3976814893 0.3174808644 0.08020062492) 463 878 1
(0.2803357789 0.1184507542 0.2413813564 0.3598321105) 482 914 2
(0.2371704579 0.07511727701 0.306297494 0.381414771) 438 848 1
(0.01513166898 0.4924341655 0.4013318533 0.09110231218) 429 813 1
(0.1562130366 0.4218934817 0.3397910654 0.0821024163) 422 800 1
(0.2343906795 0.3828046603 0.3208774375 0.0619272228) 459 889 1
(0.5058881502 0.2470559249 0.2227769082 0.02427901674) 513 991 2
(0.137094257 0.3627555385 0.4314528715 0.06869733302) 455 881 2
(0.08553725653 0.2101287638 0.247102608 0.4572313717) 489 945 1
(0.1706396557 0.2252186728 0.1894614993 0.4146801721) 503 954 2
(0.5095460545 0.2452269727 0.01919779154 0.2260291812) 545 1033 1
(0.3664158101 0.3167920949 0.05558257199 0.2612095229) 443 856 2
(0.02566379587 0.4871681021 0.4697744793 0.01739362276) 472 911 2
(0.09517221821 0.07952488799 0.4524138909 0.3728890029) 485 936 1
(0.4385434405 0.2807282798 0.08422401759 0.1965042622) 495 938 1
(0.7636918865 0.09956943 0.1181540567 0.01858462674) 503 973 2
(0.1971858517 0.4014070742 0.01611902581 0.3852880484) 259 478 1
(0.134484271 0.3722493545 0.4327578645 0.06050851) 538 1035 1
(0.3255051927 0.3372474037 0.2442154596 0.09303194407) 534 1032 1
(0.2492342242 0.05082863683 0.3245542511 0.3753828879) 464 898 1
(0.7659231852 0.05713158369 0.1170384074 0.0599068237) 433 837 1
(0.6788595636 0.1605702182 0.03352291196 0.1270473062) 522 990 1
(0.07326641909 0.4633667905 0.001069565853 0.4622972246) 520 1004 2
(0.215901459 0.2261404874 0.1659087831 0.3920492705) 535 2231 1
(0.1237806236 0.1805915576 0.2575181306 0.4381096882) 515 976 2
(0.09927509007 0.450362455 0.4277855684 0.02257688661) 529 1022 1
(0.4468647861 0.2765676069 0.1708297376 0.1057378693) 449 867 2
(0.4407038631 0.01354521441 0.266102854 0.2796480684) 442 838 2
(0.3465960882 0.3267019559 0.05526356312 0.2714383928) 382 740 2
(0.4764542571 0.2617728715 0.06015509154 0.2016177799) 412 799 2
(0.1887891712 0.1945599981 0.2110454162 0.4056054144) 374 709 2
(0.03878154439 0.4806092278 0.3664903702 0.1141188576) 372 705 1
(0.7117411283 0.1441294358 0.01954071994 0.1245887159) 387 733 1