/*--------------------------------*- C++ -*----------------------------------*\
| =========                 |                                                 |
| \\      /  F ield         | OpenFOAM: The Open Source CFD Toolbox           |
|  \\    /   O peration     | Version:  2406                                  |
|   \\  /    A nd           | Website:  www.openfoam.com                      |
|    \\/     M anipulation  |                                                 |
\*---------------------------------------------------------------------------*/
FoamFile
{
    version     2.0;
    format      ascii;
    arch        "LSB;label=32;scalar=64";
    class       scalarField;
    location    "0.008/lagrangian/dsmc";
    object      Ei;
}
// * * * * * * * * * * * * * * * * * * * * * * * * * * * * * * * * * * * * * //


5114
(
3.179808082e-21
2.479876331e-21
1.425860241e-21
9.827019979e-21
2.193437736e-22
1.339102371e-20
3.434018067e-21
8.24532274e-21
8.924979431e-21
7.143938932e-21
4.403543153e-20
1.369717549e-20
8.231417009e-21
3.869507597e-21
3.875115479e-22
1.063489497e-20
8.413452425e-21
2.148522709e-21
2.578182246e-21
8.765671071e-22
1.171873209e-20
2.840053937e-21
5.91643907e-21
5.431150262e-21
5.040384991e-21
5.510387627e-21
2.396923634e-21
2.787517343e-21
2.39571123e-21
3.852788692e-21
2.730896327e-21
2.257185111e-21
1.433333894e-21
4.622668556e-21
1.004036274e-21
7.06998553e-24
7.58926943e-21
3.901614734e-21
8.494332323e-22
5.698390362e-22
1.974783163e-21
3.896176241e-21
6.056969992e-22
4.652005647e-21
6.006468067e-22
2.248069941e-22
1.069633483e-21
3.595569287e-21
1.363464989e-21
1.522731761e-20
5.142409964e-22
8.696635294e-21
5.146721084e-21
1.236627971e-20
8.498644716e-22
2.385595989e-21
6.047042834e-21
1.295676245e-20
1.161905592e-21
2.462847321e-21
7.650004336e-21
1.378620637e-21
1.89842845e-21
9.040689047e-22
4.213079516e-22
5.502795863e-21
3.732568172e-21
3.069863536e-21
2.793015863e-21
1.229305762e-21
7.452801564e-22
1.082320036e-22
9.048866118e-23
4.60390146e-21
1.15564163e-20
2.216810073e-22
3.282268927e-21
1.945133123e-22
8.220647565e-21
5.751580336e-21
2.3571079e-21
5.323837299e-21
2.322198326e-21
1.980728997e-22
6.065055585e-22
9.614069692e-21
7.826052905e-21
1.113829023e-21
1.857880905e-21
1.319452776e-20
8.77918334e-23
8.176895468e-21
1.153524482e-20
8.582747611e-22
1.078329431e-20
3.32948028e-21
1.268886944e-21
3.412523625e-22
5.939081001e-22
4.360235136e-21
1.751904842e-21
1.092666072e-21
5.109590549e-22
3.925514875e-23
4.449525035e-23
3.932942929e-21
1.136915315e-21
8.753552829e-22
1.484958472e-20
5.012870882e-21
7.973678133e-21
1.373402113e-21
3.498995596e-21
8.21280597e-21
2.005220989e-21
4.385171755e-21
2.057371598e-21
7.312623797e-21
1.793048678e-22
4.621149497e-23
1.691165286e-20
3.988269508e-21
1.382917606e-21
7.675879354e-21
5.470661873e-22
1.789364743e-21
1.208946948e-20
1.698323668e-20
6.965639118e-21
6.274003154e-22
2.534337516e-21
5.850372697e-22
1.476441776e-21
2.955226069e-21
2.399637269e-21
1.489051449e-20
3.030679475e-21
6.778258581e-21
5.19499718e-22
9.720476202e-21
1.779070349e-21
3.124510825e-21
1.080566413e-21
7.149467023e-21
1.375449036e-20
3.813735285e-21
5.11878355e-21
1.834916274e-21
8.34864937e-21
7.074446745e-22
7.859779466e-21
1.777290611e-21
2.854937735e-22
1.108753758e-20
3.372699823e-21
3.329342572e-21
9.940323412e-21
2.69445818e-21
7.945332614e-23
3.631290927e-21
4.312513952e-21
1.851782367e-20
2.300954808e-21
5.658059819e-21
4.462163686e-21
1.948676868e-21
9.150869828e-21
1.73101584e-21
2.211627849e-21
7.755036342e-22
4.215052307e-22
9.125098778e-22
1.037249244e-20
3.619202171e-21
1.346623653e-21
7.132857171e-22
1.282333786e-21
4.244459037e-21
1.061194111e-20
5.919778265e-23
1.468823539e-21
3.035506252e-21
8.221277508e-22
9.140003016e-21
3.132369954e-21
4.227110571e-22
4.398129948e-22
7.543475703e-21
2.109007591e-21
2.002412026e-21
2.431016674e-21
5.820835576e-22
3.793596406e-21
4.934900928e-21
1.52138593e-21
3.400821028e-21
3.25875901e-21
6.47772135e-22
1.16311283e-20
1.41124588e-20
2.092757402e-21
7.49385218e-21
9.007648633e-21
1.04608432e-20
2.984129921e-21
3.226290138e-21
1.982723822e-21
2.571119323e-21
2.469308121e-21
4.661007724e-21
3.942588787e-21
1.739833895e-21
1.169029722e-20
8.933877725e-21
1.62788768e-20
8.684755841e-21
1.340425639e-21
1.232403434e-20
3.875631531e-21
2.067030973e-21
9.261469303e-21
2.270535401e-23
5.287921467e-21
3.369842416e-21
2.957055893e-21
4.034284359e-21
2.201294924e-22
1.087483709e-21
4.27948659e-21
5.228431533e-21
2.543461769e-21
4.713959378e-22
4.638751037e-22
4.788587178e-21
1.565547438e-21
8.073516034e-23
4.76301855e-22
2.787645309e-22
1.046390159e-21
3.632053729e-21
7.931111017e-21
2.263213648e-20
9.337616662e-21
1.049933787e-21
1.153808266e-20
2.410019748e-21
1.700088482e-22
5.705662768e-21
1.046988699e-21
8.90963596e-21
1.72149846e-21
1.08798762e-20
1.638369704e-21
8.196373776e-21
1.879142509e-21
4.318574454e-21
6.215432811e-21
1.596909743e-23
9.334197073e-23
1.97033786e-21
6.388912072e-21
3.891640538e-21
8.760236606e-21
9.391035465e-22
8.021889761e-21
5.578619715e-21
8.024653337e-21
5.75854134e-22
4.703800933e-21
5.52977386e-21
1.525768201e-20
1.571190425e-21
3.48079578e-21
2.346578662e-21
9.879208253e-22
2.428232362e-21
2.784567199e-21
2.456448079e-21
2.064435895e-21
3.101317619e-21
3.36112534e-21
6.831835839e-22
1.992598208e-21
8.973979162e-22
6.598899478e-21
9.529813215e-21
2.412983848e-20
1.771540524e-21
1.090074114e-20
3.748977267e-21
7.280237705e-22
2.01083514e-21
8.793509001e-21
9.710591497e-21
3.460133069e-21
2.990378627e-21
2.145970624e-21
1.336656915e-20
6.08776509e-21
3.457759081e-21
2.900271549e-20
1.402479774e-21
8.375607869e-22
1.826545739e-21
1.647423744e-21
9.86206964e-22
5.994075369e-21
2.815235427e-21
6.040612092e-21
1.081077711e-22
6.923761355e-23
5.202436576e-21
2.078603768e-21
7.205874042e-22
3.792289344e-21
9.009725551e-21
3.70899176e-21
1.531251327e-22
4.844762835e-21
4.580968196e-21
4.648337734e-21
4.223154197e-22
1.007866579e-20
1.647178833e-21
3.151763904e-21
8.233944355e-23
2.109567306e-22
1.057788761e-20
2.864611257e-22
1.287141226e-20
3.521163157e-21
4.651654978e-21
5.599867986e-21
3.135650592e-21
9.26179627e-21
1.499696218e-21
4.289085284e-21
9.103822595e-23
1.064095896e-21
1.984510703e-21
8.379639925e-22
2.958051086e-22
2.519995494e-21
1.073048852e-21
1.498294553e-21
7.812174483e-21
3.151653661e-21
5.625938335e-22
8.232303443e-21
5.235231554e-21
5.356726833e-22
3.008610139e-21
3.732450128e-21
1.352274306e-21
3.968810669e-21
9.906301556e-22
9.133299576e-22
5.522811755e-21
5.764253228e-21
2.695743247e-22
3.250445923e-22
3.201108255e-21
7.22841153e-22
4.587667643e-21
1.713005351e-20
2.553631896e-21
3.885893179e-22
3.868414803e-21
2.877849477e-22
8.984207118e-21
1.605461867e-21
3.007620526e-21
2.263764182e-20
8.628637129e-21
1.974594386e-21
9.204464017e-22
1.304968874e-20
4.302672483e-22
6.10600668e-22
6.51303623e-21
1.679349858e-21
5.002076949e-21
1.227673878e-22
1.047538556e-21
1.892026062e-20
1.071805093e-21
9.394831317e-21
2.675879551e-21
1.405655552e-21
1.016410421e-21
2.614047049e-21
2.392864531e-21
1.452424797e-21
4.678830134e-21
9.148650862e-22
4.346612996e-21
9.738085914e-21
7.109758694e-21
2.810563956e-22
2.115648479e-21
1.761148715e-21
7.634323796e-22
1.796699809e-21
1.228323184e-21
5.305370542e-21
1.93848104e-20
1.494665515e-21
3.060224492e-21
1.107981301e-21
3.330155772e-21
1.914157105e-20
9.533198489e-21
5.89290551e-21
1.616995316e-20
1.675805807e-21
1.138245788e-20
3.087818086e-21
9.418805037e-21
5.52291875e-21
5.388556901e-21
4.098562842e-21
2.635705957e-21
2.307913717e-21
6.985673012e-21
1.872771763e-20
8.665208842e-21
1.781680622e-21
1.740515326e-21
4.840675516e-21
7.257433717e-21
4.735395197e-21
7.507712787e-22
1.542871496e-22
8.605818176e-23
9.337772097e-21
1.337689429e-20
1.084944254e-22
9.865767979e-21
7.290528549e-21
1.016774434e-20
3.372362183e-21
2.026094014e-20
8.104877907e-22
1.846464774e-21
6.234813558e-21
2.627991731e-21
1.224844727e-21
5.727654393e-22
2.66104384e-21
1.224286858e-20
3.749561832e-22
1.887347967e-21
5.235915318e-22
1.34357647e-21
1.77160216e-21
5.743109815e-21
1.418738757e-21
2.765594468e-22
4.243675744e-21
3.15472e-21
8.132616832e-21
4.249082051e-22
7.678815131e-21
1.127923865e-22
3.838210847e-22
1.643995306e-21
7.082197535e-21
1.137358975e-21
1.439650371e-21
7.524444802e-21
6.135697061e-21
3.449207914e-21
4.438490289e-21
1.742154527e-21
1.107752426e-21
5.957651598e-21
7.062466769e-22
6.136102494e-21
8.129414246e-21
1.648612089e-21
2.925222657e-22
4.601788539e-21
8.918259512e-22
3.509302642e-21
3.397699808e-21
2.418356681e-21
1.104779336e-21
1.884431941e-21
1.196436995e-21
7.040051068e-21
2.909465612e-21
2.879352993e-21
6.193278691e-21
3.450071696e-21
1.603033979e-20
1.616930107e-21
2.519663943e-21
1.032013826e-21
2.215119054e-21
6.220659753e-21
2.460542219e-21
7.664864317e-21
2.665336853e-21
1.28347572e-20
1.875017938e-22
3.102395157e-22
1.241998372e-21
9.879611573e-21
3.282653084e-22
2.051410287e-20
9.09877487e-21
7.629109473e-21
2.019213116e-21
8.704947785e-21
1.157533477e-20
1.065331299e-21
1.968418289e-21
1.236615549e-21
3.445303329e-21
1.86506855e-21
1.149435977e-21
1.296735418e-21
5.32473997e-21
3.409424379e-21
5.657289227e-22
9.668827368e-22
1.179298353e-20
1.068930148e-21
1.384413862e-21
2.044804837e-21
2.570569382e-22
1.822227661e-21
3.446801081e-21
3.882005847e-21
2.598489079e-21
6.739338696e-22
2.611120297e-22
6.695024472e-21
1.007453391e-21
5.063861837e-21
6.638518707e-21
5.411901596e-21
5.771600313e-22
5.245160949e-22
2.74983134e-21
1.504516801e-21
5.06206018e-22
1.522791294e-21
2.830210523e-21
6.414997628e-21
4.205356524e-21
8.823450454e-22
2.129522223e-21
2.849063288e-21
7.090871371e-21
8.575770161e-21
1.608952888e-21
1.763519353e-20
5.233687196e-21
3.299126235e-21
1.320496725e-21
2.614844484e-21
2.034517213e-21
1.366629507e-21
5.768726461e-22
5.987809803e-22
5.482040477e-22
1.426191062e-21
4.329219952e-21
5.145062159e-22
3.734095189e-22
8.432374992e-21
3.868098653e-22
1.796394165e-21
1.400366e-21
6.112030432e-21
2.357983351e-21
4.222297979e-21
8.496770466e-21
1.30456038e-21
2.358344453e-21
2.758207569e-21
3.207092374e-21
3.237728811e-22
2.058623679e-21
1.300035425e-20
6.119774982e-22
3.540434633e-21
9.338860448e-21
5.186060344e-22
1.285276253e-21
3.288258189e-21
2.728223395e-21
5.949514023e-22
4.998399591e-21
8.3967512e-21
1.682837638e-21
8.110856101e-21
1.024026479e-21
1.158686999e-20
2.309699026e-21
2.943199744e-21
1.809688222e-21
1.497442342e-21
1.055846026e-21
8.604973335e-21
3.577487478e-21
1.338686863e-21
1.252411194e-20
1.313540671e-20
1.377197147e-22
5.910379009e-21
4.114682901e-21
8.818726302e-22
6.033469128e-21
1.243780733e-20
5.295025437e-21
3.32854985e-21
2.092621999e-22
8.458059671e-22
5.128957719e-21
2.594105047e-21
3.716722543e-21
6.209244425e-21
1.168326971e-21
3.233966642e-21
4.772699424e-21
3.918631494e-21
3.183454362e-21
5.485798363e-21
4.542022249e-21
3.530448975e-21
9.497534099e-21
5.943160149e-21
3.63078023e-21
4.806766457e-21
7.288687075e-22
6.244500462e-22
6.942901434e-21
3.685019737e-21
3.172011875e-22
4.498943909e-21
7.027799792e-22
9.91663634e-21
4.95263652e-21
6.659661561e-21
2.299273541e-21
3.153576628e-20
4.147415415e-21
3.758251181e-21
2.841218133e-21
2.097242473e-20
5.646756222e-21
5.635251046e-23
1.58940641e-21
8.773192109e-22
5.909481751e-21
1.151936767e-21
3.621943255e-21
1.51563947e-21
3.682392468e-21
2.497731334e-21
1.777239332e-21
6.255805679e-21
3.383831374e-21
5.464804194e-21
6.90480389e-21
2.177250891e-21
6.489489253e-21
1.276293071e-20
6.772798823e-21
3.613222845e-21
8.548520574e-21
1.387252131e-20
9.528156433e-23
6.52025512e-21
5.184223177e-21
1.269485187e-20
2.371612526e-21
1.431124647e-21
9.682645541e-22
1.791608743e-21
2.653798888e-21
1.591417237e-20
4.291164508e-21
1.302564899e-20
1.690428094e-21
7.04306603e-21
3.656034559e-21
1.747522995e-21
1.979990617e-22
2.097332219e-21
3.925669668e-21
5.144123609e-23
1.401619799e-21
5.025816478e-21
2.062663412e-21
2.829953489e-21
7.631182845e-21
5.437775348e-22
1.168008197e-20
1.523905247e-21
5.522440305e-21
1.764223369e-21
1.869102732e-21
9.271325867e-21
2.699237887e-21
1.007499091e-21
4.892670685e-21
1.076925037e-21
5.851380875e-22
2.329664164e-21
5.606188954e-21
1.094738127e-21
8.596663937e-21
3.403032606e-21
6.042124181e-22
4.381224517e-21
4.799933176e-21
8.468562606e-22
8.422425871e-21
2.385455734e-21
6.690322704e-22
7.575915344e-21
3.139236508e-21
2.747502642e-22
4.607391258e-22
1.007759732e-20
7.510682367e-22
3.839852383e-21
5.518819849e-21
1.611285106e-21
4.100973665e-21
8.242257075e-21
2.421299401e-21
1.02680244e-21
6.076335967e-21
2.375926713e-21
1.516380257e-21
6.386563529e-21
1.718780328e-20
1.131086967e-21
5.143170618e-21
2.640227876e-21
6.165999402e-22
1.730554598e-21
4.202308567e-21
4.094161851e-21
1.141365726e-21
2.37187084e-22
3.559570805e-21
4.709093521e-21
8.316855518e-22
1.287755829e-20
2.68713654e-21
1.257038355e-21
1.952902037e-21
4.598316384e-22
2.793432417e-21
7.672339599e-22
4.335821139e-22
1.305204589e-22
3.404720565e-22
1.273766993e-21
5.148628031e-21
8.337074382e-21
9.400147139e-21
6.130331667e-21
8.215112319e-22
3.2302169e-23
5.621182966e-21
1.662597692e-21
1.275561161e-21
1.291927046e-21
1.247842561e-20
7.526168739e-22
5.811469448e-21
6.037087075e-22
1.097556106e-22
5.787679699e-21
5.217262586e-21
1.404029121e-21
3.937172912e-21
1.922896478e-20
2.164908811e-21
3.779857314e-21
8.488292256e-21
9.877747561e-22
8.268228708e-21
1.34204661e-21
1.079986134e-20
4.461546094e-21
3.511121663e-21
2.36601687e-21
6.937398977e-21
3.28519601e-21
8.172855059e-22
4.421647398e-22
2.284148314e-21
1.031449081e-21
1.082734672e-22
2.209187611e-21
2.420522439e-21
6.231181984e-22
5.039049391e-21
1.418340625e-21
8.830314718e-21
2.596412054e-21
2.137541723e-21
3.548196856e-21
1.493798594e-22
3.304528023e-21
1.088117348e-21
1.292991147e-20
1.537821501e-22
1.120555484e-21
9.073225618e-22
5.090802313e-21
5.872610307e-21
7.624213022e-21
8.598358556e-21
7.720690207e-21
7.174331032e-21
7.28507656e-21
6.952355692e-21
1.327341282e-22
1.970910911e-21
2.881539078e-21
2.686121924e-21
1.900108098e-22
5.21881105e-21
8.970515315e-22
5.739092998e-22
3.486870172e-21
2.132743017e-21
1.717998945e-21
6.453130224e-21
8.751552841e-21
1.387480478e-20
3.290835748e-21
1.776499055e-21
2.176621396e-21
7.150035144e-21
1.418865745e-22
1.401322582e-21
1.354405036e-20
6.957975432e-21
5.999339847e-22
6.599496965e-22
6.783339801e-22
5.480528646e-22
7.509810758e-21
1.050108977e-21
3.144296811e-22
5.081254622e-21
4.884245053e-21
2.126934404e-21
2.366300646e-21
3.487794975e-21
8.736401255e-21
1.151377754e-21
6.83877062e-21
5.523960623e-21
9.939177513e-22
1.131128547e-23
1.307302957e-23
1.626943796e-22
1.160332833e-21
3.642068958e-21
1.206570361e-21
7.174749903e-21
1.244386499e-21
2.228894396e-21
9.771285252e-21
5.591403024e-21
6.291979276e-22
3.750460921e-21
1.162671515e-21
3.604676362e-21
9.664320265e-22
4.564530029e-22
6.754352306e-23
6.263882583e-21
2.184673307e-22
7.911127876e-21
1.336244547e-20
5.943305453e-21
3.092403402e-21
1.453894967e-20
9.075270792e-21
6.261889824e-21
3.88177682e-21
9.26270395e-22
1.115829257e-21
2.220300079e-22
1.525184714e-21
1.300442171e-22
1.794957562e-20
5.318632257e-21
4.168843183e-21
2.584317378e-22
7.602742972e-21
3.314667052e-21
1.712385669e-21
1.148261938e-20
3.857231672e-22
3.615950798e-22
5.249332528e-21
1.848807302e-21
2.38042471e-22
2.690679684e-21
1.24253671e-21
5.388147999e-21
1.002731196e-21
1.652978562e-21
3.247703816e-21
2.58411792e-21
2.031020212e-21
9.987172748e-21
3.55431314e-21
2.456720356e-21
6.380470132e-22
4.980038794e-21
5.406925109e-23
6.240539374e-22
6.564318349e-21
2.476151558e-21
9.119079759e-21
2.944982927e-21
3.844729196e-21
5.436306984e-21
6.394329814e-22
6.241918229e-21
1.65862171e-21
6.75047491e-21
2.952538501e-21
4.917499207e-21
9.173556865e-21
8.783061088e-22
1.343321709e-20
5.654448736e-21
9.925776925e-22
6.845062061e-21
5.06634502e-21
1.150896451e-24
1.231105413e-20
3.106282801e-21
5.031576773e-21
8.395709428e-22
2.731279652e-21
1.914179589e-20
7.108817511e-21
8.408522018e-23
4.859719422e-21
1.0215115e-21
2.137841138e-20
4.176381824e-22
3.986525496e-21
9.300353137e-21
1.480054524e-21
3.077217337e-23
3.65091987e-23
3.514004715e-21
4.544337828e-23
2.029311155e-20
1.062857236e-21
3.345367706e-22
2.403277923e-22
8.811565697e-21
3.400184303e-21
2.527518445e-21
7.10229805e-21
8.902060022e-22
1.450910212e-21
1.041868716e-21
1.582373547e-21
1.479020187e-21
1.310775243e-22
2.147682643e-21
9.257201443e-21
2.599157733e-21
2.031723305e-21
3.496738135e-21
6.418162327e-21
3.00696972e-21
6.021776703e-22
3.589746714e-22
4.336161358e-21
2.286679499e-21
2.946539524e-24
2.359006658e-21
4.855852413e-21
4.779802924e-22
5.493739997e-22
9.318932118e-22
1.610247016e-20
9.055875835e-21
1.318149848e-20
3.07483616e-21
1.204738974e-21
8.152642227e-21
1.127876777e-20
2.200244432e-21
2.839114001e-22
9.110419516e-22
5.163079625e-21
4.16473085e-21
1.868750309e-21
5.009434198e-21
3.949648912e-21
5.906070665e-21
4.00202718e-21
5.605219864e-21
1.832404973e-20
2.164066708e-21
2.003896045e-21
6.604484897e-22
3.994615457e-21
1.223372045e-21
4.023371275e-22
5.732601986e-21
1.776305066e-21
1.722446416e-21
1.985003942e-22
9.269527458e-21
1.400792143e-21
4.655554501e-21
3.712492075e-21
4.300656784e-21
1.012925395e-20
1.068176626e-21
3.115695261e-21
8.120091893e-21
5.524060505e-22
3.23894623e-21
2.656390784e-21
1.960052132e-21
2.427201373e-21
5.197780267e-21
4.304112473e-21
2.223590564e-22
2.210423205e-21
4.758832057e-23
2.190725168e-21
7.727443953e-21
9.866172566e-22
5.367799016e-21
7.718202438e-22
2.623335888e-21
5.989365807e-22
9.233688676e-21
9.52104816e-22
9.527774703e-21
2.719492077e-22
2.972352384e-21
1.460645916e-21
2.352655252e-21
2.098783018e-21
4.562308887e-21
3.326152654e-21
5.756465865e-23
8.80106612e-21
2.21300936e-21
1.043194496e-21
1.036769345e-20
7.581536999e-22
2.308671647e-21
5.899789206e-22
3.495496494e-22
4.434536967e-21
2.778727488e-21
5.728767514e-21
4.866721085e-21
2.889057165e-21
1.51080951e-21
4.571164543e-21
1.073879961e-21
9.425995465e-21
1.507448121e-21
9.803085858e-23
4.68602361e-21
5.648373618e-21
1.631332957e-21
1.604528326e-21
6.131353059e-23
4.724772091e-21
3.211898837e-21
1.740646007e-20
9.181333403e-21
2.434330523e-21
6.095638377e-21
1.430409699e-20
6.969273641e-21
8.432025031e-21
5.939215344e-22
2.162377118e-21
6.719649583e-21
8.099960783e-21
5.367232868e-22
1.593567794e-21
7.450893513e-22
6.320040547e-21
1.312336305e-21
2.019010361e-21
2.165045506e-21
8.180518471e-21
7.815737536e-21
7.213232805e-21
1.0793503e-21
3.300653232e-21
1.059250077e-20
3.015658158e-21
1.84925903e-20
1.498563239e-21
2.883767628e-21
3.816219909e-21
1.244251175e-20
1.612996995e-21
3.389981907e-21
1.916839917e-20
8.004565758e-21
2.386727305e-21
5.51470005e-21
1.187671239e-20
1.311535354e-20
2.98722386e-21
3.703710905e-21
1.510175793e-22
2.083604468e-21
3.350879931e-21
1.555642152e-21
6.666206169e-22
3.693809235e-22
1.384055103e-20
3.164211784e-21
2.55981164e-21
5.09784645e-22
2.620678212e-21
3.778295495e-21
8.424995537e-22
4.084736851e-21
6.640724309e-21
7.203700488e-21
2.439377775e-21
7.921835805e-22
2.937652469e-21
1.025485105e-20
2.884300208e-21
1.663826367e-21
6.169767069e-21
1.135872338e-20
8.339644672e-21
1.551178374e-20
4.510197659e-21
2.900859855e-21
5.581350569e-22
6.543220148e-21
3.232219533e-21
6.958437869e-21
2.109924876e-21
5.017901879e-21
1.73447813e-21
7.002601367e-21
1.552213055e-20
1.016888543e-20
1.697936795e-21
7.110785974e-21
7.306832341e-21
1.450154714e-21
2.42337695e-21
1.058641834e-21
2.259830606e-21
4.976530069e-21
6.267033693e-21
2.773245166e-22
3.963708936e-21
1.152880875e-21
1.015375676e-20
1.387955474e-21
2.369069869e-21
5.739101094e-21
5.096930434e-21
1.304806294e-21
3.812746222e-21
2.770351995e-21
1.501012042e-21
8.306793e-21
5.98587991e-21
1.425920713e-21
3.511757739e-21
1.537253829e-20
6.640588481e-21
5.605152585e-22
2.504366599e-21
4.512192335e-22
2.055660694e-21
1.725975499e-20
2.251984767e-21
2.770410902e-21
6.543444576e-21
3.28440272e-21
7.076957234e-22
3.790555928e-21
1.237429959e-20
4.891727567e-21
6.114677521e-22
1.249366469e-21
1.300688262e-21
2.709942218e-22
9.477437744e-21
9.032650561e-22
4.546637925e-21
6.093522858e-22
2.584961353e-21
5.043884725e-21
2.866867186e-21
5.191645519e-21
7.513253991e-21
2.489077822e-21
2.626072697e-21
1.518645422e-21
1.872322684e-21
8.1551671e-21
4.656424541e-21
3.170864822e-22
5.312690364e-21
1.297837866e-20
5.781057952e-22
5.393567391e-22
9.38345493e-22
1.580681325e-21
9.685594797e-23
9.993690713e-21
2.418551848e-21
3.436493831e-21
3.283968587e-22
7.02088768e-23
5.859487032e-21
2.574937992e-21
8.261834165e-22
2.179518657e-21
4.573521185e-21
6.890082382e-21
4.853681186e-21
8.933907186e-22
1.183749494e-22
9.470442966e-21
5.638419686e-22
7.68412772e-21
5.737357481e-21
6.862069002e-21
6.226604778e-21
3.452124805e-21
1.486149789e-21
6.319697612e-21
9.490029687e-21
1.591034204e-20
6.837332638e-21
8.583165754e-21
5.439737348e-21
7.12875853e-21
9.741599474e-23
9.211108174e-21
5.607056459e-21
3.988029017e-21
2.28797636e-21
2.30563625e-21
1.584573778e-21
7.180483379e-21
4.366547198e-22
7.584452627e-21
1.03748317e-20
2.713362352e-21
5.460770308e-24
1.523808572e-20
2.017201901e-21
1.883542941e-22
5.955918728e-21
2.318893852e-21
2.105078897e-21
5.588317195e-21
7.676723614e-22
6.085309683e-21
3.799363702e-21
1.10708069e-20
1.775414502e-21
1.449099465e-21
2.751388722e-21
1.627217719e-21
4.530453379e-21
2.48709036e-21
1.346244609e-21
1.585629216e-20
1.718036884e-20
8.214649992e-21
1.365949841e-21
7.876069257e-23
9.625213994e-22
1.184574483e-20
6.992842245e-21
3.853514401e-21
3.174289952e-21
2.132893172e-21
3.476620846e-21
5.801890131e-22
1.070175246e-21
9.330947093e-21
8.351168291e-21
1.790970574e-21
1.105056806e-21
5.893441172e-21
1.998888987e-21
3.707724685e-21
3.017414674e-21
4.555047333e-21
1.521974781e-21
1.453414948e-21
1.156824162e-20
1.599609887e-21
7.402490899e-21
5.652615073e-21
2.137212934e-21
1.865804951e-20
7.097081555e-22
1.173770493e-20
5.364043521e-21
2.491888745e-21
2.603311434e-21
2.660663337e-22
5.476428988e-21
5.369984256e-23
7.16884878e-22
5.599505803e-21
5.814553373e-22
9.994786731e-22
7.279955008e-21
5.198680473e-21
4.100691663e-21
9.18004012e-22
3.336806647e-21
3.457733133e-21
3.964798518e-21
9.252091554e-23
1.657591484e-21
5.857667873e-21
1.778289939e-22
3.209421072e-21
7.171573947e-21
1.648901222e-22
6.740395513e-22
1.504544264e-20
2.534104505e-21
5.156616736e-21
3.23785165e-21
6.808472771e-21
3.07326152e-21
3.352870256e-22
2.173670761e-21
4.259842383e-21
1.449898125e-21
3.813217815e-21
8.778541144e-21
3.36077319e-21
5.828270527e-21
9.251996689e-22
6.761290356e-22
4.397556189e-22
4.618964247e-21
9.983081893e-22
1.462623895e-20
3.087930356e-21
2.702770601e-21
1.772454825e-21
1.210627592e-21
5.863110114e-21
4.846363127e-21
1.174738205e-20
4.0081374e-21
6.756343972e-23
7.453513948e-23
2.962605182e-22
3.000563335e-21
1.505279063e-21
7.246325568e-21
1.536418711e-21
6.419818404e-21
1.760178275e-21
1.314611384e-23
3.892569091e-22
3.144732594e-21
9.761880487e-21
1.090364782e-21
1.737785085e-20
2.446084419e-21
1.118664746e-21
3.706150845e-21
5.402143848e-21
8.93243497e-21
7.650393941e-22
1.095577712e-21
7.356929348e-23
3.590830256e-21
4.867671912e-21
2.765800399e-21
9.983998534e-23
7.85700721e-21
5.639245309e-21
2.189812423e-21
5.7108001e-21
4.522713764e-22
4.549918162e-21
8.819497585e-22
1.07070884e-20
1.453864981e-21
2.213308621e-21
4.35619704e-22
3.502067197e-21
4.1289587e-21
2.619275115e-21
3.741505511e-21
9.335801492e-22
5.576033355e-23
2.105932739e-21
6.419864251e-21
1.255598706e-20
4.011023861e-21
4.776114262e-21
5.548494667e-21
9.918705261e-21
6.00708928e-21
5.079921307e-21
5.570869102e-22
1.683647505e-21
4.669783e-21
3.20916713e-21
8.074268926e-21
2.157233323e-21
5.632651279e-21
1.712339488e-21
1.18304475e-21
1.383531362e-22
2.463598096e-21
8.020723395e-21
3.501533322e-21
7.950914877e-21
4.079206521e-21
3.268003255e-21
9.024163587e-22
2.234064386e-21
4.671325523e-21
1.707492725e-21
1.370118076e-21
4.690803538e-22
1.501244952e-21
2.417211989e-21
2.628248622e-21
1.219602868e-20
3.99888214e-22
5.2742424e-21
3.534000447e-21
5.828734781e-21
2.946044258e-21
7.087934248e-21
4.75499185e-21
1.330664679e-21
3.237563074e-22
2.284350515e-21
1.266181832e-21
4.749036801e-22
8.592202292e-23
1.202411345e-20
9.680994015e-22
5.807751097e-22
8.918848299e-23
3.899582138e-22
5.094957185e-21
1.162484081e-21
2.734489778e-22
6.73841427e-21
2.290394159e-21
2.473487408e-21
1.563711398e-22
7.639413451e-22
3.533864637e-21
1.290908782e-21
3.906978473e-21
2.721330223e-21
1.112833898e-21
2.819706651e-21
6.850234715e-21
1.384080556e-21
1.731352667e-21
6.079053276e-21
1.596353454e-20
7.625749518e-22
6.376005224e-21
2.756848083e-21
3.883305732e-21
1.229009031e-21
5.2248183e-21
1.740028525e-21
4.620460427e-22
1.85718065e-21
2.853102824e-21
2.652404939e-21
5.868774878e-21
6.700303044e-21
3.490415366e-21
6.870103243e-21
8.317826446e-21
1.544526257e-21
7.706321935e-22
1.031706232e-21
9.614900982e-21
1.350456173e-21
1.049668e-21
1.2358928e-21
2.965447219e-21
4.738589739e-21
6.226458143e-21
3.721008919e-21
3.020132101e-21
3.829305894e-23
6.083580679e-21
3.671651921e-21
1.615984425e-21
9.677973841e-21
8.206005137e-22
6.38734793e-21
7.089542509e-21
1.508242044e-21
3.598544429e-22
2.919016145e-22
5.590471877e-21
1.002159764e-20
1.228368307e-20
1.069461839e-21
1.084708468e-22
7.108166393e-21
1.42523852e-21
1.893108198e-21
4.704172432e-22
2.001607852e-21
4.732273368e-21
7.206398599e-21
6.391554856e-22
1.105153415e-21
6.136740534e-22
2.480281776e-21
4.86892714e-22
8.347959226e-21
4.566128035e-21
1.193305787e-20
3.032671284e-21
1.197584676e-20
5.061107729e-21
2.067288391e-21
5.024236705e-21
6.394874056e-22
1.505144605e-21
1.14891851e-21
7.501126481e-21
3.476262147e-21
2.646071488e-21
9.327088036e-22
1.004995397e-20
1.225741997e-21
3.839850145e-21
6.704848969e-21
8.360386445e-22
1.982843414e-21
1.316968516e-21
1.719833095e-21
9.426717061e-21
2.913023678e-22
1.091083877e-20
3.967053739e-21
1.199206711e-21
2.031503936e-21
4.478105235e-21
3.453668458e-21
9.12564504e-21
1.423073451e-21
9.63784129e-22
4.376928334e-21
1.878859826e-21
8.474536419e-22
6.529968284e-22
1.306670459e-21
7.246483393e-21
6.36337826e-21
1.589582708e-21
7.162933105e-21
3.451648469e-21
2.745366599e-21
1.585044392e-20
9.413123123e-22
1.157219289e-21
1.16993011e-21
1.920296628e-21
1.218878596e-20
5.151046997e-21
7.957427239e-21
1.521723369e-21
1.347767671e-20
6.824844219e-21
7.106522481e-23
2.298894184e-21
3.340272644e-22
7.326645789e-21
3.869596109e-21
5.047748013e-21
6.189449056e-21
3.601748089e-21
5.65006691e-21
7.203436575e-21
1.970876998e-22
2.087274198e-21
4.857216002e-21
1.483440692e-21
4.29512261e-23
9.583791862e-22
3.702058586e-21
2.338401851e-21
6.773444892e-21
1.977956303e-21
7.619373677e-22
6.801213298e-21
3.722046506e-21
4.061820884e-21
1.159150565e-21
4.58773435e-21
8.868087889e-22
2.105423672e-20
1.85739618e-21
2.248088354e-22
2.445308972e-21
5.223367495e-21
1.637928173e-20
1.226794844e-20
4.661259994e-21
3.122299711e-21
2.699765036e-21
4.37095238e-22
7.312624442e-21
7.317333386e-21
4.825370073e-22
9.50438182e-23
2.509713502e-21
4.912263257e-21
2.527365963e-21
2.615931759e-21
6.792397404e-21
8.117628185e-22
8.436437915e-22
1.414720314e-20
1.056939599e-20
7.998923138e-23
4.188452269e-21
2.420598346e-21
6.621288094e-21
3.927252247e-21
7.03697017e-22
1.247933128e-20
1.300493404e-20
1.694290294e-22
5.977803872e-22
6.156846607e-21
5.684837939e-22
2.581316195e-22
1.180719181e-21
3.470128727e-22
2.599817583e-21
8.350037449e-22
1.379760698e-21
4.831957259e-21
3.678161085e-21
9.60155275e-21
5.432860741e-23
3.091782275e-21
2.949210052e-21
4.692945881e-21
1.58712675e-21
3.195501126e-21
3.592715584e-21
3.727153788e-21
3.4881696e-21
1.498761625e-21
3.981483593e-21
2.180660566e-21
1.555227555e-20
2.458675953e-21
8.647090749e-22
1.271635678e-20
6.771350576e-21
5.218702183e-21
6.48154328e-21
1.537797083e-21
5.050794861e-21
1.320938585e-21
1.387798896e-20
4.031047001e-21
1.231184847e-21
4.117190719e-22
2.152949522e-22
1.371662142e-21
9.826387527e-21
6.595509231e-21
6.368755301e-21
9.25320193e-22
1.743542747e-21
2.6740372e-21
9.76916081e-22
1.28398097e-20
6.721062907e-22
1.618105293e-21
1.091763126e-20
4.989485332e-21
8.321825017e-21
6.674344184e-21
3.548446064e-21
1.403194184e-20
1.907242519e-20
2.790307491e-21
8.870169927e-21
5.15407536e-21
3.605086178e-22
4.205863653e-21
5.331258504e-22
1.484170685e-21
2.39098232e-22
3.168418679e-21
8.479749899e-21
3.944571458e-21
2.197600006e-20
4.550825935e-21
2.115097622e-21
7.908930336e-21
6.91131309e-21
1.557620992e-21
3.502709685e-21
4.301018799e-21
2.731117596e-21
1.098003809e-20
6.05143775e-22
2.888648116e-21
1.67124012e-22
6.238856716e-22
8.541220543e-22
1.335503819e-21
1.472861766e-21
6.78696408e-22
4.427431865e-21
3.907838914e-22
2.995008362e-21
3.218409211e-22
1.196241812e-20
9.150895895e-21
1.911781797e-21
7.61071971e-21
3.905513169e-21
3.194132264e-21
8.089631339e-22
2.177953029e-21
3.951481387e-22
3.799040723e-21
1.891591947e-21
9.404684882e-22
3.679097353e-21
3.868506582e-21
1.565532052e-20
2.644617876e-21
7.540078918e-21
4.599136836e-21
1.539053544e-21
5.893844869e-21
5.438128435e-22
2.895081829e-21
2.124632081e-21
1.325926044e-21
1.194477397e-21
1.434175946e-21
3.151983926e-21
1.276873635e-21
6.34903929e-21
6.058538935e-21
1.421465685e-20
1.583812173e-21
1.416573453e-21
1.363828461e-22
1.124404018e-22
2.334323184e-21
1.727761894e-21
1.232769449e-21
7.581872841e-21
2.542680708e-21
5.538760454e-22
2.175640509e-21
2.368288063e-21
5.958202923e-21
4.364655133e-21
4.91524678e-21
2.240605551e-21
1.169584357e-21
2.417923765e-21
2.794105116e-21
3.582707119e-21
2.395334565e-21
8.898294133e-21
5.57547147e-21
1.291331699e-20
1.680841565e-21
1.308119022e-21
5.73308355e-21
1.12890286e-21
1.258449809e-21
1.668484052e-21
4.317227858e-21
6.366280442e-21
1.043106166e-21
2.787246311e-21
3.461103211e-21
1.926921231e-22
2.206252042e-22
9.908797442e-22
1.403340023e-20
2.736814464e-21
1.1695425e-21
2.160433544e-20
3.897636223e-22
1.225917182e-20
4.674491201e-21
7.499699584e-21
1.482119736e-20
4.617887516e-21