/*--------------------------------*- C++ -*----------------------------------*\
| =========                 |                                                 |
| \\      /  F ield         | OpenFOAM: The Open Source CFD Toolbox           |
|  \\    /   O peration     | Version:  2406                                  |
|   \\  /    A nd           | Website:  www.openfoam.com                      |
|    \\/     M anipulation  |                                                 |
\*---------------------------------------------------------------------------*/
FoamFile
{
    version     2.0;
    format      ascii;
    arch        "LSB;label=32;scalar=64";
    class       labelField;
    location    "0.008/lagrangian/dsmc";
    object      origId;
}
// * * * * * * * * * * * * * * * * * * * * * * * * * * * * * * * * * * * * * //


5114
(
346920
347829
348525
348544
348700
348743
348820
348913
348968
348970
349063
349107
349161
349163
349241
349253
349299
349311
349316
349325
349331
349336
349352
406808
349397
349412
349416
349419
349421
349445
407428
349488
349500
349516
349523
349526
349546
349571
349579
349587
349595
349605
349619
349669
349672
349674
349675
349681
349689
349708
349709
349748
349753
349757
349762
349767
349772
349775
349781
349783
349794
349795
349805
349834
349840
349842
349851
349853
349856
349863
349867
349869
349876
349891
349893
349906
408032
349920
349935
349943
349950
349954
349958
349959
349960
349969
349979
349990
349991
350014
350015
350020
350022
350030
350031
350033
350038
350041
350046
350048
350050
350093
350094
350095
350096
350099
350102
350105
350106
350108
350112
350113
350116
350117
350118
350119
350126
350127
350129
350130
350131
350135
350137
350150
350153
350186
350187
350188
350192
350195
350196
350197
350198
350203
350206
350208
350211
350214
350218
350226
350227
350231
350233
350234
350236
350246
350251
350271
350272
350284
350287
350288
350289
350290
350294
350298
350299
350301
350306
350308
350309
350315
350316
350318
350319
350326
350331
350337
350339
350346
408343
350368
350372
350373
350375
350377
350379
350380
350384
350387
350388
350389
350390
350391
350395
350396
350397
350404
350405
350407
350408
350410
350415
350416
350417
350420
350430
350458
350460
350462
350463
350466
350467
350469
350472
350473
350475
350477
350478
350480
350482
350484
350485
350489
350491
350492
350494
350496
350498
350499
350501
350504
350513
350519
350539
350540
350542
350548
350551
350552
350553
350554
350555
350556
350557
350559
350560
350561
350562
350563
350565
350567
350568
350569
350570
350574
350575
350578
350580
350582
350584
350586
350590
350591
350594
350599
350600
350604
350605
350614
350631
350637
350643
350645
350650
350651
350652
350653
350654
350655
350656
350658
350659
350660
350661
350662
350664
350665
350667
350668
350669
350670
350671
350673
350674
350677
350679
350681
350682
350683
350685
350686
350688
350692
350695
350697
350698
350705
350713
350714
350718
350719
350720
350724
350730
350731
350732
350733
350735
350736
350737
350739
350740
350741
350744
350745
350747
350748
350749
350750
350751
350752
350757
350758
350760
350762
350763
350764
350765
350766
350770
350771
350773
350774
350776
350777
350778
350779
350780
350781
350783
350784
350786
350792
350793
350794
350795
408646
408862
408966
350801
350805
350808
350809
350810
350813
350814
350816
350817
350818
350820
350822
350823
350824
350825
350826
350827
350830
350831
350832
350834
350835
350836
350837
350838
350839
350844
350846
350848
350849
350850
350851
350852
350857
350860
350861
350862
350865
350866
350867
350885
350889
350891
350893
350895
350896
350899
350901
350902
350904
350905
350906
350908
350909
350910
350911
350912
350913
350914
350915
350916
350917
350918
350919
350920
350921
350922
350923
350924
350925
350926
350927
350930
350933
350935
350936
350937
350939
350941
350943
350944
350945
350946
350947
350948
350952
350953
350954
350955
350961
350965
350967
350968
350980
350986
350987
350988
350989
350991
350993
350994
350995
350997
350999
351001
351002
351003
351004
351005
351006
351007
351008
351009
351011
351012
351013
351015
351017
351018
351019
351020
351024
351025
351026
351027
351028
351029
351030
351034
351035
351036
351038
351039
351041
351042
351043
351044
351046
351047
351048
351049
407727
351060
351064
351066
351067
351069
351071
351072
351073
351074
351075
351076
351079
351080
351081
351083
351084
351085
351086
351087
351088
351089
351090
351091
351092
351093
351094
351095
351096
351097
351098
351099
351100
351102
351103
351105
351106
351107
351108
351109
351110
351111
351114
351115
351116
351117
351118
351120
351121
351122
351123
351126
351128
351130
351131
351134
351136
351148
351152
351153
351154
351155
351156
351157
351158
351160
351161
351163
351164
351165
351167
351168
351169
351170
351171
351173
351174
351175
351176
351177
351178
351180
351181
351182
351184
351186
351187
351188
351189
351190
351191
351193
351194
351195
351197
351198
351199
351200
351201
351202
351203
351205
351206
351207
351208
351209
351210
351211
351212
351213
351214
351215
351217
351220
351222
351223
351226
408439
408753
409063
409261
351234
351235
351238
351241
351242
351243
351245
351246
351247
351248
351249
351250
351252
351253
351255
351256
351257
351258
351259
351260
351261
351262
351263
351264
351265
351266
351267
351268
351269
351270
351271
351272
351274
351275
351277
351278
351279
351280
351281
351282
351283
351284
351285
351286
351287
351288
351290
351291
351292
351293
351294
351297
351300
351301
351302
351303
351305
351306
351321
351323
351324
351325
351327
351329
351331
351332
351334
351335
351337
351338
351339
351340
351341
351342
351343
351344
351346
351347
351348
351349
351350
351351
351352
351353
351354
351355
351356
351357
351358
351359
351360
351361
351362
351363
351365
351366
351368
351369
351370
351371
351372
351373
351376
351377
351378
351379
351381
351382
351383
351384
351385
351387
351388
351391
351392
351393
351397
351399
409057
351410
351412
351413
351414
351416
351417
351418
351419
351420
351421
351422
351423
351424
351425
351426
351427
351428
351429
351430
351431
351433
351434
351435
351437
351438
351439
351440
351441
351442
351443
351444
351445
351446
351447
351448
351449
351450
351451
351452
351453
351454
351455
351456
351457
351458
351459
351460
351461
351462
351463
351464
351465
351466
351467
351468
351469
351471
351472
351473
351474
351475
351477
351479
351480
351481
351482
351484
351485
351486
409372
350981
351493
351496
351497
351499
351500
351501
351502
351503
351504
351505
351506
351508
351509
351510
351512
351513
351514
351515
351516
351517
351518
351519
351520
351521
351522
351523
351524
351525
351526
351527
351528
351529
351530
351531
351532
351533
351534
351535
351536
351537
351538
351539
351540
351541
351542
351543
351544
351545
351546
351547
351548
351549
351550
351551
351552
351553
351554
351555
351556
351557
351558
351562
351563
351567
351568
351569
351570
351578
351579
351583
351585
351586
351587
351588
351589
351590
351591
351592
351593
351595
351596
351598
351599
351600
351601
351602
351603
351604
351605
351606
351607
351608
351609
351610
351611
351612
351613
351614
351615
351616
351617
351618
351619
351620
351622
351623
351624
351625
351626
351627
351629
351630
351631
351632
351633
351634
351635
351636
351637
351638
351639
351640
351641
351642
351643
351644
351646
351647
351651
351652
351653
351655
351656
351658
351659
409775
409970
351674
351675
351676
351677
351679
351681
351682
351683
351684
351685
351686
351687
351688
351690
351691
351692
351693
351694
351695
351696
351697
351698
351699
351700
351701
351702
351703
351704
351705
351706
351707
351708
351709
351710
351711
351712
351713
351714
351715
351716
351718
351719
351720
351721
351722
351723
351724
351725
351726
351727
351728
351729
351730
351732
351733
351734
351735
351736
351737
351738
351739
351740
351742
351743
351745
351747
351748
351749
351750
351755
351756
351757
409670
409774
351769
351770
351775
351778
351779
351781
351783
351784
351785
351786
351788
351789
351790
351791
351792
351793
351794
351795
351796
351797
351798
351799
351800
351801
351802
351803
351804
351805
351806
351807
351808
351809
351810
351811
351812
351813
351814
351815
351816
351817
351818
351819
351820
351821
351822
351823
351824
351825
351826
351827
351828
351829
351830
351831
351833
351834
351835
351836
351837
351840
351842
351843
351853
351855
351856
351858
351859
351861
351862
351864
351865
351866
351867
351868
351869
351870
351872
351873
351874
351875
351876
351877
351878
351879
351880
351881
351882
351883
351884
351885
351886
351887
351888
351889
351890
351891
351892
351893
351894
351895
351896
351897
351898
351899
351900
351901
351902
351903
351904
351905
351906
351907
351908
351909
351910
351911
351912
351913
351914
351915
351916
351917
351918
351919
351920
351921
351925
351928
351929
351930
351931
409460
409877
351939
351940
351941
351944
351948
351950
351951
351952
351953
351954
351955
351956
351958
351959
351960
351961
351962
351963
351964
351966
351967
351968
351969
351970
351971
351972
351973
351974
351975
351976
351977
351978
351979
351980
351981
351982
351983
351984
351985
351986
351987
351989
351990
351991
351992
351994
351995
351996
351997
351998
351999
352000
352001
352002
352006
352007
352008
352009
352011
352015
352016
352017
352018
352019
352020
410288
352026
352029
352031
352032
352033
352036
352037
352038
352040
352041
352042
352043
352044
352045
352046
352047
352048
352049
352050
352051
352052
352053
352054
352055
352056
352057
352058
352059
352060
352061
352062
352063
352064
352065
352066
352067
352068
352069
352070
352071
352072
352073
352074
352075
352076
352077
352078
352079
352080
352081
352082
352083
352084
352085
352086
352087
352088
352089
352090
352091
352092
352093
352094
352095
352096
352098
352102
352107
352109
352110
409055
409371
410488
352122
352125
352129
352131
352132
352133
352134
352135
352136
352137
352138
352139
352140
352141
352142
352143
352144
352145
352146
352147
352148
352149
352150
352151
352152
352153
352154
352155
352156
352157
352158
352159
352160
352161
352162
352163
352164
352165
352166
352167
352168
352169
352170
352171
352172
352173
352174
352175
352176
352177
352178
352179
352180
352181
352182
352183
352185
352186
352187
352190
352192
352193
352194
352195
352197
408025
408637
409876
352203
352204
352206
352208
352210
352212
352213
352214
352215
352216
352218
352219
352220
352221
352222
352223
352224
352225
352226
352227
352228
352229
352230
352231
352232
352233
352234
352235
352236
352237
352238
352239
352240
352241
352242
352243
352244
352245
352246
352247
352248
352249
352250
352251
352252
352253
352254
352255
352256
352257
352258
352259
352260
352261
352262
352263
352264
352265
352267
352268
352270
352271
352272
352273
352274
352275
352277
352278
352279
352280
352282
352283
352286
352288
408130
409263
352295
352296
352297
352298
352299
352301
352302
352303
352304
352305
352306
352307
352308
352309
352310
352311
352312
352313
352314
352315
352316
352317
352318
352319
352320
352321
352322
352323
352324
352325
352326
352327
352328
352329
352330
352331
352332
352333
352334
352335
352336
352337
352338
352339
352340
352341
352342
352343
352344
352345
352346
352347
352348
352349
352350
352351
352352
352353
352354
352355
352358
352359
352360
352363
352364
352368
410696
352378
352380
352383
352384
352385
352386
352387
352388
352390
352391
352392
352393
352394
352395
352398
352399
352400
352401
352402
352403
352405
352406
352407
352408
352409
352410
352411
352412
352413
352414
352415
352416
352417
352418
352419
352420
352421
352422
352423
352424
352425
352426
352427
352428
352429
352430
352431
352432
352433
352434
352435
352436
352437
352438
352439
352440
352441
352442
352443
352444
352446
352447
352448
352449
352450
352451
352452
352454
352457
352459
352460
409053
409879
352471
352473
352477
352478
352479
352480
352481
352482
352483
352484
352485
352486
352487
352488
352489
352490
352491
352492
352493
352494
352495
352496
352497
352498
352499
352500
352501
352502
352503
352504
352505
352506
352507
352508
352509
352510
352511
352512
352513
352514
352515
352516
352517
352518
352519
352520
352521
352522
352523
352524
352525
352526
352528
352529
352530
352531
352532
352533
352535
352536
352537
352538
352539
352540
352542
352543
352546
352547
352549
410071
352552
352553
352555
352556
352557
352559
352560
352561
352563
352564
352565
352566
352568
352569
352570
352571
352572
352573
352574
352575
352576
352577
352578
352579
352581
352582
352583
352584
352585
352586
352587
352588
352589
352590
352591
352592
352593
352594
352595
352596
352597
352598
352599
352600
352601
352602
352603
352604
352605
352606
352607
352608
352609
352610
352611
352612
352613
352614
352615
352616
352617
352618
352619
352621
352622
352623
352624
352626
352627
352629
352635
352636
352637
352638
352640
352641
352642
352643
352644
352645
352646
352647
352648
352650
352651
352652
352653
352654
352655
352656
352657
352658
352659
352660
352661
352662
352663
352664
352665
352666
352667
352668
352669
352670
352671
352672
352673
352674
352675
352676
352677
352678
352679
352680
352681
352682
352683
352685
352686
352687
352688
352689
352690
352691
352692
352693
352694
352695
352696
352697
352698
352700
352702
352703
352705
352706
352707
352709
352710
352712
352714
352715
352716
408635
410899
411109
352724
352725
352727
352728
352729
352730
352731
352732
352733
352735
352736
352737
352738
352739
352740
352741
352742
352743
352744
352745
352746
352747
352748
352749
352750
352751
352752
352753
352754
352755
352756
352757
352758
352759
352760
352761
352762
352763
352764
352765
352766
352767
352768
352769
352770
352771
352772
352773
352774
352775
352776
352777
352778
352779
352780
352781
352782
352783
352785
352787
352790
352792
352794
407622
410287
411409
352806
352807
352808
352809
352812
352813
352814
352815
352817
352818
352820
352821
352822
352823
352824
352825
352826
352827
352828
352829
352830
352831
352832
352833
352834
352835
352836
352837
352838
352839
352840
352841
352842
352843
352844
352845
352846
352847
352848
352849
352850
352851
352852
352853
352854
352855
352856
352857
352858
352859
352860
352861
352862
352863
352864
352865
352866
352867
352868
352869
352870
352871
352872
352873
352874
352875
352876
352878
352879
352880
352881
352882
352883
352884
352887
352888
352889
352890
409457
410174
410176
352897
352898
352899
352901
352902
352903
352904
352905
352906
352907
352908
352909
352910
352911
352912
352913
352914
352915
352916
352917
352918
352919
352920
352921
352922
352923
352924
352925
352926
352927
352928
352929
352930
352931
352932
352933
352934
352935
352936
352937
352938
352939
352940
352941
352942
352943
352944
352945
352946
352947
352948
352949
352950
352951
352952
352953
352954
352955
352956
352957
352958
352959
352960
352962
352963
352964
352965
352966
352967
352968
352969
352970
352971
352975
352977
352980
352982
352983
352984
409667
409872
411101
352993
352994
352995
352997
352999
353000
353001
353002
353003
353004
353005
353006
353007
353008
353009
353010
353011
353012
353013
353014
353015
353016
353017
353018
353019
353020
353021
353022
353023
353024
353025
353026
353027
353028
353029
353030
353031
353032
353033
353034
353035
353036
353037
353038
353039
353040
353041
353042
353043
353044
353045
353047
353048
353049
353050
353051
353052
353053
353054
353055
353056
353058
353059
353062
353063
353064
353066
353068
353069
408645
409874
410182
350800
410898
353075
353076
353078
353080
353081
353082
353084
353085
353086
353087
353088
353089
353090
353091
353092
353093
353094
353095
353096
353097
353098
353099
353100
353101
353102
353103
353104
353105
353106
353107
353108
353109
353110
353111
353112
353113
353114
353115
353116
353117
353118
353119
353120
353121
353122
353123
353124
353125
353126
353127
353128
353129
353130
353131
353132
353133
353134
353135
353136
353137
353138
353139
353140
353141
353144
353147
353148
353149
353151
353152
353153
353154
353155
353156
410383
353164
353165
353166
353168
353169
353171
353172
353174
353177
353178
353179
353180
353181
353182
353183
353184
353185
353186
353187
353188
353189
353190
353191
353192
353193
353194
353195
353196
353197
353198
353199
353200
353201
353202
353203
353204
353205
353206
353207
353208
353209
353210
353211
353212
353213
353214
353215
353216
353217
353218
353219
353220
353221
353222
353223
353224
353225
353226
353227
353228
353229
353230
353231
353233
353234
353235
353236
353237
353238
353239
353240
353241
353243
353244
353247
353249
408218
409152
411408
411503
353259
353260
353262
353263
353264
353265
353266
353267
353268
353269
353270
353271
353272
353273
353274
353275
353276
353277
353278
353279
353280
353281
353282
353283
353284
353285
353286
353287
353288
353289
353290
353291
353292
353293
353294
353295
353296
353297
353298
353299
353300
353301
353302
353303
353304
353305
353306
353307
353308
353309
353310
353311
353312
353313
353314
353315
353316
353317
353318
353319
353320
353321
353322
353323
353324
353326
353328
353329
353332
353333
353334
353335
353336
353337
353340
410284
410585
410486
353344
353347
353348
353350
353351
353352
353353
353354
353355
353356
353357
353358
353359
353360
353361
353362
353363
353364
353365
353366
353367
353368
353369
353370
353371
353372
353373
353374
353375
353376
353377
353378
353379
353380
353381
353382
353383
353384
353385
353386
353387
353388
353389
353390
353391
353392
353393
353394
353395
353396
353397
353398
353399
353400
353401
353402
353403
353404
353405
353406
353407
353410
353411
353412
353413
353414
353419
353420
353421
353422
409154
409770
411923
353430
353434
353435
353436
353439
353440
353441
353442
353443
353445
353446
353447
353448
353449
353450
353451
353452
353453
353454
353455
353456
353457
353458
353459
353460
353461
353462
353463
353464
353465
353466
353467
353468
353469
353470
353471
353472
353473
353474
353475
353476
353477
353478
353479
353480
353481
353482
353483
353484
353485
353486
353487
353488
353489
353490
353491
353492
353493
353494
353495
353496
353497
353498
353499
353500
353501
353502
353503
353504
353505
353506
353507
353508
353512
353513
353515
353516
353517
353518
353519
353520
409164
410479
410787
353528
353529
353530
353531
353532
353535
353536
353537
353538
353539
353540
353541
353542
353543
353544
353545
353546
353547
353548
353549
353550
353551
353552
353553
353554
353555
353556
353557
353558
353559
353560
353561
353562
353563
353564
353565
353566
353567
353568
353569
353570
353571
353572
353573
353574
353575
353576
353577
353578
353579
353580
353581
353582
353583
353584
353585
353586
353587
353588
353589
353590
353591
353592
353593
353594
353595
353599
353600
353602
353603
353604
353605
353606
410171
410378
410992
353611
353612
353613
353614
353615
353616
353617
353618
353619
353620
353621
353622
353623
353624
353625
353626
353627
353628
353629
353630
353631
353632
353633
353634
353635
353636
353637
353638
353639
353640
353641
353642
353643
353644
353645
353646
353647
353648
353649
353650
353651
353652
353653
353654
353655
353656
353657
353658
353659
353660
353661
353662
353663
353664
353665
353666
353667
353668
353669
353670
353672
353673
353674
353675
353676
353678
353679
353680
353685
353686
410985
411710
412336
352130
353692
353693
353694
353696
353697
353698
353699
353700
353701
353702
353703
353704
353705
353707
353708
353709
353710
353711
353712
353713
353714
353715
353716
353717
353718
353719
353720
353721
353722
353723
353724
353725
353726
353727
353728
353729
353730
353731
353732
353733
353734
353735
353736
353737
353738
353739
353740
353741
353742
353743
353744
353745
353746
353747
353748
353749
353750
353751
353752
353753
353754
353755
353756
353757
353758
353759
353760
353761
353762
353763
353764
353765
353766
353768
353770
353772
407819
409250
409661
410375
410478
410690
410697
411920
412125
353778
353779
353781
353782
353783
353784
353785
353786
353787
353788
353789
353790
353791
353792
353793
353794
353795
353796
353797
353798
353799
353800
353801
353802
353803
353804
353805
353806
353807
353808
353809
353810
353811
353812
353813
353814
353815
353816
353817
353818
353819
353820
353821
353822
353823
353824
353825
353826
353827
353828
353829
353830
353831
353832
353833
353834
353835
353836
353837
353838
353839
353840
353841
353842
353843
353844
353845
353846
353847
353848
353850
353851
353852
353853
353854
353857
353858
353861
353862
353863
353864
353866
353867
353868
408856
409757
411200
411811
353871
353872
353873
353874
353875
353876
353877
353878
353879
353880
353881
353882
353883
353884
353885
353886
353887
353888
353889
353890
353891
353892
353893
353894
353895
353896
353897
353898
353899
353900
353901
353902
353903
353904
353905
353906
353907
353908
353909
353910
353911
353912
353913
353914
353915
353916
353917
353918
353919
353920
353921
353922
353923
353924
353925
353926
353927
353928
353929
353930
353931
353932
353933
353934
353935
353936
353937
353940
353941
353942
353944
353945
353946
353947
353948
353949
351068
411815
411922
411924
412335
353956
353958
353961
353962
353964
353965
353966
353967
353968
353969
353970
353971
353972
353973
353974
353975
353976
353977
353978
353979
353980
353981
353982
353983
353984
353985
353986
353987
353988
353989
353990
353991
353992
353993
353994
353995
353996
353997
353998
353999
354000
354001
354002
354003
354004
354005
354006
354007
354008
354009
354010
354011
354012
354013
354014
354015
354016
354017
354018
354019
354020
354021
354022
354023
354024
354025
354026
354027
354029
354030
354031
354032
354033
354035
409567
411805
412127
412535
354039
354040
354041
354042
354044
354045
354046
354047
354048
354049
354050
354051
354052
354053
354054
354055
354056
354057
354058
354059
354060
354061
354062
354063
354064
354065
354066
354067
354068
354069
354070
354071
354072
354073
354074
354075
354076
354077
354078
354079
354080
354081
354082
354083
354084
354085
354086
354087
354088
354089
354090
354091
354092
354093
354094
354095
354096
354097
354098
354099
354100
354101
354102
354103
354104
354105
354106
354107
354108
354109
354110
354111
354112
354113
354115
354116
354118
354120
354121
354122
354123
408956
409459
410181
411108
409168
412026
412631
354125
354126
354128
354129
354130
354132
354133
354134
354135
354136
354137
354138
354139
354140
354141
354142
354143
354144
354145
354146
354147
354148
354149
354150
354151
354152
354153
354154
354155
354156
354157
354158
354159
354160
354161
354162
354163
354164
354165
354166
354167
354168
354169
354170
354171
354172
354173
354174
354175
354176
354177
354178
354179
354180
354181
354182
354183
354184
354185
354186
354187
354188
354189
354190
354191
354192
354193
354194
354195
354196
354197
354199
354200
354201
354202
354203
354205
411089
411302
411707
411809
407621
412223
354215
354216
354217
354219
354221
354222
354224
354225
354226
354227
354228
354229
354230
354231
354232
354233
354234
354235
354236
354237
354238
354239
354240
354241
354242
354243
354244
354245
354246
354247
354248
354249
354250
354251
354252
354253
354254
354255
354256
354257
354258
354259
354260
354261
354262
354263
354264
354265
354266
354267
354268
354269
354270
354271
354272
354273
354274
354275
354276
354277
354278
354279
354280
354281
354282
354283
354284
354285
354286
354287
354289
354290
354291
354292
354293
354294
354295
354296
354297
354298
354299
354300
354301
354302
354303
410285
411711
412431
412938
354309
354310
354311
354312
354313
354314
354315
354316
354317
354318
354319
354320
354321
354322
354323
354324
354325
354326
354327
354328
354329
354330
354331
354332
354333
354334
354335
354336
354337
354338
354339
354340
354341
354342
354343
354344
354345
354346
354347
354348
354349
354350
354351
354352
354353
354354
354355
354356
354357
354358
354359
354360
354361
354362
354363
354364
354365
354366
354367
354369
354370
354371
354372
354373
354374
354375
354376
354377
354378
354379
354380
354381
354383
354384
354386
354388
354389
354390
354391
410274
412123
352723
354394
354395
354398
354399
354400
354401
354402
354403
354404
354405
354406
354407
354408
354409
354410
354411
354412
354413
354414
354415
354416
354417
354418
354419
354420
354421
354422
354423
354424
354425
354426
354427
354428
354429
354430
354431
354432
354433
354434
354435
354436
354437
354438
354439
354440
354441
354442
354443
354444
354445
354446
354447
354448
354449
354450
354451
354452
354453
354454
354455
354456
354457
354458
354459
354460
354461
354462
354463
354464
354465
354466
354467
354468
354469
354470
354472
354473
410066
411814
354475
354477
354479
354481
354482
354483
354484
354485
354486
354487
354488
354489
354490
354491
354492
354493
354494
354495
354496
354497
354498
354499
354500
354501
354502
354503
354504
354505
354506
354507
354508
354509
354510
354511
354512
354513
354514
354515
354516
354517
354518
354519
354520
354521
354522
354523
354524
354525
354526
354527
354528
354529
354530
354531
354532
354533
354534
354535
354536
354537
354538
354539
354540
354541
354542
354543
354544
354545
354546
354547
354548
354550
354551
354552
354553
354557
354558
354559
354560
354561
354562
354563
354564
409963
352294
352634
413440
354567
354568
354569
354570
354572
354574
354575
354576
354577
354578
354579
354580
354581
354582
354583
354584
354585
354586
354587
354588
354589
354590
354591
354592
354593
354594
354595
354596
354597
354598
354599
354600
354601
354602
354603
354604
354605
354606
354607
354608
354609
354610
354611
354612
354613
354614
354615
354616
354617
354618
354619
354620
354621
354622
354623
354624
354625
354626
354627
354628
354629
354630
354631
354632
354633
354634
354635
354636
354637
354638
354639
354640
354641
354642
354643
354644
354645
354646
354648
354649
354650
354652
354654
354655
354656
354657
354658
354659
354660
354661
354662
354663
409351
410286
411203
411698
352558
412225
352377
413551
354669
354670
354671
354675
354676
354677
354678
354679
354680
354681
354682
354683
354684
354685
354686
354687
354688
354689
354690
354691
354692
354693
354694
354695
354696
354697
354698
354699
354700
354701
354702
354703
354704
354705
354706
354707
354708
354709
354710
354711
354712
354713
354714
354715
354716
354717
354718
354719
354720
354721
354722
354723
354724
354725
354726
354727
354728
354729
354730
354731
354732
354733
354734
354735
354736
354737
354739
354740
354741
354742
354744
354745
354746
354747
410473
410487
410781
352293
354476
354751
354754
354756
354757
354758
354759
354760
354761
354762
354763
354764
354765
354766
354767
354768
354769
354770
354771
354772
354773
354774
354775
354776
354777
354778
354779
354780
354781
354782
354783
354784
354785
354786
354787
354788
354789
354790
354791
354792
354793
354794
354795
354796
354797
354798
354799
354800
354801
354802
354803
354804
354805
354806
354807
354808
354809
354810
354811
354812
354813
354814
354815
354816
354817
354818
354819
354821
354822
354823
354826
354828
354829
354830
354831
354832
410695
410979
411110
412842
413349
354836
354840
354841
354842
354843
354844
354845
354846
354847
354848
354849
354850
354851
354852
354853
354854
354855
354856
354857
354858
354859
354860
354861
354862
354863
354864
354865
354866
354867
354868
354869
354870
354871
354872
354873
354874
354875
354876
354877
354878
354879
354880
354881
354882
354883
354884
354885
354886
354887
354888
354889
354890
354891
354892
354893
354894
354895
354896
354897
354898
354899
354900
354901
354902
354903
354904
354905
354906
354907
354908
354909
354910
354911
354912
354913
354916
354917
354918
354920
354921
354922
354923
354924
354925
354926
409754
411915
352292
413040
413148
354928
354929
354930
354932
354933
354934
354935
354936
354937
354938
354939
354940
354941
354942
354943
354944
354945
354946
354947
354948
354949
354950
354951
354952
354953
354954
354955
354956
354957
354958
354959
354960
354961
354962
354963
354964
354965
354966
354967
354968
354969
354970
354971
354972
354973
354974
354975
354976
354977
354978
354979
354980
354981
354982
354983
354984
354985
354986
354987
354988
354989
354990
354991
354992
354993
354994
354995
354996
354997
354998
354999
355001
355002
355003
355005
355006
355007
355008
410480
352207
412121
355015
355016
355017
355018
355019
355020
355021
355022
355023
355024
355025
355026
355027
355028
355029
355030
355031
355032
355033
355034
355035
355036
355037
355038
355039
355040
355041
355042
355043
355044
355045
355046
355047
355048
355049
355050
355051
355052
355053
355054
355055
355056
355057
355058
355059
355060
355061
355062
355063
355064
355065
355066
355067
355068
355069
355070
355071
355072
355073
355074
355075
355076
355077
355078
355079
355080
355081
355082
355083
355084
355085
355086
355087
355088
355090
355095
355096
355097
355098
355099
408740
408850
413442
409370
413766
413865
355100
355101
355102
355103
355104
355105
355106
355107
355108
355109
355110
355111
355112
355113
355114
355115
355116
355117
355118
355119
355120
355121
355122
355123
355124
355125
355126
355127
355128
355129
355130
355131
355132
355133
355134
355135
355136
355137
355138
355139
355140
355141
355142
355143
355144
355145
355146
355147
355148
355149
355150
355151
355152
355153
355154
355155
355156
355157
355158
355159
355160
355161
355162
355163
355164
355165
355166
355167
355168
355169
355170
355171
355172
355173
355174
355175
355176
355177
355179
355180
408531
409149
410386
411093
411199
412436
412830
413967
355182
355183
355184
355187
355188
355189
355190
355191
355192
355193
355194
355195
355196
355197
355198
355199
355200
355201
355202
355203
355204
355205
355206
355207
355208
355209
355210
355211
355212
355213
355214
355215
355216
355217
355218
355219
355220
355221
355222
355223
355224
355225
355226
355227
355228
355229
355230
355231
355232
355233
355234
355235
355236
355237
355238
355239
355240
355241
355242
355243
355244
355245
355246
355247
355248
355249
355250
355251
355252
355253
355254
355255
355256
355258
355260
355263
408540
408851
412124
412926
413552
409568
413969
355265
355266
355267
355268
355269
355270
355271
355272
355273
355274