/*--------------------------------*- C++ -*----------------------------------*\
| =========                 |                                                 |
| \\      /  F ield         | OpenFOAM: The Open Source CFD Toolbox           |
|  \\    /   O peration     | Version:  2406                                  |
|   \\  /    A nd           | Website:  www.openfoam.com                      |
|    \\/     M anipulation  |                                                 |
\*---------------------------------------------------------------------------*/
FoamFile
{
    version     2.0;
    format      ascii;
    arch        "LSB;label=32;scalar=64";
    class       Cloud<dsmcParcel>;
    location    "0.008/lagrangian/dsmc";
    object      positions;
}
// * * * * * * * * * * * * * * * * * * * * * * * * * * * * * * * * * * * * * //

5114
(
(0.05304522536 0.2556641275 0) 482
(0.07410139436 0.1764573332 1.084202172e-19) 375
(0.06302275785 0.1988979742 0) 404
(0.0755012703 0.2782299627 2.168404345e-19) 515
(0.06011851607 0.2447554318 2.168404345e-19) 473
(0.06473313582 0.2528387564 -8.470329473e-20) 484
(0.03921127073 0.1840271311 3.252606517e-19) 381
(0.04184248645 0.277356454 -2.168404345e-19) 511
(0.0699620141 0.237301893 -2.168404345e-19) 465
(0.06445994774 0.2062255692 1.084202172e-19) 414
(0.04817806794 0.1775852915 -2.168404345e-19) 372
(0.06590596501 0.2866671135 -4.33680869e-19) 534
(0.07526422534 0.1693277787 1.084202172e-19) 365
(0.06461954738 0.2556160036 0) 484
(0.02136848166 0.2497728825 -2.168404345e-19) 478
(0.05800482486 0.1906686066 0) 393
(0.07160646056 0.2680220469 4.065758147e-19) 505
(0.06698656618 0.200993313 0) 404
(0.06695491475 0.1895495679 -1.084202172e-19) 394
(0.05268022174 0.2091977692 -1.084202172e-19) 422
(0.06077276489 0.1667269617 2.168404345e-19) 363
(0.06089951126 0.2226473587 -2.168404345e-19) 443
(0.0661041014 0.1939690366 2.168404345e-19) 394
(0.06785546669 0.1818953652 0) 384
(0.04644590411 0.2162696843 -2.168404345e-19) 432
(0.06126553479 0.1978172903 0) 404
(0.070882906 0.1882674388 -2.168404345e-19) 395
(0.0651672389 0.2369789134 -2.168404345e-19) 464
(0.06125783499 0.2270467266 2.168404345e-19) 444
(0.06367685524 0.2821450128 1.084202172e-19) 524
(0.05092174401 0.2009016696 0) 412
(0.06707776013 0.2080814603 -6.505213035e-19) 414
(0.05503635913 0.2108329905 0) 423
(0.06704684652 0.2119147399 0) 424
(0.07279292793 0.2108528411 -2.168404345e-19) 425
(0.06822874558 0.2302804732 2.168404345e-19) 454
(0.06341837335 0.2799972749 -1.084202172e-19) 524
(0.07607962643 0.177667795 -7.760939379e-20) 375
(0.05225938816 0.1649459852 2.168404345e-19) 362
(0.02379149664 0.193657556 -1.694065895e-19) 399
(0.06853118818 0.1875778882 -4.33680869e-19) 394
(0.05846959836 0.224453529 -2.168404345e-19) 443
(0.07324678326 0.2541096647 -1.355252716e-19) 485
(0.04899493783 0.177482025 0) 372
(0.05521225983 0.2147843603 0) 433
(0.07291358115 0.2006274965 2.168404345e-19) 405
(0.0706329465 0.1831428096 1.626303259e-19) 385
(0.05490167122 0.2118948714 -2.168404345e-19) 423
(0.03854983409 0.2314053637 1.76182853e-19) 451
(0.05310098481 0.2755571806 0) 512
(0.06884746525 0.2988518118 -2.168404345e-19) 545
(0.0416146121 0.1854280222 -4.33680869e-19) 391
(0.07127552124 0.1866200909 0) 385
(0.06141810301 0.2254334948 0) 444
(0.05534446722 0.2459590262 0) 473
(0.04847034196 0.186324175 -5.421010862e-19) 392
(0.07120147176 0.2259613995 2.710505431e-19) 445
(0.05634501935 0.1920487805 -2.168404345e-19) 393
(0.06460558551 0.1964676071 2.032879073e-19) 404
(0.05866768193 0.1836802838 0) 383
(0.07149941652 0.2684238879 1.355252716e-20) 505
(0.05741655156 0.2796640384 0) 523
(0.05630254303 0.2877307516 2.168404345e-19) 533
(0.06926749573 0.1761241549 0) 375
(0.04891304993 0.1875589103 -1.626303259e-19) 392
(0.06799617293 0.1817604043 4.33680869e-19) 384
(0.07152311241 0.1678464549 -1.084202172e-19) 365
(0.05270689702 0.2524251347 -3.252606517e-19) 482
(0.05965192741 0.1926579869 4.33680869e-19) 393
(0.0554105878 0.1709761696 -1.084202172e-19) 363
(0.07322859067 0.192581169 1.626303259e-19) 395
(0.0582424469 0.2218226315 4.33680869e-19) 443
(0.06244885391 0.2720580548 2.168404345e-19) 514
(0.06750752089 0.275401379 0) 514
(0.05717702815 0.2712452069 -3.388131789e-20) 503
(0.03414676835 0.2071286726 2.57498016e-19) 420
(0.04439147295 0.1906605489 4.33680869e-19) 391
(0.06654394861 0.2280228432 2.168404345e-19) 444
(0.07245552616 0.1726360279 -2.710505431e-19) 365
(0.07115916713 0.1726619254 0) 365
(0.06057631935 0.2706627724 -2.168404345e-19) 503
(0.04642429765 0.2145160883 1.084202172e-19) 432
(0.0713836058 0.2402174731 -1.084202172e-19) 465
(0.07299743919 0.2650255122 0) 505
(0.07514111381 0.2102217743 -6.505213035e-19) 425
(0.06507135095 0.2642967616 0) 494
(0.05587629383 0.2811972308 -2.57498016e-19) 523
(0.05944190267 0.2709087815 0) 503
(0.07478781202 0.2772731226 0) 515
(0.03312407897 0.1726161285 -3.252606517e-19) 370
(0.06576450453 0.2413039243 0) 464
(0.01125082772 0.1961622842 1.897353802e-19) 407
(0.06066797537 0.186440887 2.168404345e-19) 383
(0.07553771859 0.1847994261 2.168404345e-19) 385
(0.06028667559 0.2908727872 2.168404345e-19) 533
(0.07387798567 0.25582135 -1.084202172e-19) 485
(0.05997654802 0.2642130799 0) 493
(0.05773310692 0.2334239012 5.421010862e-20) 453
(0.03670612973 0.2138462666 2.168404345e-19) 430
(0.04834941614 0.2164686288 2.710505431e-20) 432
(0.05577990841 0.2436271781 -5.421010862e-19) 473
(0.0661605962 0.2244895628 2.168404345e-19) 444
(0.04748431832 0.2160198841 -5.421010862e-20) 432
(0.06431658417 0.2217273157 -2.168404345e-19) 434
(0.05461482124 0.1957907604 -1.084202172e-19) 403
(0.05920620175 0.1898392759 -3.388131789e-20) 393
(0.05828690502 0.1911663296 -3.252606517e-19) 393
(0.03922952782 0.2306962501 2.168404345e-19) 451
(0.0532300489 0.2736222131 1.084202172e-19) 512
(0.03044427978 0.1929764792 0) 399
(0.05082834049 0.1961917411 -1.084202172e-19) 402
(0.05467521509 0.2286384998 2.168404345e-19) 443
(0.04693067362 0.1706019004 -1.084202172e-19) 362
(0.06269027255 0.2606545792 -1.084202172e-19) 494
(0.03612188783 0.2147698015 2.168404345e-19) 430
(0.0668010899 0.2278965047 6.505213035e-19) 444
(0.06386332317 0.2035060338 1.084202172e-19) 414
(0.05180127223 0.280746571 -2.168404345e-19) 522
(0.04785873187 0.2346187701 -3.252606517e-19) 452
(0.07289416777 0.2407792474 1.626303259e-19) 465
(0.05744131692 0.2523804702 -1.084202172e-19) 483
(0.06103926344 0.2950517769 0) 544
(0.04781210909 0.2188543238 0) 432
(0.07071132939 0.2745745444 -1.084202172e-19) 515
(0.06648876528 0.2887202424 0) 534
(0.06348058831 0.1876324434 1.084202172e-19) 394
(0.05480545491 0.1823558259 -1.829591166e-19) 383
(0.02547214487 0.1696248667 1.084202172e-19) 369
(0.05076955748 0.1725871615 0) 372
(0.074360994 0.2271084528 0) 445
(0.05952932134 0.2712042834 -2.168404345e-19) 503
(0.05571942463 0.1681389746 1.084202172e-19) 363
(0.0407680892 0.1783460673 -3.252606517e-19) 381
(0.04791540098 0.1928022253 1.084202172e-19) 402
(0.0669431712 0.2038264687 0) 414
(0.06287663158 0.2409539311 -1.084202172e-19) 464
(0.0450705156 0.2261208432 2.168404345e-19) 441
(0.05365477715 0.2888368072 -2.168404345e-19) 533
(0.0564368348 0.2374971385 -5.421010862e-20) 463
(0.05729210444 0.2334716037 5.421010862e-20) 453
(0.03848665661 0.2641277009 -2.168404345e-19) 501
(0.06528142925 0.1991723916 0) 404
(0.05540658361 0.268824795 -2.168404345e-19) 503
(0.006137012317 0.2618678899 -2.168404345e-19) 486
(0.06172963277 0.2441037476 -1.219727444e-19) 474
(0.06728934275 0.2729944035 2.168404345e-19) 514
(0.07064627412 0.2492168185 -5.421010862e-20) 475
(0.047625548 0.2387165081 0) 462
(0.06557854474 0.1976563451 1.626303259e-19) 404
(0.07528665073 0.2146294983 0) 425
(0.06435612638 0.2466901741 -2.032879073e-20) 474
(0.06927468576 0.2038442513 0) 415
(0.04485316291 0.2257910589 -2.168404345e-19) 441
(0.06969770102 0.1991679864 2.168404345e-19) 405
(0.03719688028 0.202371126 -2.168404345e-19) 410
(0.0706893941 0.2320194891 1.897353802e-19) 455
(0.01993052416 0.1718933307 -5.421010862e-20) 368
(0.0655731946 0.2068546246 -2.168404345e-19) 414
(0.07074976014 0.1997277153 -6.776263578e-20) 405
(0.07295556599 0.2641500712 -5.421010862e-20) 495
(0.005875345465 0.2024466203 0) 406
(0.06395260086 0.2436215263 -2.168404345e-19) 474
(0.05474585662 0.2742723858 -1.084202172e-19) 513
(0.04689787535 0.1985557711 8.131516294e-20) 402
(0.02966091981 0.2344371123 -4.33680869e-19) 459
(0.07557301476 0.2802551613 -2.168404345e-19) 525
(0.02484249677 0.2357737931 0) 459
(0.07504787083 0.2874855064 0) 535
(0.05045515796 0.2784465907 5.421010862e-19) 512
(0.0569876884 0.2837368874 0) 523
(0.05078322152 0.2223941037 0) 442
(0.07611438305 0.1908994936 -5.421010862e-20) 395
(0.05404759277 0.2291858702 0) 453
(0.06937519644 0.2030775314 0) 415
(0.04296171761 0.1715704218 2.168404345e-19) 371
(0.03399848022 0.2133071384 -2.439454888e-19) 430
(0.07333985851 0.1769312834 1.084202172e-19) 375
(0.02066169978 0.1966795815 1.084202172e-19) 398
(0.06515336417 0.2135922584 1.897353802e-19) 424
(0.04692612092 0.1977974691 -2.168404345e-19) 402
(0.04810933738 0.2411134433 5.421010862e-20) 462
(0.06462103672 0.2246897762 1.490777987e-19) 444
(0.0711510301 0.2379541879 -1.084202172e-19) 465
(0.05492981833 0.2485610735 0) 473
(0.03235387499 0.2090575474 0) 420
(0.01661748951 0.1904901302 -2.168404345e-19) 398
(0.05359530988 0.2207825787 0) 433
(0.04919405367 0.2743141341 -4.33680869e-19) 512
(0.03341031251 0.2617588681 -1.084202172e-19) 490
(0.04129907963 0.2307568994 3.252606517e-19) 451
(0.05405284483 0.2795823294 -2.710505431e-20) 523
(0.06369606213 0.1805958657 -3.252606517e-19) 384
(0.05335917829 0.2113647891 -1.084202172e-19) 423
(0.07445107812 0.2336364007 0) 455
(0.06401124233 0.2528296577 -1.626303259e-19) 484
(0.05637948788 0.2994100888 2.168404345e-19) 543
(0.06020386126 0.2681823826 6.505213035e-19) 503
(0.04963315408 0.2061727163 6.776263578e-21) 412
(0.06697048398 0.1769122411 0) 374
(0.06270699634 0.1739260223 0) 374
(0.07292253536 0.2090761704 -4.33680869e-19) 425
(0.05723057623 0.1936519971 2.168404345e-19) 403
(0.05726420964 0.2376938904 -2.168404345e-19) 463
(0.05293880428 0.1807268542 2.168404345e-19) 382
(0.06014252362 0.1947534826 2.168404345e-19) 403
(0.05955002171 0.1863596486 -2.168404345e-19) 383
(0.0220121864 0.1933963343 2.168404345e-19) 398
(0.05971073563 0.2427297114 0) 463
(0.05990984815 0.2301031782 0) 453
(0.04746565718 0.182792795 4.33680869e-19) 382
(0.03304191888 0.2288843798 -4.33680869e-19) 450
(0.02575705955 0.2441607545 -6.505213035e-19) 469
(0.07592101294 0.2620238014 -2.168404345e-19) 495
(0.04491198909 0.2479950105 0) 471
(0.05642319709 0.2829701662 1.897353802e-19) 523
(0.06020332744 0.232456713 4.065758147e-19) 453
(0.06285309828 0.252681351 -1.084202172e-19) 484
(0.0587479846 0.2416134289 -1.084202172e-19) 463
(0.05861262272 0.232211936 -2.710505431e-20) 453
(0.01736358271 0.2575576811 1.084202172e-19) 488
(0.04501841745 0.2481535891 0) 471
(0.07234319539 0.2841193586 1.084202172e-19) 525
(0.06519366166 0.2828549181 1.084202172e-19) 524
(0.0735945891 0.2920335604 2.168404345e-19) 535
(0.05717307576 0.2032517384 -5.421010862e-20) 413
(0.05917894627 0.1710342274 -6.505213035e-19) 363
(0.02871115233 0.2194620763 -4.33680869e-19) 429
(0.06732778907 0.1829416956 0) 384
(0.04609335781 0.1721688423 0) 372
(0.00577225313 0.1892448199 0) 396
(0.05921255994 0.2151979381 2.168404345e-19) 433
(0.04943326998 0.227954343 -2.168404345e-19) 442
(0.01484338665 0.202539758 -2.168404345e-19) 407
(0.0215190799 0.2272855562 -2.168404345e-19) 448
(0.0642028194 0.200749353 0) 404
(0.07464208922 0.221283847 -4.33680869e-19) 435
(0.05979732321 0.2220694309 4.33680869e-19) 443
(0.06089840741 0.198335277 0) 403
(0.07043661729 0.2382407836 2.168404345e-19) 465
(0.05688836093 0.1739952334 -1.355252716e-19) 373
(0.04673773852 0.207317649 0) 422
(0.07284964739 0.2459772991 0) 475
(0.06337459434 0.20763957 0) 414
(0.07000068635 0.2632171822 0) 495
(0.05359838855 0.2055071929 2.168404345e-19) 413
(0.05344546607 0.2057668507 2.168404345e-19) 413
(0.04439089948 0.2814073371 2.168404345e-19) 521
(0.04676651145 0.223585859 0) 442
(0.04971098546 0.2120949696 1.76182853e-19) 422
(0.07392386605 0.2426998871 -1.084202172e-19) 465
(0.05903650017 0.2288231881 -2.168404345e-19) 443
(0.04732778438 0.2757009601 2.168404345e-19) 512
(0.068087892 0.2456614648 0) 474
(0.06032235374 0.2411403101 4.33680869e-19) 463
(0.04409902916 0.2727596939 4.33680869e-19) 511
(0.07462601272 0.2435283873 -4.33680869e-19) 465
(0.07429747319 0.2309738993 -4.33680869e-19) 455
(0.03941289954 0.2706124702 3.794707604e-19) 501
(0.03178778477 0.2695231141 2.168404345e-19) 500
(0.04357989449 0.2301417761 -2.168404345e-19) 451
(0.06267285076 0.2108273948 0) 424
(0.05960295969 0.1797698359 0) 383
(0.04743936839 0.2105555435 -1.084202172e-19) 422
(0.05178752916 0.2138811837 0) 422
(0.06844741759 0.1735023455 0) 374
(0.07598538112 0.2063897489 4.33680869e-19) 415
(0.02513593063 0.2227435075 -1.084202172e-19) 439
(0.004933334376 0.2080643884 -1.084202172e-19) 416
(0.03623900819 0.1931956323 -2.168404345e-19) 400
(0.04709857981 0.2081189852 2.439454888e-19) 422
(0.03983074753 0.2241437882 -2.168404345e-19) 441
(0.05291589634 0.2633243 -2.168404345e-19) 492
(0.04123245703 0.1779164003 1.084202172e-19) 381
(0.0676243803 0.234573682 0) 454
(0.07017612143 0.227719215 -1.084202172e-19) 445
(0.05898552205 0.2478569098 0) 473
(0.0708509974 0.1977039536 -2.168404345e-19) 405
(0.03769253828 0.2436081551 0) 470
(0.05168957599 0.1862237352 0) 392
(0.04553916636 0.258037151 -4.33680869e-19) 491
(0.06523614566 0.2300060833 4.33680869e-19) 454
(0.06204302527 0.2159098143 0) 434
(0.01907124652 0.2272326897 0) 448
(0.04403351947 0.2795529638 0) 521
(-0.01931456625 0.2403813421 3.523657061e-19) 217
(0.04709282576 0.2768723869 -2.168404345e-19) 512
(0.07517935567 0.2770536333 4.33680869e-19) 515
(0.0426122701 0.244457627 -3.252606517e-19) 471
(0.0712502596 0.2462298243 4.33680869e-19) 475
(0.05034022981 0.233759383 1.084202172e-19) 452
(0.03306225767 0.2478241784 -3.252606517e-19) 470
(0.06445632476 0.2498027657 2.168404345e-19) 474
(0.03386273398 0.2552261652 0) 480
(0.0593853671 0.2762217442 -4.33680869e-19) 513
(0.04089857118 0.2757806109 4.065758147e-20) 511
(0.05119115416 0.2492755652 -2.168404345e-19) 472
(0.06801559135 0.2704522513 2.168404345e-19) 504
(0.04981760428 0.2676900823 -1.219727444e-19) 502
(0.05778632811 0.2086481559 4.33680869e-19) 423
(0.0209316123 0.2336033295 2.168404345e-19) 448
(0.07126717228 0.1826357719 0) 385
(0.06925713212 0.1922898178 1.084202172e-19) 395
(0.07111288463 0.1783521321 2.371692252e-19) 375
(0.0385262491 0.2431511443 5.421010862e-20) 471
(0.03403609002 0.2112347331 4.33680869e-19) 420
(0.06538554447 0.2675493555 -1.084202172e-19) 504
(0.06327570025 0.2006209138 2.168404345e-19) 404
(0.07091502 0.2058854372 0) 415
(0.06974109182 0.1998489807 0) 405
(0.06856792762 0.2042452242 -5.421010862e-20) 414
(0.04276494793 0.197627154 0) 401
(0.06424254854 0.1844260609 0) 384
(0.05893262321 0.2395011658 3.388131789e-19) 463
(0.01940994188 0.2510345705 -1.084202172e-19) 478
(0.02860688478 0.206597231 0) 419
(0.06090106026 0.2460467832 0) 473
(0.05402644069 0.214710805 -2.168404345e-19) 433
(0.05141741444 0.216731349 1.084202172e-19) 432
(0.05278792945 0.2191662449 4.33680869e-19) 432
(0.07294380191 0.2374577156 0) 465
(0.05307612088 0.2019192028 5.421010862e-19) 412
(0.06265379793 0.203294432 0) 414
(0.05897566556 0.2518486326 0) 483
(0.07056275908 0.2097030962 0) 425
(0.01550406265 0.2827923859 1.084202172e-19) 518
(0.04305577272 0.2823595367 1.084202172e-19) 521
(0.06611782054 0.2807138931 2.168404345e-19) 524
(0.04919397328 0.2724082278 2.710505431e-20) 512
(0.06045469765 0.2311667897 2.168404345e-19) 453
(0.06892720139 0.293413665 -6.776263578e-20) 545
(0.07351428451 0.2854962041 3.252606517e-19) 525
(0.06670924633 0.2490035055 0) 474
(0.03824457468 0.2580102455 0) 491
(0.07303837509 0.2952404759 1.084202172e-19) 545
(0.01335161337 0.2407547231 4.33680869e-19) 467
(0.03045947908 0.2615054835 0) 489
(0.0550507557 0.2940140145 2.168404345e-19) 543
(0.05165425261 0.2588372937 -2.168404345e-19) 492
(0.04843166523 0.2530363858 5.421010862e-20) 482
(0.0240796689 0.2756354067 0) 509
(0.05747223373 0.2157170405 0) 433
(0.02306543605 0.2992366698 2.168404345e-19) 539
(0.01150068264 0.2508367928 1.084202172e-19) 477
(0.07584506999 0.2949685817 -5.421010862e-19) 545
(0.05768013334 0.2995284414 1.626303259e-19) 543
(0.05226793376 0.2371441252 2.168404345e-19) 462
(0.07247743275 0.2818335469 0) 525
(0.05764422149 0.1795524766 8.67361738e-19) 383
(0.06875230194 0.1796044033 -2.168404345e-19) 375
(0.02750686958 0.1855469404 0) 389
(0.04139761935 0.1726530902 0) 371
(0.05642810618 0.1924412057 0) 393
(0.0615261265 0.1965817654 -2.168404345e-19) 404
(0.06206107163 0.2107776973 0) 424
(0.03038596748 0.1705802171 0) 369
(0.07519651765 0.2256486389 0) 445
(0.06407329574 0.1750577785 2.168404345e-19) 374
(0.04345912871 0.2034501896 0) 411
(0.0735417427 0.2234773476 2.168404345e-19) 445
(0.01624377188 0.1838918552 1.084202172e-19) 388
(0.06085923101 0.1700744167 0) 363
(0.05779022841 0.2116948815 -4.33680869e-19) 423
(0.05135212501 0.2155121613 0) 432
(0.06994832499 0.1906274983 -2.168404345e-19) 395
(0.06093128389 0.2004717615 -4.33680869e-19) 403
(0.06799035454 0.2126988208 0) 424
(0.05147934405 0.192630133 0) 392
(0.07528970021 0.2018941765 -2.168404345e-19) 405
(0.04770259824 0.1738143106 -3.252606517e-19) 372
(0.03418566995 0.2684150898 -3.252606517e-19) 500
(0.07081868452 0.2347400435 4.743384505e-20) 455
(0.0464871205 0.215230713 5.421010862e-20) 432
(0.06442285818 0.2196353492 0) 434
(0.07091762897 0.2708690676 -5.421010862e-19) 505
(0.06610090836 0.2236036738 2.168404345e-19) 444
(0.06533157504 0.2666698264 1.084202172e-19) 504
(0.006586968341 0.2260822218 0) 446
(0.05518559661 0.2631190375 -3.252606517e-19) 493
(0.05185754422 0.2612719508 4.33680869e-19) 492
(0.05769587333 0.2613142721 1.084202172e-19) 493
(0.04848623926 0.2747714014 -5.421010862e-19) 512
(0.07525789816 0.2494163663 0) 475
(0.07094903831 0.2801557268 0) 525
(-0.004991779698 0.2937298194 -3.252606517e-19) 359
(0.05985200396 0.2722779473 -2.168404345e-19) 513
(0.06832022104 0.2759499377 4.33680869e-19) 514
(0.06190031169 0.2646525532 2.168404345e-19) 504
(0.03589615556 0.2658184354 -3.252606517e-19) 500
(0.06396732984 0.2698652297 1.084202172e-19) 504
(0.06242926069 0.2522686338 -3.252606517e-19) 484
(0.06400601263 0.1793467686 0) 374
(0.01572322942 0.1872128145 0) 388
(0.0658376546 0.2038116506 -2.168404345e-19) 414
(0.006622142364 0.1860941146 -2.168404345e-19) 386
(0.0380319245 0.1780268095 2.168404345e-19) 380
(0.02473210981 0.2120423209 2.168404345e-19) 429
(-0.02570673617 0.1814816416 2.168404345e-19) 56
(0.04031283825 0.1796440254 0) 381
(0.03660001078 0.1955468965 0) 400
(0.04487347653 0.2361782212 0) 461
(0.07603277193 0.2034016775 2.168404345e-19) 415
(0.06121536604 0.2084234966 -3.252606517e-19) 424
(0.07543319879 0.1815451037 2.168404345e-19) 385
(0.05914195041 0.2206033222 0) 433
(0.06087759272 0.2074791261 0) 413
(0.07580599891 0.1908402046 5.421010862e-20) 395
(0.0492928769 0.2163637389 -5.421010862e-20) 432
(0.06248721012 0.1680550071 0) 364
(0.07032868222 0.1724998866 -2.168404345e-19) 365
(0.05602813543 0.2173291011 2.710505431e-19) 433
(0.03138860422 0.1840018193 0) 390
(0.02491184076 0.2356072664 1.084202172e-19) 459
(0.06410480942 0.2300780857 -5.421010862e-20) 454
(0.03773050354 0.2105235403 0) 420
(0.04553426135 0.2325529293 -4.33680869e-19) 451
(0.04467327938 0.186578796 0) 391
(0.05350099581 0.2438864333 -3.252606517e-19) 473
(0.05653793928 0.2366368125 5.421010862e-20) 463
(0.05136805832 0.2509134626 0) 482
(0.02195533782 0.2250445921 -2.168404345e-19) 438
(0.02597573339 0.2121434454 -5.421010862e-20) 429
(0.04890367323 0.2073185889 -5.421010862e-20) 422
(0.02422387623 0.2404401226 -4.878909776e-19) 459
(0.05903026222 0.274961819 4.065758147e-20) 513
(0.07291284023 0.2364149451 -2.168404345e-19) 455
(0.03015372436 0.2616637709 -2.168404345e-19) 489
(0.05859291949 0.2650697288 -4.33680869e-19) 503
(0.07066530328 0.2947606286 3.252606517e-19) 545
(0.0547343755 0.2247028243 4.33680869e-19) 443
(0.04581766302 0.2426724684 -1.490777987e-19) 472
(0.06894216641 0.2568772248 2.168404345e-19) 485
(0.07089061123 0.2593874775 -2.168404345e-19) 495
(0.05728813684 0.2688173578 -4.472333962e-19) 503
(-0.006746780216 0.2557394469 0) 259
(0.0157517938 0.2967503951 -2.710505431e-19) 538
(0.06290758506 0.291771366 -5.421010862e-20) 534
(0.06762927434 0.242385814 0) 464
(0.05625467916 0.2185114972 1.626303259e-19) 433
(0.04855882987 0.2809089623 4.33680869e-19) 522
(0.0378205283 0.2785341328 2.168404345e-19) 520
(0.07537641787 0.2906670182 6.505213035e-19) 535
(0.07435171623 0.2724264155 0) 515
(0.02340983446 0.2922934011 1.626303259e-19) 529
(0.02456057647 0.2290579209 -2.710505431e-19) 449
(0.05155571098 0.2228784716 4.33680869e-19) 442
(0.04703896387 0.1810516202 -2.168404345e-19) 382
(0.05152255485 0.2019692384 -1.084202172e-19) 412
(0.06637730007 0.1736705914 -4.33680869e-19) 374
(0.04866023894 0.1710063101 2.710505431e-19) 372
(0.01047752628 0.1837647697 6.505213035e-19) 387
(0.05143019569 0.2363551735 4.33680869e-19) 462
(0.0328117033 0.1765279662 5.421010862e-19) 380
(0.04959912382 0.1929975886 -2.168404345e-19) 402
(0.03680750077 0.2087880417 -2.710505431e-19) 420
(0.06567645176 0.1806716777 2.168404345e-19) 384
(0.03733053225 0.2014300401 3.794707604e-19) 410
(0.007479007305 0.1968844458 8.67361738e-19) 406
(0.05775582023 0.2390600569 -2.168404345e-19) 463
(0.05913032494 0.2163024175 0) 433
(0.0391890089 0.1857238977 -3.252606517e-19) 391
(0.06443763992 0.2087115583 -1.084202172e-19) 424
(0.05814815851 0.2425473461 -2.168404345e-19) 463
(0.03237434886 0.2401473 -5.421010862e-20) 460
(0.04562298234 0.256363206 -8.67361738e-19) 481
(0.04822954913 0.22793502 0) 442
(0.02713094962 0.2199674569 -2.168404345e-19) 439
(0.02820171224 0.2527004688 2.168404345e-19) 479
(0.04074823107 0.2258957244 -1.084202172e-19) 441
(-0.01123882634 0.2000088666 2.303929617e-19) 98
(0.0594518911 0.235031236 0) 453
(0.07495611247 0.2076165532 0) 415
(0.06251120928 0.2364338482 0) 464
(0.04019625958 0.2370390065 -1.355252716e-20) 461
(0.03206967424 0.2230410431 -4.33680869e-19) 440
(0.05875144082 0.2677355836 -2.710505431e-20) 503
(0.03630397222 0.2420348279 0) 470
(0.04502438784 0.2163700573 3.252606517e-19) 431
(0.04200132155 0.2349829827 1.219727444e-19) 451
(0.07122032321 0.2156655561 -2.168404345e-19) 425
(0.06559658822 0.2214784313 -6.505213035e-19) 434
(0.03472385996 0.2625162838 1.897353802e-19) 490
(0.04922797388 0.2803182796 4.065758147e-19) 522
(0.02664878481 0.2383784035 -4.33680869e-19) 459
(0.06167427566 0.2929205019 -2.168404345e-19) 544
(0.03937453528 0.2823308846 5.421010862e-20) 521
(0.04542566295 0.2644537173 -4.33680869e-19) 501
(0.001875886509 0.265122365 -1.084202172e-19) 496
(0.03582850345 0.2953845174 -1.084202172e-19) 540
(0.07477696704 0.2571402114 -2.168404345e-19) 485
(0.03364290725 0.2925975124 2.168404345e-19) 530
(0.05217317172 0.2920729976 2.168404345e-19) 532
(0.05991295832 0.2211958195 2.168404345e-19) 433
(0.002237816074 0.1866148629 -2.168404345e-19) 386
(0.05283223767 0.1763881314 2.168404345e-19) 372
(0.03538576703 0.1706011467 0) 370
(0.05193814183 0.1998756046 -4.33680869e-19) 412
(0.01681678751 0.2075171448 2.168404345e-19) 418
(0.03227549748 0.180100099 -2.168404345e-19) 380
(0.05826007072 0.211876627 -1.084202172e-19) 423
(0.04795025854 0.2058543298 -2.168404345e-19) 412
(0.06522170854 0.2173405905 2.168404345e-19) 434
(0.06694573209 0.1720113975 2.168404345e-19) 364
(0.02709980377 0.2091184949 8.131516294e-20) 419
(0.05122910986 0.2037171222 -1.084202172e-19) 412
(0.0006869925096 0.2398295504 0) 456
(0.0747980218 0.2395342807 1.084202172e-19) 465
(0.04696483196 0.2110363924 0) 422
(0.0424357678 0.2530720646 -1.372193375e-19) 481
(0.0412172636 0.2437818775 1.084202172e-19) 471
(0.06109926954 0.2107046273 0) 424
(0.04879386004 0.1882377156 1.897353802e-19) 392
(0.02724612855 0.2396529211 -2.710505431e-19) 459
(0.02727392009 0.218721402 -3.252606517e-19) 429
(0.05979212931 0.2286758933 -4.33680869e-19) 443
(0.04277378122 0.2452462606 5.421010862e-20) 471
(0.07158669456 0.2376819804 -1.084202172e-19) 465
(0.06723696064 0.2436802347 0) 474
(0.05688855715 0.2457258859 -1.626303259e-19) 473
(0.02536439259 0.2362145016 -4.33680869e-19) 459
(0.05301150287 0.2066672852 -2.168404345e-19) 412
(0.04994826526 0.2201201184 -5.421010862e-20) 432
(0.05848922728 0.2199475191 0) 433
(0.04094723347 0.2377632797 5.421010862e-20) 461
(0.01756574094 0.2521009875 -5.014435048e-19) 478
(0.0338846627 0.2535764439 -5.421010862e-20) 480
(0.05986042669 0.2552813775 -2.168404345e-19) 483
(0.07014724916 0.2638674741 -2.710505431e-19) 495
(0.06661379908 0.2501596276 -4.33680869e-19) 474
(0.06485879318 0.2361592207 -1.626303259e-19) 454
(0.07218450224 0.2640929411 -2.168404345e-19) 495
(-0.0056678584 0.2516151169 3.794707604e-19) 239
(0.02306850623 0.2510786196 0) 479
(0.07199951564 0.298055203 1.084202172e-19) 545
(0.03712132534 0.2732849284 0) 510
(0.06656132421 0.2556903432 -2.168404345e-19) 484
(0.04697657602 0.2451904189 0) 472
(0.0438843658 0.251634261 -1.084202172e-19) 481
(0.04263660777 0.2526942921 -3.523657061e-19) 481
(0.04490812966 0.2742836098 -1.084202172e-19) 511
(0.06189244643 0.2623061377 -1.084202172e-19) 494
(0.05092780681 0.2886552952 1.626303259e-19) 532
(0.0668470495 0.269264061 2.168404345e-19) 504
(0.05154926059 0.2739100563 0) 512
(0.0379178049 0.2875311837 5.421010862e-19) 530
(0.05202648466 0.2970589927 0) 542
(0.04900828473 0.2669243222 -5.421010862e-20) 502
(0.06734551697 0.2823250236 -2.303929617e-19) 524
(0.06149504481 0.2620199546 0) 494
(0.05787217045 0.2714044606 -2.710505431e-19) 503
(-0.001554190516 0.2231134786 -2.168404345e-19) 159
(0.03263726922 0.1845430926 0) 390
(0.06247063965 0.2081180471 0) 424
(0.05223338482 0.1987597209 0) 402
(0.00769684926 0.2067232171 0) 417
(0.0734336959 0.2707873056 1.084202172e-19) 505
(0.04159320215 0.1715935979 -1.084202172e-19) 371
(0.0644220645 0.1785108035 -2.168404345e-19) 374
(0.008589047201 0.1897686254 -1.084202172e-19) 397
(0.0128026738 0.1992145578 3.252606517e-19) 407
(0.02900374497 0.2163135526 -2.168404345e-19) 429
(0.05484387498 0.1870251448 2.168404345e-19) 393
(0.03699699755 0.2132508609 -2.168404345e-19) 430
(0.03899285248 0.2160066305 2.168404345e-19) 431
(0.06280318455 0.2499388133 -1.084202172e-19) 474
(0.03068205296 0.205024838 8.67361738e-19) 410
(0.03136333137 0.2182658223 2.168404345e-19) 430
(0.01922116133 0.2469916459 -1.355252716e-20) 468
(0.05887176556 0.254296695 -2.168404345e-19) 483
(0.03524672926 0.242648392 0) 470
(0.04544440069 0.2136408384 0) 421
(0.04232567365 0.2410388893 1.084202172e-19) 461
(0.02903666489 0.2827672398 2.168404345e-19) 519
(0.007896667962 0.2415632727 3.252606517e-19) 467
(0.02087605838 0.2198651322 0) 438
(0.002635328257 0.2386905878 3.252606517e-19) 456
(0.05021066681 0.2584495572 0) 492
(0.07222613848 0.2474598465 1.76182853e-19) 475
(0.04999407225 0.2310573289 0) 452
(0.04744045133 0.2465104415 8.131516294e-20) 472
(0.04718527327 0.2607083198 -2.981555974e-19) 492
(0.06918215593 0.2444476305 1.355252716e-20) 475
(0.04282076587 0.2569623633 4.33680869e-19) 491
(0.05182570832 0.2748353043 -1.084202172e-19) 512
(0.03434757469 0.253510912 -2.710505431e-19) 480
(0.04993275099 0.2207329736 -2.168404345e-19) 432
(0.05580650407 0.2813045344 2.710505431e-20) 523
(0.07237670371 0.2590478725 -1.101142831e-20) 495
(0.0360019545 0.2852885382 3.252606517e-19) 520
(0.03723911348 0.2557617092 2.168404345e-19) 480
(0.01023327332 0.2852559209 -2.168404345e-19) 527
(0.05069350232 0.2752035188 0) 512
(0.0387088776 0.2943728567 1.084202172e-19) 541
(0.05030375821 0.2986541065 1.084202172e-19) 542
(0.05448921206 0.2525680624 2.168404345e-19) 483
(0.0428372545 0.2649963272 2.168404345e-19) 501
(0.06926715473 0.2959749539 2.168404345e-19) 545
(0.04146507785 0.2840843739 2.168404345e-19) 521
(0.02936175493 0.2901739847 0) 529
(0.0196174046 0.2682372786 -2.710505431e-19) 498
(0.04981323658 0.2607776495 0) 492
(0.02905505764 0.294026 0) 539
(0.02754193343 0.2887713791 -8.131516294e-20) 529
(0.06981377552 0.2869262951 -2.168404345e-19) 535
(0.02205863606 0.2576638814 -2.168404345e-19) 488
(0.0753141382 0.2653527562 -2.168404345e-19) 505
(0.04950619109 0.2846807824 0) 522
(0.05548014948 0.2583413237 0) 493
(0.06886165189 0.2920765025 0) 535
(0.05016468027 0.198809508 1.626303259e-19) 402
(0.0733052099 0.1820469918 -2.168404345e-19) 385
(0.06330658698 0.2009137679 0) 404
(0.05147913394 0.1849608124 4.33680869e-19) 382
(0.01946326352 0.1821220139 4.33680869e-19) 388
(0.01247855837 0.2012492152 0) 407
(0.0364100396 0.2136606353 2.168404345e-19) 430
(0.03234641783 0.216808273 2.710505431e-19) 430
(0.04950411736 0.1783304042 -6.606856989e-20) 382
(0.02974835281 0.1957278522 -2.168404345e-19) 399
(0.0193391358 0.2264351207 0) 448
(0.0659519627 0.2157644753 -2.168404345e-19) 434
(0.04527913688 0.1912749842 -2.168404345e-19) 391
(0.07523280138 0.2036870826 -2.168404345e-19) 415
(0.03945008642 0.2317336705 3.252606517e-19) 451
(0.03006507875 0.1852217962 -2.168404345e-19) 389
(0.008079753081 0.211417846 8.131516294e-20) 427
(0.04405797411 0.2187429631 0) 431
(0.04076487256 0.2428055829 4.33680869e-19) 471
(0.06614344937 0.233085104 1.084202172e-19) 454
(0.07567715044 0.2094743105 0) 425
(0.04272348075 0.2049332322 -1.626303259e-19) 411
(0.0470528857 0.218587559 -3.252606517e-19) 432
(0.03746417416 0.2308330616 1.084202172e-19) 450
(0.04461062012 0.2381763133 0) 461
(0.07312055497 0.212687675 2.710505431e-19) 425
(0.05150624473 0.2172139719 3.252606517e-19) 432
(0.02140525242 0.1775126339 -1.084202172e-19) 378
(0.07073201843 0.2748784848 1.084202172e-19) 515
(0.07609551982 0.2847122797 0) 525
(0.05091345139 0.2345444166 2.168404345e-19) 452
(0.03044562134 0.2208044367 2.168404345e-19) 439
(0.03873460863 0.238212165 0) 461