/*--------------------------------*- C++ -*----------------------------------*\
| =========                 |                                                 |
| \\      /  F ield         | OpenFOAM: The Open Source CFD Toolbox           |
|  \\    /   O peration     | Version:  2406                                  |
|   \\  /    A nd           | Website:  www.openfoam.com                      |
|    \\/     M anipulation  |                                                 |
\*---------------------------------------------------------------------------*/
FoamFile
{
    version     2.0;
    format      ascii;
    arch        "LSB;label=32;scalar=64";
    class       vectorField;
    location    "0.008/lagrangian/dsmc";
    object      U;
}
// * * * * * * * * * * * * * * * * * * * * * * * * * * * * * * * * * * * * * //


5114
(
(1246.820792 259.1658841 -354.806278)
(1941.219112 -197.2829936 166.2710678)
(1969.783515 -855.6845111 -9.359516849)
(1522.997854 229.5308148 -516.3747354)
(1515.030654 482.5105921 37.9823512)
(1575.949503 435.9832761 -329.3688967)
(1277.099389 -296.3328918 69.12649569)
(1294.060976 -299.5876678 -607.9983109)
(1536.576014 257.8941092 120.6951212)
(1438.35505 -10.36673406 185.7006138)
(1786.097458 635.4266434 121.1022655)
(1596.093861 -63.04780754 -929.4413996)
(1947.00536 72.1507714 -368.0528973)
(1355.172006 -401.8328379 -235.2705388)
(979.9207976 393.9165235 -222.7158505)
(1313.411853 -198.4552965 247.5431416)
(1448.882962 137.4446515 581.9592672)
(1387.467752 297.0696231 98.16411586)
(1618.064977 -65.22927598 136.6844875)
(1704.991885 -392.612496 178.1815503)
(1322.727456 -263.1975475 -270.8256204)
(1259.423731 -278.6803694 230.2339017)
(1601.696555 -923.3886695 -26.97057146)
(1557.151649 -415.954733 -57.38349186)
(1611.959499 -194.4301261 -145.4886092)
(1248.317233 283.9053299 53.99664766)
(1676.006812 -281.1491059 -21.84171793)
(1747.000296 23.53938175 -362.4269002)
(1728.259743 122.3947768 190.4717598)
(1679.382727 -64.89529034 474.743674)
(2151.647947 236.0708533 -451.6563054)
(1843.209473 283.5861302 -101.5586217)
(1630.010753 8.534201418 -17.20898266)
(1809.84481 -39.20612067 509.9273604)
(1246.600222 24.00578998 198.0755599)
(1569.888633 -119.5067396 -116.5635913)
(1569.330117 84.42593712 -149.4396369)
(1338.845512 135.304276 517.9210824)
(1263.800698 -389.8033641 46.98723218)
(1421.882523 111.5631697 -946.1868143)
(1424.048428 30.50020378 -26.33421743)
(1449.412603 43.89457692 461.6150301)
(1905.511295 -31.71925306 -229.9080034)
(1436.485049 -39.46744615 -106.9330768)
(1796.13136 60.8647262 176.2526236)
(1399.930825 -163.6133962 2.984164791)
(1815.736183 271.2143083 -430.8439082)
(1379.24257 185.5022946 -278.5838154)
(1235.93431 477.7850189 61.98337454)
(1677.155888 71.72968881 235.6470853)
(1649.439491 397.3397176 -106.2395073)
(1514.638853 -168.6708249 -485.441668)
(2165.715429 -204.2636366 304.6177053)
(1427.71483 -40.37861724 389.3980545)
(1365.566865 202.4389018 -351.166405)
(1332.206123 -351.2266729 -69.88994899)
(1585.770406 8.765455342 34.62449274)
(1736.971795 -360.1683595 351.679096)
(1633.856014 -246.3352149 -518.2538837)
(1620.265006 -88.37298854 -11.04258871)
(1923.226993 -632.3335348 333.5299159)
(1877.744438 -230.1042979 -208.522399)
(1637.628708 278.4816165 34.78033051)
(1827.220702 -56.21200455 -128.4901894)
(1398.14618 15.26052652 95.15668005)
(1431.39172 400.2527832 -128.9878268)
(1417.873098 -32.88528469 -774.1935556)
(1605.168844 52.52898453 -380.3067767)
(2105.173322 -20.3532231 792.821386)
(1868.704916 -422.2745536 44.21451681)
(1646.086724 59.75585923 375.5041272)
(1666.299769 74.00595339 -160.5469568)
(1580.87385 -71.58094261 23.57794483)
(1295.525417 43.24168317 -52.85506702)
(2081.124977 31.24716723 -76.53336262)
(1841.896559 -310.7737942 -351.4779664)
(1564.197434 -109.0964177 -68.62718358)
(1540.906996 475.5222489 -48.66644157)
(2347.697452 108.8167853 -158.4530531)
(1740.219232 232.676036 -325.3078481)
(1259.766474 536.3918736 -594.5212173)
(1090.689483 -84.71358993 191.4818325)
(1840.758722 457.9944343 -410.7310427)
(1807.742269 274.0840779 66.45694222)
(1618.59721 -359.2485227 414.0807837)
(1468.255292 -160.0197307 -32.70360961)
(1314.497792 440.497595 52.58928673)
(1522.858204 -94.99851203 9.646452132)
(1675.682649 -13.1532755 121.1444942)
(1460.851221 -346.314473 377.7330864)
(1798.937065 -214.807612 -267.5611513)
(1545.06749 -275.5579058 180.5848924)
(1445.558546 317.2940042 -208.721696)
(1406.485549 -571.6656315 546.8812009)
(1466.548764 569.0229681 -85.5716531)
(1651.386163 144.7671673 -113.2482139)
(1375.537432 -61.42027313 202.3120511)
(1463.279899 -486.8627679 2.840430773)
(1545.452968 -31.49195358 -103.8732136)
(1741.476588 -117.9763695 483.6934969)
(1265.671215 -47.92270605 -6.55841118)
(1558.812384 385.9122853 125.8624759)
(1630.736051 430.1681627 -78.0224193)
(2038.637939 77.65266957 40.56149095)
(1409.766119 -54.85366478 227.6169068)
(1209.285401 38.56760123 -72.93868084)
(1771.578442 122.0867055 317.2007563)
(1809.112445 448.1456936 -65.06946338)
(1737.639601 185.857505 -120.7544749)
(1094.666908 -143.4889902 214.3817537)
(1636.939951 523.4657317 -106.044152)
(1448.909211 51.18483226 -646.0144811)
(1244.32945 53.56625498 -365.3606699)
(1546.626394 283.3756182 475.6206901)
(1517.838475 -268.1529949 -135.5929334)
(1309.356635 127.302864 -44.84804927)
(1867.797696 -855.5458646 -341.1524284)
(1653.128083 511.0757474 -41.70362291)
(1073.465468 -36.62347004 132.3873926)
(1298.067579 204.309532 268.0777292)
(1434.968191 62.60993074 122.0329651)
(1578.589109 394.3369137 -417.9751123)
(1390.060164 181.3345913 644.8346648)
(1874.575787 -507.7701115 99.32969692)
(1716.042811 -159.0960307 -164.2582057)
(1534.283473 9.90968585 100.5366925)
(1627.929156 255.2889754 89.84946228)
(1128.511185 -300.5419786 -114.4357646)
(1945.321768 -479.2750216 40.44532197)
(1877.103631 118.6871695 81.22497315)
(1488.824897 -601.7696453 -806.7273455)
(2258.413077 -163.6003508 -48.9543205)
(1348.228803 -376.1846726 -157.9991527)
(1486.83134 295.8319673 -171.8011622)
(1996.569915 -85.53836779 7.534077238)
(1426.781044 87.09083249 -243.6780119)
(1613.672828 30.81291294 216.4108178)
(1496.876906 306.3317484 -178.6583916)
(1502.246388 -126.1824794 -111.3562892)
(1373.307865 333.3863998 318.3057129)
(1385.420784 158.1521318 58.94744642)
(1322.35809 -253.1230853 55.33065011)
(1373.67828 -254.6968541 -19.20523091)
(1416.171973 130.1370834 -1064.549489)
(1644.19327 -63.11519482 110.489501)
(1320.98259 -339.6094799 170.8395464)
(2148.73245 -450.4242915 -618.0483207)
(1961.193269 403.0728325 138.3377064)
(1547.590229 -53.17870646 412.9828254)
(1729.4422 549.5735336 303.7022114)
(1847.537097 -228.4801996 46.94409859)
(1591.971663 37.33780319 132.465389)
(1578.476973 -17.21406059 98.45681708)
(1287.360975 59.76180879 256.5572389)
(1364.386425 -146.1524176 -179.9190272)
(1640.674626 -36.56288258 -109.4885782)
(1522.267931 -460.7772036 37.37188247)
(1862.615229 -244.0238517 212.9874441)
(1572.973014 -146.4745837 156.5339508)
(1708.543012 64.40480593 -91.54354114)
(1496.329186 -72.70297853 520.5764692)
(1630.712992 -128.6188146 14.4263621)
(1639.061657 37.35090511 -359.0326113)
(1663.628379 -198.0628975 -459.3511893)
(1116.0176 64.23235022 -214.9856672)
(1676.877664 -73.71628813 -141.906932)
(1189.935142 -373.8394183 232.8698265)
(1629.629699 -269.3405105 16.66945774)
(2062.016142 -285.5863184 315.3105332)
(1384.185667 -209.5891139 48.26083328)
(1510.876223 203.2484314 -352.0988439)
(2353.025943 65.57620055 -76.07059757)
(1534.576748 299.8992932 -8.75778729)
(1787.1047 82.50895206 215.4422324)
(1938.058816 28.40559585 -283.1087821)
(1710.226062 637.811849 606.6519272)
(1623.620592 -132.6159219 466.3622482)
(1585.724987 564.3932145 -214.6728646)
(1308.855173 424.0590399 -164.4351687)
(1402.53707 -164.8623537 -31.743761)
(1455.12678 204.5729751 421.173173)
(1618.627285 72.47069553 -348.0581073)
(1480.042556 369.2142276 163.6693972)
(1658.775188 -516.8709328 29.13247064)
(1214.94945 -105.1084886 -268.0713544)
(1231.338787 -308.909539 -336.7410602)
(2238.375804 -39.10754126 -204.9790137)
(2007.77998 588.0073916 -107.9151464)
(1972.062443 117.2464845 235.0595383)
(1356.968494 -186.7882377 -208.1178502)
(1373.852456 194.1457603 -119.9301017)
(1635.796118 -580.1604341 473.6223074)
(1698.837507 -408.9621647 -279.6849354)
(1708.248749 -34.3031419 17.47623422)
(1420.957445 60.77853409 113.1299521)
(1680.992627 270.7990751 225.6664629)
(1972.15782 -111.8817866 268.8317015)
(1430.409442 39.53803152 -371.8972724)
(1588.711084 -70.73105565 221.2964987)
(1199.933105 -257.3261911 -424.2492384)
(1403.375534 5.772045433 433.6818618)
(1418.499778 106.4431408 -527.0101535)
(1628.804143 510.049287 -27.02627137)
(842.6115816 -303.4561198 708.7981346)
(2184.368164 106.5887893 -107.052945)
(1886.282593 218.0680435 251.932465)
(1770.586265 -390.3512733 303.9353441)
(2027.85172 -142.4137563 -326.3150227)
(1653.184951 204.0795845 -144.2644644)
(1265.62764 -363.0173679 -1179.915896)
(1586.101208 146.0141886 -36.82835114)
(1735.701358 -377.2707032 -264.944923)
(1777.504709 729.0988186 -91.10755018)
(1583.431811 -137.5018041 477.2437689)
(2033.945819 462.7877399 232.4975899)
(1270.10924 4.62177657 -118.3587149)
(1629.068817 84.45501422 -185.5799345)
(1825.882133 -112.8315314 151.1411955)
(2197.826578 -265.044078 -194.9681715)
(1636.673036 -172.1396295 32.7934398)
(2263.10484 -344.8680799 -261.0745326)
(1853.785081 -99.33991875 -89.95212247)
(1447.671999 -260.9249444 38.48175649)
(1550.985179 312.503133 153.9306694)
(1745.004582 409.5223542 -202.5301534)
(1632.387211 29.00225782 -32.08220152)
(1603.707438 439.3155713 73.92845591)
(1879.426915 94.11003703 305.3805651)
(2083.663056 44.16609533 -31.45723893)
(820.1925801 7.624999672 263.068268)
(1932.990257 -103.393023 227.8417138)
(1609.564267 244.7189776 -122.8591726)
(1101.573375 122.5095076 246.526222)
(1459.160356 115.5403923 -338.3457745)
(1377.031265 249.231114 321.461259)
(1494.027598 -6.785609154 19.02722852)
(1873.858393 286.6932456 600.946072)
(1763.432339 -382.3962601 22.45047446)
(2048.637031 148.6321005 -390.9322475)
(1632.47724 -100.0381353 -207.1857735)
(1765.055479 -126.5102938 -28.21850975)
(1789.89235 382.0056626 470.3861249)
(1680.150386 125.6637895 -347.2656141)
(1862.643401 518.5065618 -264.8782262)
(2030.460753 -152.5044161 -429.694691)
(2193.725256 -346.6626454 86.71020176)
(1766.292233 677.5476266 -264.3214823)
(1641.637829 113.3833862 17.04328391)
(1276.57103 -605.7175989 186.595872)
(1610.082813 98.12307744 -67.3403671)
(1935.808907 199.3713982 440.7040238)
(1497.868266 475.074299 -184.9399852)
(1755.632828 -28.95358341 -365.0734652)
(1734.323915 -235.9739284 -522.6114791)
(1739.879628 -48.59316817 437.0808752)
(1883.117321 57.30701277 -19.47591885)
(1410.452024 -374.9663399 22.79282314)
(1913.345864 -294.6187314 -350.9577107)
(1619.307656 1.300792866 344.6651304)
(1527.718407 -691.0077568 390.9013473)
(1653.990844 380.8191489 49.64606051)
(1657.563311 102.8365358 189.219869)
(1661.415634 175.5575265 -170.9659277)
(1713.582294 -68.69060976 150.4686284)
(1708.791697 -124.4025757 59.23406703)
(1872.353074 -94.69803946 378.7944703)
(1788.415992 -21.07915985 -571.0071747)
(797.2861667 494.1094445 -45.86424189)
(1745.814058 1.909966531 342.1700097)
(1447.853232 319.8389427 -308.142503)
(1292.43637 -611.696684 681.9287206)
(1420.40668 280.7107887 -251.4862465)
(1545.537147 -494.6184824 153.6653334)
(1746.383971 31.09816365 -268.4432369)
(1417.084894 188.8406822 598.0597756)
(2130.041829 -274.3633638 177.5130752)
(2197.150574 9.809487099 176.4736678)
(1623.232699 155.1046134 205.5395554)
(1948.961728 -447.8327799 -127.0895055)
(1298.093299 476.4737146 178.6962242)
(1670.51255 -41.02954104 175.1291656)
(2260.077898 594.6622931 71.82145515)
(1406.086631 222.9336532 226.154059)
(2005.564249 191.7431155 -412.4845753)
(808.9324048 -165.8568837 304.1240273)
(1750.510267 -31.87982059 -25.05197215)
(1769.884526 228.7244442 -384.3103374)
(1266.298334 -215.5205273 -271.8823905)
(1811.654994 166.4257852 281.0484999)
(1777.162753 -112.9874451 -231.3929487)
(1428.627326 73.32454126 458.2929194)
(1953.367965 -335.3801026 -92.09844192)
(1753.291247 -25.71284976 248.9231546)
(2609.488717 224.2522572 -128.9719186)
(2594.909084 -745.1573539 250.861318)
(1355.833959 -137.4294087 429.0962453)
(1992.35428 611.7411729 70.06568758)
(1590.061716 34.03201706 -353.5834334)
(1925.368005 361.7272515 108.6530953)
(1802.705737 232.9806037 612.4571952)
(1833.151693 -5.298717129 -66.06272584)
(1656.464852 308.7655737 -212.6972483)
(1758.991313 350.086288 203.3947723)
(1491.210893 438.7393495 491.0607807)
(1870.208022 -268.9305635 -1013.548367)
(2140.373334 474.9087591 -460.2380772)
(1633.812717 -105.4465721 -366.6009771)
(2070.637296 -107.3145882 -604.5822652)
(1806.538266 -115.0500204 -144.1769144)
(1965.11854 496.3631375 -504.1516897)
(1280.564648 112.1044269 165.0190129)
(1938.230823 -384.0532823 -7.92839015)
(1608.515732 178.5319502 -67.43606481)
(1342.997671 348.0866995 -263.8182313)
(1735.523279 143.495986 -334.6066403)
(1840.865597 239.7843134 -121.0221338)
(1310.105545 -397.5238274 162.2180598)
(1558.617638 346.4502727 124.306842)
(1814.05616 -253.0559697 358.5785039)
(1338.224464 80.51779754 5.586614645)
(1998.027062 -289.7450205 42.32536725)
(1646.611732 166.5250442 27.87588947)
(2235.257139 82.41312521 -311.5304791)
(1725.435977 71.30427141 -211.7355364)
(1499.643852 17.61398101 -505.2757831)
(1994.003396 236.2933597 -18.83224113)
(1473.966716 311.638399 361.5452344)
(1424.709645 14.77129175 -21.59717115)
(1247.719924 -640.0026412 474.7731883)
(1564.403396 389.5564413 -166.281841)
(1954.435951 130.1791626 -362.9929438)
(1840.329416 -558.0231749 -221.723235)
(1338.759824 621.6666022 172.3779966)
(1563.349076 -328.4141997 304.1045732)
(1625.978193 -415.2171316 -263.8094154)
(1474.834509 -70.90616909 539.882559)
(1833.838695 160.1027833 275.5679225)
(2139.279177 838.2504095 226.6180478)
(1507.996403 -465.8934399 116.7050919)
(1503.344027 -51.7630902 637.29478)
(1428.06474 117.6616412 -56.03940946)
(1323.494095 179.423563 78.80682545)
(1038.417174 92.71190038 57.00464145)
(2144.934084 353.6427187 104.617567)
(1488.488228 200.9570397 76.43295366)
(1749.648339 -534.6390436 75.13356482)
(1297.540865 -350.8703339 90.14530311)
(1457.648605 -261.3789986 54.6901919)
(1683.710379 3.038828062 -104.3111321)
(1675.884866 118.3488315 -145.7520472)
(1537.653795 185.2535434 -102.0813586)
(1229.829903 486.7285638 498.1948936)
(1732.299857 183.3843652 -200.1608826)
(1846.21323 194.9696373 62.87161429)
(1547.978167 236.5022691 276.6248813)
(1953.233502 36.38244305 -27.75318884)
(1943.975243 -113.8060796 356.6154515)
(1654.98572 -0.7573016282 -208.6144564)
(1361.445018 412.7947289 -85.66767705)
(886.943149 -67.35162091 458.4656216)
(1661.285385 -213.5069929 -57.47646596)
(1881.127546 608.2684703 8.939274829)
(1625.308027 404.3328685 -10.36005171)
(1981.025587 -339.1911675 -578.1805189)
(1510.351738 417.327552 -581.9216763)
(1711.144367 -112.8122127 -57.90537878)
(1408.398299 -219.4977906 574.5976528)
(1605.589152 58.73090657 359.4143547)
(1962.998762 -281.1297821 213.1641307)
(1490.848027 258.3488104 -79.10160121)
(2059.780089 -93.92573012 -115.8773058)
(1814.725444 107.8123086 -388.041466)
(2068.703504 -19.01524685 3.365883634)
(1857.333861 292.2468939 79.04834105)
(1848.34404 -181.2380371 -237.0590085)
(2088.782868 663.5684993 398.5159088)
(1324.287235 100.0722788 -18.24107235)
(1742.687533 163.5533422 -622.6179958)
(1615.855071 94.52971962 -333.5351286)
(1409.41178 -338.4051833 -221.6766788)
(1692.213977 601.3491529 310.8370303)
(2110.406345 83.44246952 51.98093396)
(2026.911613 174.9334192 -166.2340135)
(1856.514398 -161.308427 -68.33994471)
(1155.382991 -146.127276 -519.8632252)
(1806.086312 -32.03008004 -105.4760732)
(1991.472859 -239.4559265 -288.4684209)
(1566.919979 -105.728163 -578.2027377)
(1711.719236 -463.393438 -113.2024017)
(1323.523335 -218.4694387 285.6149402)
(1469.830832 -314.3143684 267.5073799)
(1179.08083 393.6758772 -92.07628032)
(1764.314597 411.1442819 47.92249226)
(1475.646872 -42.26917483 -117.8236679)
(1530.500807 318.0013641 263.6974491)
(2089.132261 5.502109892 110.7114383)
(1516.704756 -314.5553994 -38.34610565)
(2006.419433 63.16387634 164.1780926)
(1515.821495 -273.886025 424.2257262)
(1736.239213 383.3050589 -61.90384806)
(1800.468883 205.1649905 77.46830686)
(1797.425079 -10.46620945 -118.3347303)
(2164.092353 50.49997594 257.7895729)
(1403.084064 209.6120622 -246.9820197)
(1917.552277 44.17360832 -135.8076897)
(1582.335304 -129.2545016 207.5711663)
(1435.374779 -304.2755688 89.6117026)
(1443.994787 -278.7035747 -112.1360037)
(1739.4898 -703.5841253 -473.8736595)
(1228.289898 -288.8010933 -358.065129)
(1229.747743 -470.1164615 68.34773068)
(1830.786573 448.6717654 -59.19500982)
(2616.710389 -98.08711266 278.0576531)
(1595.002382 -157.5314293 92.70712219)
(1558.384742 86.01743341 -307.2347726)
(2098.44057 -198.0318061 -255.4659197)
(1350.460467 126.5368249 252.8298386)
(1745.05027 1.026481182 439.6837166)
(1868.64653 152.7169079 -185.6596555)
(1629.350841 -94.69015194 146.2279226)
(1134.879256 -361.005474 -550.9974494)
(1619.04055 -408.0431643 -164.7400571)
(1116.426915 246.654122 -237.467926)
(1868.867665 56.92512637 -251.0515081)
(1893.033837 -96.43512999 -289.9254717)
(1474.165197 112.0101568 27.61643075)
(1982.041256 -22.42735668 73.13099966)
(1946.877235 241.6244316 348.9467753)
(1910.385391 -296.4413212 -350.8072586)
(1658.645905 -246.2632592 -721.1941987)
(1605.25301 307.2490485 -132.3625843)
(1952.554969 -316.9817748 -3.47893868)
(2165.705906 -208.0492127 -101.6650879)
(1581.45853 -242.0247365 18.08850651)
(1853.091774 119.7273883 -183.3632297)
(1967.087046 -41.99617409 337.5600726)
(1527.657539 -653.6635243 -75.23010026)
(2218.303365 -440.3160417 113.7039798)
(1517.801226 70.41192995 -279.8868122)
(1703.79826 -138.1326764 259.2478935)
(1913.502618 278.3176414 89.44058095)
(1848.786554 -163.8612557 -147.0491566)
(1512.150178 -187.2242772 214.9467848)
(1210.746889 383.2993205 304.118998)
(704.6801161 742.8478578 501.5796168)
(1731.749997 193.2118975 262.1760135)
(1580.009301 262.4328787 -49.81203165)
(1996.912228 467.5046618 297.5587843)
(1317.080711 -458.6794819 -251.4796318)
(1352.374758 75.43807574 -3.575543821)
(1744.794803 397.7433869 -369.3914941)
(1553.914994 -214.8821664 433.5763068)
(1525.665682 77.85338584 676.4195866)
(1766.773751 131.7109861 19.95732211)
(1631.90323 80.30111214 -346.6981592)
(1832.481766 685.7695848 442.2202563)
(1240.240014 -279.7755059 -229.097156)
(1370.547116 273.6261145 237.9921971)
(2116.891671 -207.2700983 -204.6654757)
(1797.491773 -168.8007128 -7.683701584)
(1871.620247 -63.02526122 -352.9069007)
(1204.46499 -209.6970079 -225.2389065)
(1466.291397 -48.71969086 -240.5594528)
(1819.039578 197.2463478 -357.8410663)
(1796.258188 43.16169711 -49.82298814)
(1640.640786 -521.0043009 266.0415875)
(1673.978467 -389.4802136 433.2358571)
(1760.505643 243.5924882 113.2727503)
(1326.629128 -524.9806255 709.336605)
(1693.554608 -99.24090308 -251.8985166)
(1862.651017 -614.1813262 -92.1018083)
(1825.834521 89.79344386 186.0609228)
(1957.580858 15.79624284 -146.2919659)
(1325.317679 221.9272414 -276.8603446)
(1810.510102 152.0292178 -83.42857253)
(1469.510151 24.2284397 -50.85782776)
(1990.610537 -490.5478038 -72.53034992)
(1750.289335 204.0548877 -654.3989303)
(1845.809349 -569.7248628 -262.9100309)
(1984.778874 -424.1782314 -448.5363)
(1573.235254 6.879547054 62.35080054)
(1359.373076 311.6078584 77.69816229)
(1808.027826 13.425435 490.4753912)
(1880.761916 165.7692633 355.482517)
(1613.715935 -54.90045493 -84.12065189)
(1764.247438 9.393949681 287.3895467)
(1145.27141 -29.8498294 34.51022582)
(1323.466317 151.4353202 264.8391513)
(2215.576816 -182.6682385 -93.17748862)
(1505.169315 105.8712489 331.0637185)
(1818.660301 -47.94745211 24.50539872)
(1405.852388 481.919519 214.0970509)
(1370.685209 51.55257334 101.427865)
(1723.727726 -273.33935 -242.1227241)
(1780.633496 -72.96827202 -420.2497125)
(1505.769301 212.2231798 -451.8359127)
(1917.009918 146.8454005 -570.5059296)
(1150.964294 -330.6389524 122.745332)
(1024.270304 -59.51235444 472.587039)
(1674.55277 236.3884475 290.5976858)
(1710.734679 395.4524759 -319.54201)
(2053.944519 76.8072917 23.75249905)
(1866.112311 328.6683866 -685.2875327)
(1670.331202 164.9742471 17.46213717)
(1051.30184 602.067825 -265.1212265)
(1814.004477 -52.62852017 745.3307788)
(1972.401721 345.4109008 166.306988)
(1811.745773 543.7821485 -521.158975)
(1892.765848 171.0757556 -503.5192997)
(1805.027542 -175.134051 84.56292492)
(1807.151412 -26.93377172 -357.6086115)
(2173.968406 596.4892629 -492.4087406)
(1617.138926 226.6890806 -198.2565017)
(1411.595701 632.3749856 7.25499315)
(1842.643314 -347.6120665 292.4496705)
(1600.240325 107.6293016 159.8322657)
(1548.788169 61.47472225 -283.3807865)
(1646.626507 -4.090849782 -289.5756335)
(1466.815564 54.67460845 560.9063671)
(1764.282133 -283.7320853 305.1217601)
(1743.531545 9.597300144 105.5614583)
(1604.690541 -586.7928432 2.309089876)
(2223.414016 -388.6431872 -92.26850333)
(1715.383026 263.0031507 -600.2388822)
(2214.285994 -185.9072777 48.9292025)
(2133.535455 354.4256693 182.0625168)
(2085.799018 516.5361792 505.8914516)
(2001.011722 140.0422822 38.71695142)
(1830.041534 163.6711783 -62.49676767)
(2006.99494 -221.2940844 -421.425492)
(1040.423316 -211.7338987 416.5189121)
(1372.818338 416.813547 -161.8816898)
(1767.930262 397.0118911 241.7451603)
(1228.286549 105.402571 184.2177861)
(1764.174911 388.2635336 90.06511846)
(1803.625591 -370.4788812 252.8331848)
(1666.461552 -238.0395936 135.9423027)
(1887.754075 97.98707708 -83.63912195)
(1618.475331 -180.4187697 132.1875865)
(1628.576921 -346.5390355 118.6049813)
(1602.552885 201.3448399 472.0667486)
(2023.591062 -270.64416 69.06750996)
(1076.467567 359.8620391 400.4948329)
(1418.747808 311.1309665 86.97136957)
(1907.287114 195.9238806 102.1844771)
(2183.229883 687.8997971 375.2601969)
(1953.725256 -134.3296482 371.1135813)
(984.3663964 -7.427071885 -76.38942272)
(1204.19666 261.3215919 256.9042796)
(1059.149331 202.7670701 -26.00416372)
(1548.579092 -15.36578016 -22.7072383)
(2230.980196 310.0430082 79.51634331)
(1681.881657 -341.2515719 130.6195441)
(1422.35734 230.6689239 357.2142768)
(1655.754388 856.2281095 -520.791723)
(1546.593686 -463.5268061 -15.76430689)
(2133.582566 -374.3021185 75.25665554)
(1562.690911 356.2694289 111.4987768)
(1952.74851 119.9018249 -896.7188145)
(1448.102331 68.63321312 -392.5327086)
(1887.540828 -261.2169032 58.73170902)
(1626.143336 -9.459361126 375.202905)
(1822.785163 312.3304749 386.4850186)
(1506.34036 533.5525199 62.84056193)
(2081.212793 -464.8424462 -490.0080764)
(2181.12214 115.1584621 -415.5574729)
(1747.751881 399.8867422 8.85592911)
(1466.496836 684.8340002 -209.7831734)
(1604.003295 204.9995825 91.26784136)
(1605.202032 -425.4780966 -12.35108255)
(2179.02698 343.0863218 -892.4154411)
(1895.710028 380.6444928 265.2436539)
(1266.631666 324.1581656 -317.621881)
(1463.034889 -185.4472349 -250.6514467)
(1249.530659 -431.378938 174.1694102)
(2241.275059 -374.9831108 134.5087796)
(1777.930569 -75.10495988 -223.4393858)
(1153.346599 114.3543163 328.5042502)
(1832.418897 -63.17151469 -39.99483119)
(1830.387726 619.5372479 98.55005853)
(1929.256065 166.3109159 -73.80252298)
(1681.261768 65.20205063 -58.57151318)
(1651.180224 -116.9721682 -169.6832011)
(1139.182873 -1149.341858 224.4239268)
(1640.296677 -278.1850908 285.8680012)
(1513.002093 -81.57903454 671.113792)
(2217.392309 -93.90072007 -71.23863141)
(2114.371288 46.7441027 -414.7342373)
(1525.626745 46.92823927 -138.9116511)
(1179.73254 582.0284839 272.8043597)
(1821.039412 115.3597475 -51.46914021)
(1482.57229 -266.7184047 -177.0933406)
(1359.18259 125.5735995 -262.2669347)
(1784.569537 19.07031703 -216.8342958)
(1471.410833 -774.2468957 -259.5387022)
(1951.931974 497.0803423 -202.2855075)
(1617.099436 -226.4713615 -327.0167353)
(1376.641208 88.04296725 111.8432411)
(1453.673768 78.42303965 -58.896287)
(1635.028414 -361.4246971 -1033.490224)
(1897.518026 -48.85548706 516.7288968)
(2155.307296 170.1172673 112.4957997)
(1917.457502 -72.58802193 -286.0931504)
(1945.967852 -481.9738051 -871.6690052)
(2192.62012 -243.7097583 -291.8380618)
(1433.485178 138.8426237 -332.223263)
(1859.406933 -320.468907 -237.013336)
(1563.620864 -46.13053654 -11.68973025)
(1412.038232 306.0539808 40.94383679)
(1361.067458 -446.1254377 -284.0302097)
(2038.653686 -88.63641232 -635.0167939)
(1652.826948 43.48622066 -48.8808398)
(2183.090459 33.36989084 528.7621384)
(1308.130798 69.39389217 13.67446468)
(1478.675167 428.218166 169.5266323)
(1614.571685 229.5974246 -876.5146796)
(1528.869248 -141.3246317 -480.9455597)
(1579.040858 106.8794137 155.4277552)
(1692.490513 351.5740723 154.7664505)
(1994.994742 509.5932009 -266.1584771)
(1668.771029 -38.91037926 -734.3856955)
(2214.007117 -119.256872 112.7544769)
(1857.05292 185.2169979 -241.4153139)
(1630.170292 90.77880006 12.55901205)
(1517.463955 -79.07862527 -6.50719632)
(2162.06041 296.7042438 61.78387956)
(1985.608739 310.4255998 74.07706191)
(1966.729382 -25.33642506 379.9639422)
(2155.998028 259.3004508 -164.8415681)
(1718.981755 -433.6437147 234.0793022)
(1747.00898 -203.4166174 162.1595441)
(2077.152056 -767.159824 -113.9926294)
(1469.156887 169.0705377 -288.1200495)
(2363.974929 91.37909915 130.350579)
(1938.508465 -38.65594453 -558.9201083)
(1567.033768 -438.7707355 -111.7098904)
(2021.854247 410.2875683 -70.4966065)
(2008.856415 122.3658736 336.7435727)
(1731.997971 28.93892547 -37.80196899)
(1592.622338 -289.3004302 0.8088649039)
(1540.517983 702.1918146 -38.80012218)
(1592.068182 575.1325487 165.5383543)
(1904.003609 -778.8185774 -330.5614854)
(1791.085799 -84.9641178 -353.229998)
(1559.165351 297.8709021 45.46152661)
(1262.606436 -113.603675 309.3906072)
(2064.198522 -19.75837103 419.4512004)
(1736.216365 502.517486 497.1472606)
(1286.480331 -364.2359567 263.9658312)
(1851.982761 171.0170985 452.964609)
(2171.116923 213.2185003 -301.5250169)
(1478.591159 37.12338471 -619.2401202)
(1650.691319 -385.2313403 -354.3030675)
(1609.996365 552.027022 -243.5456479)
(2222.001784 -75.98474217 436.5653618)
(2316.117954 55.23145677 -329.0488434)
(1899.775786 -179.4262053 -52.88699759)
(1426.884746 -312.2685884 305.5365354)
(1728.553752 148.8313546 57.11193997)
(1872.228578 -65.87694293 43.55236932)
(1486.222237 95.72168492 168.900994)
(1934.835205 -39.33202569 -570.2684844)
(1762.047384 -387.9482606 -413.456762)
(1698.390419 -212.9337978 310.8253938)
(1990.259982 459.9266888 -23.49130734)
(1900.822284 246.6798535 264.7451983)
(2021.209793 226.637052 -20.14375459)
(1841.58486 50.45538959 -262.7866022)
(1594.156017 -141.4724956 -61.95667645)
(1406.937031 -191.6620744 -575.1127718)
(1919.666472 43.33319748 194.3452185)
(2089.991973 173.5422234 -145.2095919)
(1581.538167 -78.16315398 -588.5001286)
(1895.818855 125.7766618 107.9837856)
(1686.47952 465.9359079 472.2294287)
(1792.035244 71.88792636 -263.6610286)
(1928.766933 -224.1810779 3.806196997)
(1776.763484 -2.282846521 -349.6524385)
(1674.520995 -71.09754682 -410.6920446)
(1793.331027 -304.3531723 89.32727156)
(2042.282184 73.31006454 -100.4988567)
(2028.301504 -450.1201952 315.1620771)
(1520.306698 -658.1236888 -567.6602041)
(1926.904255 -49.7160741 70.66974899)
(1709.694355 -187.7759886 -135.2246947)
(1526.838162 -68.50849619 139.180092)
(1862.478211 -382.6568607 219.8723214)
(1473.627429 285.466764 -145.8459888)
(1371.279101 -57.04332865 268.7017919)
(1951.329767 -330.1968363 -33.87514121)
(1666.714494 562.5383569 55.47835837)
(1212.367495 -399.8310281 -129.5984276)
(1450.895779 -96.84854797 -76.37346289)
(1196.267191 49.10780073 -22.73679601)
(1906.630309 -515.1066448 688.5875281)
(1921.198453 -13.33671424 -221.1277397)
(1552.604397 -125.8769142 -274.535266)
(1478.611059 335.4862964 64.71980171)
(2119.195133 -290.2886728 -275.0168384)
(1530.910811 -172.6443173 -176.4007976)
(1710.27226 -25.75615986 -138.5773565)
(1616.911984 -2.214750837 -338.0164177)
(1625.919868 -104.9884039 -730.3098502)
(1494.853441 281.1440832 206.3180412)
(1890.9825 159.2259575 684.2358189)
(1786.710471 427.5382337 -141.6697604)
(1544.068012 -537.6095083 -111.3111757)
(2088.32371 -418.4432325 236.9169256)
(1380.579227 92.24874564 -193.1666226)
(1678.501707 60.54503397 378.6081947)
(1606.008126 -97.02697745 -164.9056256)
(1575.115857 -141.2130491 95.34980111)
(2079.166687 68.24953623 -175.6308423)
(2056.794628 76.06446641 65.93713404)
(1915.341458 -145.9284313 -328.8646039)
(1809.29795 -1.37868092 231.6751275)
(1533.099761 346.3073848 -209.2105488)
(1545.049863 -23.3815048 -91.52361431)
(1410.239345 299.1472061 83.74625106)
(1744.578492 466.5788235 202.4524516)
(1607.782756 98.88970305 -601.1306937)
(1801.836724 -262.4213836 86.05386867)
(1450.825812 65.45651525 108.2491865)
(2026.263078 36.40346476 319.6729025)
(2092.399175 -41.6916508 252.7168429)
(2076.65453 658.2675776 -185.8189014)
(1511.784371 -31.83978815 24.30369787)
(1655.044487 394.8741522 -334.8272339)
(1802.615722 132.051754 425.2580533)
(1352.21695 127.6915796 -94.38359643)
(1628.747047 -95.74348356 12.80220738)
(1409.892614 716.9912668 -58.00160793)
(1460.590085 268.2042407 127.2773937)
(1409.322019 -463.7831601 66.46666426)
(1969.899194 343.2440453 -118.8872295)
(1689.142392 413.3719679 215.8112716)
(1169.768881 248.8095493 -90.59056441)
(1463.306074 79.66050661 -359.9720956)
(1387.257244 -233.8698588 -73.10054833)
(1423.151005 440.9149445 11.4268453)
(1713.373758 522.2953721 244.4827014)
(1523.527669 94.56383339 39.40837956)
(1612.487829 258.4573239 39.11473118)
(1623.613318 -358.4040115 19.31534139)
(1790.17647 -308.3938385 -184.3529415)
(1974.746173 264.4519647 104.0865588)
(1833.048811 -96.60744794 -231.5973727)
(1441.445521 262.6584958 772.2846987)
(1894.476486 223.9267228 499.4043148)
(1816.280733 -425.5489224 324.0560284)
(1470.876125 -668.5826673 361.0288104)
(1468.635055 -25.09857817 45.79666113)
(1911.820523 117.6815663 -374.0984628)
(1546.048674 322.6452815 -547.3544972)