/*--------------------------------*- C++ -*----------------------------------*\
| =========                 |                                                 |
| \\      /  F ield         | OpenFOAM: The Open Source CFD Toolbox           |
|  \\    /   O peration     | Version:  2406                                  |
|   \\  /    A nd           | Website:  www.openfoam.com                      |
|    \\/     M anipulation  |                                                 |
\*---------------------------------------------------------------------------*/
FoamFile
{
    version     2.0;
    format      ascii;
    arch        "LSB;label=32;scalar=64";
    class       volScalarField;
    location    "0.001";
    object      dsmcRhoNMean;
}
// * * * * * * * * * * * * * * * * * * * * * * * * * * * * * * * * * * * * * //

dimensions      [0 -3 0 0 0 0 0];

internalField   nonuniform List<scalar> 
654
(
7.282
9.492
9.572
9.576
9.536
9.656
9.554
9.724
9.59
9.446
9.386
9.524
9.304
9.488
9.478
9.65
9.554
9.622
10.024
13.072
7.34
9.466
9.634
9.532
9.636
9.728
9.792
9.764
9.558
9.574
9.624
9.676
9.8
9.61
9.668
9.642
9.882
10.116
10.838
12.272
7.334
9.49
9.65
9.676
9.626
9.71
9.802
9.748
9.794
9.766
9.766
9.816
9.65
9.598
9.79
9.786
9.776
9.738
10.288
11.38
7.568
9.6
9.536
9.464
9.322
9.194
9.188
9.346
9.412
9.368
9.452
9.468
9.836
9.796
9.754
9.792
9.926
10.326
10.528
11.318
7.402
9.504
9.42
9.556
9.56
9.58
9.512
9.41
9.376
9.452
9.468
9.572
9.648
9.738
9.78
9.862
9.986
10.146
10.204
10.668
7.488
9.498
9.634
9.632
9.6
9.604
9.616
9.662
9.86
9.908
9.838
9.776
9.574
9.572
9.546
9.558
9.71
9.912
9.984
9.912
7.352
9.692
9.744
9.626
9.782
9.81
9.906
9.726
9.678
9.646
9.554
9.554
9.674
9.594
9.484
9.488
9.592
9.518
9.736
9.954
7.494
9.594
9.61
9.734
9.74
9.65
9.778
9.772
9.956
9.75
9.648
9.604
9.562
9.598
9.848
9.92
9.81
9.878
9.832
10.016
7.358
9.558
9.54
9.558
9.482
9.44
9.54
9.468
9.37
9.438
9.706
9.738
9.596
9.498
9.246
9.312
9.412
9.522
9.54
9.654
7.492
9.526
9.606
9.51
9.546
9.544
9.48
9.408
9.432
9.394
9.484
9.528
9.684
9.642
9.736
9.67
9.646
9.494
9.536
9.664
7.474
9.542
9.576
9.6
9.592
9.49
9.484
9.512
9.584
9.462
9.524
9.45
9.61
9.56
9.594
9.584
9.72
9.76
9.886
9.764
7.492
9.756
9.77
9.542
9.556
9.684
9.662
9.59
9.722
9.658
9.604
9.58
9.544
9.472
9.55
9.536
9.654
9.798
9.63
9.868
7.45
9.532
9.522
9.55
9.658
9.784
9.75
9.684
9.562
9.634
9.7
9.472
9.7
9.762
9.766
9.868
9.902
9.786
9.804
9.602
7.496
9.552
9.666
9.758
9.606
9.53
9.462
9.45
9.314
9.31
9.274
9.396
9.384
9.314
9.402
9.216
9.178
9.28
9.252
9.364
7.32
9.642
9.662
9.534
9.61
9.816
9.848
9.944
9.948
10.024
9.944
9.79
9.85
9.78
9.746
9.526
9.59
9.58
9.35
9.44
7.504
9.51
9.52
9.556
9.476
9.528
9.64
9.658
9.822
9.666
9.668
9.582
9.478
9.486
9.55
9.592
9.514
9.61
9.654
9.52
7.544
9.734
9.74
9.958
9.854
9.762
9.738
9.638
9.492
9.558
9.664
9.672
9.838
9.878
9.762
9.834
10.022
9.964
9.822
9.566
7.434
9.558
9.582
9.624
9.668
9.716
9.768
9.804
9.69
9.766
9.58
9.404
9.54
9.456
9.556
9.486
9.668
9.604
9.668
9.866
7.436
9.65
9.766
9.546
9.508
9.562
9.46
9.572
9.748
9.734
9.698
9.862
9.614
9.72
9.728
9.682
9.638
9.628
9.852
9.802
7.342
9.62
9.746
9.924
9.93
9.97
9.876
9.808
9.852
9.978
9.95
9.884
10.262
10.3
10.22
10.206
10.228
10.246
10.152
10.3
7.45
9.49
9.564
9.642
9.496
9.646
9.524
9.618
9.66
9.674
9.844
9.724
9.646
9.578
9.76
9.71
9.804
9.626
9.786
9.68
7.446
9.654
9.586
9.41
9.584
9.506
9.594
9.576
9.706
9.648
9.572
9.776
9.652
9.66
9.618
9.57
9.588
9.68
9.482
9.382
22.802
26.872
26.958
27.622
27.468
27.894
27.152
27.068
26.056
27.432
15.582
18.946
20.348
22.16
22.556
22.366
22.584
23.244
23.582
23.282
12.794
14.928
17.12
17.958
19.32
19.764
20.42
21.34
22.336
21.874
11.948
13.444
14.212
16.226
16.498
17.422
18.144
19.166
19.41
19.762
10.998
11.868
12.774
13.898
15.024
15.362
16.374
16.712
17.52
19.062
10.22
10.824
11.698
12.222
12.786
13.524
14.284
15.214
15.76
16.516
10.068
10.382
11.124
11.798
11.75
12.264
13.188
13.78
14.51
15.256
10.236
10.272
10.126
10.664
10.99
11.266
11.814
12.654
13.352
13.916
9.782
9.928
10.11
10.222
10.8
11.134
11.246
11.77
12.484
12.78
9.788
9.818
10.166
10.268
10.108
10.506
10.72
11.058
11.17
11.606
9.984
10.02
9.97
10.036
10.156
10.126
10.092
10.256
10.466
10.722
9.728
9.76
9.612
9.426
9.438
9.742
9.98
10.022
10.122
10.4
9.584
9.626
9.592
9.442
9.332
9.378
9.52
9.668
9.73
10.186
9.408
9.394
9.418
9.682
9.59
9.57
9.438
9.44
9.66
9.558
9.47
9.566
9.496
9.468
9.512
9.56
9.772
9.814
9.648
9.548
9.754
9.76
9.56
9.478
9.51
9.194
9.402
9.292
9.44
9.62
9.554
9.476
9.298
9.13
9.17
9.198
9.292
9.408
9.282
9.394
9.81
9.676
9.802
9.918
9.864
9.748
9.572
9.57
9.548
9.558
9.802
10.092
9.866
9.838
9.836
9.718
9.572
9.352
9.16
9.214
10.02
9.93
9.706
9.42
9.47
9.378
9.35
9.604
9.418
9.524
9.632
9.418
9.374
9.446
9.378
9.31
9.24
9.124
9.054
8.94
9.39
9.378
9.138
9.172
)
;

boundaryField
{
    flow
    {
        type            calculated;
        value           nonuniform List<scalar> 
42
(
7.282
7.34
7.334
7.568
7.402
7.488
7.352
7.494
7.358
7.492
7.474
7.492
7.45
7.496
7.32
7.504
7.544
7.434
7.436
7.342
7.45
7.446
7.282
9.492
9.572
9.576
9.536
9.656
9.554
9.724
9.59
9.446
9.386
9.524
9.304
9.488
9.478
9.65
9.554
9.622
10.024
13.072
)
;
    }
    obstacle
    {
        type            calculated;
        value           nonuniform List<scalar> 10(22.802 26.872 26.958 27.622 27.468 27.894 27.152 27.068 26.056 27.432);
    }
    frontAndBack
    {
        type            empty;
    }
    procBoundary0to1
    {
        type            processor;
        value           nonuniform List<scalar> 
21
(
26.592
23.992
21.726
18.998
19.314
17.412
15.792
14.932
13.216
11.772
11.186
10.83
10.202
9.694
9.832
9.416
9.49
9.43
9.396
9.42
8.89
)
;
    }
    procBoundary0to2
    {
        type            processor;
        value           nonuniform List<scalar> 
31
(
7.42
9.574
9.646
9.654
9.618
9.59
9.472
9.444
9.356
9.404
9.33
9.434
9.412
9.416
9.462
9.32
9.216
9.228
9.294
9.268
9.066
9.002
8.94
9.1
8.986
8.95
9.276
9.178
9.284
9.066
9.17
)
;
    }
}


// ************************************************************************* //
