/*--------------------------------*- C++ -*----------------------------------*\
| =========                 |                                                 |
| \\      /  F ield         | OpenFOAM: The Open Source CFD Toolbox           |
|  \\    /   O peration     | Version:  2406                                  |
|   \\  /    A nd           | Website:  www.openfoam.com                      |
|    \\/     M anipulation  |                                                 |
\*---------------------------------------------------------------------------*/
FoamFile
{
    version     2.0;
    format      ascii;
    arch        "LSB;label=32;scalar=64";
    class       volScalarField;
    location    "0.001";
    object      dsmcSigmaTcRMax;
}
// * * * * * * * * * * * * * * * * * * * * * * * * * * * * * * * * * * * * * //

dimensions      [0 3 -1 0 0 0 0];

internalField   nonuniform List<scalar> 
654
(
5.150501324e-16
6.583265e-16
6.108646134e-16
5.715320798e-16
5.242374926e-16
5.259493627e-16
5.689299653e-16
5.89499305e-16
5.648504202e-16
5.498380984e-16
5.945007609e-16
5.345686466e-16
5.261003832e-16
7.435956121e-16
7.142083027e-16
8.133144452e-16
7.861222285e-16
8.292305946e-16
7.915909854e-16
8.32748699e-16
5.086779993e-16
5.570949844e-16
5.97946086e-16
5.492594396e-16
5.753562569e-16
5.22531448e-16
5.62467627e-16
5.636405963e-16
6.098132619e-16
5.94196257e-16
5.449792332e-16
5.563627443e-16
5.951043064e-16
6.598478855e-16
8.091481748e-16
7.124005114e-16
7.891737829e-16
7.778558803e-16
8.526199285e-16
8.125469546e-16
6.211151892e-16
6.113459007e-16
5.531523743e-16
5.475329516e-16
5.40843228e-16
5.874383565e-16
6.33175897e-16
5.540710556e-16
5.393133807e-16
5.603644805e-16
5.468772961e-16
5.519201639e-16
5.294341895e-16
6.371740571e-16
5.874382155e-16
7.794195787e-16
8.299317758e-16
7.742653219e-16
7.830718919e-16
8.23793436e-16
5.778627389e-16
5.180712623e-16
5.189035921e-16
5.311853048e-16
5.443502784e-16
5.358833823e-16
5.350404729e-16
5.823061711e-16
5.357390559e-16
5.875758281e-16
5.176006358e-16
6.052524311e-16
6.616815679e-16
5.56080901e-16
8.464675765e-16
7.136272456e-16
8.128549506e-16
7.727555622e-16
8.263434663e-16
8.054373094e-16
5.402442228e-16
5.638989759e-16
5.991898638e-16
5.626555824e-16
5.297979191e-16
6.289510285e-16
5.355396913e-16
5.522097523e-16
5.394048656e-16
5.578260822e-16
5.332127652e-16
5.562409839e-16
6.162829031e-16
8.146214203e-16
7.82038388e-16
7.551668782e-16
7.485669308e-16
7.758408337e-16
7.980318079e-16
7.454696804e-16
5.77710403e-16
5.97280081e-16
6.021965344e-16
6.021965344e-16
5.245837244e-16
5.905984515e-16
5.80583041e-16
5.850730453e-16
6.382477667e-16
6.988811651e-16
5.984243034e-16
5.431787894e-16
5.424542878e-16
5.911586132e-16
7.616743157e-16
8.188798544e-16
8.461044521e-16
8.011641301e-16
7.80522726e-16
8.388548759e-16
5.380823812e-16
5.689453161e-16
5.81776871e-16
5.738371716e-16
5.681101381e-16
5.582191494e-16
5.633473138e-16
6.111687575e-16
5.785326516e-16
5.675490909e-16
6.37474548e-16
5.844787798e-16
5.560575175e-16
5.531902896e-16
5.713308264e-16
6.615250447e-16
7.158232061e-16
6.788366206e-16
7.402883301e-16
7.535352832e-16
6.165851427e-16
5.515052893e-16
5.555851165e-16
6.180258642e-16
5.611097285e-16
5.757474427e-16
5.69401544e-16
6.088945174e-16
5.753337139e-16
5.659115203e-16
6.081993247e-16
5.489361557e-16
5.467178142e-16
5.611539752e-16
6.161260705e-16
6.5181888e-16
6.084164416e-16
6.80574026e-16
7.059833454e-16
7.533283439e-16
5.454241715e-16
5.466362855e-16
5.460544219e-16
5.38065558e-16
4.844862778e-16
5.900314281e-16
5.690620939e-16
6.073390027e-16
5.078248108e-16
6.131575238e-16
5.686682988e-16
5.619772707e-16
5.442599071e-16
7.75620383e-16
5.278588303e-16
7.435631247e-16
5.915443237e-16
6.703934069e-16
7.162611412e-16
7.371682195e-16
5.488059882e-16
5.346493971e-16
6.0170559e-16
5.79197418e-16
5.510040262e-16
5.652455075e-16
6.103039303e-16
5.401486304e-16
5.412824359e-16
5.526409208e-16
5.416203275e-16
7.740123766e-16
7.18589553e-16
8.668127552e-16
6.225176343e-16
6.581486151e-16
5.71003928e-16
5.896786081e-16
5.987336514e-16
6.760840209e-16
4.879638979e-16
5.735701826e-16
5.664621923e-16
5.637183587e-16
5.399068622e-16
6.117969708e-16
5.87008862e-16
5.447240485e-16
5.567770484e-16
5.753311256e-16
5.944569855e-16
5.424682815e-16
6.976918099e-16
5.54063941e-16
5.980965194e-16
5.925538264e-16
6.582667566e-16
5.748805985e-16
7.010058761e-16
7.585206033e-16
5.300218995e-16
5.859426981e-16
5.885909061e-16
5.874842375e-16
5.327773638e-16
6.160447692e-16
5.390975786e-16
5.799081431e-16
5.662875257e-16
5.632338968e-16
5.845412454e-16
6.344698596e-16
5.522721651e-16
7.58471593e-16
5.571320647e-16
5.750925991e-16
5.603285633e-16
5.771819709e-16
5.499622472e-16
6.043640222e-16
5.745478246e-16
5.76004318e-16
5.476198755e-16
5.741365823e-16
5.396664034e-16
5.290538868e-16
6.47602767e-16
5.771107452e-16
5.819858655e-16
6.001147191e-16
5.302078453e-16
5.395647684e-16
6.107884106e-16
6.358560781e-16
5.418545573e-16
7.194420647e-16
6.787889446e-16
5.767853233e-16
7.312468833e-16
5.741130843e-16
5.365432225e-16
5.568309501e-16
5.397849625e-16
5.794649147e-16
5.961724491e-16
5.84297473e-16
5.157185919e-16
5.997610831e-16
5.834942121e-16
5.578469903e-16
5.825639855e-16
5.289555986e-16
6.060483402e-16
5.708245374e-16
5.499442192e-16
5.409513709e-16
5.815399299e-16
5.316566021e-16
6.791446236e-16
5.931422637e-16
5.2383762e-16
6.034490263e-16
5.607241112e-16
5.383634139e-16
5.581194673e-16
6.09430894e-16
5.958223797e-16
6.080543672e-16
6.029160082e-16
5.399910869e-16
5.806199743e-16
6.010368771e-16
5.583220448e-16
5.56650975e-16
6.425022355e-16
6.017759154e-16
5.694287374e-16
6.582375111e-16
6.668952611e-16
7.037340402e-16
5.47780557e-16
6.420358384e-16
6.003252556e-16
5.257009354e-16
5.775312535e-16
5.696009414e-16
5.643815576e-16
5.440544651e-16
5.474533602e-16
5.355309376e-16
5.785149388e-16
5.432919999e-16
6.050673498e-16
5.509905988e-16
5.207095459e-16
6.040677189e-16
5.874173395e-16
5.807875913e-16
5.625528725e-16
5.840598258e-16
5.312171788e-16
5.854607187e-16
5.507982195e-16
5.693039407e-16
5.790745038e-16
5.58951803e-16
5.533642691e-16
5.690250994e-16
5.501681666e-16
5.704818195e-16
5.661172655e-16
5.553358693e-16
5.129564651e-16
5.677390827e-16
5.407708974e-16
5.273735389e-16
5.384045586e-16
5.857755162e-16
5.183668282e-16
5.499498953e-16
5.249061612e-16
5.871362703e-16
6.248716148e-16
5.912198198e-16
5.580684743e-16
5.60514116e-16
5.454689743e-16
6.453042671e-16
5.786687985e-16
5.858488691e-16
5.545165369e-16
6.562949228e-16
5.412496912e-16
5.755882202e-16
5.751900316e-16
5.77510288e-16
5.775855643e-16
6.154390625e-16
5.435671216e-16
5.970126066e-16
5.427199077e-16
5.686980609e-16
5.871550728e-16
5.613994414e-16
5.574343046e-16
5.321099918e-16
5.512742289e-16
5.558344832e-16
5.252950729e-16
5.330199758e-16
5.760957747e-16
5.576249354e-16
5.644397498e-16
5.505038981e-16
5.624198664e-16
5.944687306e-16
5.474996139e-16
5.606813552e-16
5.178306649e-16
5.71714865e-16
5.405624901e-16
5.585208452e-16
5.746134756e-16
5.68644198e-16
5.868275842e-16
5.802509745e-16
5.299910085e-16
5.967820226e-16
6.186324105e-16
5.322481862e-16
5.784613364e-16
5.188541173e-16
5.560439712e-16
5.651637788e-16
5.758909559e-16
5.806116584e-16
5.148125098e-16
5.677496473e-16
5.56921864e-16
5.833031359e-16
5.22038189e-16
6.392545043e-16
5.421674406e-16
5.398598705e-16
5.651546481e-16
5.546211698e-16
5.437310937e-16
5.745899952e-16
5.591321272e-16
5.32123619e-16
5.884116703e-16
5.411738663e-16
5.435805715e-16
5.386460162e-16
5.802720157e-16
5.939052763e-16
5.229099235e-16
6.097945829e-16
5.812289682e-16
7.360361807e-16
5.568132691e-16
5.690188334e-16
6.251922248e-16
5.702295921e-16
5.356140947e-16
5.853279503e-16
5.538888484e-16
6.033673745e-16
5.428470256e-16
5.944463972e-16
5.47849632e-16
5.596489665e-16
5.80744519e-16
6.374126035e-16
5.451877247e-16
5.696614685e-16
5.721152807e-16
6.584704632e-16
5.422857912e-16
5.642060269e-16
8.33372346e-16
8.390934581e-16
8.973969773e-16
8.411383182e-16
8.832627097e-16
8.510286863e-16
8.286451613e-16
8.301960974e-16
7.907249301e-16
8.417244288e-16
8.434336611e-16
8.19077879e-16
8.130813753e-16
8.650669446e-16
8.677149469e-16
8.551072011e-16
8.283864216e-16
8.217761315e-16
8.159746381e-16
8.48577127e-16
8.165121809e-16
8.305613272e-16
8.463366238e-16
8.622498068e-16
8.347872534e-16
8.054334132e-16
8.753232766e-16
8.990835831e-16
8.106301993e-16
8.164728944e-16
8.128299348e-16
8.664582486e-16
7.795859999e-16
7.97235322e-16
8.222847924e-16
8.741894131e-16
7.825200032e-16
8.638522542e-16
7.981724314e-16
8.616015149e-16
8.419015658e-16
7.649301075e-16
7.974233313e-16
8.278180519e-16
8.6353953e-16
8.289299647e-16
8.143923749e-16
7.900252436e-16
8.355123386e-16
7.773917958e-16
7.815741112e-16
7.843613836e-16
7.821347308e-16
8.158114962e-16
7.869396641e-16
8.176997956e-16
8.061699003e-16
8.701186061e-16
8.108145078e-16
7.905352972e-16
7.92807612e-16
7.299339522e-16
7.547185615e-16
7.948680311e-16
7.58969291e-16
8.690610594e-16
8.002221741e-16
7.830889994e-16
7.709973175e-16
8.175119747e-16
7.365867234e-16
8.145383646e-16
7.583941379e-16
7.398233579e-16
7.380826904e-16
7.468071548e-16
7.52769724e-16
7.704130804e-16
7.781685687e-16
7.79613904e-16
7.75685193e-16
7.384267473e-16
7.594603729e-16
7.904720854e-16
7.860398925e-16
7.59717914e-16
7.998066641e-16
7.752307451e-16
8.178157155e-16
7.610873283e-16
7.80821543e-16
7.649622295e-16
7.806095746e-16
7.689135866e-16
7.191147008e-16
7.860846232e-16
7.317639454e-16
7.324481411e-16
7.225859946e-16
7.721639156e-16
7.815865345e-16
7.244912182e-16
7.085483839e-16
6.873768048e-16
8.340916304e-16
7.408597092e-16
7.70757212e-16
7.578104537e-16
8.224619015e-16
7.885171468e-16
7.505134331e-16
7.683929137e-16
7.480165607e-16
8.474835438e-16
7.726735124e-16
7.801974966e-16
7.767960708e-16
7.295117528e-16
7.522541446e-16
7.431680312e-16
6.707760365e-16
6.438909471e-16
7.037553129e-16
7.347328117e-16
6.657297952e-16
8.340129793e-16
7.879156206e-16
7.424263417e-16
7.400383764e-16
6.381730579e-16
7.337576922e-16
5.538866625e-16
7.209086579e-16
7.921505847e-16
6.578122446e-16
7.066105764e-16
7.186308586e-16
7.680700435e-16
7.334065802e-16
7.418016973e-16
5.821965638e-16
6.109184479e-16
7.955453536e-16
6.476273337e-16
6.24981065e-16
8.09522497e-16
6.198468382e-16
7.255510109e-16
7.332059523e-16
7.77492275e-16
5.997757393e-16
6.543441733e-16
5.654875897e-16
7.673319608e-16
6.417434541e-16
7.611687124e-16
6.451162121e-16
6.849193118e-16
6.83788669e-16
7.078588146e-16
6.077495442e-16
7.115835874e-16
5.421665831e-16
7.150999962e-16
5.877901916e-16
6.436039329e-16
7.85050646e-16
7.036132619e-16
6.810765824e-16
6.550539977e-16
6.601655289e-16
6.557143896e-16
5.84734957e-16
5.942947035e-16
6.396751421e-16
6.092907187e-16
6.547216727e-16
6.203198102e-16
7.055728371e-16
6.95855734e-16
6.484252155e-16
7.488498696e-16
5.807336794e-16
5.600049071e-16
5.743259454e-16
6.519404392e-16
5.517826951e-16
6.545249284e-16
6.172405688e-16
7.400506274e-16
6.082493288e-16
7.463672779e-16
5.401115479e-16
5.553801604e-16
5.437168916e-16
5.783419729e-16
5.881668722e-16
5.696187182e-16
6.741606091e-16
6.209432003e-16
5.624979498e-16
6.445124735e-16
6.255842465e-16
5.353233461e-16
7.726103798e-16
5.899846228e-16
5.739609456e-16
5.529360012e-16
6.403593342e-16
5.806647261e-16
5.282223899e-16
5.53536612e-16
6.110465274e-16
6.005756405e-16
)
;

boundaryField
{
    flow
    {
        type            zeroGradient;
    }
    obstacle
    {
        type            zeroGradient;
    }
    frontAndBack
    {
        type            empty;
    }
    procBoundary0to1
    {
        type            processor;
        value           nonuniform List<scalar> 
21
(
8.241677279e-16
8.133274635e-16
8.324837849e-16
8.127837483e-16
8.242168805e-16
8.209446286e-16
8.343970979e-16
8.389381493e-16
7.454047192e-16
7.242664207e-16
7.467434019e-16
7.185670394e-16
7.740645628e-16
7.510818402e-16
7.367926725e-16
7.211373681e-16
6.943071999e-16
6.882892113e-16
7.607753432e-16
6.674248282e-16
6.585102569e-16
)
;
    }
    procBoundary0to2
    {
        type            processor;
        value           nonuniform List<scalar> 
31
(
5.59533443e-16
5.640759853e-16
5.429777404e-16
5.800329944e-16
5.434908285e-16
5.950918012e-16
5.350160056e-16
5.912450245e-16
6.233426551e-16
5.136551431e-16
5.502069542e-16
5.515554647e-16
5.771182808e-16
5.772175745e-16
5.561605908e-16
5.570193897e-16
5.080092165e-16
7.249864719e-16
6.674069471e-16
5.281024211e-16
5.65417063e-16
6.350716858e-16
5.571999017e-16
6.340300513e-16
5.381622936e-16
5.684741297e-16
5.547098868e-16
5.629280335e-16
5.708845103e-16
5.65417063e-16
5.203898038e-16
)
;
    }
}


// ************************************************************************* //
