/*--------------------------------*- C++ -*----------------------------------*\
| =========                 |                                                 |
| \\      /  F ield         | OpenFOAM: The Open Source CFD Toolbox           |
|  \\    /   O peration     | Version:  2406                                  |
|   \\  /    A nd           | Website:  www.openfoam.com                      |
|    \\/     M anipulation  |                                                 |
\*---------------------------------------------------------------------------*/
FoamFile
{
    version     2.0;
    format      ascii;
    arch        "LSB;label=32;scalar=64";
    class       volScalarField;
    location    "0.001";
    object      iDofMean;
}
// * * * * * * * * * * * * * * * * * * * * * * * * * * * * * * * * * * * * * //

dimensions      [0 -3 0 0 0 0 0];

internalField   nonuniform List<scalar> 
654
(
1.51669468e+20
1.976993395e+20
1.993655792e+20
1.994488912e+20
1.986157714e+20
2.011151309e+20
1.989906753e+20
2.025314347e+20
1.997404832e+20
1.967412517e+20
1.95491572e+20
1.983658354e+20
1.937836763e+20
1.976160276e+20
1.974077476e+20
2.009901629e+20
1.989906753e+20
2.00406979e+20
2.087798335e+20
2.722635658e+20
1.528774918e+20
1.971578116e+20
2.00656915e+20
1.985324594e+20
2.00698571e+20
2.026147466e+20
2.039477384e+20
2.033645545e+20
1.990739873e+20
1.994072352e+20
2.00448635e+20
2.015316908e+20
2.041143624e+20
2.001570431e+20
2.013650669e+20
2.00823539e+20
2.05822258e+20
2.106960091e+20
2.257338224e+20
2.556011689e+20
1.527525238e+20
1.976576836e+20
2.009901629e+20
2.015316908e+20
2.00490291e+20
2.022398427e+20
2.041560184e+20
2.030313066e+20
2.039893944e+20
2.034062105e+20
2.034062105e+20
2.044476103e+20
2.009901629e+20
1.999071071e+20
2.039060824e+20
2.038227704e+20
2.036144905e+20
2.028230266e+20
2.142784245e+20
2.370225963e+20
1.576262749e+20
1.999487631e+20
1.986157714e+20
1.971161557e+20
1.941585802e+20
1.914925967e+20
1.913676287e+20
1.946584521e+20
1.960330999e+20
1.95116668e+20
1.968662197e+20
1.971994676e+20
2.048641702e+20
2.040310504e+20
2.031562745e+20
2.039477384e+20
2.067386899e+20
2.150698883e+20
2.192771436e+20
2.357312605e+20
1.541688276e+20
1.979492755e+20
1.961997238e+20
1.990323313e+20
1.991156433e+20
1.995322032e+20
1.981158995e+20
1.959914439e+20
1.95283292e+20
1.968662197e+20
1.971994676e+20
1.993655792e+20
2.009485069e+20
2.028230266e+20
2.036978024e+20
2.054056981e+20
2.079883696e+20
2.11320849e+20
2.125288728e+20
2.22193063e+20
1.559600352e+20
1.978243075e+20
2.00656915e+20
2.00615259e+20
1.999487631e+20
2.000320751e+20
2.002820111e+20
2.012400989e+20
2.053640421e+20
2.063637859e+20
2.049058262e+20
2.036144905e+20
1.994072352e+20
1.993655792e+20
1.988240513e+20
1.990739873e+20
2.022398427e+20
2.064470979e+20
2.079467137e+20
2.064470979e+20
1.531274278e+20
2.018649388e+20
2.029479946e+20
2.00490291e+20
2.037394584e+20
2.043226423e+20
2.0632213e+20
2.025730906e+20
2.015733468e+20
2.00906851e+20
1.989906753e+20
1.989906753e+20
2.014900348e+20
1.998237952e+20
1.975327156e+20
1.976160276e+20
1.997821392e+20
1.982408674e+20
2.027813706e+20
2.073218738e+20
1.560850032e+20
1.998237952e+20
2.001570431e+20
2.027397146e+20
2.028646826e+20
2.009901629e+20
2.036561464e+20
2.035311785e+20
2.073635298e+20
2.030729626e+20
2.009485069e+20
2.000320751e+20
1.991572993e+20
1.999071071e+20
2.051141062e+20
2.066137219e+20
2.043226423e+20
2.057389461e+20
2.047808582e+20
2.086132095e+20
1.532523957e+20
1.990739873e+20
1.986990834e+20
1.990739873e+20
1.974910596e+20
1.966162837e+20
1.986990834e+20
1.971994676e+20
1.95158324e+20
1.965746278e+20
2.021565307e+20
2.028230266e+20
1.998654511e+20
1.978243075e+20
1.925756525e+20
1.939503002e+20
1.960330999e+20
1.983241794e+20
1.986990834e+20
2.010734749e+20
1.560433472e+20
1.984074914e+20
2.000737311e+20
1.980742435e+20
1.988240513e+20
1.987823953e+20
1.974494036e+20
1.959497879e+20
1.964496598e+20
1.956581959e+20
1.975327156e+20
1.984491474e+20
2.016983148e+20
2.00823539e+20
2.027813706e+20
2.014067229e+20
2.00906851e+20
1.977409955e+20
1.986157714e+20
2.012817549e+20
1.556684433e+20
1.987407394e+20
1.994488912e+20
1.999487631e+20
1.997821392e+20
1.976576836e+20
1.975327156e+20
1.981158995e+20
1.996155152e+20
1.970744997e+20
1.983658354e+20
1.968245637e+20
2.001570431e+20
1.991156433e+20
1.998237952e+20
1.996155152e+20
2.024481227e+20
2.032812425e+20
2.0590557e+20
2.033645545e+20
1.560433472e+20
2.031979305e+20
2.034895225e+20
1.987407394e+20
1.990323313e+20
2.016983148e+20
2.012400989e+20
1.997404832e+20
2.024897787e+20
2.011567869e+20
2.000320751e+20
1.995322032e+20
1.987823953e+20
1.972827796e+20
1.989073633e+20
1.986157714e+20
2.010734749e+20
2.040727064e+20
2.00573603e+20
2.055306661e+20
1.551685714e+20
1.985324594e+20
1.983241794e+20
1.989073633e+20
2.011567869e+20
2.037811144e+20
2.030729626e+20
2.016983148e+20
1.991572993e+20
2.00656915e+20
2.020315627e+20
1.972827796e+20
2.020315627e+20
2.033228985e+20
2.034062105e+20
2.055306661e+20
2.06238818e+20
2.038227704e+20
2.041976743e+20
1.999904191e+20
1.561266592e+20
1.989490193e+20
2.013234109e+20
2.032395865e+20
2.000737311e+20
1.984908034e+20
1.970744997e+20
1.968245637e+20
1.939919562e+20
1.939086442e+20
1.931588364e+20
1.956998519e+20
1.95449916e+20
1.939919562e+20
1.958248199e+20
1.919508126e+20
1.911593488e+20
1.932838044e+20
1.927006205e+20
1.95033356e+20
1.524609319e+20
2.00823539e+20
2.012400989e+20
1.985741154e+20
2.001570431e+20
2.044476103e+20
2.051141062e+20
2.071135938e+20
2.071969058e+20
2.087798335e+20
2.071135938e+20
2.039060824e+20
2.051557622e+20
2.036978024e+20
2.029896506e+20
1.984074914e+20
1.997404832e+20
1.995322032e+20
1.947417641e+20
1.966162837e+20
1.562932832e+20
1.980742435e+20
1.982825234e+20
1.990323313e+20
1.973660916e+20
1.984491474e+20
2.00781883e+20
2.011567869e+20
2.045725783e+20
2.013234109e+20
2.013650669e+20
1.995738592e+20
1.974077476e+20
1.975743716e+20
1.989073633e+20
1.997821392e+20
1.981575555e+20
2.001570431e+20
2.010734749e+20
1.982825234e+20
1.57126403e+20
2.027397146e+20
2.028646826e+20
2.074051858e+20
2.052390742e+20
2.033228985e+20
2.028230266e+20
2.00740227e+20
1.976993395e+20
1.990739873e+20
2.012817549e+20
2.014483789e+20
2.049058262e+20
2.057389461e+20
2.033228985e+20
2.048225142e+20
2.087381775e+20
2.075301537e+20
2.045725783e+20
1.992406113e+20
1.548353234e+20
1.990739873e+20
1.995738592e+20
2.00448635e+20
2.013650669e+20
2.023648107e+20
2.034478665e+20
2.041976743e+20
2.018232828e+20
2.034062105e+20
1.995322032e+20
1.958664759e+20
1.986990834e+20
1.969495317e+20
1.990323313e+20
1.975743716e+20
2.013650669e+20
2.000320751e+20
2.013650669e+20
2.054890101e+20
1.548769794e+20
2.009901629e+20
2.034062105e+20
1.988240513e+20
1.980325875e+20
1.991572993e+20
1.970328437e+20
1.993655792e+20
2.030313066e+20
2.027397146e+20
2.019899068e+20
2.054056981e+20
2.002403551e+20
2.024481227e+20
2.026147466e+20
2.016566588e+20
2.00740227e+20
2.00531947e+20
2.051974182e+20
2.041560184e+20
1.529191478e+20
2.003653231e+20
2.029896506e+20
2.066970339e+20
2.068220019e+20
2.076551217e+20
2.056972901e+20
2.042809863e+20
2.051974182e+20
2.078217457e+20
2.072385618e+20
2.05863914e+20
2.137368966e+20
2.145283604e+20
2.128621207e+20
2.125705288e+20
2.130287447e+20
2.134036486e+20
2.11445817e+20
2.145283604e+20
1.551685714e+20
1.976576836e+20
1.991989553e+20
2.00823539e+20
1.977826515e+20
2.00906851e+20
1.983658354e+20
2.003236671e+20
2.011984429e+20
2.014900348e+20
2.050307942e+20
2.025314347e+20
2.00906851e+20
1.994905472e+20
2.032812425e+20
2.022398427e+20
2.041976743e+20
2.00490291e+20
2.038227704e+20
2.016150028e+20
1.550852594e+20
2.010734749e+20
1.996571712e+20
1.959914439e+20
1.996155152e+20
1.979909315e+20
1.998237952e+20
1.994488912e+20
2.021565307e+20
2.009485069e+20
1.993655792e+20
2.036144905e+20
2.010318189e+20
2.011984429e+20
2.003236671e+20
1.993239232e+20
1.996988272e+20
2.016150028e+20
1.974910596e+20
1.9540826e+20
4.766041562e+20
5.655368519e+20
5.71274919e+20
5.894269628e+20
5.902560078e+20
6.036484399e+20
5.917751601e+20
5.941754691e+20
5.760925761e+20
6.109288743e+20
3.256927447e+20
3.987295771e+20
4.312004621e+20
4.728731266e+20
4.847027274e+20
4.840181048e+20
4.922160513e+20
5.102340259e+20
5.213929662e+20
5.185056157e+20
2.674183657e+20
3.141684327e+20
3.62794963e+20
3.832064804e+20
4.151647766e+20
4.277087462e+20
4.450518846e+20
4.684389138e+20
4.938441733e+20
4.871485198e+20
2.497353942e+20
2.829367907e+20
3.011706786e+20
3.462472629e+20
3.54523213e+20
3.770259955e+20
3.954466895e+20
4.207169739e+20
4.291509403e+20
4.401128759e+20
2.298786295e+20
2.497689549e+20
2.70697597e+20
2.965699782e+20
3.228486337e+20
3.324459504e+20
3.568697141e+20
3.668486939e+20
3.873634456e+20
4.24523411e+20
2.136169843e+20
2.277973684e+20
2.478957638e+20
2.608057468e+20
2.747565645e+20
2.926701619e+20
3.1131837e+20
3.339657743e+20
3.484502223e+20
3.678222986e+20
2.10439902e+20
2.184952216e+20
2.357319609e+20
2.517579942e+20
2.524941058e+20
2.654027559e+20
2.874311586e+20
3.024877335e+20
3.208129904e+20
3.397612608e+20
2.13951414e+20
2.161802078e+20
2.145830489e+20
2.275595225e+20
2.361625719e+20
2.438052385e+20
2.574849641e+20
2.777706661e+20
2.952098586e+20
3.099185701e+20
2.044619707e+20
2.089405278e+20
2.142439881e+20
2.181276669e+20
2.320796888e+20
2.409486531e+20
2.4510546e+20
2.583657927e+20
2.760185646e+20
2.84619095e+20
2.04587382e+20
2.066255141e+20
2.154307007e+20
2.191092628e+20
2.172093974e+20
2.273582317e+20
2.336413421e+20
2.427365281e+20
2.469663062e+20
2.584733346e+20
2.086841459e+20
2.108767213e+20
2.112772068e+20
2.141586055e+20
2.182408627e+20
2.19134728e+20
2.199541439e+20
2.25131654e+20
2.314010171e+20
2.38786067e+20
2.033332704e+20
2.054048704e+20
2.036907235e+20
2.01141791e+20
2.028118612e+20
2.108246614e+20
2.175131159e+20
2.199950714e+20
2.237952519e+20
2.316149139e+20
2.003234029e+20
2.025847629e+20
2.032668983e+20
2.014832157e+20
2.005340412e+20
2.029474102e+20
2.074874601e+20
2.122243384e+20
2.151282139e+20
2.268489907e+20
1.966446753e+20
1.977021864e+20
1.995796109e+20
2.066045846e+20
2.060781681e+20
2.071024435e+20
2.057002775e+20
2.07219463e+20
2.135805289e+20
2.128630118e+20
1.979405922e+20
2.013220281e+20
2.012325332e+20
2.020380315e+20
2.044020384e+20
2.068860369e+20
2.12979776e+20
2.154292186e+20
2.13315213e+20
2.126403066e+20
2.038767184e+20
2.054048708e+20
2.025887774e+20
2.022514219e+20
2.043590593e+20
1.989655045e+20
2.049156625e+20
2.039706818e+20
2.087163761e+20
2.142437945e+20
1.996963469e+20
1.994279244e+20
1.970366555e+20
1.948254346e+20
1.970528468e+20
1.990520663e+20
2.025182233e+20
2.065170256e+20
2.052230314e+20
2.092106243e+20
2.050472224e+20
2.03637042e+20
2.077170707e+20
2.116405981e+20
2.119661143e+20
2.109545056e+20
2.086207942e+20
2.100731208e+20
2.111042344e+20
2.128630133e+20
2.04880009e+20
2.123920037e+20
2.090733122e+20
2.099334763e+20
2.113644277e+20
2.103052817e+20
2.086207957e+20
2.052877561e+20
2.025256361e+20
2.052019061e+20
2.094366125e+20
2.089826196e+20
2.056827051e+20
2.010137562e+20
2.034995049e+20
2.029474115e+20
2.037823276e+20
2.108194621e+20
2.082299623e+20
2.121058107e+20
2.013266918e+20
1.982072807e+20
1.986471953e+20
2.015685726e+20
2.015225297e+20
2.014758358e+20
2.013848884e+20
2.002828807e+20
2.001820002e+20
1.990997425e+20
1.962684423e+20
1.973654575e+20
1.936460497e+20
1.957216756e+20
)
;

boundaryField
{
    flow
    {
        type            calculated;
        value           nonuniform List<scalar> 
42
(
1.51669468e+20
1.528774918e+20
1.527525238e+20
1.576262749e+20
1.541688276e+20
1.559600352e+20
1.531274278e+20
1.560850032e+20
1.532523957e+20
1.560433472e+20
1.556684433e+20
1.560433472e+20
1.551685714e+20
1.561266592e+20
1.524609319e+20
1.562932832e+20
1.57126403e+20
1.548353234e+20
1.548769794e+20
1.529191478e+20
1.551685714e+20
1.550852594e+20
1.51669468e+20
1.976993395e+20
1.993655792e+20
1.994488912e+20
1.986157714e+20
2.011151309e+20
1.989906753e+20
2.025314347e+20
1.997404832e+20
1.967412517e+20
1.95491572e+20
1.983658354e+20
1.937836763e+20
1.976160276e+20
1.974077476e+20
2.009901629e+20
1.989906753e+20
2.00406979e+20
2.087798335e+20
2.722635658e+20
)
;
    }
    obstacle
    {
        type            calculated;
        value           nonuniform List<scalar> 10(269.1165666 297.4325516 288.7367159 262.875847 288.5071998 323.8932272 256.5499246 264.780522 279.7981173 265.3986752);
    }
    frontAndBack
    {
        type            empty;
    }
    procBoundary0to1
    {
        type            processor;
        value           nonuniform List<scalar> 
21
(
5.96562325e+20
5.382341798e+20
4.873989573e+20
4.261992723e+20
4.332883854e+20
3.906191041e+20
3.542761821e+20
3.349830263e+20
2.964864505e+20
2.640918957e+20
2.50945629e+20
2.429591607e+20
2.288706687e+20
2.174742464e+20
2.205701265e+20
2.112376217e+20
2.128977304e+20
2.115516978e+20
2.107889451e+20
2.113273573e+20
1.994373906e+20
)
;
    }
    procBoundary0to2
    {
        type            processor;
        value           nonuniform List<scalar> 
31
(
1.545437315e+20
1.994072352e+20
2.00906851e+20
2.010734749e+20
2.003236671e+20
1.997404832e+20
1.972827796e+20
1.966995957e+20
1.948667321e+20
1.958664759e+20
1.943252042e+20
1.964913158e+20
1.960330999e+20
1.961164118e+20
1.970744997e+20
1.941169242e+20
1.919508126e+20
1.922007486e+20
1.935753963e+20
1.930338684e+20
1.948180054e+20
1.948104698e+20
1.948464167e+20
1.997560501e+20
1.986785348e+20
1.993224491e+20
1.938856305e+20
1.931563426e+20
1.967399787e+20
1.948180054e+20
1.956789962e+20
)
;
    }
}


// ************************************************************************* //
