/*--------------------------------*- C++ -*----------------------------------*\
| =========                 |                                                 |
| \\      /  F ield         | OpenFOAM: The Open Source CFD Toolbox           |
|  \\    /   O peration     | Version:  2406                                  |
|   \\  /    A nd           | Website:  www.openfoam.com                      |
|    \\/     M anipulation  |                                                 |
\*---------------------------------------------------------------------------*/
FoamFile
{
    version     2.0;
    format      ascii;
    arch        "LSB;label=32;scalar=64";
    class       volScalarField;
    location    "0.001";
    object      iDof;
}
// * * * * * * * * * * * * * * * * * * * * * * * * * * * * * * * * * * * * * //

dimensions      [0 -3 0 0 0 0 0];

internalField   nonuniform List<scalar> 
654
(
1.457959731e+20
1.874519654e+20
2.915919462e+20
1.874519654e+20
1.457959731e+20
2.291079578e+20
1.666239693e+20
2.082799616e+20
1.041399808e+20
2.915919462e+20
1.041399808e+20
2.291079578e+20
2.915919462e+20
1.457959731e+20
2.291079578e+20
1.457959731e+20
1.874519654e+20
2.707639501e+20
1.666239693e+20
1.874519654e+20
1.24967977e+20
2.082799616e+20
1.457959731e+20
2.707639501e+20
2.082799616e+20
1.457959731e+20
3.124199424e+20
2.707639501e+20
3.124199424e+20
2.082799616e+20
1.041399808e+20
2.082799616e+20
2.291079578e+20
1.874519654e+20
2.915919462e+20
1.457959731e+20
1.874519654e+20
1.457959731e+20
2.291079578e+20
1.666239693e+20
2.082799616e+20
1.24967977e+20
1.666239693e+20
1.457959731e+20
1.874519654e+20
1.457959731e+20
2.499359539e+20
3.124199424e+20
6.248398848e+19
1.874519654e+20
6.248398848e+19
2.499359539e+20
2.915919462e+20
1.874519654e+20
1.874519654e+20
2.291079578e+20
2.707639501e+20
1.24967977e+20
3.332479385e+20
1.874519654e+20
1.666239693e+20
2.291079578e+20
2.499359539e+20
2.082799616e+20
3.124199424e+20
1.24967977e+20
2.082799616e+20
1.041399808e+20
2.291079578e+20
2.707639501e+20
2.499359539e+20
1.666239693e+20
3.332479385e+20
2.082799616e+20
2.291079578e+20
1.041399808e+20
3.95731927e+20
2.707639501e+20
2.707639501e+20
2.915919462e+20
1.457959731e+20
1.457959731e+20
2.499359539e+20
1.24967977e+20
1.666239693e+20
1.666239693e+20
3.124199424e+20
1.457959731e+20
2.499359539e+20
1.666239693e+20
2.291079578e+20
1.874519654e+20
1.457959731e+20
2.499359539e+20
2.499359539e+20
2.291079578e+20
8.331198464e+19
3.332479385e+20
1.874519654e+20
2.291079578e+20
1.874519654e+20
1.457959731e+20
1.457959731e+20
1.874519654e+20
2.291079578e+20
2.499359539e+20
1.666239693e+20
8.331198464e+19
2.291079578e+20
6.248398848e+19
2.082799616e+20
2.915919462e+20
8.331198464e+19
1.457959731e+20
2.915919462e+20
2.291079578e+20
3.95731927e+20
1.24967977e+20
1.666239693e+20
1.24967977e+20
2.291079578e+20
1.457959731e+20
2.915919462e+20
1.457959731e+20
2.291079578e+20
2.082799616e+20
2.082799616e+20
3.124199424e+20
1.457959731e+20
1.874519654e+20
1.457959731e+20
1.457959731e+20
3.332479385e+20
1.874519654e+20
2.291079578e+20
6.248398848e+19
1.24967977e+20
1.874519654e+20
2.499359539e+20
1.666239693e+20
1.457959731e+20
2.915919462e+20
2.499359539e+20
8.331198464e+19
3.124199424e+20
2.499359539e+20
1.041399808e+20
1.666239693e+20
1.457959731e+20
2.291079578e+20
8.331198464e+19
2.707639501e+20
1.666239693e+20
1.666239693e+20
1.041399808e+20
2.082799616e+20
1.874519654e+20
2.291079578e+20
2.499359539e+20
1.457959731e+20
1.457959731e+20
1.874519654e+20
1.24967977e+20
2.082799616e+20
1.874519654e+20
2.291079578e+20
3.124199424e+20
1.874519654e+20
2.707639501e+20
1.457959731e+20
1.874519654e+20
2.082799616e+20
2.707639501e+20
2.291079578e+20
1.24967977e+20
1.457959731e+20
1.666239693e+20
1.874519654e+20
3.540759347e+20
1.666239693e+20
1.666239693e+20
2.707639501e+20
2.082799616e+20
1.457959731e+20
1.874519654e+20
1.874519654e+20
2.291079578e+20
3.332479385e+20
2.082799616e+20
3.540759347e+20
1.874519654e+20
1.457959731e+20
1.666239693e+20
2.082799616e+20
2.291079578e+20
3.332479385e+20
1.24967977e+20
2.082799616e+20
1.24967977e+20
8.331198464e+19
1.457959731e+20
1.457959731e+20
2.499359539e+20
1.874519654e+20
2.082799616e+20
1.457959731e+20
1.874519654e+20
1.874519654e+20
2.291079578e+20
1.24967977e+20
1.874519654e+20
2.291079578e+20
1.874519654e+20
4.165599232e+19
2.499359539e+20
1.457959731e+20
2.082799616e+20
1.457959731e+20
2.915919462e+20
2.499359539e+20
1.24967977e+20
2.915919462e+20
2.707639501e+20
1.457959731e+20
1.874519654e+20
1.666239693e+20
1.457959731e+20
1.666239693e+20
2.082799616e+20
1.457959731e+20
2.082799616e+20
1.457959731e+20
2.082799616e+20
1.457959731e+20
1.457959731e+20
2.082799616e+20
1.874519654e+20
2.707639501e+20
1.24967977e+20
1.666239693e+20
1.457959731e+20
1.874519654e+20
2.291079578e+20
2.082799616e+20
1.666239693e+20
2.082799616e+20
2.707639501e+20
8.331198464e+19
1.874519654e+20
1.666239693e+20
3.332479385e+20
1.041399808e+20
2.291079578e+20
1.874519654e+20
2.082799616e+20
1.874519654e+20
2.082799616e+20
2.707639501e+20
2.291079578e+20
2.499359539e+20
2.082799616e+20
2.291079578e+20
2.291079578e+20
2.082799616e+20
1.666239693e+20
1.874519654e+20
2.082799616e+20
2.915919462e+20
3.332479385e+20
2.082799616e+20
1.874519654e+20
1.874519654e+20
1.457959731e+20
2.291079578e+20
8.331198464e+19
1.666239693e+20
1.666239693e+20
1.874519654e+20
1.457959731e+20
2.499359539e+20
1.666239693e+20
1.24967977e+20
1.874519654e+20
1.457959731e+20
1.874519654e+20
1.457959731e+20
1.666239693e+20
2.291079578e+20
1.457959731e+20
3.332479385e+20
2.707639501e+20
1.457959731e+20
1.666239693e+20
2.291079578e+20
2.707639501e+20
2.707639501e+20
6.248398848e+19
2.707639501e+20
1.874519654e+20
2.707639501e+20
1.24967977e+20
1.874519654e+20
2.499359539e+20
1.666239693e+20
2.499359539e+20
8.331198464e+19
2.082799616e+20
1.457959731e+20
2.291079578e+20
1.874519654e+20
2.499359539e+20
1.666239693e+20
2.915919462e+20
8.331198464e+19
1.457959731e+20
2.499359539e+20
1.24967977e+20
1.874519654e+20
2.499359539e+20
1.041399808e+20
1.874519654e+20
2.915919462e+20
2.082799616e+20
2.499359539e+20
1.874519654e+20
2.915919462e+20
1.041399808e+20
3.95731927e+20
2.291079578e+20
2.499359539e+20
3.749039309e+20
1.457959731e+20
1.666239693e+20
2.082799616e+20
2.291079578e+20
1.041399808e+20
1.24967977e+20
1.874519654e+20
2.707639501e+20
1.24967977e+20
1.24967977e+20
2.499359539e+20
1.457959731e+20
1.041399808e+20
2.082799616e+20
8.331198464e+19
2.291079578e+20
1.457959731e+20
1.457959731e+20
8.331198464e+19
2.499359539e+20
1.666239693e+20
1.666239693e+20
1.041399808e+20
2.499359539e+20
1.874519654e+20
1.24967977e+20
3.124199424e+20
1.666239693e+20
1.666239693e+20
1.457959731e+20
1.24967977e+20
1.874519654e+20
1.666239693e+20
2.291079578e+20
2.082799616e+20
1.874519654e+20
1.24967977e+20
2.915919462e+20
1.457959731e+20
1.041399808e+20
2.082799616e+20
1.457959731e+20
2.082799616e+20
2.915919462e+20
2.291079578e+20
1.874519654e+20
2.082799616e+20
1.666239693e+20
1.874519654e+20
1.457959731e+20
1.666239693e+20
2.915919462e+20
2.707639501e+20
2.082799616e+20
2.707639501e+20
1.24967977e+20
1.874519654e+20
1.666239693e+20
1.457959731e+20
2.291079578e+20
1.457959731e+20
1.666239693e+20
1.874519654e+20
1.666239693e+20
1.666239693e+20
8.331198464e+19
2.082799616e+20
1.041399808e+20
2.082799616e+20
1.666239693e+20
1.666239693e+20
1.666239693e+20
1.457959731e+20
1.457959731e+20
2.707639501e+20
1.874519654e+20
1.874519654e+20
1.874519654e+20
1.666239693e+20
3.332479385e+20
1.874519654e+20
1.457959731e+20
1.041399808e+20
2.915919462e+20
2.499359539e+20
8.331198464e+19
2.291079578e+20
2.291079578e+20
1.874519654e+20
1.666239693e+20
1.874519654e+20
2.915919462e+20
1.457959731e+20
2.915919462e+20
1.874519654e+20
1.24967977e+20
2.082799616e+20
3.540759347e+20
3.124199424e+20
2.707639501e+20
2.499359539e+20
1.874519654e+20
2.707639501e+20
1.457959731e+20
2.082799616e+20
1.666239693e+20
1.874519654e+20
2.499359539e+20
2.082799616e+20
5.016445816e+20
3.577748765e+20
5.933562479e+20
5.761540799e+20
4.727549211e+20
6.275831633e+20
5.448725325e+20
7.68292501e+20
5.527446424e+20
5.790372824e+20
2.717241484e+20
4.209116195e+20
2.754868295e+20
4.907979202e+20
4.512660612e+20
4.544567737e+20
5.012827303e+20
4.170730723e+20
5.527446424e+20
4.008719647e+20
3.135278635e+20
2.946381335e+20
3.178694185e+20
4.054417601e+20
5.157326417e+20
4.328159747e+20
4.794878286e+20
4.829267153e+20
4.864152853e+20
6.458492765e+20
2.926260059e+20
3.998660386e+20
3.178694187e+20
2.774075199e+20
4.082883408e+20
3.462527797e+20
3.487184211e+20
4.390242866e+20
5.306348567e+20
5.34495953e+20
2.508222908e+20
4.209116193e+19
2.754868295e+20
2.774075203e+20
4.727549216e+20
3.4625278e+20
4.358980263e+20
4.170730723e+20
2.653174285e+20
4.899546239e+20
1.46313003e+20
3.156837145e+20
3.390607131e+20
2.560684799e+20
3.438217607e+20
4.111751757e+20
1.961541116e+20
3.731706431e+20
2.210978568e+20
4.454132945e+20
2.299204332e+20
2.104558097e+20
2.119129458e+20
2.987465603e+20
3.438217611e+20
3.246119812e+20
3.923082237e+20
3.073170006e+20
4.643054996e+20
4.676839589e+20
2.508222908e+20
2.104558098e+20
2.119129458e+20
4.481198398e+20
2.148886004e+20
3.24611981e+20
2.179490132e+20
2.414633576e+20
2.653174283e+20
1.781653177e+20
2.717241484e+20
2.315013906e+20
2.331042402e+20
2.560684801e+20
2.363774608e+20
2.380487861e+20
2.17949013e+20
3.951218579e+20
2.87427214e+20
3.340599706e+20
1.881167182e+20
2.946381337e+20
1.907216512e+20
2.774075201e+20
2.363774606e+20
3.246119812e+20
3.051286184e+20
6.585364299e+19
2.210978569e+20
3.340599706e+20
1.254111454e+20
3.577748764e+20
3.178694185e+20
1.4937328e+20
1.719108804e+20
1.298447924e+20
1.525643091e+20
1.317072859e+20
1.547684999e+20
2.004359824e+20
8.360743026e+19
1.894102288e+20
2.119129458e+20
4.054417599e+20
2.148886006e+20
2.380487862e+20
2.833337181e+20
3.951218604e+20
3.316467871e+20
1.336239888e+20
2.090185757e+20
1.052279051e+20
1.271477679e+20
3.200856001e+20
2.148885997e+20
3.246119806e+20
1.961541114e+20
1.756097132e+20
1.768782848e+20
2.004359824e+20
1.25411145e+20
1.683646467e+20
2.542955331e+20
1.920513594e+20
1.719108806e+20
1.947671882e+20
2.179490119e+20
3.731706431e+20
2.874272128e+20
1.781653164e+20
1.672148614e+20
1.262734861e+20
1.695303565e+20
1.920513607e+20
1.289331613e+20
2.813303849e+20
2.833337175e+20
1.975609301e+20
1.989880718e+20
1.55894653e+20
2.926260055e+20
2.315013913e+20
2.119129471e+19
2.56068481e+20
3.223329011e+20
1.082039942e+20
1.089745067e+20
1.53658499e+20
1.989880704e+20
1.781653177e+20
1.254111452e+20
2.104558088e+20
2.331042386e+20
1.707123195e+20
1.504220205e+20
1.947671882e+20
1.525643094e+20
2.41463359e+20
2.210978576e+20
8.908265883e+19
2.71724148e+20
2.735925533e+20
3.602520101e+20
1.493732795e+20
1.933997393e+20
1.298447921e+20
1.525643084e+20
1.756097144e+20
1.547685003e+20
2.672479765e+20
1.881167191e+20
1.262734861e+20
2.542955348e+20
2.133904008e+20
1.074443004e+20
1.731263895e+20
1.525643094e+20
3.292682145e+20
2.21097856e+20
2.004359838e+20
2.090185754e+20
2.315013913e+20
2.119129457e+20
2.987465591e+20
1.933997406e+20
1.947671896e+20
1.961541121e+20
1.317072858e+20
2.874272148e+20
1.113533235e+20
3.553315781e+20
1.473190662e+20
2.754868294e+20
2.56068481e+20
1.933997406e+20
2.164079869e+20
6.538470404e+19
1.317072867e+20
2.432076433e+20
2.227066471e+20
1.881167178e+20
3.156837132e+20
1.695303565e+20
2.77407521e+20
)
;

boundaryField
{
    flow
    {
        type            zeroGradient;
    }
    obstacle
    {
        type            calculated;
        value           nonuniform List<scalar> 10(70.27286775 124.4690435 181.2456006 633.9506274 258.1263548 1e-300 1e-300 499.924205 66.87622508 221.1099737);
    }
    frontAndBack
    {
        type            empty;
    }
    procBoundary0to1
    {
        type            processor;
        value           nonuniform List<scalar> 
21
(
7.627526718e+20
4.486780426e+20
5.608475528e+20
4.03810238e+20
4.03810238e+20
3.813763364e+20
4.486780422e+20
3.813763359e+20
4.038102383e+20
2.692068253e+20
2.01905119e+20
2.243390219e+20
2.019051184e+20
3.365085307e+20
1.570373155e+20
2.243390205e+20
3.140746287e+20
1.794712177e+20
2.916407287e+20
2.467729225e+20
8.973560883e+19
)
;
    }
    procBoundary0to2
    {
        type            processor;
        value           nonuniform List<scalar> 
31
(
1.874519654e+20
1.24967977e+20
1.041399808e+20
1.874519654e+20
1.874519654e+20
2.499359539e+20
2.499359539e+20
1.666239693e+20
1.874519654e+20
2.707639501e+20
2.499359539e+20
2.915919462e+20
2.291079578e+20
1.457959731e+20
1.874519654e+20
2.915919462e+20
2.082799616e+20
8.331198464e+19
1.24967977e+20
1.874519654e+20
2.148886007e+20
1.514855908e+20
1.743592096e+20
2.634145716e+20
1.989880718e+20
1.336239882e+20
2.71724148e+20
2.735925533e+20
1.695303565e+20
2.148886007e+20
2.133903993e+20
)
;
    }
}


// ************************************************************************* //
