/*--------------------------------*- C++ -*----------------------------------*\
| =========                 |                                                 |
| \\      /  F ield         | OpenFOAM: The Open Source CFD Toolbox           |
|  \\    /   O peration     | Version:  2406                                  |
|   \\  /    A nd           | Website:  www.openfoam.com                      |
|    \\/     M anipulation  |                                                 |
\*---------------------------------------------------------------------------*/
FoamFile
{
    version     2.0;
    format      ascii;
    arch        "LSB;label=32;scalar=64";
    class       volScalarField;
    location    "0.001";
    object      internalEMean;
}
// * * * * * * * * * * * * * * * * * * * * * * * * * * * * * * * * * * * * * //

dimensions      [1 -1 -2 0 0 0 0];

internalField   nonuniform List<scalar> 
654
(
0.3045519463
0.4097706728
0.4164760707
0.4230609298
0.4211361056
0.4281078054
0.4169813411
0.4263968939
0.4166644766
0.4087936686
0.4000724047
0.412754576
0.3989633522
0.4095491367
0.4102025246
0.4235351283
0.4203303001
0.4264084485
0.4646024144
0.7663412223
0.3319834582
0.4211481266
0.4209538886
0.4148506824
0.4257388041
0.4317908808
0.4285766089
0.4285798649
0.4193981536
0.4220793839
0.4260002485
0.4244261704
0.4312315504
0.420231337
0.4172532723
0.4206473641
0.431739177
0.4543381648
0.5300582038
0.7572690735
0.3216722826
0.418780281
0.4271400083
0.4185865677
0.4109305129
0.409050134
0.4144926394
0.4163875701
0.4185187521
0.4279310783
0.423670782
0.421624153
0.4123599907
0.4116295288
0.4283165108
0.4401781922
0.4471368221
0.4391768236
0.5238299915
0.6692113314
0.3210282713
0.4030454533
0.4002123764
0.3967780134
0.3899091025
0.3822675393
0.3851629241
0.3978941726
0.4032231159
0.3964018871
0.4115222327
0.4095183516
0.4325029144
0.4294163998
0.4323123182
0.4280403892
0.4376850408
0.4583180471
0.4847249523
0.6023603806
0.2963911402
0.387328312
0.3818819596
0.3929561921
0.3964996892
0.404505258
0.3998436217
0.3944033934
0.3914679524
0.3960112757
0.3974622553
0.392948392
0.4049836621
0.4168819185
0.4236455577
0.4274740393
0.4433290602
0.4596471251
0.4891254497
0.5505938201
0.3149392569
0.3969141768
0.3999269821
0.40462045
0.4070794982
0.4084590811
0.4049748761
0.4002137114
0.4097187771
0.4236698948
0.4224345998
0.4248801723
0.4131942998
0.4102539352
0.4016617599
0.4188829674
0.4299371028
0.4612505687
0.4460241136
0.4648315832
0.3225651288
0.4311781191
0.4321920676
0.4231964106
0.4290220194
0.420986966
0.4192148334
0.4117624265
0.4145738821
0.4106807785
0.4040048925
0.4008997746
0.4128029958
0.4101298762
0.4088041296
0.4060582184
0.4228381859
0.4209441318
0.433658131
0.4577938313
0.3336537931
0.4243810377
0.4207260453
0.425041757
0.423669832
0.4193351491
0.4303000041
0.4199231498
0.4316625839
0.4208924289
0.410447753
0.4129153108
0.4116438599
0.411919694
0.4319907348
0.434584988
0.4378912049
0.4403949415
0.4514366782
0.4535221429
0.3179321191
0.4214150309
0.4275734058
0.4213712314
0.4157522511
0.4133905723
0.4136799187
0.4108625752
0.4113909579
0.4158276503
0.4297033078
0.4248445357
0.4189869018
0.4169128946
0.4039809432
0.4143674166
0.4161594119
0.4328044585
0.4365891641
0.4454579911
0.321916761
0.4072197633
0.4065189986
0.4090509767
0.4051589771
0.4156384303
0.4102517119
0.3999475476
0.3933541205
0.3966957856
0.4016127173
0.4113858175
0.4294256028
0.4180699024
0.4208087781
0.4128340765
0.4170725003
0.420530498
0.4219479969
0.428157228
0.3110174819
0.3981628676
0.4034018276
0.3941240935
0.4031141901
0.4008946449
0.3973817609
0.3947170263
0.4001407677
0.3958613124
0.4004651721
0.3873890496
0.3968925019
0.3972250567
0.394865044
0.4049339872
0.408797939
0.3984046403
0.4155842776
0.4179089079
0.3209009204
0.4202505785
0.4154096225
0.4073646994
0.4011296404
0.4069798447
0.4107823806
0.4069622884
0.4105319602
0.4051614496
0.4053619339
0.4051012137
0.4060305776
0.4060984719
0.4123405089
0.4033098785
0.4103405691
0.4223522989
0.4112228251
0.430354983
0.3144022859
0.4050988318
0.4006122017
0.3994683678
0.3994610683
0.401161525
0.3990734677
0.402198533
0.4038806761
0.4003338239
0.3979262553
0.3925216551
0.4048326418
0.4117349587
0.4045527329
0.4140293095
0.4147261648
0.4121123906
0.4167215662
0.4031779543
0.315260772
0.3964013346
0.4087092014
0.4193731198
0.4220596622
0.4211531341
0.4134899399
0.4055046357
0.3896132874
0.3863588786
0.3919136995
0.3938449058
0.3959993925
0.389803485
0.3965905151
0.3887524479
0.3850748508
0.3903925822
0.3875433825
0.3978557431
0.3088567995
0.4068324951
0.4151307814
0.401663225
0.4060909643
0.4144497555
0.4123576743
0.4299778785
0.4350850728
0.4339627235
0.4278712818
0.4244758947
0.4202936505
0.4093868778
0.4095240974
0.3938652275
0.4010536152
0.401257115
0.3929808763
0.4089441634
0.3204161792
0.4053715701
0.4024916165
0.395578155
0.3858953391
0.4006863753
0.4019476995
0.40442332
0.4056427647
0.4019207191
0.4081788001
0.408646743
0.4057903545
0.411669448
0.4159157748
0.4206190892
0.4309676023
0.4192792182
0.418097014
0.4125980067
0.3272976686
0.4194136555
0.4158037615
0.4262059514
0.4258638776
0.4170918222
0.4177751596
0.4112969739
0.4035428977
0.4181458974
0.4255435258
0.4204818466
0.4232710205
0.4281892498
0.4243505507
0.4174850491
0.4277746698
0.4354546381
0.4338875299
0.4285096585
0.321736741
0.4166480032
0.4157160527
0.4205606278
0.4161936458
0.421479107
0.4222672987
0.4264819884
0.4245398845
0.415093863
0.4077624905
0.3949989696
0.4091396612
0.4117455917
0.4090952117
0.403454165
0.4037639953
0.4004859462
0.4001033263
0.4033144351
0.314171196
0.4131053125
0.4203386427
0.4107658546
0.4091195007
0.4119082736
0.4079632798
0.4048935191
0.4247126708
0.4185099806
0.4170373435
0.423905148
0.402404023
0.3973945963
0.3941509447
0.3970696382
0.3970455382
0.3955536271
0.4095718023
0.4119099467
0.3118023704
0.4079077349
0.4147656615
0.4270157113
0.4300169019
0.4302647463
0.4220675546
0.4172301948
0.4090427576
0.4116853814
0.4198309906
0.4220649847
0.4400316211
0.4376502374
0.4350468653
0.4411271327
0.4422252854
0.4485050957
0.4336493777
0.4360061131
0.3228812879
0.4075709464
0.4079026273
0.401059343
0.3962735891
0.401646599
0.3948788577
0.4093706677
0.4188210234
0.4137128976
0.4173780445
0.404516416
0.4089023388
0.4156003193
0.416392235
0.4146445136
0.4220230555
0.4149237236
0.4253729324
0.4228050274
0.3043738359
0.3948334461
0.3980609584
0.3962644593
0.4024565702
0.4052888172
0.4118224802
0.4059044044
0.4108606308
0.4177750217
0.4121551286
0.4243193633
0.4058165762
0.4135584505
0.4152454683
0.4074878517
0.4074128525
0.4217472635
0.412416265
0.4117772991
1.763849465
2.35120948
2.426871143
2.614130379
2.72611325
2.786286206
2.764211838
2.754197952
2.707613235
3.013684754
1.086279539
1.588513976
1.82212189
2.132406612
2.186726439
2.312353665
2.413192932
2.583553696
2.699527056
2.811247365
0.8373380676
1.060968095
1.305029224
1.492502061
1.684315817
1.899155794
2.057281636
2.245887689
2.434133414
2.499825126
0.6439337956
0.8589893888
0.9429599151
1.26755257
1.380262588
1.529243896
1.692269417
1.837773413
1.870648583
2.075158954
0.5994808868
0.7120153813
0.7799701732
0.9459403086
1.163952575
1.217447081
1.377694591
1.466259012
1.626048804
1.813876914
0.5387880564
0.6050457095
0.6929268551
0.7646628896
0.8961521277
0.9926931777
1.154521381
1.207282906
1.293929967
1.461206812
0.5094606895
0.5594125875
0.6021900855
0.7095636055
0.7275533186
0.7986159978
0.9228793835
1.000485428
1.107725215
1.259980416
0.4827079914
0.5245708074
0.5350819839
0.5896748642
0.6358392491
0.6683735224
0.7515014281
0.8421929151
0.9571110878
1.058833007
0.4613237658
0.4688591156
0.4919104915
0.5206035787
0.59042258
0.6361466893
0.6730177833
0.7464724843
0.8058804005
0.9063561064
0.4379761665
0.4485472032
0.4802173696
0.4918900215
0.4876389165
0.5515334984
0.5894803468
0.6325527396
0.6732844307
0.7363951774
0.4343397638
0.4664516266
0.4548517268
0.466246096
0.4910302098
0.5143673077
0.5059953365
0.5311287542
0.5840231837
0.6470273144
0.4226712486
0.437995816
0.4270329004
0.4173904944
0.4301551642
0.4447204072
0.4909784225
0.5130777452
0.5373426734
0.5830541947
0.4096520184
0.4068398595
0.4095211675
0.4118360497
0.4133305438
0.4309976467
0.4695233306
0.4744814854
0.4861820684
0.5377243303
0.4073238074
0.4036412662
0.419921136
0.4460769161
0.4498324086
0.440968196
0.4349286179
0.4534110736
0.4786313752
0.4725926745
0.4104801073
0.4260058777
0.4218090899
0.4355978705
0.4351234095
0.4446144155
0.4631084622
0.4659724572
0.4632592444
0.4712613835
0.4273367959
0.4312085491
0.4154500882
0.4112731306
0.4270961204
0.4304855106
0.4441478168
0.4494925804
0.4623166582
0.4814028001
0.4243330238
0.4241074495
0.4251910984
0.4166573219
0.4123530122
0.4175938482
0.4266306174
0.4400763095
0.4437497663
0.4673044632
0.4119022528
0.4175082772
0.4307400918
0.4277823863
0.427465069
0.426892059
0.4323133388
0.4334807492
0.4339161113
0.4466908897
0.4134717857
0.4253057799
0.4248556358
0.4460345018
0.4473488177
0.4385837265
0.4285884114
0.4188458863
0.4109414499
0.4255248755
0.4344287629
0.4387519934
0.4339597167
0.416422235
0.4171239225
0.4295296159
0.4306634048
0.4608093127
0.4471367201
0.4434498772
0.4192715414
0.4004829872
0.4095794681
0.4149364938
0.4169118342
0.4151678771
0.420290305
0.4175634212
0.4208911909
0.4179761205
0.4190855471
0.4186887502
0.410756233
0.4143375215
)
;

boundaryField
{
    flow
    {
        type            calculated;
        value           nonuniform List<scalar> 
42
(
0.3045519463
0.3319834582
0.3216722826
0.3210282713
0.2963911402
0.3149392569
0.3225651288
0.3336537931
0.3179321191
0.321916761
0.3110174819
0.3209009204
0.3144022859
0.315260772
0.3088567995
0.3204161792
0.3272976686
0.321736741
0.314171196
0.3118023704
0.3228812879
0.3043738359
0.3045519463
0.4097706728
0.4164760707
0.4230609298
0.4211361056
0.4281078054
0.4169813411
0.4263968939
0.4166644766
0.4087936686
0.4000724047
0.412754576
0.3989633522
0.4095491367
0.4102025246
0.4235351283
0.4203303001
0.4264084485
0.4646024144
0.7663412223
)
;
    }
    obstacle
    {
        type            calculated;
        value           nonuniform List<scalar> 10(9.182694218e-19 1.111550438e-18 1.161510015e-18 1.044006757e-18 1.160444022e-18 1.388118625e-18 1.040996965e-18 1.134635914e-18 1.2162767e-18 1.109436e-18);
    }
    frontAndBack
    {
        type            empty;
    }
    procBoundary0to1
    {
        type            processor;
        value           nonuniform List<scalar> 
21
(
2.763963503
2.788582506
2.564266685
2.096910121
1.90836309
1.604852173
1.370612597
1.181098607
0.9994145261
0.7482991745
0.7031124778
0.6528547674
0.5644755945
0.4945583397
0.4972563451
0.4806630672
0.4581006314
0.4519648395
0.4483420883
0.4387423986
0.4084951267
)
;
    }
    procBoundary0to2
    {
        type            processor;
        value           nonuniform List<scalar> 
31
(
0.311920595
0.4082289388
0.4108300228
0.4080401512
0.4063801379
0.4038397771
0.4029017119
0.3990791022
0.3933599503
0.3933567043
0.3893193222
0.4015151765
0.4052705001
0.4087300977
0.4105240397
0.4059726779
0.3883508053
0.3858816281
0.3874503433
0.3881044241
0.4194517985
0.4099906063
0.4108833371
0.4172446006
0.4120546367
0.4143082734
0.3884389493
0.3884364036
0.3882125117
0.4194517985
0.3886446654
)
;
    }
}


// ************************************************************************* //
