/*--------------------------------*- C++ -*----------------------------------*\
| =========                 |                                                 |
| \\      /  F ield         | OpenFOAM: The Open Source CFD Toolbox           |
|  \\    /   O peration     | Version:  2406                                  |
|   \\  /    A nd           | Website:  www.openfoam.com                      |
|    \\/     M anipulation  |                                                 |
\*---------------------------------------------------------------------------*/
FoamFile
{
    version     2.0;
    format      ascii;
    arch        "LSB;label=32;scalar=64";
    class       volScalarField;
    location    "0.001";
    object      internalT;
}
// * * * * * * * * * * * * * * * * * * * * * * * * * * * * * * * * * * * * * //

dimensions      [1 2 -2 0 0 0 0];

internalField   nonuniform List<scalar> 
654
(
290.8771552
300.249334
302.6120886
307.2682534
307.1532704
308.3577006
303.5500399
304.9776346
302.1807383
300.9921222
296.4537554
301.4195517
298.2374738
300.2135212
301.0097299
305.2537677
305.9879827
308.218965
322.3586393
407.7359996
314.5714428
309.4334664
303.8972662
302.6960018
307.2878254
308.7086607
304.4079349
305.2831979
305.1816365
306.6193977
307.8599168
305.0740059
306.043642
304.1332878
300.1663603
303.4240174
303.8613894
312.3699933
340.1522307
429.1743754
305.0504322
306.9155701
307.8519068
300.876548
296.9076874
292.992308
294.1040696
297.085288
297.2033713
304.7586336
301.7245887
298.7375683
297.1995293
298.2803787
304.2853431
312.8399592
318.1106086
313.6667995
354.1264077
408.996822
295.0265266
291.9992277
291.8926652
291.5894297
290.906339
289.1757237
291.5562785
296.1015709
297.9630508
294.2982914
302.8088053
300.8250715
305.8224954
304.8798763
308.2575829
304.0270707
306.6806268
308.6979515
320.219968
370.1567036
278.4934891
283.4469088
281.9532787
286.0005742
288.4588505
293.6686398
292.3595202
291.5076316
290.3872374
291.3954381
291.9688725
285.5168447
291.9437068
297.7434375
301.2747339
301.4696913
308.7688982
315.085632
333.3870451
358.9609741
292.5229013
290.6453341
288.7174102
292.1663966
294.9218211
295.7980551
292.9088786
288.0871187
289.0066676
297.3996934
298.6424731
302.2763581
300.164832
298.0910763
292.6428828
304.8067532
307.9531177
323.6491947
310.7081721
326.1619124
305.1482101
309.4156084
308.4881072
305.7701087
305.0358149
298.4685338
294.3318276
294.4498645
297.9306815
296.1120143
294.1035705
291.8431369
296.7807082
297.317589
299.7937941
297.6545587
306.5942039
307.5938646
309.7888897
319.8683053
309.6572747
307.6487578
304.4913221
303.6960657
302.5293353
302.2267236
306.0696218
298.8720267
301.5493715
300.2378265
295.8826483
299.0251692
299.4137992
298.490642
305.0881236
304.6926357
310.4531885
310.0788963
319.340412
314.9220644
300.5201042
306.6492488
311.7175254
306.6173774
304.9534619
304.5702524
301.5886368
301.8125148
305.3613455
306.4307194
307.9124996
303.4304604
303.6750535
305.2896435
303.882646
309.4863791
307.5223694
316.1276321
318.2903614
320.9211717
298.8441303
297.3152457
294.3317918
299.1546974
295.1908866
302.8894697
300.9823122
295.6682147
290.0539749
293.7013484
294.5200196
300.2938766
308.4125646
301.5648264
300.6098002
296.9258261
300.7206195
308.0684189
307.7454188
308.1380062
289.4213846
290.2152655
292.9898892
285.535862
292.2926034
293.8075503
291.4172758
288.6110323
290.3787995
290.9772439
292.4450501
285.1113072
287.2423136
288.986565
286.2515746
293.8571987
292.5104205
283.9052868
292.3730998
297.6821318
297.9010977
299.5956048
295.7201365
296.9223502
291.9493567
292.2920684
295.6947977
295.1443467
293.6907482
291.7694554
293.5551618
294.1013004
295.8879097
298.1869106
300.2973782
294.1518111
295.6215376
299.8032503
296.9954765
303.3168972
293.5136694
295.5805594
292.6138681
290.9229167
287.6644322
285.1686233
284.6735705
288.8581404
293.76716
289.0111196
285.3183936
288.2178284
290.2703642
293.3444318
288.1093343
291.8104598
291.2979465
292.8932549
295.6252897
292.0343818
292.5090224
288.6288266
294.0807071
298.9087898
305.5836924
307.3590787
303.9351392
298.4440497
290.9353114
288.6291068
293.9153463
291.5285777
293.4981918
291.0773373
293.3735702
293.3793757
291.8072057
292.5852917
291.3289281
295.5038449
293.4573525
293.4589887
298.8249209
293.0122875
293.8995006
293.6542208
291.222517
300.7349526
304.1846653
301.0996687
299.2615576
301.5568861
296.7669328
291.1347007
292.2482803
287.5649648
290.8591549
291.3105054
292.3201248
301.2943095
296.9754312
296.4638059
294.048386
287.9088859
283.2326988
292.483746
289.9956096
291.2379052
287.2385421
289.1961543
293.6383077
296.6134121
297.772046
301.8314057
302.9011558
304.9851671
315.0506544
303.4442125
301.2095109
301.4318136
301.745041
299.6747378
296.9124212
297.6776972
300.577976
297.1609794
298.381404
296.8024638
295.6860857
304.2704126
306.256966
302.3638541
299.2337854
301.484957
302.3325286
295.2634111
296.8653951
303.9541738
307.2388623
311.5509991
301.0072882
303.1804464
301.7446217
303.9288365
299.4040793
301.7084367
300.6634999
302.5494036
304.7148572
295.6163852
296.033373
292.1340985
298.2786137
302.8449974
297.7468426
295.8080526
290.4623568
290.0240672
287.8289211
284.3161729
293.8501345
297.7367039
299.3515471
299.2759476
299.267749
299.6061235
299.9361743
294.1961905
303.0251025
299.0290541
299.0829635
298.952784
291.1099875
284.3508966
281.7980084
285.2334871
286.5182616
285.7381306
289.1375891
292.2715149
295.3683397
294.9074732
295.9888125
299.2650556
301.1862817
300.1508066
297.2348968
295.8654023
288.7641096
286.9596644
293.4609522
296.9925098
298.2296272
295.521344
296.0629468
300.6125562
300.7126938
304.4471687
297.0886279
294.4111565
301.4293337
298.7004762
296.6305279
289.2946621
290.2373712
289.598125
288.3655692
296.0266825
301.5436982
297.4348732
294.8878672
289.3277636
294.8297108
301.786598
296.7233434
296.9994212
299.3862045
299.7928832
302.3176821
303.7831597
284.3041474
284.4497454
288.8092303
292.8831647
292.059358
296.5280082
298.5446172
294.8075054
294.4104026
301.1647132
299.4724861
301.8773767
292.4228994
297.7547392
300.2749051
296.1431131
295.5327463
303.0231619
302.5065226
305.2571756
536.1052877
602.2500054
615.3864915
642.4563769
669.0365986
668.6333597
676.6451751
671.4703366
680.8332355
714.5844607
483.1476969
577.1105141
612.1313276
653.2385184
653.529793
692.052513
710.2032756
733.4904669
750.0132138
785.4019865
453.5822008
489.1996944
521.0811788
564.1940387
587.6915219
643.2189934
669.621676
694.5147405
714.0043251
743.3522151
373.5145459
439.7894169
453.5518496
530.3053756
563.9796564
587.5595083
619.9090264
632.7735665
631.4348377
683.0204276
377.7662371
412.9498544
417.3880329
462.0435854
522.2551498
530.4878531
559.2289668
578.9887371
608.080868
618.9457237
365.3663769
384.7564256
404.9157653
424.7166193
472.4763355
491.3409802
537.2094338
523.664928
537.9184292
575.466481
350.6945257
370.8827967
370.0509561
408.2765728
417.4072421
435.8920779
465.1119494
479.1256245
500.1801986
537.2004078
326.8253433
351.5074926
361.2196066
375.3738376
390.0162132
397.1207706
422.7896384
439.2093751
469.6538525
494.9100467
326.8433736
325.0619041
332.6012214
345.7345592
368.5294706
382.4539642
397.7589426
418.5286468
422.9399396
461.2976373
310.1116142
314.4637611
322.906412
325.2023486
325.2116877
351.4047365
365.4820367
377.4922185
394.9183047
412.7067655
301.4994561
320.4235072
311.8628185
315.374138
325.9256504
340.0231976
333.2427918
341.7508868
365.6042389
392.51841
301.1207333
308.8912622
303.6941902
300.5983829
307.240306
305.5709368
326.9816303
337.8443222
347.8138422
364.6605662
296.2305251
290.9129917
291.8475776
296.0955526
298.5766163
307.6364446
327.8020923
323.8698207
327.3768486
343.3754444
300.0571651
295.753904
304.7880684
312.763593
316.2023948
308.4384014
306.2876641
316.9625683
324.6279467
321.6126935
300.4025731
306.5283821
303.6436048
312.3194405
308.3710679
311.314076
314.9856359
313.3300437
314.5927167
321.0425989
303.6330578
304.1046236
297.0638945
294.5677191
302.7458022
313.4203197
313.9776797
319.2281479
320.8702223
325.4968266
307.8102731
308.0607229
312.5960853
309.7988226
303.1327478
303.9021694
305.16471
308.6871329
313.2264565
323.5657854
290.9957693
296.9988095
300.3927905
292.7994907
292.1329817
293.1403952
300.1839304
298.9136353
297.7523718
303.9857935
292.3429962
290.0744792
294.3670412
307.7748687
306.591983
302.0986134
297.5974632
295.5545197
293.9316431
300.3931059
300.4777822
304.1272482
305.6314487
300.0920776
296.9259395
306.5885953
306.1384293
316.6335607
311.0595324
302.8575266
301.6757675
292.6920098
298.6772463
298.1983328
299.6863864
298.5019522
302.3214012
302.0125682
304.5728661
304.1075279
309.3133086
307.3028193
307.271244
306.6632522
)
;

boundaryField
{
    flow
    {
        type            calculated;
        value           nonuniform List<scalar> 
42
(
290.8771552
314.5714428
305.0504322
295.0265266
278.4934891
292.5229013
305.1482101
309.6572747
300.5201042
298.8441303
289.4213846
297.9010977
293.5136694
292.5090224
293.4573525
296.9754312
301.745041
301.0072882
293.8501345
295.3683397
301.4293337
284.3041474
290.8771552
300.249334
302.6120886
307.2682534
307.1532704
308.3577006
303.5500399
304.9776346
302.1807383
300.9921222
296.4537554
301.4195517
298.2374738
300.2135212
301.0097299
305.2537677
305.9879827
308.218965
322.3586393
407.7359996
)
;
    }
    obstacle
    {
        type            calculated;
        value           nonuniform List<scalar> 10(494.2834709 541.3611372 582.729957 575.3061584 582.6583015 620.8277385 587.7924052 620.750232 629.7004412 605.5498516);
    }
    frontAndBack
    {
        type            empty;
    }
    procBoundary0to1
    {
        type            processor;
        value           nonuniform List<scalar> 
21
(
671.155077
750.5136984
762.1228674
712.7110799
638.0142212
595.1520768
560.4271435
510.7516213
488.3005406
410.4559831
405.8743145
389.2509665
357.2740142
329.4246503
326.5728224
329.6217667
311.6996087
309.4813863
308.1116206
300.746292
296.7062502
)
;
    }
    procBoundary0to2
    {
        type            processor;
        value           nonuniform List<scalar> 
31
(
292.3742056
296.5577475
296.2196234
293.9642481
293.8641518
292.8797842
295.8396179
293.9015778
292.4144546
290.9195088
290.2172512
296.0090595
299.4759721
301.9041471
301.7550588
302.9561712
293.0762686
290.8341671
289.9427752
291.2470116
311.8885036
304.865311
305.4727709
302.5778843
300.434813
301.1021035
290.217466
291.3113122
285.8401996
311.8885036
287.7099606
)
;
    }
}


// ************************************************************************* //
