/*--------------------------------*- C++ -*----------------------------------*\
| =========                 |                                                 |
| \\      /  F ield         | OpenFOAM: The Open Source CFD Toolbox           |
|  \\    /   O peration     | Version:  2406                                  |
|   \\  /    A nd           | Website:  www.openfoam.com                      |
|    \\/     M anipulation  |                                                 |
\*---------------------------------------------------------------------------*/
FoamFile
{
    version     2.0;
    format      ascii;
    arch        "LSB;label=32;scalar=64";
    class       volScalarField;
    location    "0.001";
    object      internalE;
}
// * * * * * * * * * * * * * * * * * * * * * * * * * * * * * * * * * * * * * //

dimensions      [1 -1 -2 0 0 0 0];

internalField   nonuniform List<scalar> 
654
(
0.4009540978
0.2350579725
0.3627174195
0.153023143
0.3694721537
0.6466231201
0.3039805725
0.3969859937
0.2283521803
1.012871927
0.2315830959
0.3921860626
0.3993937342
0.1992862709
0.3905716252
0.2304412364
0.2761982436
0.248381037
0.1194745693
0.4401572894
0.2240662271
0.4823349935
0.357505251
0.6351359006
0.5327671225
0.2570775587
0.761982533
0.5537200291
0.7083715957
0.3987751082
0.3330004899
0.4315410127
0.3403550499
0.4289421526
0.6193452397
0.3311667616
0.3732755099
0.700149577
0.3663681568
0.34590288
0.3946426285
0.4073360297
0.3123372173
0.1271007286
0.2361689967
0.2861681173
0.4519253565
0.7508877095
0.05161360521
0.3772430492
0.04595284842
0.498942053
0.4438905406
0.342594622
0.4556355385
0.4133998283
0.9687644136
0.2327374633
0.4156767066
0.6119213183
0.3156636228
0.4642012346
0.5688476611
0.1786285509
0.474751609
0.2707410273
0.7351823901
0.2230365914
0.2451639475
0.4314813821
0.4729541276
0.4560009949
0.4881553348
0.432138851
0.7807547186
0.1719337185
1.080840828
0.5880999177
0.6591985676
0.4828544488
0.4118836968
0.1864343973
0.531029144
0.3759797369
0.3135031068
0.599743655
0.700961218
0.2957179567
0.3945315593
0.1104291304
0.6542916446
0.3553427028
0.2441612283
0.5634209098
0.6444039383
0.3399575575
0.09941381519
0.7314191861
0.2807711576
0.3542351104
0.5095610508
0.3664640657
0.3586298685
0.3785757644
0.2697712501
0.6052864444
0.4363163881
0.1002901073
0.4012580814
0.06765946256
0.2789765711
0.670202695
0.1667841277
0.2534606627
0.4014017699
0.7845963423
0.6072640282
0.1737557961
0.2987935585
0.132201393
0.5913714539
0.2596114165
0.3974023583
0.485950534
0.834876199
0.5594236876
0.4096275538
0.30872335
0.2810719042
0.6595799908
0.3668897813
0.25874958
0.4349785515
0.2593069002
0.2613630489
0.2645179969
0.2577065317
0.4106060101
0.8888718983
0.2207138101
0.2984042173
0.7480252375
0.725855623
0.2893349592
0.5379563108
1.278600522
0.3952945088
0.4261114437
0.2105456276
0.4101551361
0.1081415151
0.4612869339
0.3763465377
0.3963601495
0.02399821079
0.5926573097
0.3195769796
0.837386773
0.5308282442
0.2260969674
0.1289439461
0.276940286
0.2578211514
0.4654442227
0.3846160856
0.4500514597
0.8632013731
0.3264811316
0.6589016177
0.2250753834
0.2444751867
0.5181602003
0.7180445007
0.5585306396
0.3322257751
0.3340552998
0.2860457455
0.5984506036
0.8985231735
0.4640544981
0.4688793512
0.4136493782
0.3544909862
0.1394344884
0.2735042393
0.5621522746
0.3949140985
0.7613538155
0.3990519285
0.5797656702
0.3388990035
0.4104662687
0.9087649094
0.487262096
0.6777897129
0.603756272
0.1631095652
0.4672550842
0.3002528097
0.08259161477
0.264807258
0.2268725708
0.6336721273
0.2887550475
0.2751760576
0.2926457749
0.5196719257
0.1728808136
0.9897826506
0.610345785
0.5460697772
0.5548673019
0.1742895435
0.04845319865
0.2403491695
0.1727103088
0.3414911951
0.148005449
0.552303111
0.6367124679
0.3479010006
0.713177547
0.7814724585
0.2621907365
0.4274133166
0.3016686407
0.1909205843
0.5758617775
0.4876661637
0.2349203483
0.4109831223
0.14855129
0.4766402194
0.1663471767
0.2919593869
0.2635558133
0.468714214
0.5520710827
0.3359739128
0.3338178088
0.2615738973
0.2804198634
0.4762120086
0.337405448
0.251956527
0.3454330453
0.6644634821
0.133767152
0.1563434366
0.3326821829
0.6028081051
0.1836463955
0.4498141532
0.2699610327
0.3953517158
0.4103775956
0.3780715903
0.577404313
0.6213365975
0.5422860366
0.4729144718
0.3822843597
0.5376740468
0.202563215
0.5144498548
0.4552845353
0.4382111395
0.4215589158
0.6964882824
0.4324752286
0.3939999053
0.3110782548
0.2106840734
0.6137344809
0.04020522749
0.3126545062
0.2596952732
0.3590177064
0.1922968858
0.5517724004
0.3528767125
0.316620696
0.4494062576
0.1697581617
0.30789544
0.5013526081
0.2499040054
0.3408991481
0.3505094759
0.804007841
0.4562612487
0.1901101321
0.1088518287
0.4077371958
0.6842912467
0.8938469871
0.1228514534
0.5147979869
0.2062989022
0.3629518291
0.2807029286
0.2771325007
0.630316392
0.1045169673
0.5193269227
0.1691400437
0.3493043093
0.3299396389
0.4722862342
0.2874663875
0.3339251663
0.2645399297
0.9544812743
0.1520751135
0.3020201111
0.4076078541
0.4216998505
0.7152326441
0.6423078921
0.1934041307
0.3757586979
0.5001753189
0.2341723839
0.571587112
0.2729771358
0.7639470039
0.3517365046
0.6696594391
0.4444096003
0.4926715711
0.5699503706
0.2564577934
0.4840977667
0.4398077602
0.357287935
0.2750926381
0.2348397626
0.3854882818
0.6195112233
0.3340113412
0.2758642089
0.3794450835
0.4071636689
0.1793989981
0.3062396241
0.1271849836
0.6085442492
0.386080122
0.1513031753
0.1726613916
0.5046508042
0.1367369524
0.6253163424
0.284111071
0.3146163918
0.4989818518
0.1836303132
0.6309045468
0.3184187548
0.3365175588
0.219478744
0.1578857526
0.2190151778
0.4712645687
0.3061476915
0.2826478285
0.5127687338
0.1267740688
0.8545329658
0.3728929796
0.1260718494
0.5587505358
0.5030457693
0.3942997006
0.4769494114
0.3222680796
0.2530904731
0.2174948215
0.4891223455
0.2094974966
0.251080845
0.6126003305
0.5965872527
0.5827263318
0.259865175
0.4695211441
0.4416185052
0.4056579436
0.3375846544
0.3180986258
0.5527472046
0.2259307058
0.2807576291
0.6247765753
0.2543001029
0.466528996
0.2283337243
0.6110076978
0.2484589791
0.2428107955
0.245948427
0.6424941657
0.3498108973
0.3692401933
0.1176429391
0.4782010304
0.3569706727
0.2046025849
0.4052551775
0.3795278974
0.6453128405
0.189708384
0.1259801712
0.09750003435
0.6274862713
0.6280404378
0.3271550515
0.4532493251
0.5334865833
0.5710927217
0.2519073734
0.2978955398
0.450144976
0.1060972515
0.4833382565
0.4200262659
0.1346532644
0.3030698068
0.3801197857
0.6878538627
0.6475355878
0.7405545215
0.3068340632
0.4270144456
0.4339549271
0.5124524831
0.5846291606
0.4770097751
0.5984516438
0.4311299922
1.672850171
1.428509446
2.18390374
2.674616612
1.898790285
2.681566505
1.90165791
2.858186966
2.2752266
3.669705775
0.5228443263
1.992407844
0.8464899582
2.035697372
2.414180852
2.030274544
2.992040383
1.99906407
2.486747749
2.254034426
0.7326882432
0.6526697203
1.648826383
1.782133901
2.093307929
2.916765456
2.278832384
1.338211376
2.990412177
3.38884208
0.7295528638
1.592792862
1.459413419
0.7961718359
2.211894687
1.198719967
2.212657601
1.998202727
1.811775912
1.858208988
1.39329848
0.3268153021
1.324153068
0.8588182328
1.749444484
1.194405682
1.732806212
2.10746784
0.4120192473
1.727673437
0.4816186277
0.8240940787
0.6977079423
1.1734649
1.033260319
1.215239503
0.6193506452
1.458872318
1.34142994
3.118724626
1.508069981
0.4861313719
0.3096558078
0.990995187
1.128842475
1.032502527
1.270381117
0.8736710354
1.400009629
1.885080792
0.4081592383
0.8106020304
0.2673454034
1.463632953
0.3291906664
0.6953045239
0.5984104988
0.6515068223
1.27720238
0.5495494957
0.4512339046
0.52570249
0.296134459
0.6586178685
0.3803601184
0.3621530805
0.6468708143
1.155800297
0.6182118385
0.9569401866
0.3839142031
0.7528698984
0.4157831369
1.242187077
0.2297684007
0.9543440629
0.3265995164
0.7997532103
0.9500496463
0.4881941243
0.2083398499
0.5818043387
0.8219165013
0.261863346
0.3353329302
0.3200722371
0.6092329857
0.2431187458
0.2751972827
0.3791112711
0.09240103344
0.4451680954
0.5842270342
1.063102491
0.3808747913
0.3313374861
0.475680908
0.7151676512
0.6988253813
0.1464650912
0.4205865941
0.1537968051
0.1867525677
0.777915448
0.4167602303
0.7203907527
0.3642972847
0.3712620694
0.3264419584
0.5048168468
0.2095297267
0.3509948165
0.5856648873
0.4043488023
0.2022237824
0.31395453
0.3589478914
0.9941011286
0.6019049268
0.503031511
0.5464498831
0.2694241853
0.5343253766
0.388408017
0.1894251572
0.7295023774
0.7973199929
0.2235968955
0.5378387742
0.2455678237
0.7232802038
0.480496279
0.01787157682
0.4716809985
0.6096417116
0.1127836651
0.2305815758
0.1552990591
0.6066491938
0.4045433746
0.09981753138
0.3955492386
0.5062270469
0.7845259005
0.4204081632
0.3925928653
0.1244742291
1.246900886
0.4445729755
0.3361626614
0.3889093535
0.5349529829
0.7719217524
0.1885773399
0.3659815509
0.2462006825
0.1515828073
0.3917058393
0.1699598709
0.9803634578
0.4918890773
0.2976813728
0.552823124
0.397180596
0.3767701915
0.3370858678
0.4468220701
0.3993266613
0.4529415222
0.4431173722
0.4768735645
0.4875001137
0.2823995912
1.054958095
0.3118701887
0.4227945452
0.4373580087
0.4093332289
0.6306934642
0.3053111527
0.6102977801
0.4166553793
0.4911498493
0.5368389246
0.4770971057
0.6886716402
0.2538819046
0.1951819129
0.5156125644
0.8651353871
0.326903775
0.6873989143
0.6592221123
0.6991225053
)
;

boundaryField
{
    flow
    {
        type            zeroGradient;
    }
    obstacle
    {
        type            calculated;
        value           nonuniform List<scalar> 10(1.070621684e-19 1.254579362e-19 8.073257788e-19 2.030568909e-18 9.831567198e-19 0 0 1.532421705e-18 4.122902418e-19 3.237240698e-19);
    }
    frontAndBack
    {
        type            empty;
    }
    procBoundary0to1
    {
        type            processor;
        value           nonuniform List<scalar> 
21
(
2.9008492
1.730854767
3.632858972
2.005150601
2.541119567
1.733291335
1.252121527
1.343308816
0.8607558847
0.7430797487
0.4870206591
0.8156062577
0.3637853366
1.347153693
0.3954408306
0.350364731
0.4611391465
0.3439146197
0.3880282769
0.3960243865
0.07669668623
)
;
    }
    procBoundary0to2
    {
        type            processor;
        value           nonuniform List<scalar> 
31
(
0.2758817914
0.4158439318
0.2656579964
0.2113620845
0.3748747081
0.7341806161
0.4316168041
0.1366738316
0.2939683174
0.3540337743
0.2304061461
0.5150404243
0.251711199
0.4094312642
0.3717543416
0.5168162156
0.3379192141
0.2448191331
0.2431282856
0.3486619383
0.4894007691
0.2438897356
0.3762706796
0.4651889455
0.5468573932
0.3010050809
0.4669756979
0.3653645418
0.3447757641
0.4894007691
0.5234073281
)
;
    }
}


// ************************************************************************* //
