/*--------------------------------*- C++ -*----------------------------------*\
| =========                 |                                                 |
| \\      /  F ield         | OpenFOAM: The Open Source CFD Toolbox           |
|  \\    /   O peration     | Version:  2406                                  |
|   \\  /    A nd           | Website:  www.openfoam.com                      |
|    \\/     M anipulation  |                                                 |
\*---------------------------------------------------------------------------*/
FoamFile
{
    version     2.0;
    format      ascii;
    arch        "LSB;label=32;scalar=64";
    class       volScalarField;
    location    "0.001";
    object      linearKEMean;
}
// * * * * * * * * * * * * * * * * * * * * * * * * * * * * * * * * * * * * * //

dimensions      [1 -1 -2 0 0 0 0];

internalField   nonuniform List<scalar> 
654
(
5.78751498
7.842195105
7.831187746
7.898140032
7.831418331
7.923647394
7.808485359
7.924467486
7.764899559
7.700695981
7.665028482
7.731884492
7.593484137
7.734323459
7.728738201
7.823360545
7.718526189
7.688490051
7.763633801
8.412828296
5.813832127
7.85686402
7.881012061
7.813989113
7.896115974
7.974468768
7.986553535
7.992928357
7.857684971
7.867556796
7.959291224
7.950410603
8.034249943
7.857204863
7.920895221
7.832935971
7.984673575
8.026103783
8.197275424
8.26726651
5.851676646
7.91232466
7.88855894
7.897482308
7.806713828
7.867503742
7.967214839
7.932114651
7.901235242
7.912481204
7.868102432
7.909965543
7.789832167
7.703450846
7.847001613
7.845834456
7.821950782
7.744333213
7.786702429
8.112029128
6.044342848
7.92910431
7.829319348
7.791942539
7.656351929
7.615470144
7.60893486
7.681704364
7.724890283
7.628455897
7.698264549
7.693516423
8.019793206
7.955910491
7.872719826
7.869426908
7.876338509
8.147775727
8.230035014
8.449089094
5.859917424
7.886286481
7.779690469
7.864852896
7.886405901
7.863979572
7.819286555
7.717728275
7.696775354
7.744794883
7.765002085
7.850457601
7.889174584
8.013894847
7.982015349
8.013800415
8.088131275
8.083272771
7.978734197
8.207707171
5.945436864
7.901104514
7.883102063
7.88865284
7.870755447
7.909391988
7.937399219
7.946290124
8.153888688
8.201865098
8.128491114
8.092825494
7.824378472
7.830068126
7.783562497
7.801715253
7.94477151
7.990428256
7.97183308
7.887676494
5.845668947
8.064412051
8.025744121
7.953447919
8.09846037
8.06542176
8.118193304
7.959972128
7.902311317
7.819859387
7.725085608
7.670698118
7.81495227
7.745081775
7.651725744
7.595809003
7.633986488
7.614250817
7.752041716
7.866295723
5.962846283
7.902848796
7.784683756
7.835236134
7.847969072
7.824644108
7.962432364
7.97607286
8.121722036
8.008303155
7.865695628
7.886858493
7.873579428
7.912881242
8.084969339
8.131734004
8.096904277
8.081246855
7.995167663
8.102389027
5.808160699
7.940472964
7.876983934
7.90925565
7.875138237
7.7761335
7.843096112
7.778148272
7.718998502
7.763982179
7.984147288
8.077366519
7.903579116
7.86988107
7.693595119
7.721222957
7.766116095
7.85429064
7.800088062
7.764182658
5.949675623
7.856847967
7.825057014
7.767116632
7.756114609
7.772661467
7.723031175
7.691508281
7.736551817
7.725145753
7.783995677
7.831984991
7.916303739
7.909826627
7.96944868
7.951060064
7.942988525
7.813391549
7.777247792
7.903876927
5.821637955
7.799806333
7.773485141
7.774017781
7.790915342
7.755356216
7.728437701
7.766301005
7.841411432
7.687498463
7.769936096
7.68700196
7.873852795
7.811636948
7.85169231
7.820308766
7.929600156
8.04558482
8.102433055
8.003525696
5.925705634
8.054963312
7.983763507
7.786654571
7.815412221
7.891242979
7.812416087
7.758377463
7.836605882
7.793844461
7.758173621
7.73886752
7.705424588
7.649915677
7.73652781
7.712013275
7.785455639
7.825683578
7.716073269
7.929960723
5.860082225
7.793385775
7.704405731
7.715695401
7.828300688
7.921899992
7.923789751
7.846160986
7.733152209
7.841387819
7.928769357
7.700939426
7.889917817
7.959502424
7.910732908
8.003102149
8.004155473
7.970107974
7.990385821
7.816512043
5.892974369
7.905709045
7.906241634
8.016312092
7.852955389
7.786805037
7.760233639
7.784336622
7.66005883
7.618432019
7.587370126
7.717384484
7.641079828
7.655982679
7.7314956
7.545835694
7.484521775
7.565359359
7.550312611
7.579792132
5.847495628
7.979227265
7.907843547
7.812449827
7.87154254
8.067364086
8.071518255
8.131326236
8.156432246
8.227459384
8.145894154
8.032253374
8.057615693
7.968229753
7.940769665
7.802152951
7.833824675
7.826246474
7.634115863
7.667915742
5.899952059
7.831753737
7.774933408
7.791524944
7.736510087
7.793835262
7.877554143
7.91826501
7.980775025
7.878005427
7.8865236
7.830166633
7.773486403
7.752360613
7.769684818
7.831337902
7.775134149
7.854502576
7.90939937
7.824482505
5.994590487
8.074329115
7.995226274
8.152040994
8.047572691
7.942846031
7.904282134
7.876996249
7.72956731
7.815262071
7.823284193
7.94992462
8.034882993
8.123641375
7.997766501
8.017645685
8.141703482
8.109963083
7.9545111
7.771113125
5.889220175
7.889961226
7.85992724
7.828432775
7.854806971
7.890864568
7.96346827
7.973343799
7.957710401
7.993057395
7.850099082
7.726088396
7.747607336
7.701545119
7.767655151
7.735531781
7.947304685
7.866982471
7.923080914
8.025220333
5.85510509
7.87813655
7.883621254
7.76289361
7.72271864
7.744379285
7.646704316
7.752616682
7.913213376
7.871363618
7.844755281
7.936424422
7.817399951
7.929719071
7.904026543
7.880583598
7.81681344
7.809146755
7.969682143
8.009498715
5.836675438
7.988900666
7.963922244
8.085789211
8.093111697
8.134773263
8.059772048
8.020761398
8.066041992
8.128514877
8.090194019
8.069043528
8.338761241
8.412215901
8.347949821
8.347459918
8.362445992
8.400509594
8.26115336
8.334793336
5.900649369
7.846516391
7.850730078
7.897232851
7.78024619
7.904038168
7.786505699
7.836623669
7.922043292
7.960872381
8.120633833
8.047544745
7.929815062
7.858565407
8.004881627
7.976746884
8.028684525
7.906088828
8.043845509
8.002675691
5.918735349
8.000522223
7.853927736
7.726124969
7.843206836
7.746946201
7.831161929
7.85213212
7.876177269
7.820689803
7.746584164
7.901214428
7.806818734
7.868597621
7.85852981
7.85340676
7.863154301
7.914863828
7.749411739
7.681489336
9.821456049
9.889840772
9.575081242
9.18348729
8.620854595
8.498519407
8.081530472
7.727206869
7.44413594
7.424257116
8.951075639
9.674622122
10.17412736
10.38344773
10.28806469
9.926823473
9.670052423
9.465591642
9.413452185
9.212916274
8.517942857
9.142566297
9.812380243
10.19416152
10.57402067
10.92906312
10.78634508
10.82673857
10.71313397
10.16922291
8.551237423
9.070654545
9.273275683
9.95995419
9.980119354
10.42115622
10.7428033
11.07278326
11.22446464
11.02422739
8.292520137
8.607378281
9.024404473
9.400846435
10.07701811
10.27197603
10.71145308
10.94107125
11.1957275
11.73634415
7.974975572
8.154266404
8.661184586
8.984154267
9.21724747
9.617053449
9.861257211
10.41071189
10.79822148
11.10564783
7.954632354
8.208214983
8.597601822
8.917552092
8.798284285
9.171370358
9.782396779
10.03125417
10.50258769
10.88681754
8.217203502
8.136901849
7.942421938
8.334249727
8.667437157
8.899266698
9.157505063
9.698331188
9.989685272
10.46073707
7.819895111
8.008564287
8.125909938
8.088217773
8.535075744
8.861013708
8.90909061
9.261858263
9.748897052
9.865038001
7.962815514
8.010712255
8.392361208
8.491379901
8.368439399
8.602304309
8.768398947
9.023240004
9.146597147
9.406313887
8.215513381
8.141084782
8.197222477
8.240647563
8.269654748
8.191529914
8.217947751
8.240837758
8.436315029
8.62352946
7.868262016
7.906039532
7.855951003
7.662596874
7.781718614
8.054622357
8.155371379
8.099467281
8.199355961
8.578788232
7.797601991
7.873763534
7.813879788
7.829105929
7.754281448
7.772569123
7.905610168
8.161381302
8.225996586
8.589140531
7.651179006
7.655243303
7.672103187
7.928276005
7.910056397
7.962147145
7.951465699
7.978227605
8.144006679
8.080445975
7.756404745
7.843177806
7.889455981
7.862360207
7.983656696
8.091655598
8.243668024
8.235349394
8.232714095
8.297888002
8.001249475
8.082707208
7.97704132
7.952624282
7.994946507
7.785329501
7.984544962
7.947058348
8.039370177
8.156688703
7.770585176
7.741173397
7.679866868
7.600890935
7.725692058
7.784380257
7.826879184
8.013925425
7.975579681
8.179964606
8.023115779
7.971712632
8.161092074
8.332527524
8.324408023
8.326458624
8.222537476
8.28502421
8.282477586
8.293524027
7.990562261
8.281285968
8.096114935
8.09890039
8.19623172
8.202286091
8.200767637
8.04716774
7.87741749
7.974691291
8.146107779
8.234326106
8.17057413
8.039235318
8.08256284
8.032484834
7.960337267
8.271287316
8.180191866
8.321813778
8.008814159
7.88221573
7.880657653
7.888007502
7.921604397
7.928000398
7.910800611
7.809051936
7.819917975
7.779626598
7.669685307
7.658895
7.515498818
7.667751342
)
;

boundaryField
{
    flow
    {
        type            calculated;
        value           nonuniform List<scalar> 
42
(
5.78751498
5.813832127
5.851676646
6.044342848
5.859917424
5.945436864
5.845668947
5.962846283
5.808160699
5.949675623
5.821637955
5.925705634
5.860082225
5.892974369
5.847495628
5.899952059
5.994590487
5.889220175
5.85510509
5.836675438
5.900649369
5.918735349
5.78751498
7.842195105
7.831187746
7.898140032
7.831418331
7.923647394
7.808485359
7.924467486
7.764899559
7.700695981
7.665028482
7.731884492
7.593484137
7.734323459
7.728738201
7.823360545
7.718526189
7.688490051
7.763633801
8.412828296
)
;
    }
    obstacle
    {
        type            calculated;
        value           nonuniform List<scalar> 10(4.040264224e-18 3.812652682e-18 3.430333326e-18 3.105343841e-18 3.020873228e-18 3.02732319e-18 2.677839944e-18 2.48986665e-18 2.63558064e-18 2.532234998e-18);
    }
    frontAndBack
    {
        type            empty;
    }
    procBoundary0to1
    {
        type            processor;
        value           nonuniform List<scalar> 
21
(
7.133921036
8.866138178
10.01801626
10.51265319
11.97886009
11.57713173
11.14456639
10.95557157
10.31548929
9.409873195
8.947649198
8.888220407
8.639526808
8.209148374
8.477983426
8.091624619
8.305560329
8.283297009
8.112871402
8.299266418
7.780478022
)
;
    }
    procBoundary0to2
    {
        type            processor;
        value           nonuniform List<scalar> 
31
(
5.829425998
7.833240006
7.836691127
7.838531964
7.871914964
7.826734795
7.734079169
7.718272179
7.687865764
7.741073014
7.654519497
7.735531322
7.730094093
7.687257329
7.671943512
7.547183377
7.445602205
7.472938569
7.570866648
7.542560394
7.647589723
7.616186002
7.620988244
7.807266568
7.730389863
7.711201105
7.600741334
7.611935441
7.72177462
7.647589723
7.657889817
)
;
    }
}


// ************************************************************************* //
