/*--------------------------------*- C++ -*----------------------------------*\
| =========                 |                                                 |
| \\      /  F ield         | OpenFOAM: The Open Source CFD Toolbox           |
|  \\    /   O peration     | Version:  2406                                  |
|   \\  /    A nd           | Website:  www.openfoam.com                      |
|    \\/     M anipulation  |                                                 |
\*---------------------------------------------------------------------------*/
FoamFile
{
    version     2.0;
    format      ascii;
    arch        "LSB;label=32;scalar=64";
    class       volScalarField;
    location    "0.001";
    object      linearKE;
}
// * * * * * * * * * * * * * * * * * * * * * * * * * * * * * * * * * * * * * //

dimensions      [1 -1 -2 0 0 0 0];

internalField   nonuniform List<scalar> 
654
(
5.981210053
8.272289857
11.08520553
6.701705401
6.076633611
8.418128845
7.188813187
8.113219846
4.331157802
11.58971717
4.506459771
8.442708544
12.23068452
4.918453687
9.850640349
6.082714992
6.42177993
9.300986481
6.08838652
5.840575644
4.638204797
8.747747448
4.865511555
9.704698563
7.229585632
6.753690466
13.16037809
9.143924432
9.928867504
7.441130252
4.041838983
7.61511394
9.564262982
7.05714445
10.7069422
5.214280894
7.528073998
4.482087272
11.35597919
6.32644773
7.636606135
4.885917033
6.95594111
6.237979809
8.595929884
5.380234945
9.282394679
11.52642141
1.578497688
8.191921705
3.333794321
9.680548346
11.44786436
7.113553872
6.826906617
9.757136401
11.79804864
5.175748383
12.88909194
7.132912807
5.538821036
8.40925487
9.27257786
7.034074247
11.61117279
4.270108427
9.273894929
4.512814723
9.165686166
9.184753775
10.478145
7.63119881
12.75232904
7.235928489
10.66570748
4.126870209
16.14604204
8.379026736
9.870441782
10.7827907
5.030913271
5.343479163
11.05105825
5.689418598
7.456201971
5.772990459
12.73433772
5.671003611
8.962315545
7.694944512
9.604295784
6.445374258
5.166653817
10.00125214
9.824181563
7.764765155
3.495606729
12.67604565
7.240696879
7.896113061
6.311690228
5.4954934
6.090527136
7.957152238
7.924284407
10.00482584
6.799960544
3.686165121
10.71220516
2.820962821
6.979836231
12.23488276
3.654287541
5.002537452
8.691323603
8.184585719
12.55244639
5.228789348
7.124342011
4.84035489
8.729157362
5.443575689
9.680845745
5.648682703
11.80815224
7.606805037
7.453474808
10.80347097
4.87724649
6.633763414
6.663861099
5.390012092
12.71971279
7.173478683
9.61244948
2.48879192
4.254523839
7.144975824
10.33559743
5.67480334
6.167615249
12.05688976
11.52018341
3.275894737
12.30143792
9.064866606
4.18970829
6.153205722
5.794354538
8.284629616
2.550304916
10.22848109
6.551201645
6.453121481
4.894583862
9.112359972
7.959591438
7.833348575
10.20902657
4.918295436
4.836263366
6.997898092
3.991811316
5.317592286
9.155987718
9.53663435
13.76217452
7.746465511
10.64983307
6.64920072
8.96054911
8.573691325
10.27866683
7.757532349
4.672049684
5.430137296
6.434860881
8.901036009
15.87874756
6.046122098
6.1071775
10.39332787
7.482564502
5.964229692
7.135118083
7.465013713
8.294196929
11.81525835
7.357855074
12.75897382
7.921837651
5.371846821
6.235477322
9.133946893
9.992253185
13.47629394
5.454116097
8.866545277
4.487867972
2.485528815
5.241239597
5.528206364
8.023326317
7.102065626
8.7761843
5.419445846
6.930655266
7.200087962
9.38204347
3.66217367
7.389382216
8.224774922
7.059750919
1.740393826
8.540688871
6.198922396
9.107419393
4.547998459
11.19600603
9.89534432
5.597441813
12.30329382
9.630291164
5.210589603
6.057139075
5.832517588
5.631844658
7.003676998
7.602820913
8.016084009
8.951415195
5.239972117
7.354439439
5.563995673
6.243469426
7.997621014
7.973656818
9.648478091
4.448465859
6.116368985
5.854970964
6.905728608
9.105806409
7.422912337
7.264494824
8.587591415
11.02473419
3.757740815
7.103055787
5.674044171
15.3879832
4.194386129
7.674695031
7.38687943
9.12041646
6.839534713
8.029057544
11.21594629
8.816047719
10.12890349
8.486273245
9.618735406
8.570764541
8.36084482
6.474007489
8.371002575
7.121549866
11.3751266
12.93016144
8.306902765
7.312562254
7.742740503
6.09439096
7.862098988
3.685722604
7.970630525
6.935496174
7.656193474
6.729071981
10.27845689
7.392776992
5.528172981
7.647519979
5.112568365
7.802148075
6.435359449
5.780089442
9.674159183
5.205923274
13.92328778
10.38827445
7.02794089
6.701281883
9.960435664
11.39619363
10.06747453
2.969612261
12.15016089
7.367846371
10.83577772
5.608425671
6.228807091
9.124869969
5.510480384
9.543492367
3.63940154
7.567885717
5.573194131
8.85595869
7.964453353
10.36371152
5.97740003
10.90199562
3.871490307
4.646393946
10.76133257
6.617608572
7.843416017
9.892403693
3.135599809
8.7824036
12.56655263
7.691641879
8.966805583
7.233509224
12.90198369
3.714199368
15.67525779
9.13043503
10.5240953
13.08723261
4.284674499
7.629522634
8.968458078
8.558181325
4.182774237
5.137897188
7.094320584
10.86331668
4.768024484
4.650068175
8.765692189
6.100403216
5.515128751
7.758207142
3.109114276
10.24241067
5.839214934
5.303199831
3.382864063
9.013741087
7.414945469
6.603611616
4.716498712
10.70543651
7.82727921
4.504663963
11.68791975
5.511948078
7.321427784
5.683265305
5.345843231
7.51015952
6.949812702
9.497465731
8.234061114
6.586882356
5.326882154
12.27817314
6.030184406
4.091461728
7.056727984
5.695952352
7.659513878
11.22806277
8.826208614
6.578796265
9.265783184
6.123616835
6.875604075
6.464399581
6.753833771
13.86304224
10.43613236
9.130037355
10.87354716
4.318493982
6.518409759
7.258276908
5.219041994
10.05986331
4.686428315
6.360157491
7.048913624
7.643532784
7.097313294
3.247473765
8.278684734
4.072885223
8.940778251
6.772049277
6.209325937
6.724365099
6.977818313
6.569711908
9.857372329
6.579696331
6.843311689
7.105637404
6.90541719
11.8798732
7.182899262
5.487647436
4.273886553
13.15660207
9.443767383
2.536758821
9.553935597
9.325136526
6.362402864
5.836685939
6.491778883
11.3792843
6.121146596
11.6240799
7.496189772
5.866221596
9.111585398
14.05384036
12.99929843
11.83752367
9.623195202
6.760705586
10.13413861
5.73738057
8.737642633
7.540398012
7.680808656
9.321395692
10.24540879
10.54132007
5.675137857
12.3530492
7.939703526
5.929637083
8.526177611
7.627599891
7.863860755
7.094985715
5.388201676
5.899634419
8.357763368
4.341601561
13.86847165
9.274611639
9.397981295
8.16048196
4.7858112
8.116382142
8.606017185
9.226124563
9.749151874
8.430896931
10.9826643
12.29987566
8.605517471
9.348165335
9.851081294
10.24178427
12.23168494
7.317983735
11.72757167
9.449665668
8.938225522
9.703029492
12.64391471
7.558590785
12.08515299
14.38777569
12.82089567
9.38979932
1.040325551
9.61577162
8.394049721
14.85030134
11.76456574
10.47831304
9.346238853
5.493080576
11.26918982
5.074547251
8.592311789
14.70874919
6.80200087
9.597578165
17.00981464
5.309290965
13.77201378
4.034913433
14.73442604
8.262248773
8.220702277
7.237665639
11.12942181
13.41476454
6.354806648
12.68352042
9.654626574
14.42105855
12.13620211
9.329790755
5.77874404
9.510731694
15.75671149
8.867065897
14.10502016
6.678297783
8.705904426
7.002519853
6.153918049
9.996203344
8.768000913
10.22118789
10.04528822
10.13758102
10.66466621
8.625723973
14.49944154
8.21035801
11.47302496
7.473333667
13.0861208
6.720236223
10.09728218
9.298741015
11.43039316
13.12041657
2.738289917
7.193280874
14.49306925
4.902630454
12.80048449
9.410495886
6.455233026
6.110855758
5.057774327
5.061886109
4.660449103
6.002877194
9.264326821
3.175880674
6.328757774
8.308829825
15.79942373
10.05328713
7.903707098
9.613950385
13.55135813
11.66717653
4.404854593
9.195932184
4.203447613
4.864720517
13.60089467
7.94383517
12.99545637
8.062070122
6.586456484
6.360029156
8.678021124
5.434613266
7.658325836
8.730976244
7.177922327
6.566709008
7.851315168
9.310413402
15.19355566
11.1588875
6.670882945
7.107797341
5.808679853
7.181949768
7.541241481
5.961739945
11.16195129
11.8024469
6.259938153
8.151613516
6.407466207
14.07109676
9.463944259
0.5757723649
10.03003829
10.97648253
5.127147732
4.024832402
6.348708733
8.139949177
5.507930885
4.941476973
8.494125427
7.904744119
8.337300653
6.318748881
8.096887334
5.010422465
10.2000149
9.814314032
3.573262357
12.59124531
10.82012
13.23948986
5.348938437
7.108459946
5.189067172
5.252413092
6.01713278
7.276427276
9.116728056
7.036207111
4.651013686
10.61479459
8.936421742
3.773828931
6.766176081
5.898871867
11.69333955
7.338624768
8.794452465
6.833072449
7.765685214
7.526703092
12.6926191
8.085409693
7.637533831
6.9261862
5.203960704
11.73917334
4.15705051
13.24596172
6.329918787
9.742382637
10.56766567
6.4079689
8.53629051
2.827722633
4.384272964
11.29691414
9.338762923
6.567973086
10.96188994
6.001656545
11.96433565
)
;

boundaryField
{
    flow
    {
        type            zeroGradient;
    }
    obstacle
    {
        type            calculated;
        value           nonuniform List<scalar> 10(2.249224938e-18 1.030409749e-18 2.057258653e-18 2.717145917e-18 3.945100713e-18 0 0 7.572361482e-18 8.307650981e-19 1.325002415e-18);
    }
    frontAndBack
    {
        type            empty;
    }
    procBoundary0to1
    {
        type            processor;
        value           nonuniform List<scalar> 
21
(
8.532667277
7.145324047
12.37757511
9.672119805
7.346431693
10.79610074
14.93276567
11.98393548
14.18124974
10.75350406
8.705149966
5.586144156
8.547962339
11.70164267
6.183121307
8.04876251
13.22398736
6.696772973
11.62261593
10.90767169
2.691784925
)
;
    }
    procBoundary0to2
    {
        type            processor;
        value           nonuniform List<scalar> 
31
(
6.716525647
3.887776076
4.595558572
6.748891826
7.507034021
8.142203142
10.47671474
6.567427516
6.446902335
9.42229438
10.66262598
11.00783467
9.291473393
6.303142174
5.953846655
9.994771038
8.037129073
3.239253605
4.987358319
8.101571809
7.766317449
7.187937696
6.814549373
11.5184516
7.653282869
5.006561841
11.11418667
12.08329112
6.047032556
7.766317449
9.208707434
)
;
    }
}


// ************************************************************************* //
