/*--------------------------------*- C++ -*----------------------------------*\
| =========                 |                                                 |
| \\      /  F ield         | OpenFOAM: The Open Source CFD Toolbox           |
|  \\    /   O peration     | Version:  2406                                  |
|   \\  /    A nd           | Website:  www.openfoam.com                      |
|    \\/     M anipulation  |                                                 |
\*---------------------------------------------------------------------------*/
FoamFile
{
    version     2.0;
    format      ascii;
    arch        "LSB;label=32;scalar=64";
    class       volVectorField;
    location    "0.001";
    object      momentum;
}
// * * * * * * * * * * * * * * * * * * * * * * * * * * * * * * * * * * * * * //

dimensions      [1 -2 -1 0 0 0 0];

internalField   nonuniform List<vector> 
654
(
(0.006074133828 0.0004853145733 0.0001357548311)
(0.008400016792 -7.719087862e-05 0.0002249219139)
(0.01182442227 -0.0005516240669 0.0006105900397)
(0.007549118226 0.000256709033 0.0006828725786)
(0.006236532749 -0.0006615705767 -9.592968219e-05)
(0.009132157278 0.0004200420649 -0.0003168804361)
(0.007480317641 0.0004065504336 0.0001843433304)
(0.008694028261 0.0001754559599 -0.0001073152753)
(0.004434257008 -0.000427951483 0.0007947965023)
(0.01212734609 0.000125343029 -0.0003527020034)
(0.004567728355 0.0003884785049 -1.811508236e-05)
(0.009087206493 -0.001036531717 -0.0004079327299)
(0.01277846688 5.345317114e-05 -0.0008525486365)
(0.005544748304 -3.940060949e-05 -0.0006317243067)
(0.009994738701 -0.0006743743733 0.0006967294753)
(0.006202716586 8.316664567e-05 1.691157167e-05)
(0.007049576845 -0.0004400839429 -2.686782883e-05)
(0.01047490319 -0.0004629194954 -0.0002467412859)
(0.006662337623 -9.362921096e-05 0.0007850197933)
(0.004341129505 0.0003562633126 -0.0006397582475)
(0.005230973789 0.0005435622802 6.192153564e-05)
(0.008878682816 0.0002450583438 -0.0002620802304)
(0.005550531289 0.0004982858634 -0.00017232408)
(0.01082094979 -0.0001236217123 -0.0001305436471)
(0.008030163438 -0.0005277920686 0.0003702288886)
(0.006645129438 0.0002759545528 0.0002281308993)
(0.01356013658 -0.0002845211109 0.0004245985135)
(0.0103712525 -0.0006150482353 -0.0004761749312)
(0.01185277116 -0.0003143863083 0.0002366217483)
(0.008164874679 -0.0001259893409 0.0007274308682)
(0.004471172296 -4.923876327e-05 0.0001248875231)
(0.008420977171 -0.0001224029943 3.542089205e-05)
(0.009718398884 0.0004967416863 0.0007252721189)
(0.007586025733 5.71807763e-05 -0.0001483260168)
(0.01179318251 0.0001332664433 0.0001595442712)
(0.005879304068 -0.0004377951398 -0.0003372037081)
(0.007876880212 0.0005278278821 -0.0003991966076)
(0.004806340517 0.001027567156 0.0005106383821)
(0.01077605022 6.803606348e-05 -0.0007377907594)
(0.005725259856 0.000174781632 0.0008703110515)
(0.008367608311 0.0009566107549 2.272537211e-05)
(0.005199615345 -0.0005761823657 0.0004699035783)
(0.00714991633 -0.0001582802587 -0.0002078546406)
(0.006442942762 -1.601468286e-05 0.00016160458)
(0.008535746545 -7.212342192e-05 0.0008834094725)
(0.005909662266 0.0009041221169 -0.0002550491267)
(0.01001016774 -0.001241142857 -0.000778961163)
(0.01265892647 0.0002107887829 -0.0004920040156)
(0.002095424647 8.261680441e-05 0.0001020970212)
(0.008254605704 -0.0002733608966 -0.0001117646922)
(0.003013544454 -0.0004699589461 8.729072345e-05)
(0.01016920845 0.0008853926668 0.0001486233104)
(0.01233451833 0.0009882735971 -0.0001666194158)
(0.007637373254 0.000581310759 -6.478434703e-05)
(0.007548283896 -0.0001375200048 0.0003788760406)
(0.01002402105 0.0002432615881 -0.0007761840524)
(0.01196288602 -6.145618896e-05 -0.0004900111025)
(0.005295493639 3.149495516e-05 -2.127831722e-05)
(0.01363617357 -0.0002143771886 -0.0001195905568)
(0.007611924278 0.0001748438985 0.0005111581131)
(0.006324665067 0.0001469047655 -3.273031663e-05)
(0.009376381357 -0.0003432614086 -0.0001931287895)
(0.009976196878 0.0002648526282 0.0002344205861)
(0.008112818223 0.000117037664 -0.0003404624577)
(0.01259535031 -0.001018473208 0.0007474477642)
(0.004786620847 0.0004453298643 -3.41400836e-05)
(0.009307600544 0.0002211917201 3.214127994e-05)
(0.004663261564 -0.0002002782558 -3.395899318e-05)
(0.009592550975 0.0001052244608 -0.0001389798557)
(0.01067374468 0.0004600142493 -0.00118384447)
(0.01086314862 -0.0002094969184 -0.0003078076839)
(0.007536616659 -7.689422047e-05 0.001256106106)
(0.01391810647 -0.0002449563243 -0.0007880852138)
(0.008276894478 -5.0400427e-05 0.0002561857568)
(0.01052944556 0.000405478599 -5.841465704e-05)
(0.004000906373 0.0004860806606 -0.0001734895963)
(0.01631050844 0.000547462215 -0.0020451148)
(0.00916470154 -0.000472353293 -0.0009484725433)
(0.01083454329 -0.0001139970153 -0.000528383577)
(0.01030813809 0.0003362102967 -4.117790455e-05)
(0.005809137408 0.0004024162678 0.0001033768382)
(0.005784116055 -0.0002855583796 0.0002972396453)
(0.01105870641 9.915094683e-05 -0.0003863134531)
(0.005686436207 0.0005468806144 0.0001041166916)
(0.007434693145 -0.0001273290937 0.0003079448808)
(0.006623059101 2.93911027e-06 0.0001459710653)
(0.01343442721 -0.0005052778495 0.0007030755728)
(0.005996292436 -0.0004029782988 0.001041580774)
(0.01008213723 0.0002525902719 -0.0005440277614)
(0.007498015014 0.0001723447829 0.0003012804793)
(0.009967412867 0.0006114173831 0.0005690189602)
(0.00717131792 0.0003378819747 -4.360945263e-06)
(0.005832091739 -0.0002402244638 0.0001070534811)
(0.01058698988 -0.0006286281005 0.001055843)
(0.0104629373 -0.001012647355 0.000645557637)
(0.008642677707 0.0001797063292 -0.000197577976)
(0.003642677283 0.0003102720482 -0.0002618273357)
(0.01348997471 0.0002362274219 0.0004639155044)
(0.007622956314 -0.0004129089749 -0.000166304116)
(0.007966258377 0.000403941533 0.0008528187218)
(0.007354670123 -0.0003460312975 0.0002151418769)
(0.005983152932 7.187064837e-05 0.000290459243)
(0.006283854278 0.0003150906728 0.0003717257084)
(0.008038223076 0.0003819780144 0.0003399036467)
(0.008932826651 0.000838662198 0.0002472219164)
(0.01059143894 -4.724157365e-05 -0.0003592502775)
(0.007115321784 -0.0005130834297 0.0003803789195)
(0.003814770153 -3.472578658e-05 -0.0001053178815)
(0.01054891583 -6.596514363e-05 0.0003027361559)
(0.002735294035 -0.0002738908916 -8.915705045e-05)
(0.008043492131 -0.0003335493979 -0.0003023592766)
(0.01275600997 -0.0006170980775 -0.0005289492406)
(0.003725509504 -0.0002481825235 -6.058894497e-05)
(0.00572308421 0.0003156162976 0.0009575800318)
(0.009452977891 0.0004824838271 -0.0002213086583)
(0.0088153752 1.584458953e-05 -0.0008995589034)
(0.01447264707 -0.0008674051198 -3.307022649e-06)
(0.005405592637 -2.124262206e-05 -0.0006087936116)
(0.007365903397 -0.0001195790631 0.0004368055989)
(0.005178038083 0.0001321460853 0.0005914620979)
(0.00914668744 0.0002787079994 0.0009705127576)
(0.006044161421 -7.649331445e-05 0.0002885422698)
(0.01128274009 0.0001426258993 -0.0001102302883)
(0.005945200879 0.0001383143728 -0.0003051445501)
(0.01110772208 0.0008617236277 2.602335078e-05)
(0.008231534808 -0.0003188883015 -0.0007482844004)
(0.008248230037 0.0009252921172 -0.0004949416631)
(0.01222811616 0.0003157765944 0.0004270687786)
(0.00535980815 0.0008751111097 -0.0008587577888)
(0.00742497951 -0.0001735321734 0.0003149493487)
(0.006440312201 -0.0002561103044 -0.0005256029203)
(0.005771420022 0.0001494604604 9.994079235e-05)
(0.01354800792 -0.0001772377205 4.782689017e-05)
(0.007572509576 4.080243594e-05 -0.0004139033378)
(0.009978963404 0.0002907888237 -0.000847785857)
(0.002631159694 0.0003081358897 0.0001083121479)
(0.004867091417 0.000123118189 0.0003819158275)
(0.007681948228 9.473066259e-06 0.0002524730296)
(0.009530488975 0.0008984499669 0.0007423254198)
(0.006229961203 -0.0003832608395 0.0007167158685)
(0.006412829331 -0.0005079960903 0.0002124768933)
(0.0125002841 -0.0003193118122 0.001579839703)
(0.01113338895 -0.0001338939038 2.51183114e-05)
(0.003579564826 -0.0004983435087 -0.0002695961577)
(0.0133990866 0.0004129838618 -9.99229687e-05)
(0.009840588846 -0.0006609827254 0.0008330799899)
(0.004342018461 -0.0001007656796 -0.0001112671558)
(0.006816171305 0.0002548450438 0.0004363567025)
(0.00617447933 -0.0003849136865 -6.012254944e-05)
(0.009239438973 -0.0002652487631 7.024057168e-06)
(0.002973824952 -0.0001959995509 -0.0002767672121)
(0.01104531468 -8.77917217e-05 -1.171758304e-05)
(0.006965110388 -0.0003588672869 -9.94842519e-05)
(0.006954706771 -5.520472576e-05 0.0004342664558)
(0.004988620021 0.0006150466667 -0.0002517365788)
(0.009269846892 -4.609895794e-05 -0.0003974839535)
(0.008203613209 0.0003980442489 0.0003292376785)
(0.008890012014 -0.0002595095448 0.0008679328944)
(0.01093371733 -0.00019310956 -0.0005308830707)
(0.005556011613 -0.000292859134 -4.715374049e-05)
(0.005551684723 0.0002278118218 6.626547492e-05)
(0.007568522299 2.369774497e-05 0.0002988992194)
(0.004811981717 -0.0001452809504 4.815497504e-05)
(0.006883405804 -0.0001488345348 0.0004368653432)
(0.008795862951 0.0003760274725 -7.696462251e-05)
(0.009975493882 1.095304225e-05 -0.0004254336856)
(0.01383022675 -0.0002928815664 2.183047644e-05)
(0.008221067205 0.0007462179605 0.0002127968173)
(0.0111743092 8.315681794e-05 0.0001896124717)
(0.006660541557 -0.0001160840215 9.148610505e-06)
(0.008460500224 -0.0002221540029 -0.001035805862)
(0.009164002181 -0.0006812396878 0.0003478506201)
(0.01097788984 -0.0005598781474 -0.0003729007372)
(0.008609888632 -0.001190584139 0.0003920376773)
(0.005142264545 0.0001013361454 -0.0001235051797)
(0.005605135263 0.0001615922273 0.0004494068498)
(0.007055341509 0.0001752035356 0.0001108018558)
(0.008762212561 -0.0001043117013 6.148308511e-05)
(0.01543910407 -0.0004759139416 0.001021953785)
(0.006769874323 9.168715407e-05 0.0005305874298)
(0.006576889133 1.084388632e-05 -0.0006053883206)
(0.01104000455 4.446398852e-06 3.168483881e-05)
(0.008247099471 -5.779483332e-05 -0.0004484341214)
(0.006295149803 0.0002058615619 0.0006261394527)
(0.007766522873 -0.0002649943383 0.0002619211316)
(0.007713274606 0.0009261105953 0.000225606814)
(0.009057853406 0.0005030187077 -0.0005602425637)
(0.01314086804 -5.973409052e-05 3.325303602e-05)
(0.007860354019 -2.872252014e-05 0.0005570427677)
(0.01448314872 -0.0005500962891 0.0002503909063)
(0.0081661227 0.0008812849069 0.0008139905707)
(0.005838351541 -0.0007332186317 -1.752851166e-05)
(0.006391521788 0.0001749487067 0.0009117309692)
(0.00920005125 0.000358641342 -0.0003252538199)
(0.0099808298 -0.0002974915801 0.0001847966504)
(0.01408743018 -0.0005089329782 0.0002095425842)
(0.005547734362 -0.0002668403439 -0.0002432420973)
(0.009083056745 0.0006963664282 0.0003349895199)
(0.004969138285 0.0001333471574 -0.000105004072)
(0.003139985424 0.0001160323613 0.0002944663074)
(0.005775605756 -2.489705084e-05 -0.0005048155639)
(0.006063516477 -0.001066849975 -0.0001022127608)
(0.0094476926 0.0005042377502 -0.0003499344788)
(0.007518153849 -0.0002314981416 -0.0001124109329)
(0.009189920915 -3.960662434e-05 0.0003464258047)
(0.006058699473 -0.0005102344952 0.0001813998336)
(0.007455130323 -0.0001717052323 0.0001226438554)
(0.007918384663 0.0001813268041 0.0003491961426)
(0.009471820447 0.0004661916232 -0.0002528212453)
(0.004432675226 -0.0001234656664 0.0002347319489)
(0.007841504352 0.0003009559107 0.0002585283389)
(0.009020378372 7.365016019e-05 -0.0002548624026)
(0.007289658654 0.0009715459585 -0.00062264003)
(0.00179922928 0.0004477613463 -0.0001727962927)
(0.009588645814 -0.001065957089 -0.0003094046576)
(0.006317506896 -0.0007030210423 -0.000211260421)
(0.009247444289 -0.0006308003782 4.838853039e-05)
(0.005161546504 -0.0001898054426 -0.0003615377384)
(0.01170139569 0.000243003191 -0.0007242487106)
(0.01042365553 0.00011030049 0.0005703557855)
(0.005565793401 -0.0007264295659 2.535448656e-05)
(0.01273528613 -3.57064751e-05 0.0006080252533)
(0.01052355935 -6.895112549e-05 1.835979613e-05)
(0.005786650193 -0.0003182992451 -0.0004150184392)
(0.007150079809 -0.0003593544419 -0.0006251574927)
(0.006353953672 0.000208847604 2.791514743e-05)
(0.006108275731 1.494216054e-05 -0.0002657900143)
(0.007380972504 -0.0003452177859 -0.0002233132131)
(0.008334718908 0.0006281877895 0.0004964084539)
(0.007398353079 -0.0001746099533 7.913645652e-05)
(0.009314257459 0.0004923205373 0.0004638011338)
(0.005771708574 -0.0002467330371 0.0007784579803)
(0.008283402792 0.0007703794038 0.0003757102183)
(0.006021046354 -0.0001057508694 -0.0004989331628)
(0.006054556509 1.828077634e-05 0.0004274557204)
(0.008742553663 -0.0003773708793 0.0001378924424)
(0.008061849336 -0.0003652791775 0.001048631756)
(0.01069736281 0.0006796535442 8.422803305e-05)
(0.004897143549 6.714494962e-05 9.2612371e-05)
(0.006296244957 0.0001544860863 0.0004700045844)
(0.006117725871 -0.0004989427443 -0.0007445016122)
(0.00746722088 5.838856319e-06 -0.0003865687274)
(0.009645257843 -0.0002314376154 -1.190889598e-05)
(0.008469589077 0.0004950187334 9.136332601e-05)
(0.007269955832 0.0004514205969 6.62677161e-05)
(0.008727315232 0.0005385635482 -0.0004844422333)
(0.0115129024 -2.872576956e-05 0.000313399603)
(0.003599705691 -0.0002483378467 -0.0005967552278)
(0.007662247529 -0.0004502557513 -0.0001723012857)
(0.006251479574 0.0001228866439 -9.31580851e-05)
(0.01537004433 0.001149147061 5.82021114e-05)
(0.004575318214 -0.0003357895205 -0.0002089711812)
(0.008559629594 0.0006504138279 -0.0005655685392)
(0.007816869068 0.0004365304813 9.834935398e-06)
(0.009275931365 0.0002157804704 -0.0004591557314)
(0.00737343111 0.0007719517692 -0.0005222349313)
(0.008555072795 0.0004561529807 -0.0005398160903)
(0.01168483719 0.0003088664879 -0.0004423070992)
(0.009510951 -1.426435054e-05 0.0002790006219)
(0.01054844418 0.00103695452 0.0004279543398)
(0.00885046165 -0.0002827267777 2.207664361e-05)
(0.009810548933 -0.001262365703 -0.0004999659585)
(0.009398589906 -7.834750934e-05 -0.000132478245)
(0.008652693888 -8.142920535e-05 0.000475102097)
(0.006962323057 0.0002450207813 -0.0004250624504)
(0.008270728542 -0.0006752705472 -0.0004067773807)
(0.007991902996 -0.0006280275992 0.0004151524661)
(0.01201272387 0.0002081985458 -0.0008875531509)
(0.01353730248 -2.325626874e-05 0.0007406914257)
(0.008978948944 -0.0003440989765 3.937376718e-05)
(0.007895365804 -0.000364770322 0.0002044515192)
(0.007891318642 -0.0004353061263 0.0007360226635)
(0.006280446969 -0.0001616788971 -0.000443850131)
(0.009004590964 -0.0001110124184 -0.0009125302818)
(0.003629580087 -0.0004595200668 3.915905748e-05)
(0.007675841209 -0.000578402488 -0.0005428437369)
(0.007243821168 0.0001889472804 1.6106917e-05)
(0.007797403798 -9.109045215e-05 -0.000392675398)
(0.006691891598 0.0002269226627 -5.907589822e-07)
(0.01064532687 -0.000740904952 0.0002440231286)
(0.007433796608 0.0003265061655 -0.0001125770968)
(0.005444759097 -0.000560468644 0.0004037670352)
(0.007840405602 0.0001523368761 0.0006670915105)
(0.005753067525 3.574077289e-05 0.001013328194)
(0.00817269753 -0.0003301933005 -0.0005592074847)
(0.006707303999 0.0008174257385 -0.0001335212957)
(0.006731438213 -6.90482455e-05 -0.0004200671967)
(0.00982979967 0.000400113 -0.0001374906584)
(0.005847064371 -2.598857023e-05 0.0002737525692)
(0.01469366164 0.000248045328 -0.0001579473456)
(0.01104888993 -0.0004620747183 0.00062332031)
(0.006693098641 -0.0008533263058 -1.312645282e-05)
(0.007068959742 -0.0004784049106 0.0004774081136)
(0.01009630865 -0.0008954555369 -0.0003051268958)
(0.01199912156 0.000685566677 0.0001703860076)
(0.01108806843 0.001216046735 -0.0001482619742)
(0.002884739 4.556183039e-05 -7.372331776e-05)
(0.01221865254 0.0008100875161 -0.0003556739384)
(0.007630569838 0.0006358425968 -0.0003881351178)
(0.01147168863 -3.438812679e-05 0.000232316512)
(0.005576478205 0.0001134537664 0.0002913117549)
(0.006989081379 8.736007302e-05 0.0006936098599)
(0.01034465724 8.509362573e-06 -0.0002961272902)
(0.00635404923 9.991450156e-05 -0.0006400905645)
(0.01020853266 -8.014522346e-05 0.0001077434255)
(0.003699859424 -0.0002985111447 -0.0001899389237)
(0.008629276911 -0.0001471440225 0.0002649544836)
(0.006070112882 -0.0002310268325 -0.0001682266538)
(0.00942155683 -0.0003120188946 -0.0001158156799)
(0.008010945555 -0.0006613937787 -0.0002059055707)
(0.01054803044 -0.0002489632107 0.0003610360385)
(0.006628127357 -0.0007333164677 -0.0001443122045)
(0.0116653853 -0.0001146029129 0.0003635766408)
(0.003736465224 -0.0003935430706 -1.653100935e-05)
(0.005591728444 -0.0001052674211 0.000133647088)
(0.01095048312 1.445941724e-05 -0.0003820451851)
(0.006039921837 -0.0002422089297 -0.0007639145254)
(0.008274150739 -0.0002466705445 -0.0001670810794)
(0.01051017106 -0.0001082313164 0.000550309215)
(0.003810584965 0.0003725379656 0.000113779757)
(0.008438568443 0.001627441448 0.0001879014445)
(0.01287590522 -3.068829607e-05 -0.0004789201531)
(0.008357050241 9.514599828e-05 0.0008453544964)
(0.01008514676 -0.0001920436493 -0.0005822337697)
(0.007773399496 0.0001337496915 0.0006268386519)
(0.0126711963 -0.0003303257461 -0.0007671457431)
(0.004194140241 0.0002706114196 -0.0003319916583)
(0.01640171902 0.0004559224598 -0.001054544631)
(0.009632171009 -0.0002165293219 -0.0002022929722)
(0.01056653037 -0.0005546792122 6.390211146e-06)
(0.01492245135 0.0005166498425 0.0006997480545)
(0.005270859756 -7.458276887e-05 -0.0001026909127)
(0.007496529872 0.0004356179959 0.0003448604393)
(0.009233029284 -0.0002408949961 0.0003015378805)
(0.00938416528 0.001011144031 -0.0002635363601)
(0.004382676509 -0.0003498087642 4.0391637e-05)
(0.0053573317 0.0002363356463 0.0002115342622)
(0.007710085419 -0.0001632757345 -0.0001357412191)
(0.01109835561 -0.0002033417714 -0.0001987061722)
(0.00526202407 6.840005105e-06 -0.0003994758563)
(0.004972007659 -0.0005982396292 -0.0002189341311)
(0.009685576762 -0.001123204955 -0.000203660711)
(0.006277230185 -0.0001425377901 0.0004538190928)
(0.005180902718 -0.0007546337875 -0.0003102038044)
(0.008452875585 0.001086510384 -0.0001417863228)
(0.003418906055 -0.0001929691475 -0.0001309844928)
(0.01025575385 -0.00012922836 -0.0005224977469)
(0.006209531546 -0.0001744978784 0.0003139099783)
(0.005844318127 -0.0005241367177 -1.905401201e-05)
(0.003567130159 -0.0003595496956 1.480484784e-06)
(0.009984696439 -0.0005339912172 0.0002228841073)
(0.007373005147 0.0006939861972 -0.0006903255228)
(0.00699539258 0.0001989438963 -0.0001976540475)
(0.004595684587 -0.0005072567546 -6.523884591e-05)
(0.01064985103 6.161684824e-05 0.0006326485187)
(0.007993535472 0.0005992673319 -0.0001676084247)
(0.005096720002 0.0002700185916 -0.0003782700401)
(0.01266669504 -0.0003573892479 0.0002548658878)
(0.006474784553 -0.0002669803224 0.0003672149258)
(0.007383193431 -0.0001310863019 0.0001572559926)
(0.006050750479 -0.0001120033502 0.0005419975642)
(0.005485631813 -0.0002600823584 -0.0002530570302)
(0.007644819562 -0.000473272617 0.001010815176)
(0.007145603133 0.0002717787962 -0.000563018985)
(0.009954290657 0.0006992790141 -0.0006650333386)
(0.008806918885 -0.0001406607081 0.0006034759183)
(0.007044848334 0.0005568464121 -0.001082930106)
(0.005602309517 3.020288653e-05 0.000500980371)
(0.01247573036 0.0001059534413 -0.0001001554477)
(0.006302446136 -8.747790699e-05 -0.0001587678125)
(0.004377363589 0.0005649685441 0.0002558787516)
(0.008058936949 0.0002099350456 0.0002559074172)
(0.00612062045 -0.0002149619966 -0.0008982007081)
(0.0083488372 0.0001873024668 -0.0007335071283)
(0.01196104678 -0.0007114224048 0.0004476146912)
(0.009587890981 7.02405865e-06 -0.0003120748835)
(0.007372554837 -0.0001851466879 -0.0002162872076)
(0.009311811658 0.0007314689496 -0.0004688960371)
(0.006561526003 -2.928152373e-06 -0.0003417734733)
(0.007553413937 0.0001142318979 -0.0004202024977)
(0.006494014406 -0.0002701329546 -9.322820831e-05)
(0.007071987563 0.0005919333676 -0.0002333173108)
(0.01369709562 -3.403200086e-05 -0.0007544869304)
(0.01124477458 0.0002889378989 0.0003756852223)
(0.009243954072 0.0007401234715 -9.397797361e-05)
(0.01128956215 -0.000743895444 0.0008196643086)
(0.004972723495 -6.286251595e-05 -0.0001669890978)
(0.007235345729 0.0002387202296 -0.0003472319752)
(0.007419588187 -0.000167427185 0.0003233991541)
(0.005924192782 -8.406854336e-05 0.0003016407223)
(0.01017932184 0.0002346209526 -0.0004125245752)
(0.005477904768 -0.0003368144855 0.0009970842817)
(0.006951534092 -0.0003848223413 9.899264209e-05)
(0.007652720214 0.0003036219933 -5.60917278e-05)
(0.00757828046 0.0005457061338 -0.0007944472372)
(0.007374393517 -0.0001694880981 5.526745745e-05)
(0.003594644247 -3.007593692e-05 -0.0003891850129)
(0.008595366842 7.120948095e-05 -0.0001660553173)
(0.004408363939 0.0001447413587 0.0003841938989)
(0.009089795929 -0.000772167595 -0.0002849024363)
(0.007102601581 0.0002834954029 -0.0003415254757)
(0.006786213123 -0.000293631968 -0.0002123185444)
(0.007149315597 -0.0001999503137 0.0005374208341)
(0.006764120027 -0.000540150912 -0.0006802639)
(0.006600020912 -0.0003740622813 0.0001940284873)
(0.01082204721 0.0007956605228 0.0004873987032)
(0.007365935246 0.0001438813885 -1.575818235e-05)
(0.007530271009 0.0003800182574 0.0001575089163)
(0.007673410553 5.837098519e-05 -0.00073182633)
(0.007197149256 0.0001794852641 7.421387452e-05)
(0.013156373 7.38747348e-05 -6.675662026e-05)
(0.007634703773 -3.847147812e-05 4.747976374e-05)
(0.00603736236 -0.0001598999016 -0.0001833918389)
(0.004590778751 3.413209857e-05 -0.0001385742831)
(0.01322820683 -0.0001820752773 0.0003831086469)
(0.01031722777 -0.000483845564 -0.0001136165495)
(0.002977092857 -1.802463804e-05 0.0005728787875)
(0.009929046269 -0.001122640954 -0.0007716408572)
(0.009814863644 0.0006468859943 -0.0002432691724)
(0.007152492983 -1.242654676e-05 0.0001917245766)
(0.006622807364 -7.155557498e-05 0.0005400473271)
(0.007210873506 -0.0005376806851 0.0004309535722)
(0.01223104822 -0.0005552652287 -0.0001341234212)
(0.006474278421 5.14857772e-05 -0.0002329887817)
(0.0119675224 0.000202417517 -0.0005764690129)
(0.007983045634 0.0001101336779 0.0003486526939)
(0.005779090792 -0.000133019622 3.722644475e-05)
(0.009351860802 -0.000150144493 0.0003177111278)
(0.01464855193 0.0003436052474 -0.0004993075729)
(0.01341964291 0.0004435422912 3.888871583e-05)
(0.01172762258 -0.0001817174856 -0.0006883558316)
(0.01039215579 -0.0007912581633 -0.0002728269532)
(0.007628062197 -0.0003139895891 0.0003900929714)
(0.01123614514 0.0001395760757 -0.0001750672332)
(0.006046015525 0.0005344899717 -9.122159439e-05)
(0.008979078127 4.68626469e-06 0.0005488298991)
(0.007566969365 -0.0006045641727 -0.000295430521)
(0.007904045248 -0.0002744750904 -0.0001084161888)
(0.01011129602 0.0004649285407 0.0008941812382)
(0.00976574569 0.0004397229204 0.0004676799426)
(0.007045687793 0.002776701428 -0.002307247706)
(0.004609223806 0.0009640858432 6.415220007e-05)
(0.008080774163 0.004034529876 0.000918962307)
(0.008479548983 0.002389609506 0.0009974999427)
(0.003287892966 0.002448127176 -0.0009261452053)
(0.008461302467 0.001111305047 0.001498773886)
(0.00635622258 0.001854289232 6.37768652e-05)
(0.006263965672 0.003145366279 0.001977086529)
(0.005544378544 0.00149795567 -0.001122204448)
(0.005136893517 0.001553649523 0.002328508704)
(0.006203574619 -0.0001466792813 0.001671838776)
(0.008048148037 0.003181034261 -0.0001927582063)
(0.004517382906 0.001138366722 -0.0003176751793)
(0.01399815699 0.001196030261 0.001120348366)
(0.009779730211 0.004508225642 -0.0003558107613)
(0.009489210442 0.001294724703 0.002296165597)
(0.005445160617 0.002643503037 -0.0001434037443)
(0.003123658252 0.002593296945 0.001034686541)
(0.008462219573 0.002429757235 -0.0001991343592)
(0.008580706185 0.001225492447 -0.001787212094)
(0.008943247795 0.0004189753739 -0.001460362303)
(0.009462655813 0.0009885881176 0.0003777187633)
(0.007112938262 0.003712628814 -0.001790465672)
(0.01011676378 0.00381130578 -4.139061589e-05)
(0.01222007892 0.004534004327 0.0003128500657)
(0.007105591452 0.002840825574 9.300166409e-05)
(0.009425921971 0.002376194836 -0.001055259219)
(0.01078793433 0.0006410645256 0.002163653189)
(0.009826850698 0.004068006785 0.0007472426511)
(0.01161616381 0.006402479241 -0.001278579933)
(0.007666649009 -0.0005316163958 0.0003924672083)
(0.0111052121 0.002757236894 0.000560012879)
(0.008661858772 0.00229315364 -0.0006932829476)
(0.008108000058 0.001360959389 0.001757049826)
(0.008820296533 0.004242705447 0.0008637176224)
(0.01298840464 0.001553009642 -0.0008177258527)
(0.00783299918 0.002493283937 0.001366571925)
(0.01190221281 0.001890562555 -0.0005664549598)
(0.01444396018 0.004555353517 -0.0007350459959)
(0.01309737184 0.003794154015 3.413106699e-05)
(0.009481108329 -0.0003866104171 0.001320587937)
(0.00130385694 -0.0001920480788 0.0001162165641)
(0.01043965534 0.000830347484 0.0003074165303)
(0.007943554812 0.00236191517 0.0001667289455)
(0.01494522522 0.003067692252 -0.0009303604392)
(0.01157096742 0.001524379333 -0.0007747453072)
(0.01100710528 0.003276010241 0.0002157648942)
(0.01038572495 0.004481604237 -0.002431668142)
(0.005627390116 0.002176685479 -4.09430619e-05)
(0.01047439308 0.006703121203 0.0008548657008)
(0.005256498032 0.0003518032618 0.001075359547)
(0.009346141849 0.001278570427 -0.001550811795)
(0.01336229812 0.002623828667 -0.0001031886246)
(0.00716895821 0.001549310726 0.001772488985)
(0.009704939908 0.0009624099514 0.0005241654453)
(0.01598276973 0.002154652828 2.221955337e-05)
(0.00505842397 0.002397936304 5.51323766e-05)
(0.01319408505 0.002675842132 0.001217208086)
(0.004288941143 0.00176161292 -0.0004151238958)
(0.01393362307 0.003690559399 -6.740951989e-05)
(0.008250496933 0.001052400587 -0.0006516619681)
(0.008429448258 -0.001033026898 -0.0004435769247)
(0.008197365292 -0.0002953109576 0.0006251270394)
(0.01160903349 0.001541920294 0.000251934417)
(0.01328439747 0.001128499071 0.0005040518222)
(0.007869800013 0.001095784953 -0.0003420574175)
(0.01335033585 0.002854166364 0.000613477534)
(0.01018156527 0.002166569805 0.0001625386642)
(0.01456500816 0.004875840903 -0.0002694447724)
(0.01245080898 0.003843564406 -0.001700034824)
(0.009940647981 0.0005318624539 0.000187503603)
(0.006910751649 0.0002480472086 -0.0002811174814)
(0.009319801527 -0.0006649101761 0.0002814680042)
(0.01687032454 0.0007419100008 -0.0003750956281)
(0.008368257323 0.000612181868 0.000662776276)
(0.01354322307 0.00128056723 -0.00023421067)
(0.006377362149 0.002524359708 8.750475014e-05)
(0.008353355873 0.001829479112 -0.0001368338363)
(0.007295164731 0.002941832092 -0.0006492875609)
(0.005837713479 0.001998611104 -0.0007979286355)
(0.01075991644 -0.0003336231137 0.00112054296)
(0.009313613923 0.0001539645795 -0.0003479645437)
(0.009872006767 0.000811233758 -0.0004297736153)
(0.009902939886 -0.0009996261821 -0.001020856811)
(0.01020470712 -6.847967621e-05 0.0004693974827)
(0.01059532567 0.0004972515027 0.0001437626846)
(0.008600828779 0.001173829615 7.321912587e-05)
(0.01504012057 0.001416514805 -0.001682293075)
(0.009508801772 0.0007112478148 -0.00168418674)
(0.01110307381 0.002714834902 -0.0001134861345)
(0.007721685449 0.0005782913091 -0.000862465777)
(0.01275157693 -0.000176606286 0.0003345171242)
(0.0073920928 0.0002757078124 0.0005731519466)
(0.01100627635 7.384521354e-05 -0.0008587186244)
(0.01004847023 -0.0005622581614 0.0001416969726)
(0.0113040725 0.001666856303 0.001709191612)
(0.01336081034 0.0002032103535 0.0007239332334)
(0.002514152864 0.0003912346567 -0.0002957672598)
(0.007107398549 0.0009155904023 0.0002951936448)
(0.0139580818 0.0002418291924 0.0006104334771)
(0.005317652785 9.70177004e-05 -7.959814616e-06)
(0.0142167049 -0.0008115284575 -0.0005501675229)
(0.01111463081 0.0007160181902 -0.0001749253942)
(0.006585741839 -0.0002533737244 5.727934796e-05)
(0.006613685968 0.0005527746645 0.0003453943409)
(0.005301630828 0.0005342823501 4.229411996e-05)
(0.005750435324 0.0003388430742 -0.0001498844871)
(0.004640791703 0.0007308359858 -0.0003254923318)
(0.005935311106 0.0007404958876 -0.0009529489538)
(0.00887894844 0.001574216436 -6.65263495e-05)
(0.003270990085 0.0001096328 0.0002028544053)
(0.007202795472 -7.034095026e-05 0.001012171001)
(0.008920746188 0.0005524050434 2.441022847e-05)
(0.01699958936 -0.0001354871637 -0.0001450605621)
(0.009670880962 -0.000647560803 -0.0001114861205)
(0.008862545291 0.0006710170378 0.0004276272259)
(0.0104578777 -0.000527945539 -0.0001307776884)
(0.01490036327 -0.0008139588662 -0.0001608601312)
(0.01251014932 0.000979240074 0.0002183921532)
(0.005174954648 -2.805146809e-06 8.243550199e-05)
(0.008571356419 0.0009670796069 -5.352870019e-05)
(0.00435323775 9.604767527e-05 0.0008723028131)
(0.004799775962 -0.0001000982587 0.0001677355368)
(0.01393661392 -0.0006483020701 -0.000160366165)
(0.008765195381 -7.794957884e-05 -0.0004437776402)
(0.01363422696 0.0002512870831 8.883843216e-05)
(0.008202365777 -0.0001785844118 -0.0001670328807)
(0.006851999634 0.000901706152 -0.0004598721027)
(0.006705322054 0.0008637892112 -0.0001324915391)
(0.008720418438 -0.0003325307524 -0.0001294566218)
(0.00548206567 0.0006066944434 -4.901832846e-05)
(0.007625650628 0.0001250489551 0.0001829276877)
(0.01011628616 -0.0008163792605 -5.379624509e-05)
(0.007780881413 0.0001028240988 -0.0004789688117)
(0.007163869035 -0.0001109344649 5.805272447e-05)
(0.008266039196 -0.000337390442 4.779232514e-05)
(0.009625095374 0.001126402854 -0.0007231102171)
(0.01558256693 0.0001717354548 0.001542481158)
(0.01161561473 0.0004680933917 0.0003857946154)
(0.007203127166 0.0001243897267 4.585192741e-05)
(0.007331348444 8.462577952e-05 -0.0002892197475)
(0.005684416137 0.000371042023 0.0004496633566)
(0.007264986995 -0.0007907295386 0.0003301999495)
(0.007897125895 0.0003275546052 -0.0003761421827)
(0.005784003639 -0.0006606889455 -2.096731354e-05)
(0.01186598411 0.0005297633807 0.0008921755395)
(0.01204958094 0.0009193830487 -0.0009182044506)
(0.007374769744 -1.422792156e-05 0.0001903024036)
(0.008289564086 0.0004966945909 -0.0001428048108)
(0.006397341646 0.0009059983148 0.0008397087309)
(0.01351697465 -0.0002709868098 0.0009648145738)
(0.00987135499 0.0009608837147 -9.719364392e-05)