/*--------------------------------*- C++ -*----------------------------------*\
| =========                 |                                                 |
| \\      /  F ield         | OpenFOAM: The Open Source CFD Toolbox           |
|  \\    /   O peration     | Version:  2406                                  |
|   \\  /    A nd           | Website:  www.openfoam.com                      |
|    \\/     M anipulation  |                                                 |
\*---------------------------------------------------------------------------*/
FoamFile
{
    version     2.0;
    format      ascii;
    arch        "LSB;label=32;scalar=64";
    class       volVectorField;
    location    "0.001";
    object      momentumMean;
}
// * * * * * * * * * * * * * * * * * * * * * * * * * * * * * * * * * * * * * //

dimensions      [1 -2 -1 0 0 0 0];

internalField   nonuniform List<vector> 
654
(
(0.006235675153 -9.996708714e-06 1.108174515e-05)
(0.008287408117 -1.27805868e-05 1.058544454e-06)
(0.008322818382 -9.18135515e-06 2.742145504e-06)
(0.008352778381 -1.999672169e-05 -1.539495593e-05)
(0.00830117166 -9.988107798e-06 -2.93506201e-05)
(0.00839877055 -2.453512569e-05 -2.760826061e-05)
(0.008284475037 -2.904168354e-05 -9.284791307e-06)
(0.008411390563 -3.618030976e-05 3.129824685e-06)
(0.008276436573 -3.690876432e-05 8.945964264e-06)
(0.008178771417 -2.56124478e-05 1.631705421e-05)
(0.008141039881 -9.02731705e-06 2.777672528e-05)
(0.008230394164 3.387520849e-06 1.245955708e-05)
(0.008070521321 -2.267250765e-05 1.60609669e-06)
(0.00819971982 -4.062071884e-05 1.888107612e-05)
(0.008198343637 -2.389906546e-05 3.363916679e-06)
(0.008295423653 -3.037390961e-05 -1.330037811e-05)
(0.008151048436 -4.023259618e-05 -1.254443953e-05)
(0.008058271717 -7.940817097e-05 3.684594739e-06)
(0.007974000866 -0.0001192029736 3.472218559e-06)
(0.007881927819 4.580052696e-05 0.0001154621439)
(0.006275982716 -1.328631055e-05 -8.150408209e-07)
(0.008277956324 -3.775947772e-05 8.033747497e-06)
(0.0083654251 -1.02492467e-05 1.520762032e-05)
(0.00828018541 8.462304353e-06 1.073346657e-05)
(0.00836619616 8.486143228e-06 -1.82679933e-07)
(0.008440052447 -7.312825088e-06 9.880943242e-06)
(0.00847123886 -2.462160783e-05 -3.034633156e-05)
(0.008463648339 -8.562493812e-06 -1.654460159e-05)
(0.008309190502 -1.097040758e-05 -5.967644994e-06)
(0.008331817412 -1.828562304e-05 1.830182232e-05)
(0.008403100702 -1.065077064e-06 5.546256014e-06)
(0.008422889022 -1.132242717e-05 -2.4253391e-06)
(0.008504879227 -3.213931806e-06 2.196627684e-05)
(0.008320953504 -4.401023222e-06 1.665870679e-05)
(0.008346509593 -3.062434151e-05 -2.678241779e-05)
(0.008253323104 -7.646406703e-06 -2.853657704e-05)
(0.008421457715 9.906127166e-06 6.383915626e-06)
(0.00840166004 2.203588983e-05 -3.497137805e-05)
(0.008365658417 8.962825182e-05 1.770556093e-05)
(0.007990960096 0.0004096136151 -3.761472714e-05)
(0.006287965633 -2.602225166e-07 6.176475513e-05)
(0.008313295909 -2.458173785e-05 6.264653236e-05)
(0.00837539625 -4.83376597e-05 5.010221178e-05)
(0.00839453986 -6.90819289e-05 4.432914734e-05)
(0.00832338758 -7.624906876e-05 4.539812702e-05)
(0.008388068286 -3.914502947e-05 3.410730357e-05)
(0.008482200943 -2.9902202e-05 5.519493992e-05)
(0.00844400718 -6.916484583e-07 3.934447871e-05)
(0.00844305237 3.655003995e-05 3.306003125e-05)
(0.008431788291 3.251219517e-05 -6.070942978e-06)
(0.008401989897 3.004126589e-05 -3.613823835e-05)
(0.008454881556 1.492652424e-06 -9.552586834e-06)
(0.008321754851 5.287721882e-06 -7.256536779e-06)
(0.008237094064 -1.015342339e-05 -1.513698374e-05)
(0.00835971336 1.445719743e-05 -3.290881504e-05)
(0.008330897842 -1.087281874e-06 -3.14621335e-06)
(0.008232504429 1.692038112e-05 3.289740118e-05)
(0.008094205676 6.783814495e-05 8.406151222e-06)
(0.007982160709 0.0002063229981 -1.39935469e-05)
(0.008136070309 0.0004064491242 -2.074794669e-05)
(0.006495947446 -1.909967177e-05 -6.272269842e-06)
(0.008369344256 -3.625103436e-06 1.881111915e-07)
(0.008306347731 -3.935507783e-07 1.06005494e-05)
(0.008256844585 -1.694505155e-05 2.579798872e-05)
(0.008127237419 -9.683062278e-07 3.1165344e-05)
(0.008054719364 -1.616200789e-05 1.571598202e-05)
(0.008047093612 -2.780039993e-05 2.890900695e-06)
(0.008144184478 -3.05471108e-05 -1.962634474e-05)
(0.008191823545 -4.436695119e-05 -2.81149241e-05)
(0.008124892619 -1.784242146e-05 -2.294624785e-05)
(0.008186427786 -3.656469857e-06 -7.04289255e-07)
(0.008179930542 2.956489458e-05 -2.344646701e-05)
(0.008496785612 4.086843019e-05 -5.449953631e-05)
(0.008447793299 1.582358547e-05 -1.915215103e-05)
(0.008350899074 4.360287377e-05 -4.069705846e-05)
(0.008325274418 2.236094369e-05 -2.290461982e-05)
(0.008312730548 3.769878439e-05 -7.366987156e-06)
(0.008557732673 3.65997542e-05 -2.267069443e-05)
(0.008574417551 9.118427632e-05 -7.764961319e-05)
(0.008620287537 0.0003477218205 -7.556624756e-05)
(0.006316976719 -9.779813215e-06 -2.292818516e-05)
(0.008305098549 -2.675395294e-05 -2.153453249e-05)
(0.008210838535 -1.262224952e-05 6.07835483e-06)
(0.008317528478 1.325653392e-06 -1.891157135e-05)
(0.008333317424 2.438266693e-05 -2.715556087e-05)
(0.008332658417 -1.956321142e-06 -2.332003949e-05)
(0.008288558469 3.677592547e-05 7.158509205e-06)
(0.008191007001 -4.717914636e-06 2.743245829e-05)
(0.008161450501 -8.821650296e-06 7.521120323e-06)
(0.008218010243 -1.481385209e-05 3.093488683e-05)
(0.00822476662 -4.464539628e-05 2.654878492e-05)
(0.008322810627 -6.103502815e-05 3.274478965e-05)
(0.008379743354 -6.508346716e-05 3.877797418e-05)
(0.008483449355 -3.558635684e-05 2.420442738e-05)
(0.008459904473 -3.218841276e-05 2.309041379e-05)
(0.00846791549 -1.404337219e-05 -3.231782613e-05)
(0.008539934339 2.392261296e-05 -1.72794629e-05)
(0.00851593972 7.643290497e-05 -1.621664547e-05)
(0.008373029035 9.912434654e-05 -2.949055093e-05)
(0.008549281385 0.0002246998008 -1.013494478e-05)
(0.006399430194 7.030758593e-06 2.336096934e-05)
(0.008303570732 2.297733141e-05 -1.313330614e-05)
(0.008359642307 4.085130866e-05 -2.185362017e-05)
(0.008356009514 1.026746564e-05 -2.289774895e-05)
(0.008337501513 4.120134898e-06 -3.116939848e-06)
(0.008366869229 -9.318991009e-06 2.45409736e-05)
(0.008376926073 -3.885908991e-06 1.788235866e-06)
(0.008403193545 -1.278875126e-05 4.196311622e-06)
(0.008603924706 -3.798079372e-05 4.493523748e-05)
(0.008640690419 -3.854079203e-05 6.469713204e-05)
(0.008583920667 -2.136195332e-05 5.764088893e-05)
(0.008545326771 -2.619176975e-05 4.435629726e-05)
(0.008307534379 -3.44282927e-05 4.599175075e-05)
(0.0083016808 -3.240810502e-05 3.227309206e-05)
(0.008241264542 -4.671803547e-05 5.196169078e-05)
(0.008254995783 -4.275092694e-05 5.470311398e-05)
(0.008349657664 -9.306847634e-06 1.323299484e-05)
(0.008353943937 6.941390167e-05 8.040098055e-06)
(0.008346597952 7.479952631e-05 2.077302463e-05)
(0.008203165266 0.0001744066621 -4.296957486e-06)
(0.006291560645 6.752804481e-06 -5.644836739e-06)
(0.008480431531 -3.641546658e-06 -1.960974157e-05)
(0.008492757479 -1.122749476e-05 -1.650040232e-05)
(0.008402649378 8.720777276e-06 -2.069420075e-05)
(0.008540684475 7.662194996e-06 -4.498213377e-05)
(0.008527081614 9.683117444e-07 -5.51787042e-05)
(0.008589049492 -4.17772634e-05 -3.913899134e-05)
(0.00842830971 -3.311360343e-05 -6.683337619e-05)
(0.008374220843 -1.468914411e-05 -5.586717743e-05)
(0.008312561131 -1.480550675e-06 -5.55533935e-05)
(0.008221752569 -1.998272918e-06 -7.857604347e-05)
(0.008197846002 -9.235269528e-06 -7.030767236e-05)
(0.00832839287 -1.124306467e-05 -7.383589764e-05)
(0.008260687076 -1.681817418e-06 -8.17566629e-05)
(0.008178522092 -3.919378577e-06 -9.684988915e-05)
(0.008116198756 3.504480156e-05 -6.016479626e-05)
(0.008114927443 2.065570039e-05 -2.483016817e-05)
(0.008097746285 2.68906511e-05 1.055296161e-05)
(0.00820537456 8.414793747e-05 4.508634589e-05)
(0.008301603451 0.0001589828789 5.016053057e-05)
(0.006416115166 -3.701268119e-05 1.714270377e-05)
(0.008342408749 -1.302703636e-05 1.54059193e-05)
(0.00828657701 -3.386684843e-05 2.799728122e-06)
(0.008358551074 -4.646475284e-05 -1.547088869e-05)
(0.008370365823 -3.862056197e-05 -3.472460212e-07)
(0.008327096872 -2.571717682e-05 1.234764868e-05)
(0.008472079966 -2.250258988e-06 1.869138382e-05)
(0.008472060842 1.554441039e-05 3.315504095e-05)
(0.008623005445 3.123652798e-05 7.559045264e-06)
(0.008479705315 9.850042172e-06 -5.853448021e-06)
(0.008351239305 -3.715795057e-06 9.590240899e-06)
(0.008343147717 2.732001425e-05 -1.257403861e-05)
(0.008322345261 4.60825866e-05 1.444385419e-05)
(0.008354505937 2.388299532e-05 1.611859888e-05)
(0.008523167713 4.731777646e-05 2.407765335e-05)
(0.00857878356 2.027541412e-05 3.157825078e-05)
(0.008530049644 2.838352734e-05 8.135522293e-06)
(0.008520705832 2.868117086e-05 -3.71607182e-05)
(0.008439524335 4.80167068e-05 -2.203831378e-05)
(0.008510216663 3.188642174e-05 6.235332911e-06)
(0.00626856659 -4.19495244e-06 3.593555217e-07)
(0.008355592165 -3.221903356e-05 1.123425754e-05)
(0.008325995509 -1.061604808e-05 2.158750474e-05)
(0.008343574092 -5.398198887e-06 1.876068819e-05)
(0.008287446958 -4.375375233e-06 2.530563306e-05)
(0.008208787465 -3.18955394e-06 1.350387998e-05)
(0.008280467571 -1.895031444e-05 1.935432611e-06)
(0.008218150006 -2.798728296e-06 -6.005254547e-06)
(0.008150560172 -8.968352131e-06 -7.484288102e-06)
(0.008203934333 8.772361331e-06 5.563218476e-06)
(0.008439594431 2.564379879e-05 2.058808256e-05)
(0.008507260708 1.159093645e-05 -2.743289518e-06)
(0.00835563929 -3.61912871e-06 7.856583498e-06)
(0.008272261246 2.114889513e-05 2.441385581e-05)
(0.008097353677 2.909417258e-05 4.639871259e-05)
(0.008111694762 2.992440837e-05 2.686281655e-05)
(0.008180947559 2.8526467e-05 3.509927857e-05)
(0.008271764248 -1.304774779e-06 4.541013491e-05)
(0.008218009559 2.806406341e-05 4.11291461e-05)
(0.008195833174 7.757749211e-05 1.472942189e-05)
(0.006399539891 -4.774199489e-06 3.116660167e-05)
(0.008289785704 -7.935275435e-06 4.379898475e-05)
(0.008311157937 -2.567998889e-05 4.824094718e-05)
(0.00824450045 -2.942204952e-05 5.968276148e-05)
(0.008260598658 -2.317166303e-05 4.720773726e-05)
(0.008265225835 -3.194436942e-06 4.765137771e-05)
(0.008213643132 -6.137965157e-06 5.907067755e-05)
(0.008167897784 -2.821858034e-05 4.517686352e-05)
(0.00820550017 -1.168443792e-05 6.158530637e-05)
(0.008179819984 2.193881301e-05 2.844635097e-05)
(0.008243465449 1.406223971e-05 3.188690393e-05)
(0.008277502984 2.510450652e-05 2.859736539e-05)
(0.008359532983 4.03072852e-05 4.762082136e-05)
(0.008353164042 5.16165501e-05 -1.205785566e-05)
(0.008431456559 2.283417455e-05 -1.157663734e-05)
(0.008396691599 -1.504811022e-06 1.52346957e-05)
(0.008378615568 2.578236835e-05 1.248635271e-05)
(0.008254016237 4.953484051e-05 3.232215141e-05)
(0.008236063397 5.298007604e-05 4.586234524e-05)
(0.008331569461 4.113679848e-05 3.810068256e-05)
(0.006323897378 1.517770104e-05 5.891815298e-06)
(0.008272200311 -2.537988967e-06 2.152101075e-06)
(0.008278796456 2.494434112e-07 -1.304360367e-05)
(0.008284533951 1.214471159e-05 -2.442030388e-05)
(0.008286965959 1.444275366e-05 1.196206409e-06)
(0.008231012179 -9.211625085e-07 1.477122619e-05)
(0.008214720058 2.6625428e-05 -3.022849374e-06)
(0.008241973001 1.997988623e-05 -1.884837401e-05)
(0.008309215143 -6.056937396e-06 -2.452851195e-05)
(0.008177586531 -2.176226876e-05 -5.26284476e-06)
(0.008240757364 -4.178096906e-05 -2.207600868e-05)
(0.008168033964 -2.604729165e-05 -2.38597239e-06)
(0.00831858612 -2.407015113e-05 8.37169313e-06)
(0.008270733069 -1.771190484e-05 -6.148723185e-06)
(0.008306595206 2.475936979e-05 -1.95341812e-05)
(0.008294619162 3.000302899e-05 -2.480459914e-05)
(0.008406435605 3.364050442e-05 -3.578481271e-05)
(0.008498329128 -4.553793651e-06 -5.383509575e-05)
(0.008566950057 1.215103119e-05 -6.709285403e-05)
(0.008456235118 2.954002254e-05 -6.5596014e-05)
(0.006375675459 1.175636539e-05 -2.822807428e-05)
(0.008485408013 5.547992864e-05 -3.011054383e-05)
(0.008462447548 6.103324745e-05 6.975119152e-07)
(0.008266188979 2.838395273e-05 -5.929693044e-06)
(0.00828725967 1.453947196e-05 -1.645771584e-05)
(0.008380645883 -5.66380236e-06 -3.80962185e-05)
(0.008317851801 2.410900363e-06 -3.22632278e-05)
(0.008257747236 -1.959700316e-05 -3.363553981e-05)
(0.008348072581 -6.840472942e-06 -2.955566964e-05)
(0.008299797941 -1.31922901e-05 -1.825107921e-05)
(0.00826718442 1.751338374e-05 -1.372975945e-05)
(0.008255313892 -6.160348676e-06 -4.52334843e-05)
(0.008226553036 -9.202022174e-06 -4.51639073e-05)
(0.008156606766 -5.575955918e-06 -4.61039118e-05)
(0.008235902045 -1.36199747e-05 -2.730763343e-05)
(0.008209763303 -1.359591793e-05 -8.01799913e-07)
(0.008274596606 -2.025322442e-05 -5.926634195e-06)
(0.008367268745 -2.596581895e-05 4.986178695e-06)
(0.008234899064 -2.22377981e-05 -1.163541555e-05)
(0.008440772232 -2.423993298e-05 9.458509636e-06)
(0.006340305875 6.615864365e-05 -2.845219806e-05)
(0.008255108118 4.228786616e-05 -5.181688616e-05)
(0.008211452998 3.061708335e-05 -6.307873941e-05)
(0.008224671415 2.634887217e-05 -3.301311461e-05)
(0.008329248068 -1.849753478e-06 -4.813801795e-05)
(0.008435923273 2.007490995e-05 -2.254695991e-05)
(0.008426814037 -1.945584308e-05 -1.223697632e-05)
(0.00835951649 -1.525137365e-05 -1.388784969e-05)
(0.00825280855 1.9579724e-05 -8.60556691e-06)
(0.008337572626 1.256858831e-05 -7.029949594e-06)
(0.008405227451 1.970828957e-05 1.40599679e-06)
(0.008180994855 1.380172958e-05 -2.283638356e-06)
(0.008383663324 -1.28963096e-05 -1.530995147e-05)
(0.008441511007 -3.873746245e-05 -2.604430638e-05)
(0.008415355971 -4.081854142e-05 -2.799719011e-05)
(0.008499997043 -6.19549988e-05 -5.532641943e-05)
(0.008506978839 -3.433919569e-05 -4.1554471e-05)
(0.008461884302 -2.530093964e-05 -1.841227206e-05)
(0.008465582496 6.185174568e-06 2.710854564e-06)
(0.008298380922 3.41036559e-05 8.535074755e-06)
(0.006375669149 5.921619955e-08 -2.627664686e-05)
(0.008334808732 -2.371478572e-05 -4.88697962e-05)
(0.008384088031 8.559632042e-06 -3.931889592e-05)
(0.008479461939 3.545373745e-05 -5.412747469e-05)
(0.008330910992 5.918128059e-05 -4.711292377e-05)
(0.008258135583 4.173473789e-05 -5.99856173e-05)
(0.008213324646 4.333882474e-05 -5.841609169e-05)
(0.008223622899 5.071980267e-05 -5.112665403e-05)
(0.008102326735 9.259080017e-07 -4.836316833e-05)
(0.008077135577 -1.198706325e-05 -3.609422211e-05)
(0.008040969109 -2.572530105e-05 -3.816107211e-05)
(0.008160553408 -4.706694513e-05 -3.575541552e-05)
(0.008107095758 -5.213870275e-05 -2.984994083e-05)
(0.008091973689 -1.856323216e-05 -6.667207301e-06)
(0.008165442025 -1.357494493e-05 8.393372269e-06)
(0.007993895201 -5.317609661e-06 -1.10404604e-05)
(0.007955626814 2.48729097e-06 -2.277896428e-05)
(0.008022983522 4.079376532e-06 -1.263280663e-05)
(0.008018726298 2.262846576e-05 -2.001994526e-05)
(0.008070228309 2.72395081e-05 -1.394916734e-05)
(0.006275780064 1.906495729e-05 2.678719449e-05)
(0.008401456892 2.321830562e-05 3.84156789e-05)
(0.008380191215 1.356114454e-05 3.237861431e-05)
(0.008287963866 1.842661443e-06 3.922430745e-05)
(0.00834396376 2.436757643e-05 -2.034043585e-05)
(0.008533946557 3.68835211e-05 -2.939136336e-05)
(0.008553301777 4.62978093e-05 -4.187337101e-06)
(0.00862415057 3.438926603e-05 -6.836250862e-06)
(0.008636786015 3.904529283e-05 -2.208413361e-06)
(0.008712671616 1.906117106e-05 -8.721956768e-06)
(0.008640356266 1.586167603e-06 -8.824065214e-06)
(0.008514916852 -3.144484849e-06 7.314664543e-07)
(0.008557474256 1.432335881e-05 -8.132993289e-06)
(0.008476828914 2.192579386e-05 -3.777918525e-05)
(0.008447855611 1.953558287e-05 -3.841024987e-05)
(0.008277384516 4.313550788e-05 -4.053865517e-05)
(0.008316413419 4.832764759e-05 -4.442216781e-05)
(0.008299437457 3.446539119e-05 -5.929375526e-05)
(0.008097272939 5.084845384e-06 -4.281467744e-05)
(0.008153735946 -2.910711197e-05 -6.332103059e-05)
(0.006389087958 -2.841547566e-05 -3.379071421e-05)
(0.008281914367 -1.162292871e-05 -3.382575019e-05)
(0.008254481491 3.477632208e-05 -3.688558998e-05)
(0.008270777183 3.146121439e-05 -3.628390074e-05)
(0.008209982027 2.024227433e-05 -8.910686199e-07)
(0.008266834107 -6.229523125e-06 1.767216783e-05)
(0.008355369415 1.441295673e-05 3.775235158e-06)
(0.008387475193 -7.935162294e-07 1.121174283e-05)
(0.008487699811 -5.541572488e-06 -1.065225786e-05)
(0.008359400921 1.340886163e-05 3.093070799e-06)
(0.008364029229 1.779468576e-05 -1.214130802e-05)
(0.008300575781 6.499573344e-05 -2.427588541e-05)
(0.008230228057 8.553276983e-05 -1.069483218e-05)
(0.008218423401 9.828423175e-05 1.899360726e-05)
(0.008256922536 5.904225256e-05 1.92844559e-05)
(0.008308901027 1.038864774e-05 1.210788568e-05)
(0.008255525542 -1.222979904e-05 1.728297487e-05)
(0.008346405775 1.612221447e-06 3.231047187e-05)
(0.0083883447 9.990640475e-06 1.700163435e-05)
(0.008283207029 1.339547093e-05 7.3717719e-06)
(0.006453631446 6.24448971e-05 2.185150661e-05)
(0.008508362521 5.06593844e-05 1.698213205e-06)
(0.008473750287 1.059689913e-05 -1.137490062e-05)
(0.008649486031 2.567745798e-05 -2.49891399e-05)
(0.008539030691 5.591489149e-05 -4.588617936e-06)
(0.008439304613 1.801877176e-05 -4.775905177e-06)
(0.008403834898 -5.067697595e-06 -3.117855929e-06)
(0.008351491859 -2.334204548e-05 3.772463449e-06)
(0.008214807931 -6.65763684e-06 -8.281771852e-06)
(0.008297198313 1.450746972e-05 -1.17265827e-05)
(0.00834771896 2.376843763e-05 1.614533296e-05)
(0.008423255472 3.029971937e-05 -8.645434353e-06)
(0.008536942452 2.210986729e-05 -1.452895164e-05)
(0.008603877428 3.696723995e-06 -2.458948736e-05)
(0.008483903513 1.122009956e-05 -2.393923918e-05)
(0.008514416657 3.924804672e-05 -1.236383868e-05)
(0.008648985119 4.3821646e-05 -2.105266916e-05)
(0.008609777226 1.161978047e-05 -2.002582178e-05)
(0.008464744552 5.123560226e-05 -1.491176188e-06)
(0.008251541271 1.967862785e-05 1.855477535e-05)
(0.006341704547 -3.337731228e-05 6.691554837e-06)
(0.008330546232 -3.072678015e-05 2.943912084e-05)
(0.008325918122 1.557372366e-06 3.574244411e-05)
(0.008322613492 -2.933482695e-05 9.134961036e-06)
(0.008355685845 -2.06228837e-05 5.028589081e-06)
(0.008404176741 -8.814016282e-06 1.093090719e-05)
(0.008466451927 4.879386233e-05 -1.257108608e-05)
(0.008490090765 7.576909051e-05 -1.49892686e-05)
(0.008433001082 5.234612039e-05 8.106872388e-06)
(0.008480195483 2.251388045e-05 -1.09405701e-05)
(0.008326266841 6.071706365e-06 -1.564865688e-05)
(0.008186992866 -9.119530549e-06 -1.430036747e-05)
(0.008250645395 -7.21502962e-06 -7.243926083e-06)
(0.008186645155 -2.401399676e-06 -2.032410252e-05)
(0.008266113155 1.806823475e-05 7.415034555e-06)
(0.008237119713 4.2268975e-05 2.600291867e-05)
(0.008421801087 4.117159335e-05 1.791722966e-05)
(0.008348172943 3.711109952e-05 8.420590474e-06)
(0.00839990187 4.111906239e-05 -1.493751967e-05)
(0.008521877057 7.525571488e-05 -2.192743766e-05)
(0.006331944647 2.665386787e-06 -3.698356748e-05)
(0.008347664287 -2.687310449e-05 -5.294268705e-05)
(0.008412426825 -9.511709043e-06 -2.029201247e-05)
(0.008263156204 -4.111263148e-05 -1.756050293e-05)
(0.008224479841 -7.624075249e-06 -4.422496578e-05)
(0.008261027737 4.919810986e-07 -4.397176527e-05)
(0.008162345977 -5.415913787e-06 -4.098959589e-05)
(0.008263132304 -5.945130572e-06 -2.879308675e-05)
(0.008415676976 2.845464326e-05 -5.197075501e-05)
(0.008383964496 3.859734743e-05 -2.311311903e-05)
(0.008358080595 5.362400282e-05 -2.720612581e-05)
(0.008473881852 3.390638563e-05 -2.387316014e-05)
(0.008323352858 5.054544053e-05 -1.253133549e-05)
(0.008431369161 1.156286837e-05 1.06684797e-05)
(0.008413653518 1.633113201e-05 -1.246424395e-05)
(0.008376373216 -1.638463707e-05 -2.880636747e-05)
(0.008327623234 -8.733587981e-07 -2.950221884e-05)
(0.008317381154 1.193877555e-05 -1.861529087e-05)
(0.00849349487 -1.021897491e-05 2.22640517e-06)
(0.008520346397 -3.296027127e-05 1.211206505e-05)
(0.006285917182 -2.855997709e-05 -4.838301439e-05)
(0.008413077088 -2.743340537e-05 -5.480245903e-05)
(0.008460584537 3.398786862e-07 -7.508556928e-05)
(0.008597188505 3.837116346e-05 -6.344961219e-05)
(0.008607626855 3.359354027e-05 -4.577484564e-05)
(0.00864507481 4.597808237e-06 -2.914227678e-05)
(0.008560241799 -2.287744233e-05 -1.455694008e-05)
(0.008523161874 -9.980271496e-06 -2.120338559e-05)
(0.008571580747 -1.240811415e-06 -4.232654221e-06)
(0.008654788388 -6.119089642e-06 -3.686878531e-05)
(0.008617264258 -1.992617652e-05 -3.653405365e-05)
(0.008572946138 -1.287308145e-05 -3.14475766e-05)
(0.008869402398 1.962270849e-05 -4.822268623e-05)
(0.008924545693 3.42069976e-05 -2.688813925e-05)
(0.008869572708 -1.162443598e-05 -4.107446752e-05)
(0.008870097011 -2.767629043e-06 -3.02470164e-05)
(0.008889972737 -1.819888672e-06 5.592543189e-06)
(0.008918229346 7.499323028e-06 2.584883096e-05)
(0.008784994521 2.83688682e-05 -3.645689469e-05)
(0.008880133661 -6.122034701e-06 -2.432165947e-05)
(0.006369199276 -1.942158318e-05 -1.246407972e-05)
(0.008286767106 -2.188732696e-05 -1.500944805e-05)
(0.008327342636 -2.341022912e-05 -1.627713787e-05)
(0.008375578559 -4.259442493e-05 -2.095946397e-05)
(0.008247499391 -5.129303025e-05 -2.030878326e-05)
(0.008374098789 -1.76099754e-05 -3.68144936e-05)
(0.008259127276 7.62122779e-06 -2.751740458e-05)
(0.008326866809 4.197740822e-06 -3.510337111e-05)
(0.008391599617 -2.005623344e-05 -7.656064318e-06)
(0.008417570571 -2.983473554e-05 7.525517643e-06)
(0.008579992155 -1.380797434e-05 2.652651396e-05)
(0.008506394231 -1.850701178e-05 -1.03901465e-05)
(0.008410022346 -2.839561724e-05 -7.099123563e-06)
(0.008340973268 -2.231534588e-05 -3.730586982e-06)
(0.008487131004 5.17948541e-05 1.583096422e-05)
(0.00844985249 3.20138641e-05 -1.370816236e-05)
(0.008514875499 -8.795903291e-06 -1.32574253e-05)
(0.008372807125 -3.057244523e-05 -3.471982963e-05)
(0.008527070536 -3.187944968e-06 -2.198272472e-05)
(0.008450422194 -7.86899594e-06 -1.749602737e-05)
(0.006371037689 1.14569199e-05 1.049532787e-05)
(0.008426936847 -1.282345729e-06 1.951675213e-05)
(0.008326336472 -6.230875322e-05 -1.095501447e-05)
(0.008188283235 -4.778479475e-05 -1.903042306e-05)
(0.008324175049 -4.680878353e-05 -1.503719914e-05)
(0.008239955405 -1.410360331e-05 -2.009778145e-05)
(0.008332792075 -1.665099713e-05 -7.722792098e-06)
(0.008333677751 -1.329264668e-05 -6.433670471e-06)
(0.008393211919 -1.182129881e-05 -3.619554743e-05)
(0.008343419463 -1.688068755e-05 -3.370639943e-05)
(0.008265136869 1.444012814e-05 -1.072661171e-05)
(0.00842112774 -1.963154029e-05 -2.652092408e-06)
(0.008324617745 -1.296218729e-05 2.312443955e-05)
(0.008361295533 -1.388751494e-05 -1.473087589e-05)
(0.008337468729 -4.605126771e-05 -2.076184056e-05)
(0.008313257996 -2.999671317e-05 -3.662795196e-05)
(0.008326703908 8.924955485e-06 -7.459042842e-06)
(0.008384250981 2.736628629e-05 -8.602147472e-06)
(0.00821811345 5.488503023e-05 -1.850018661e-05)
(0.008142396421 4.213503554e-05 -2.562796458e-05)
(0.007915112387 0.001785699493 -8.494963351e-05)
(0.008083318597 0.002273481309 -9.641854204e-05)
(0.007902273683 0.002339290128 -3.676670645e-06)
(0.007658058257 0.002122394188 0.0002748967556)
(0.007215573179 0.002153155405 0.000303959372)
(0.007078476758 0.002047411651 0.000259606637)
(0.006681075612 0.001779114463 0.0001116142267)
(0.006300327521 0.001830323783 0.0001363587329)
(0.006076503476 0.001643635729 3.265910535e-05)
(0.005885719831 0.001730826342 2.90113715e-05)
(0.008250117607 0.001310864352 -2.788680899e-05)
(0.008868564283 0.002067344385 -0.0001011167312)
(0.009359101026 0.002555373734 8.548244239e-05)
(0.009672987735 0.002779936946 -3.589665154e-05)
(0.009802901467 0.002791770863 9.024298769e-05)
(0.009499731028 0.002740336397 -0.0001265529431)
(0.00933517747 0.002842105642 3.617569972e-05)
(0.009327022968 0.002793482552 -0.0001167319677)
(0.00915184573 0.002639557107 3.651786821e-05)
(0.008909082694 0.002500898419 -5.985264855e-05)
(0.008326085165 0.000771039607 6.193150362e-06)
(0.008883187347 0.001468682557 -0.0003090656244)
(0.009446447318 0.002095767617 -0.0001536874805)
(0.009749877166 0.002491514741 -0.0001704804653)
(0.01017191211 0.002823416331 5.371820682e-05)
(0.01064752297 0.002954864094 -8.559213283e-05)
(0.01074397126 0.003031387693 5.530102233e-05)
(0.01080078906 0.003185000902 -1.693514228e-05)
(0.01066297442 0.00321098698 -0.0001745617094)
(0.01022905152 0.003119922337 -0.0001002390617)
(0.008678575469 0.0005530880303 -1.503264213e-05)
(0.008996148201 0.001088224292 5.039674284e-06)
(0.00916754092 0.001568167132 -1.118177902e-05)
(0.009723308131 0.002113385046 6.453383419e-05)
(0.009877058812 0.002257664606 8.606290375e-05)
(0.01034672285 0.002635272396 2.661611904e-05)
(0.01066292882 0.002885196085 0.0001065025865)
(0.0109501657 0.00307889238 -6.30229634e-05)
(0.01114179888 0.003378206292 -8.207659785e-05)
(0.01092978739 0.003418712368 2.338397835e-05)
(0.008602483706 0.0003903033434 -1.268356484e-06)
(0.008747929601 0.0007540483345 -2.196230727e-05)
(0.009028317449 0.001158201784 4.920317777e-05)
(0.009345588051 0.001591467908 -3.204839239e-05)
(0.0100241651 0.001915723083 4.579499145e-05)
(0.01018783521 0.002097226505 8.688865254e-05)
(0.0105749275 0.002514862223 -8.2661933e-06)
(0.01082914626 0.002799357886 -5.830124129e-05)
(0.01111640998 0.003162609006 -6.017442662e-05)
(0.0117181238 0.00349649845 0.0001370731841)
(0.008264105912 0.0003128581467 -5.065801659e-05)
(0.008403457629 0.0005142153425 -5.048024287e-07)
(0.00875152017 0.0008655466538 5.145378678e-05)
(0.009004617473 0.001027171511 -1.285294733e-05)
(0.009209032318 0.001359198019 -3.9979215e-05)
(0.009616706437 0.001729458308 -1.523104353e-06)
(0.009919137305 0.002008393878 -3.269163997e-05)
(0.0103753021 0.002284905711 -8.212702218e-05)
(0.01069087894 0.002587318853 -8.803180392e-05)
(0.01106713756 0.002814415469 -9.488748784e-05)
(0.008311018158 0.0002388475865 1.465486462e-05)
(0.008487692136 0.0003109635558 -3.580735349e-05)
(0.008793922067 0.0005232552291 -5.015424887e-06)
(0.009056133174 0.0008827407412 -2.372757885e-05)
(0.008999668192 0.001047118616 -9.89690099e-05)
(0.009318243016 0.001234669388 -9.527201724e-05)
(0.009814688383 0.001574078962 -6.914476749e-05)
(0.01005995741 0.001915807719 -9.885169524e-05)
(0.01049828883 0.002139359367 -5.779589958e-05)
(0.01087704867 0.002428281692 -7.1567238e-05)
(0.008591277954 0.0001236453657 -2.785592167e-05)
(0.008443594573 0.0002375707887 -7.569956686e-05)
(0.008251713864 0.0003404439679 -2.538524033e-06)
(0.008526712532 0.0006159210465 4.509569885e-05)
(0.008863980869 0.0007439029384 6.887298977e-05)
(0.009076683927 0.0009467994881 3.774268314e-05)
(0.009308813953 0.001185194405 2.592349617e-05)
(0.009825863728 0.001357798351 -1.494736301e-05)
(0.01009807793 0.001737450942 -5.4821399e-05)
(0.01058301092 0.001940335076 6.717662377e-05)
(0.008223368006 0.0001230665947 -8.710488723e-08)
(0.008378675977 0.0001755717921 5.465922082e-05)
(0.008509342703 0.0002695651342 1.27915853e-05)
(0.008471939292 0.0003581780322 3.191995416e-05)
(0.008854082917 0.0005498348744 0.0001321970935)
(0.009134984415 0.0006258759668 0.0001432584068)
(0.009182115087 0.0007637633948 1.886803402e-05)
(0.009455730401 0.00106494653 -1.92456896e-05)
(0.009843260436 0.001326607532 1.942598288e-05)
(0.009993686255 0.00145309648 -8.559723398e-05)
(0.008377231265 6.672952493e-05 1.961892966e-06)
(0.008396323831 0.0001469190391 -3.858328362e-06)
(0.008738837786 0.0002204004604 -1.796780903e-05)
(0.008813829642 0.0001999487629 -7.328454407e-05)
(0.008677762089 0.0003000164294 6.122723752e-06)
(0.008834574206 0.0004996922449 2.176525601e-05)
(0.00908316893 0.0005346679971 -3.282495207e-05)
(0.009244496657 0.0007012647951 -9.450352454e-06)
(0.009262462357 0.0009931555491 4.915907727e-05)
(0.009475765798 0.001186941386 2.27763418e-05)
(0.008646159072 6.927662791e-05 -6.773803738e-05)
(0.008558958949 0.0001010760497 -5.215316484e-05)
(0.008589719778 0.0001317141525 -4.310984291e-05)
(0.008619206714 0.0002045210685 -7.307809021e-06)
(0.0086554024 0.0002594480681 -4.893253821e-06)
(0.00854092184 0.0003508398607 -6.915755381e-06)
(0.008540420223 0.0004413514499 -1.141823991e-05)
(0.008565245751 0.0005638005735 -3.343521762e-05)
(0.008754616332 0.0006706884329 -2.641146845e-05)
(0.008936889798 0.0009182072541 1.144838038e-05)
(0.008321362449 3.631753879e-05 1.530926949e-05)
(0.008377258695 2.46232407e-05 2.263052927e-05)
(0.008280364506 6.842066807e-05 7.735639953e-06)
(0.008075522718 0.0001377629948 2.851449549e-05)
(0.008183847396 0.0001777249141 -8.89121499e-06)
(0.008416726972 0.0002969143883 -1.871757422e-06)
(0.008546866579 0.0003510586132 4.412044421e-05)
(0.008535738164 0.0004615630485 -2.511986703e-05)
(0.008596437626 0.0005603701311 -7.599692585e-06)
(0.008927238209 0.0006387853938 -3.663944601e-05)
(0.008265849813 6.10111389e-05 -8.728618711e-06)
(0.008329097563 9.646764733e-05 -2.256116142e-05)
(0.008252294948 0.0001306335207 -1.999188151e-05)
(0.008266391071 0.0001060183899 -4.00909888e-05)
(0.008186259844 0.0001414137392 -4.381855029e-05)
(0.008198242001 0.000203024215 -1.198555905e-05)
(0.008335532581 0.0002335378626 -3.04430285e-05)
(0.008541954111 0.0002758861043 2.512781209e-05)
(0.008583562316 0.0003537482628 -9.874636883e-06)
(0.0089088915 0.0005017602631 -2.672232049e-05)
(0.00810645707 5.405099401e-05 -1.728865174e-05)
(0.008137597127 3.256898117e-05 -2.475887841e-05)
(0.008129092024 8.795257233e-05 -1.770411137e-05)
(0.008408796235 0.0001074730431 3.221540983e-06)
(0.008380237522 8.779070226e-05 -3.400090497e-05)
(0.008410286527 0.0001284948391 -2.790781968e-05)
(0.008363958677 0.0001455122887 4.742143387e-06)
(0.008364564308 0.000233634219 -7.799446406e-06)
(0.008555259591 0.000224472605 -2.976716193e-05)
(0.00847664515 0.0003018432676 1.986349571e-05)
(0.008219888351 -2.959824659e-07 -3.457057801e-05)
(0.00833214318 5.090419256e-06 -3.039645585e-05)
(0.008337076758 2.351841576e-05 -2.602204119e-05)
(0.008319799334 5.489009506e-05 -3.704817922e-05)
(0.008410722351 7.861325732e-05 1.57381823e-05)
(0.00852477202 0.0001010631378 3.101052046e-06)
(0.008700052446 0.0001651411015 -9.831724296e-06)