/*--------------------------------*- C++ -*----------------------------------*\
| =========                 |                                                 |
| \\      /  F ield         | OpenFOAM: The Open Source CFD Toolbox           |
|  \\    /   O peration     | Version:  2406                                  |
|   \\  /    A nd           | Website:  www.openfoam.com                      |
|    \\/     M anipulation  |                                                 |
\*---------------------------------------------------------------------------*/
FoamFile
{
    version     2.0;
    format      ascii;
    arch        "LSB;label=32;scalar=64";
    class       volScalarField;
    location    "0.001";
    object      overallT;
}
// * * * * * * * * * * * * * * * * * * * * * * * * * * * * * * * * * * * * * //

dimensions      [1 2 -2 0 0 0 0];

internalField   nonuniform List<scalar> 
654
(
285.5098847
295.0064238
290.9640025
297.4368644
296.746177
300.3362257
301.0851721
303.6606736
298.1718408
298.4506422
295.7357858
298.6679457
293.2905648
307.4301788
306.3760585
319.4827964
339.5800869
388.9905604
518.8266355
939.2705249
294.9137533
304.4884848
300.2699292
301.6066982
304.7320769
307.5667126
304.9155948
306.4676289
304.1706377
301.5669724
302.0758232
298.6554102
305.5467749
306.327291
320.2997188
339.3776678
346.2856562
410.6974186
579.5425532
859.6646935
295.6236883
304.7792823
299.6944471
295.3184308
292.9070158
295.7967163
295.2437291
293.9766783
293.6350623
299.6535904
299.5981291
294.9341224
294.9609577
302.372283
322.800798
338.3839207
379.7812733
415.58925
571.8942714
722.5196923
289.9127337
299.3156756
292.3065749
295.8712391
291.8561211
287.3704977
288.8848623
293.1883513
295.6623114
292.2268069
299.1720017
302.3841334
312.9502688
310.1022444
327.755762
346.280918
379.2201757
408.1877998
457.5258717
608.7661852
285.9837566
294.9163689
291.8103503
291.0308362
291.7527379
293.0576211
290.9936369
292.0363503
293.5201825
295.9874017
302.214412
296.7934537
295.3559301
300.933927
312.4521398
330.725243
343.6190494
384.3579494
435.8212008
498.5277765
292.9531068
303.6618008
296.2662664
298.7504561
297.1039015
295.2491623
297.2904736
295.8579691
297.8857158
305.5144385
299.6469555
299.5341513
297.5970601
301.0243732
308.828617
314.2964148
340.0315475
395.6811671
400.9892101
439.1980345
296.2822365
307.8460561
303.1492326
304.2192811
307.3833639
305.9477108
306.4670675
303.5431543
305.367644
303.4775027
301.7045541
296.7534471
299.2024159
298.4942931
294.7720714
311.0679596
345.685413
335.2128394
362.5472364
389.1621269
297.0540587
308.3328666
302.8020518
304.5193957
304.2492583
303.2609669
299.8260469
300.4443215
303.4033114
301.7316369
299.5609366
303.1854195
301.9343569
302.4732705
317.9327161
316.4651539
314.4243851
329.1139655
337.7667889
365.0335028
294.137227
307.029409
301.7414681
303.3331483
304.0327008
304.7700196
305.5248683
304.7290908
303.2777153
303.3545249
305.2443998
304.680297
304.0062349
316.1882881
304.9295612
316.7932263
312.0401005
317.0631352
332.2734006
356.5840923
297.4745771
304.1584904
299.5670207
299.7070482
293.3052216
298.3775235
296.4785985
292.6230796
292.8942978
296.5710399
300.7969364
306.140373
322.7096744
313.6915572
309.248907
308.9730251
311.2374376
308.8333262
313.4380043
330.2047549
289.7954764
298.647232
296.092127
293.5840837
298.7552082
297.4602602
296.8047923
299.6376506
298.5272742
297.5828501
299.2533353
294.8843594
304.2466204
302.6011074
302.9080163
301.3562635
304.5326777
297.5773895
309.2079123
312.6261154
303.4696481
308.573063
303.489292
299.9653762
298.664507
298.9375247
301.9707658
301.7532401
304.6946545
301.8633578
300.6316576
296.6993311
296.7954357
302.7838379
303.8665525
301.9480028
315.8419262
310.4037762
309.2216703
316.2729337
288.8422767
303.3820659
295.9131002
297.1557199
298.82796
297.6516733
296.9500045
297.033891
294.6223518
296.4007639
299.6629703
300.9423376
299.6072767
302.0253219
299.0781112
304.9394727
307.6443896
298.8955827
307.6779757
302.5250965
290.1250015
298.4918083
298.9951574
302.3912158
302.6269607
303.6197414
303.4642066
302.3287475
297.9174189
296.4393255
298.1269273
299.2689699
302.8198539
300.3924105
304.3721739
299.221221
293.6135822
303.9004076
296.1992808
302.9065778
294.5640611
305.1222505
301.0521714
294.0506583
297.9859914
299.804433
296.0547007
300.8922133
302.5515972
301.4018641
298.9803878
299.071342
294.0816943
291.6648469
291.4490055
290.2394837
294.2395681
298.2884622
297.9758889
299.9149794
288.6779684
297.932266
297.3107704
296.9113719
294.9418045
296.4121725
298.4638056
298.0188544
297.9630192
299.2489956
299.6934402
300.150643
298.2231985
301.0951862
301.1294087
303.8795249
302.3154601
296.9064298
300.4011235
303.2151786
295.1313089
301.7003051
296.5242404
297.1008269
302.3625666
301.4785511
302.6133359
299.5784364
296.6692348
298.0090228
297.5243278
297.5332278
298.2672859
300.6278794
300.4010134
301.0712129
305.3732325
306.4253849
304.4399833
310.9997672
299.7842135
303.8950389
302.5193512
304.5921795
302.7370504
299.6195881
298.0165817
298.2680693
299.3090139
297.1912715
295.5170007
293.3042038
296.7296745
299.7730727
297.3920141
290.5594259
291.5230457
293.4530731
294.8882867
300.4235364
288.5276063
305.7156711
298.4602621
293.9565239
294.6634025
293.8896698
296.8523979
295.2568919
303.0700107
304.7461918
304.0257703
303.9532915
293.9420741
289.8300225
291.33864
296.2926098
293.7803757
293.5830079
298.7843806
288.6950646
289.6293291
297.5641084
294.143815
298.0867758
297.597504
298.9225698
298.6265005
293.0985408
287.3065394
286.8771338
290.9216301
295.6597244
300.0895446
300.1941954
294.9418347
293.5730064
293.9636692
296.8390388
299.6991394
301.8373565
288.0641237
295.8155474
290.3719665
291.6535554
291.2510859
292.5000929
293.3715056
297.827073
302.0183889
301.2225121
298.1949204
290.280965
291.5450857
294.0854153
296.3597656
296.9189854
298.259823
297.6755151
294.5121211
299.7604876
287.9532699
299.0213113
294.5728733
293.3862976
294.0561412
294.1584729
292.0204686
290.6690757
292.4483571
294.3499407
295.7009482
303.01048
295.4026923
300.0741061
301.0453899
298.1848029
297.4753211
305.3370736
300.0222893
301.6114044
1057.924714
987.9132072
966.334808
940.3131915
917.3647609
903.5826042
897.4937755
874.9192751
877.0994633
868.1988523
990.3724173
1005.737522
1000.081192
987.1219766
958.3814934
961.6659761
948.1601535
928.1510136
942.43109
959.2344919
845.8067808
888.7663821
916.3061787
933.0731017
929.6346943
931.5597925
911.9088784
919.2912342
928.6520343
924.9041788
670.2825784
792.7312288
813.8480157
881.9658052
869.9209369
866.9487541
879.7998313
895.62644
880.3462529
907.9127578
550.1976658
671.9264046
734.661154
788.2442892
812.0385878
824.154599
846.6039072
837.9947921
845.8367112
849.7058505
502.5028302
581.2448172
669.3123072
709.5097913
747.0958155
754.0259211
775.5737627
793.8311846
808.7385918
814.7897709
445.1190614
500.4739527
574.6472397
636.0861746
626.2384918
657.9508015
710.5870325
728.7735749
750.1702575
774.3567311
407.5460435
473.5465077
495.2104845
564.5129965
567.0011989
580.0428287
623.1210945
656.3756986
693.4706369
696.5615216
388.8935195
404.0886347
422.3047406
460.3586419
511.6331152
538.790784
558.6755332
603.9365241
649.8204462
668.9349336
353.751009
379.509
399.7313135
419.6920638
434.1159688
502.6312795
487.5198931
540.6686394
583.8015493
626.8614219
331.4970456
375.3445191
376.3694626
395.9113736
422.0932512
461.6520244
471.4679696
500.7125005
520.3104563
537.2285102
334.372422
340.0646617
356.7967277
376.4370951
377.1937918
405.7661755
431.9579447
441.474419
469.1440466
487.2132535
317.7762868
327.0366314
352.6421235
336.5646889
345.2675009
368.6524002
387.8319766
398.6846646
418.8309471
459.5106897
321.9000019
314.217648
341.9318264
344.4550414
352.100385
359.2269411
365.0001651
386.0250494
399.7918759
410.4404595
307.060857
310.5790266
321.7836121
331.4874669
338.5568862
336.4655597
351.6628732
375.3932688
376.2390186
387.0345327
301.2721576
316.646278
310.0741199
315.1162025
326.3292392
334.4182101
352.7152077
349.2822505
366.3936865
376.3364194
313.6991382
321.5622055
324.461182
311.8342431
309.1337835
315.846752
328.7624513
341.6787935
332.9696943
363.0446818
303.2471309
311.5558951
306.8626492
305.232227
301.9345739
308.0759598
310.3401817
313.712001
312.0280344
325.5724848
299.3828199
307.5853797
300.0147523
307.4828607
303.9227474
302.0042107
296.5577968
312.471401
308.6428341
322.4510982
304.9161355
303.8043461
301.195728
301.7061076
302.170568
307.7212905
309.1448063
317.8649053
323.0861246
312.8022171
297.8985865
295.0338882
296.6730345
296.3226295
303.231747
303.1633536
306.050298
313.3180917
321.603486
315.0803362
296.8053835
298.9772596
302.3937397
302.9705856
)
;

boundaryField
{
    flow
    {
        type            calculated;
        value           nonuniform List<scalar> 
42
(
285.5098847
294.9137533
295.6236883
289.9127337
285.9837566
292.9531068
296.2822365
297.0540587
294.137227
297.4745771
289.7954764
303.4696481
288.8422767
290.1250015
294.5640611
288.6779684
295.1313089
299.7842135
288.5276063
289.6293291
288.0641237
287.9532699
285.5098847
295.0064238
290.9640025
297.4368644
296.746177
300.3362257
301.0851721
303.6606736
298.1718408
298.4506422
295.7357858
298.6679457
293.2905648
307.4301788
306.3760585
319.4827964
339.5800869
388.9905604
518.8266355
939.2705249
)
;
    }
    obstacle
    {
        type            calculated;
        value           nonuniform List<scalar> 10(927.8914108 864.2513991 841.524506 844.8302146 773.1636367 741.4314802 788.1497365 761.7727593 750.5237676 759.0613929);
    }
    frontAndBack
    {
        type            empty;
    }
    procBoundary0to1
    {
        type            processor;
        value           nonuniform List<scalar> 
21
(
844.2204547
916.030706
913.5543251
889.6839829
838.4125306
822.4690674
778.9403398
736.8572801
691.8981922
625.3127994
573.6571185
526.1178237
475.1930605
446.00227
400.921321
387.236824
353.7845803
335.1253937
340.5605958
328.3941556
323.0022593
)
;
    }
    procBoundary0to2
    {
        type            processor;
        value           nonuniform List<scalar> 
31
(
287.9525737
296.8950311
295.7693283
296.3639731
294.9067117
294.0305503
296.3132651
299.6318851
300.0345346
296.9292285
295.7900381
296.9982149
299.1930019
299.3973005
296.2164894
296.3134538
293.9880337
294.6581565
301.1357247
303.8205036
309.8513437
312.2833592
303.4513264
301.5063596
299.9497439
308.6630749
297.7711641
298.1506863
295.3716146
309.8513437
293.6443915
)
;
    }
}


// ************************************************************************* //
