/*--------------------------------*- C++ -*----------------------------------*\
| =========                 |                                                 |
| \\      /  F ield         | OpenFOAM: The Open Source CFD Toolbox           |
|  \\    /   O peration     | Version:  2406                                  |
|   \\  /    A nd           | Website:  www.openfoam.com                      |
|    \\/     M anipulation  |                                                 |
\*---------------------------------------------------------------------------*/
FoamFile
{
    version     2.0;
    format      ascii;
    arch        "LSB;label=32;scalar=64";
    class       volScalarField;
    location    "0.001";
    object      p;
}
// * * * * * * * * * * * * * * * * * * * * * * * * * * * * * * * * * * * * * //

dimensions      [1 -1 -2 0 0 0 0];

internalField   nonuniform List<scalar> 
654
(
0.2951859495
0.3978450797
0.3897578765
0.4005004228
0.3973542611
0.4095468074
0.4113380986
0.4233281002
0.4074516393
0.4030407996
0.3984575389
0.4064746363
0.3879339121
0.4259573244
0.4223908435
0.4564394097
0.4972384361
0.6126488304
0.9365379869
2.431376188
0.29740717
0.4099310155
0.4125796682
0.4123624965
0.4198372723
0.4291288091
0.4297678346
0.4313511894
0.4170825325
0.4104877897
0.4126607113
0.4095433335
0.4300646972
0.4252838855
0.4638980159
0.5037203765
0.5322028462
0.692698138
1.151793576
2.023254118
0.3051049552
0.4139220763
0.4082760819
0.4056989275
0.4017020663
0.4155755817
0.4171695855
0.4091259829
0.4101439915
0.4159838826
0.4186942855
0.4126774787
0.4071833486
0.4210409682
0.4717542204
0.5000804654
0.5916108107
0.677019327
1.060706729
1.524201909
0.3117541216
0.4198768966
0.4011582252
0.4064887438
0.3920307972
0.3782902616
0.3792810952
0.3913696485
0.3980339305
0.3917516145
0.4032847712
0.4130556478
0.4493034157
0.4416757117
0.4778873151
0.5271891987
0.6102286832
0.7045025606
0.8311305706
1.249513765
0.3096772015
0.4134498801
0.4041329145
0.40447524
0.4040456836
0.4031025417
0.3967302193
0.3955956347
0.3985071025
0.4064122015
0.4207079709
0.418814498
0.4128727099
0.4243271282
0.4498412402
0.496613045
0.5267252232
0.6280712947
0.7396008517
0.9073857115
0.3157112112
0.4265403199
0.4173545842
0.4198175269
0.4120993607
0.4071958304
0.4150715082
0.4182059593
0.4306981822
0.4429367448
0.424802694
0.4184560878
0.4073031548
0.416982285
0.4386874937
0.4406183652
0.5045789146
0.6323452229
0.6620227235
0.7333217491
0.306945102
0.4275327708
0.4197257887
0.4196190788
0.4345249262
0.4385691435
0.4480217337
0.4329560463
0.4318215764
0.4277062306
0.4214071213
0.4121417857
0.4184170634
0.4128351851
0.3973912796
0.4365556608
0.5126923305
0.4839386986
0.5567477942
0.6230820844
0.3110206481
0.4259538422
0.4168358412
0.4269622605
0.4276842057
0.4217268113
0.4156703789
0.4236050098
0.4360857209
0.4243826258
0.418951942
0.4224899286
0.4174194349
0.4210797976
0.4623029874
0.462570347
0.4472267621
0.4854530878
0.494850864
0.5737987104
0.3066776216
0.4222857609
0.4047669841
0.4138489372
0.4136600822
0.4138424761
0.4226785995
0.4174798837
0.4067124207
0.4088703045
0.4234975874
0.4277611086
0.4197484652
0.4417187663
0.4063005547
0.4306724927
0.4263488946
0.4349390917
0.46855601
0.5279618079
0.3194579423
0.4228412544
0.4185701375
0.4103097438
0.4008454174
0.4053192742
0.4000204559
0.3930823395
0.3997739184
0.4031558317
0.4158782423
0.4247347728
0.4626038069
0.4460894232
0.4409645414
0.4407506684
0.4413823044
0.422270733
0.4349564496
0.4792600765
0.3116874916
0.4174433602
0.4105206648
0.412638978
0.4179689832
0.4092013968
0.4096259491
0.4198511659
0.418855041
0.4108390241
0.4160035961
0.4095206014
0.4360515529
0.4284147268
0.4331591367
0.4221567869
0.4368007816
0.4303814381
0.4554664429
0.4528747502
0.3308983824
0.4412387702
0.433599016
0.4143228676
0.4165069981
0.4224014446
0.4253134508
0.4221501695
0.4361680827
0.4285227032
0.4216481519
0.4110655158
0.4081061569
0.4165326722
0.4205086074
0.4211254023
0.4571191059
0.4472417138
0.4394370031
0.4609923293
0.3060625464
0.4229190226
0.4081403973
0.4137322133
0.4252978551
0.4304291171
0.4277566073
0.4211713693
0.4058402521
0.4173938629
0.4312696114
0.4214040081
0.4265358963
0.4320422923
0.4302226677
0.4450756956
0.4535140435
0.4261882448
0.4450378975
0.4273168066
0.31097835
0.4189776147
0.4200925904
0.4275162721
0.4152534679
0.4126135368
0.412422136
0.4143017229
0.4051970602
0.4037834746
0.4012734029
0.4112732374
0.416961319
0.4105943398
0.4213708768
0.4016540118
0.3890477373
0.415555258
0.3983414461
0.4144670318
0.3107981063
0.4337811438
0.4202876483
0.404035568
0.4155017038
0.4289166224
0.4237612571
0.4303526194
0.4311920234
0.4346886269
0.4272012743
0.4186447476
0.4139554069
0.4106293432
0.4076574066
0.3999705146
0.4088221344
0.4172764184
0.4056530974
0.4058239086
0.3054955211
0.4087180829
0.4099341692
0.416193397
0.4124841319
0.4096559165
0.4215099032
0.420117099
0.4308848888
0.4252062132
0.4222072646
0.4167688632
0.4068150386
0.409995892
0.4118611101
0.4180776856
0.4019328208
0.4042234227
0.4162268629
0.4166664383
0.3153413323
0.4241385037
0.414897731
0.4248293757
0.4300779403
0.4271919811
0.4276506411
0.41770836
0.4057791815
0.4038046275
0.4053202163
0.4092856744
0.4209924721
0.4261604509
0.419832129
0.431171531
0.4482072598
0.4413552006
0.4272998286
0.4272460443
0.3195579009
0.4182847267
0.4174949716
0.4220904593
0.4239154368
0.4166156585
0.4160715184
0.41642351
0.4119871869
0.4187795272
0.406577054
0.3976358316
0.4055986068
0.4047846521
0.4082826723
0.3915231156
0.4062213876
0.4083776399
0.4164583868
0.4413960546
0.3046868544
0.4315564793
0.4182527921
0.398597388
0.3986287391
0.3988096618
0.4009725285
0.4073265389
0.4248175746
0.431845804
0.4285243181
0.4357227381
0.4089287222
0.4101568505
0.4163917512
0.4227283941
0.4138181165
0.4136533563
0.4323467365
0.4035092224
0.3017051638
0.4140320401
0.4104567058
0.4242136023
0.4214771421
0.4273302935
0.4253609699
0.4107271354
0.4056016068
0.4114880445
0.4137763171
0.4189082155
0.4446054035
0.4491839477
0.4323011863
0.4239104177
0.425683531
0.4298248704
0.4400001578
0.4543357435
0.2990206581
0.4010102317
0.393558837
0.406509704
0.3985803694
0.408354547
0.4063038143
0.4135202208
0.4199198717
0.4224935035
0.4251792662
0.4067375742
0.4013098719
0.3979243965
0.4155418863
0.4144573511
0.4193767581
0.4100395391
0.4070683774
0.4134737774
0.31088504
0.4285438037
0.411300847
0.3973990055
0.4070425017
0.3998910913
0.396823097
0.3964077734
0.4062971189
0.402019293
0.4035040352
0.42697385
0.4127087028
0.418927488
0.4170212873
0.4121700686
0.4118761477
0.4271147625
0.4067715481
0.4035806813
4.625261634
4.860618551
4.733568787
4.634076988
4.412544891
4.418062
4.26788599
4.145022979
4.008502127
4.093438968
2.9869676
3.554861775
3.746795862
3.948933739
3.886795002
3.813785199
3.760778606
3.726299689
3.853811748
3.848266584
2.044118857
2.505257316
2.954740747
3.11887149
3.317656531
3.318071448
3.297915042
3.457339683
3.65373658
3.51739605
1.496640282
2.007922869
2.191420051
2.668468915
2.628177884
2.74119007
2.874715125
3.110119077
3.099663725
3.213942203
1.05553605
1.456235231
1.768113706
2.058989684
2.240355489
2.340701586
2.557637347
2.559458061
2.685673778
2.940982923
0.8758355051
1.12002285
1.44702388
1.619235719
1.76427614
1.877230119
2.008306071
2.245373887
2.379665601
2.474010722
0.7380812579
0.8851890165
1.157094987
1.369432484
1.334218518
1.476687697
1.734669225
1.869322061
2.030460304
2.187046983
0.6814100804
0.8281115381
0.8658876924
1.084872791
1.116733789
1.181484685
1.344977717
1.536227657
1.717307578
1.777870198
0.6072917803
0.6588352534
0.7130266479
0.8082698727
0.9725341423
1.069545912
1.126809077
1.297617071
1.526386775
1.586297921
0.5406973266
0.6031800714
0.6706371051
0.7300932422
0.7597999307
0.9471196306
0.917535311
1.088269383
1.209986774
1.373257591
0.5063639177
0.5997023336
0.6116565607
0.664688555
0.7325024452
0.8210223272
0.8557968282
0.9428764487
0.9959076204
1.044594176
0.5004613797
0.5116669328
0.5514811739
0.5928979676
0.5933870741
0.6877565406
0.7536899454
0.7753795061
0.8497506748
0.9096357934
0.4593107808
0.4910376377
0.55169957
0.5056495113
0.5210570461
0.5734695685
0.6128284522
0.6571590925
0.7125437416
0.84083641
0.4567427652
0.4456397482
0.5052123634
0.5214097654
0.5349470887
0.5619871236
0.5738815801
0.6180661299
0.663334177
0.6901387702
0.4256436097
0.4353883605
0.4638079984
0.4801545562
0.5061123226
0.5044827452
0.5529831371
0.6198025484
0.6145565552
0.6327116609
0.421798864
0.4608478476
0.4457752102
0.4590891818
0.4825463495
0.4785534829
0.5354769653
0.5200225772
0.571635288
0.6067205722
0.4378632194
0.45508662
0.45208914
0.4212198144
0.425958411
0.444949056
0.4816146888
0.5184666208
0.4903670353
0.5623323541
0.4408050982
0.4516144956
0.4462022224
0.458056264
0.4513687849
0.4631424589
0.4566910756
0.4692480851
0.4685894428
0.4995583729
0.4300662683
0.4680964406
0.4384410668
0.4453291938
0.4408576751
0.438355305
0.4260929322
0.4588022266
0.4452206114
0.477602327
0.4451236654
0.4379755971
0.4234627377
0.420155078
0.4294034156
0.4321744531
0.4377121582
0.4637960199
0.4759496988
0.4677185593
0.4105222779
0.405823541
0.4049988046
0.4105864933
0.4251321097
0.4259733013
0.4289302225
0.4436151685
0.4601157284
0.4431118122
0.3908407735
0.3997833038
0.3998892583
0.4060221555
)
;

boundaryField
{
    flow
    {
        type            calculated;
        value           nonuniform List<scalar> 
42
(
0.2951859495
0.29740717
0.3051049552
0.3117541216
0.3096772015
0.3157112112
0.306945102
0.3110206481
0.3066776216
0.3194579423
0.3116874916
0.3308983824
0.3060625464
0.31097835
0.3107981063
0.3054955211
0.3153413323
0.3195579009
0.3046868544
0.3017051638
0.2990206581
0.31088504
0.2951859495
0.3978450797
0.3897578765
0.4005004228
0.3973542611
0.4095468074
0.4113380986
0.4233281002
0.4074516393
0.4030407996
0.3984575389
0.4064746363
0.3879339121
0.4259573244
0.4223908435
0.4564394097
0.4972384361
0.6126488304
0.9365379869
2.431376188
)
;
    }
    obstacle
    {
        type            calculated;
        value           nonuniform List<scalar> 10(3.59491739 3.803183279 3.711716879 3.356770506 3.63366061 3.350383506 3.143011147 3.324696488 3.047048735 3.251424581);
    }
    frontAndBack
    {
        type            empty;
    }
    procBoundary0to1
    {
        type            processor;
        value           nonuniform List<scalar> 
21
(
3.951832009
3.813564535
3.413453123
2.964714486
2.90738141
2.626468273
2.261293164
2.052536789
1.693926866
1.401138882
1.187540698
1.035445041
0.8749862068
0.7862509115
0.6859343372
0.6206893689
0.5611868055
0.514382108
0.5270378181
0.5059656713
0.4688342196
)
;
    }
    procBoundary0to2
    {
        type            processor;
        value           nonuniform List<scalar> 
31
(
0.3040585355
0.4090027561
0.4097891578
0.4135917568
0.4087830375
0.4064843499
0.4039768062
0.4120474226
0.4104443445
0.4068997603
0.4017789171
0.4037513744
0.4046322771
0.4030736465
0.3979657532
0.3911368588
0.390364415
0.394337806
0.4123788954
0.4160293337
0.4148855813
0.4266172388
0.4063516845
0.4147819404
0.4109458272
0.4316477572
0.4052892477
0.403635847
0.4097875885
0.4148855813
0.4020052556
)
;
    }
}


// ************************************************************************* //
