/*--------------------------------*- C++ -*----------------------------------*\
| =========                 |                                                 |
| \\      /  F ield         | OpenFOAM: The Open Source CFD Toolbox           |
|  \\    /   O peration     | Version:  2406                                  |
|   \\  /    A nd           | Website:  www.openfoam.com                      |
|    \\/     M anipulation  |                                                 |
\*---------------------------------------------------------------------------*/
FoamFile
{
    version     2.0;
    format      ascii;
    arch        "LSB;label=32;scalar=64";
    class       volScalarField;
    location    "0.001";
    object      rhoM;
}
// * * * * * * * * * * * * * * * * * * * * * * * * * * * * * * * * * * * * * //

dimensions      [1 -3 0 0 0 0 0];

internalField   nonuniform List<scalar> 
654
(
3.458697042e-06
4.634020865e-06
6.848453417e-06
4.496139531e-06
3.389756375e-06
5.395700685e-06
4.149769955e-06
4.980390442e-06
2.559135888e-06
6.917394084e-06
2.490195221e-06
5.395700685e-06
7.055275419e-06
3.389756375e-06
5.464641352e-06
3.458697042e-06
4.496139531e-06
6.571024508e-06
3.874007286e-06
4.427198864e-06
3.043386799e-06
4.980390442e-06
3.458697042e-06
6.571024508e-06
4.980390442e-06
3.458697042e-06
7.608466997e-06
6.364202506e-06
7.53952633e-06
4.911449774e-06
2.559135888e-06
4.980390442e-06
5.53358202e-06
4.496139531e-06
6.986334752e-06
3.52763771e-06
4.496139531e-06
3.52763771e-06
5.602522687e-06
4.080829287e-06
4.980390442e-06
3.043386799e-06
3.942947953e-06
3.458697042e-06
4.565080198e-06
3.596578377e-06
5.879951596e-06
7.53952633e-06
1.452752732e-06
4.496139531e-06
1.452752732e-06
6.01783293e-06
7.124216086e-06
4.358258196e-06
4.496139531e-06
5.53358202e-06
6.502083841e-06
2.974446132e-06
8.092717908e-06
4.427198864e-06
3.942947953e-06
5.53358202e-06
5.879951596e-06
4.980390442e-06
7.470585662e-06
2.974446132e-06
4.911449774e-06
2.559135888e-06
5.464641352e-06
6.571024508e-06
5.948892263e-06
4.080829287e-06
8.02377724e-06
5.118271776e-06
5.671463354e-06
2.421254554e-06
9.269707971e-06
6.502083841e-06
6.433143174e-06
6.917394084e-06
3.458697042e-06
3.458697042e-06
5.948892263e-06
3.043386799e-06
4.080829287e-06
4.149769955e-06
7.608466997e-06
3.389756375e-06
6.155714265e-06
4.01188862e-06
5.53358202e-06
4.358258196e-06
3.52763771e-06
6.01783293e-06
6.01783293e-06
5.395700685e-06
2.00594431e-06
7.954836573e-06
4.496139531e-06
5.53358202e-06
4.496139531e-06
3.596578377e-06
3.52763771e-06
4.427198864e-06
5.395700685e-06
6.01783293e-06
4.080829287e-06
2.00594431e-06
5.53358202e-06
1.452752732e-06
4.980390442e-06
7.124216086e-06
2.074884977e-06
3.596578377e-06
6.848453417e-06
5.395700685e-06
9.200767303e-06
2.974446132e-06
4.01188862e-06
3.112327466e-06
5.464641352e-06
3.52763771e-06
6.986334752e-06
3.458697042e-06
5.53358202e-06
4.911449774e-06
4.911449774e-06
7.470585662e-06
3.389756375e-06
4.496139531e-06
3.389756375e-06
3.389756375e-06
7.954836573e-06
4.427198864e-06
5.740404021e-06
1.521693399e-06
2.974446132e-06
4.496139531e-06
6.155714265e-06
3.874007286e-06
3.52763771e-06
7.055275419e-06
5.811010928e-06
2.074884977e-06
7.746348332e-06
5.811010928e-06
2.490195221e-06
4.01188862e-06
3.596578377e-06
5.464641352e-06
1.937003643e-06
6.571024508e-06
3.942947953e-06
4.080829287e-06
2.697017223e-06
5.049331109e-06
4.496139531e-06
5.53358202e-06
6.155714265e-06
3.389756375e-06
3.458697042e-06
4.565080198e-06
3.043386799e-06
4.911449774e-06
4.427198864e-06
5.602522687e-06
7.53952633e-06
4.634020865e-06
6.364202506e-06
3.596578377e-06
4.358258196e-06
5.187212443e-06
6.502083841e-06
5.395700685e-06
2.974446132e-06
3.52763771e-06
4.149769955e-06
4.565080198e-06
8.439087484e-06
4.01188862e-06
3.942947953e-06
6.433143174e-06
4.980390442e-06
3.665519044e-06
4.496139531e-06
4.427198864e-06
5.395700685e-06
8.02377724e-06
4.842509107e-06
8.645909486e-06
4.496139531e-06
3.458697042e-06
3.874007286e-06
4.980390442e-06
5.395700685e-06
8.02377724e-06
3.043386799e-06
5.118271776e-06
2.905505464e-06
2.074884977e-06
3.458697042e-06
3.52763771e-06
6.01783293e-06
4.358258196e-06
5.049331109e-06
3.596578377e-06
4.358258196e-06
4.634020865e-06
5.464641352e-06
2.905505464e-06
4.427198864e-06
5.326760018e-06
4.496139531e-06
1.037442489e-06
5.879951596e-06
3.52763771e-06
5.049331109e-06
3.389756375e-06
6.986334752e-06
5.948892263e-06
3.043386799e-06
7.124216086e-06
6.295261839e-06
3.52763771e-06
4.496139531e-06
4.080829287e-06
3.458697042e-06
4.080829287e-06
4.911449774e-06
3.665519044e-06
5.118271776e-06
3.52763771e-06
5.049331109e-06
3.389756375e-06
3.52763771e-06
4.980390442e-06
4.565080198e-06
6.433143174e-06
3.043386799e-06
3.874007286e-06
3.458697042e-06
4.496139531e-06
5.464641352e-06
5.187212443e-06
3.874007286e-06
4.911449774e-06
6.502083841e-06
1.937003643e-06
4.496139531e-06
3.874007286e-06
8.29953991e-06
2.628076555e-06
5.395700685e-06
4.427198864e-06
4.911449774e-06
4.358258196e-06
5.049331109e-06
6.502083841e-06
5.464641352e-06
6.086773598e-06
4.980390442e-06
5.53358202e-06
5.53358202e-06
4.842509107e-06
4.01188862e-06
4.358258196e-06
4.911449774e-06
6.77951275e-06
7.885895906e-06
5.118271776e-06
4.427198864e-06
4.496139531e-06
3.389756375e-06
5.602522687e-06
2.00594431e-06
3.942947953e-06
4.01188862e-06
4.358258196e-06
3.52763771e-06
6.01783293e-06
4.01188862e-06
2.905505464e-06
4.427198864e-06
3.458697042e-06
4.565080198e-06
3.734459711e-06
4.080829287e-06
5.53358202e-06
3.458697042e-06
8.092717908e-06
6.364202506e-06
3.52763771e-06
4.01188862e-06
5.671463354e-06
6.708905843e-06
6.502083841e-06
1.452752732e-06
6.571024508e-06
4.565080198e-06
6.433143174e-06
3.043386799e-06
4.427198864e-06
6.086773598e-06
4.01188862e-06
5.879951596e-06
2.00594431e-06
5.187212443e-06
3.52763771e-06
5.53358202e-06
4.427198864e-06
5.948892263e-06
3.874007286e-06
6.848453417e-06
1.937003643e-06
3.52763771e-06
6.01783293e-06
2.905505464e-06
4.565080198e-06
6.01783293e-06
2.421254554e-06
4.427198864e-06
7.124216086e-06
4.842509107e-06
6.01783293e-06
4.565080198e-06
6.917394084e-06
2.559135888e-06
9.54547064e-06
5.464641352e-06
5.948892263e-06
8.992279062e-06
3.458697042e-06
3.942947953e-06
5.049331109e-06
5.53358202e-06
2.421254554e-06
3.043386799e-06
4.496139531e-06
6.364202506e-06
3.043386799e-06
2.974446132e-06
6.01783293e-06
3.52763771e-06
2.559135888e-06
5.187212443e-06
2.00594431e-06
5.53358202e-06
3.665519044e-06
3.458697042e-06
2.074884977e-06
6.01783293e-06
4.01188862e-06
4.01188862e-06
2.490195221e-06
5.948892263e-06
4.427198864e-06
3.043386799e-06
7.332704328e-06
4.080829287e-06
4.01188862e-06
3.458697042e-06
3.043386799e-06
4.358258196e-06
3.942947953e-06
5.53358202e-06
4.980390442e-06
4.358258196e-06
3.043386799e-06
6.77951275e-06
3.458697042e-06
2.559135888e-06
4.911449774e-06
3.52763771e-06
5.049331109e-06
6.986334752e-06
5.53358202e-06
4.496139531e-06
5.049331109e-06
3.942947953e-06
4.496139531e-06
3.52763771e-06
4.01188862e-06
7.124216086e-06
6.502083841e-06
5.049331109e-06
6.433143174e-06
2.974446132e-06
4.427198864e-06
4.01188862e-06
3.596578377e-06
5.464641352e-06
3.458697042e-06
4.01188862e-06
4.427198864e-06
4.01188862e-06
4.01188862e-06
2.143825645e-06
4.842509107e-06
2.628076555e-06
5.049331109e-06
3.942947953e-06
4.01188862e-06
4.01188862e-06
3.52763771e-06
3.52763771e-06
6.433143174e-06
4.427198864e-06
4.496139531e-06
4.565080198e-06
4.01188862e-06
7.816955239e-06
4.565080198e-06
3.52763771e-06
2.628076555e-06
7.124216086e-06
6.01783293e-06
2.00594431e-06
5.53358202e-06
5.464641352e-06
4.496139531e-06
4.01188862e-06
4.427198864e-06
7.124216086e-06
3.596578377e-06
6.848453417e-06
4.496139531e-06
3.043386799e-06
5.049331109e-06
8.508028151e-06
7.53952633e-06
6.433143174e-06
6.01783293e-06
4.565080198e-06
6.639965176e-06
3.458697042e-06
5.049331109e-06
4.080829287e-06
4.358258196e-06
5.948892263e-06
5.049331109e-06
1.221671771e-05
8.457587625e-06
1.428653506e-05
1.374874347e-05
1.141832068e-05
1.51643569e-05
1.310113312e-05
1.858938584e-05
1.336359667e-05
1.397862812e-05
6.525141897e-06
1.034348214e-05
6.545355157e-06
1.197610942e-05
1.07053203e-05
1.113916834e-05
1.187124685e-05
9.914924489e-06
1.321722989e-05
9.615136781e-06
7.427893123e-06
7.059319223e-06
7.600893535e-06
9.497153145e-06
1.227529643e-05
1.063601976e-05
1.143665651e-05
1.166399725e-05
1.167507234e-05
1.538457518e-05
7.080295232e-06
9.784511509e-06
7.60089354e-06
6.661621505e-06
9.634960177e-06
8.695056523e-06
8.32412666e-06
1.042529022e-05
1.270317737e-05
1.286932631e-05
6.039173707e-06
1.117941261e-06
6.615498342e-06
6.732253736e-06
1.127606443e-05
8.122008178e-06
1.056747585e-05
9.914924489e-06
6.314996995e-06
1.176002451e-05
3.470962467e-06
7.478968108e-06
8.304020689e-06
6.165488825e-06
8.207240316e-06
9.989609097e-06
4.704865341e-06
9.039510048e-06
5.433258733e-06
1.07244386e-05
5.48402037e-06
5.102080194e-06
4.997119175e-06
7.087121972e-06
8.278368454e-06
7.547228564e-06
9.409730694e-06
7.363095823e-06
1.116101982e-05
1.124223154e-05
5.900803409e-06
5.032419324e-06
5.06726236e-06
1.098384406e-05
5.067288086e-06
7.905383778e-06
5.067314556e-06
5.686681584e-06
6.534547162e-06
4.289775436e-06
6.594327043e-06
5.521729078e-06
5.48981677e-06
6.024224384e-06
5.638032217e-06
5.821158451e-06
5.211596799e-06
9.331900236e-06
6.755866117e-06
7.840610217e-06
4.581269144e-06
7.059319228e-06
4.644707946e-06
6.802885954e-06
5.780288466e-06
7.762121695e-06
7.238522625e-06
1.603755719e-06
5.360075346e-06
7.988042017e-06
3.054179428e-06
8.527248496e-06
7.460607165e-06
3.543560984e-06
4.068056097e-06
3.162153511e-06
3.61926131e-06
3.280169955e-06
3.671551012e-06
4.80756839e-06
1.943872754e-06
4.612770439e-06
5.20754873e-06
9.779682028e-06
5.209544343e-06
5.677896368e-06
6.731791193e-06
9.331900295e-06
8.076704754e-06
3.327905441e-06
4.998052181e-06
2.516209667e-06
2.956185604e-06
7.583254647e-06
5.138416195e-06
7.690490635e-06
4.560583091e-06
4.300901387e-06
4.185603512e-06
4.881284291e-06
2.984994269e-06
4.123460654e-06
6.122800697e-06
4.465194106e-06
4.139184227e-06
4.743230257e-06
5.283737897e-06
8.748875971e-06
6.902232869e-06
4.289775405e-06
3.956930677e-06
3.005519426e-06
4.081867159e-06
4.465194137e-06
3.139952255e-06
6.970717714e-06
6.803932302e-06
4.738608664e-06
4.699656061e-06
3.771982481e-06
6.941924925e-06
5.521729093e-06
4.92697602e-07
6.16548885e-06
7.565368077e-06
2.515742865e-06
2.677939528e-06
3.645218621e-06
4.699656027e-06
4.142343636e-06
3.054179423e-06
5.0324193e-06
5.419673548e-06
4.180958094e-06
3.63956823e-06
4.599968169e-06
3.619261318e-06
5.831998656e-06
5.506442143e-06
2.144887718e-06
6.455956738e-06
6.50034861e-06
8.656431976e-06
3.543560971e-06
4.709928318e-06
3.162153504e-06
3.619261292e-06
4.08292586e-06
3.891101195e-06
6.360947254e-06
4.512084017e-06
3.005519426e-06
5.982514369e-06
5.031959041e-06
2.56920811e-06
4.383343774e-06
3.835684688e-06
7.800803026e-06
5.360075323e-06
4.881284325e-06
4.998052174e-06
5.382407347e-06
5.137405542e-06
7.157754165e-06
4.70992835e-06
4.599968201e-06
4.777006477e-06
3.207511433e-06
6.829049527e-06
2.736396573e-06
8.399829489e-06
3.634150907e-06
6.615498338e-06
6.16548885e-06
4.567672097e-06
5.246378826e-06
1.520194369e-06
3.134852936e-06
5.947311271e-06
5.325361345e-06
4.37371369e-06
7.54862895e-06
4.081867159e-06
6.661621532e-06
)
;

boundaryField
{
    flow
    {
        type            zeroGradient;
    }
    obstacle
    {
        type            calculated;
        value           nonuniform List<scalar> 10(1.633844175e-24 2.893905262e-24 4.213960214e-24 1.52695636e-23 6.345831079e-24 1e-300 1e-300 1.24867812e-23 1.554872233e-24 5.872680903e-24);
    }
    frontAndBack
    {
        type            empty;
    }
    procBoundary0to1
    {
        type            processor;
        value           nonuniform List<scalar> 
21
(
1.832804935e-05
1.065453314e-05
1.34852429e-05
9.685612898e-06
9.83412533e-06
9.386793335e-06
1.072878935e-05
9.312537106e-06
9.38858804e-06
6.333314905e-06
4.768550233e-06
5.290138476e-06
4.768550219e-06
8.120848202e-06
3.725373801e-06
5.438650873e-06
7.673516195e-06
4.246962027e-06
6.929159375e-06
5.960239096e-06
2.160609122e-06
)
;
    }
    procBoundary0to2
    {
        type            processor;
        value           nonuniform List<scalar> 
31
(
4.496139531e-06
2.974446132e-06
2.490195221e-06
4.427198864e-06
4.496139531e-06
6.086773598e-06
5.879951596e-06
3.942947953e-06
4.358258196e-06
6.364202506e-06
6.155714265e-06
7.193156754e-06
5.53358202e-06
3.458697042e-06
4.427198864e-06
6.986334752e-06
5.049331109e-06
1.937003643e-06
2.974446132e-06
4.427198864e-06
5.13841622e-06
3.665302074e-06
4.198133868e-06
6.342364347e-06
4.772839451e-06
3.180473627e-06
6.455956738e-06
6.639670357e-06
4.081867159e-06
5.13841622e-06
5.314487896e-06
)
;
    }
}


// ************************************************************************* //
