/*--------------------------------*- C++ -*----------------------------------*\
| =========                 |                                                 |
| \\      /  F ield         | OpenFOAM: The Open Source CFD Toolbox           |
|  \\    /   O peration     | Version:  2406                                  |
|   \\  /    A nd           | Website:  www.openfoam.com                      |
|    \\/     M anipulation  |                                                 |
\*---------------------------------------------------------------------------*/
FoamFile
{
    version     2.0;
    format      ascii;
    arch        "LSB;label=32;scalar=64";
    class       volScalarField;
    location    "0.001";
    object      rhoMMean;
}
// * * * * * * * * * * * * * * * * * * * * * * * * * * * * * * * * * * * * * //

dimensions      [1 -3 0 0 0 0 0];

internalField   nonuniform List<scalar> 
654
(
3.637585369e-06
4.73963047e-06
4.779473593e-06
4.780445428e-06
4.76204056e-06
4.82539016e-06
4.771860128e-06
4.853079732e-06
4.787776466e-06
4.713356369e-06
4.68898928e-06
4.755540143e-06
4.644730621e-06
4.73810711e-06
4.736573753e-06
4.81986491e-06
4.764414535e-06
4.796654191e-06
5.000836869e-06
6.519438977e-06
3.668981074e-06
4.731176386e-06
4.818183674e-06
4.764239997e-06
4.816256668e-06
4.85860165e-06
4.887249726e-06
4.87575892e-06
4.773383487e-06
4.786370992e-06
4.809894131e-06
4.835350941e-06
4.894570766e-06
4.795393264e-06
4.821135834e-06
4.812405988e-06
4.934417222e-06
5.051454731e-06
5.409356769e-06
6.118112234e-06
3.665386161e-06
4.739489256e-06
4.820692198e-06
4.834385772e-06
4.808794413e-06
4.856503438e-06
4.900365115e-06
4.871457939e-06
4.892078905e-06
4.877278947e-06
4.875348609e-06
4.902318781e-06
4.823174062e-06
4.797165726e-06
4.894416223e-06
4.89054888e-06
4.886809422e-06
4.86868365e-06
5.145362751e-06
5.695536352e-06
3.78338884e-06
4.798134228e-06
4.773071067e-06
4.746202119e-06
4.672474762e-06
4.602631409e-06
4.599174378e-06
4.674582971e-06
4.707508701e-06
4.687994118e-06
4.723983229e-06
4.729525143e-06
4.914347782e-06
4.892495881e-06
4.872984631e-06
4.895798368e-06
4.963583498e-06
5.164040048e-06
5.265030003e-06
5.660686949e-06
3.698039461e-06
4.74640665e-06
4.699111269e-06
4.765796681e-06
4.769388261e-06
4.782382431e-06
4.754968623e-06
4.7087463e-06
4.691454481e-06
4.732669753e-06
4.741382937e-06
4.795881472e-06
4.829926915e-06
4.877783818e-06
4.897295068e-06
4.932453559e-06
4.996637112e-06
5.078115816e-06
5.103720505e-06
5.341373773e-06
3.742166903e-06
4.747775466e-06
4.815012403e-06
4.809493817e-06
4.792343212e-06
4.79579691e-06
4.796644193e-06
4.824021345e-06
4.930244125e-06
4.953074525e-06
4.918211792e-06
4.891083743e-06
4.78402701e-06
4.783058508e-06
4.766193663e-06
4.771866792e-06
4.849609371e-06
4.955563054e-06
4.991670051e-06
4.959147968e-06
3.675205729e-06
4.844202007e-06
4.876001358e-06
4.820100683e-06
4.897849926e-06
4.908099799e-06
4.95389848e-06
4.85887408e-06
4.833561816e-06
4.813239941e-06
4.765517586e-06
4.764966061e-06
4.825695915e-06
4.788610419e-06
4.74072019e-06
4.745552702e-06
4.796328441e-06
4.759804467e-06
4.867577267e-06
4.973143965e-06
3.745072409e-06
4.790540757e-06
4.795669026e-06
4.855440377e-06
4.86124139e-06
4.820692198e-06
4.890121906e-06
4.889008858e-06
4.978662551e-06
4.877114406e-06
4.818344882e-06
4.798554537e-06
4.778491761e-06
4.793029286e-06
4.914229895e-06
4.947441385e-06
4.899137513e-06
4.937030303e-06
4.910342558e-06
5.000547776e-06
3.673699031e-06
4.777382046e-06
4.767838241e-06
4.77572747e-06
4.73368491e-06
4.708658406e-06
4.755566803e-06
4.721665906e-06
4.67241686e-06
4.70617321e-06
4.846155673e-06
4.86661543e-06
4.799092732e-06
4.747361822e-06
4.627950338e-06
4.650121323e-06
4.695788787e-06
4.750435201e-06
4.758048667e-06
4.817527592e-06
3.743276619e-06
4.757473814e-06
4.798971514e-06
4.752483426e-06
4.768813408e-06
4.767569144e-06
4.735887679e-06
4.697160936e-06
4.7173316e-06
4.698516422e-06
4.745408156e-06
4.761613587e-06
4.838121898e-06
4.818472766e-06
4.863854471e-06
4.835754588e-06
4.820961295e-06
4.74459753e-06
4.760661747e-06
4.830780862e-06
3.734697984e-06
4.76949615e-06
4.787753138e-06
4.796203889e-06
4.793019289e-06
4.743349933e-06
4.742926292e-06
4.759380825e-06
4.785974011e-06
4.728549976e-06
4.751817347e-06
4.716534305e-06
4.792359874e-06
4.770904956e-06
4.790402876e-06
4.786525536e-06
4.857485269e-06
4.880026577e-06
4.946419563e-06
4.88196358e-06
3.743552381e-06
4.869816693e-06
4.882938747e-06
4.768255218e-06
4.775586256e-06
4.838811305e-06
4.821815243e-06
4.785294602e-06
4.851559704e-06
4.816569088e-06
4.79579691e-06
4.784450651e-06
4.770602533e-06
4.735322824e-06
4.772956513e-06
4.759696578e-06
4.821939795e-06
4.892637095e-06
4.804802519e-06
4.921433049e-06
3.721972911e-06
4.759827794e-06
4.754020116e-06
4.767165497e-06
4.824428324e-06
4.890269785e-06
4.875735593e-06
4.843223507e-06
4.780008456e-06
4.817218504e-06
4.850971522e-06
4.734081892e-06
4.847248726e-06
4.873273724e-06
4.873831914e-06
4.925155845e-06
4.940793088e-06
4.883792695e-06
4.893336499e-06
4.798551205e-06
3.745489385e-06
4.773235608e-06
4.830508432e-06
4.874921635e-06
4.800074564e-06
4.757480479e-06
4.723310485e-06
4.721084389e-06
4.654536858e-06
4.651634685e-06
4.628134874e-06
4.689695349e-06
4.684435863e-06
4.6505383e-06
4.695772125e-06
4.601702897e-06
4.585783226e-06
4.636141989e-06
4.624099658e-06
4.680128217e-06
3.659571818e-06
4.815853021e-06
4.825124395e-06
4.766035787e-06
4.802700975e-06
4.905076408e-06
4.919469386e-06
4.967887812e-06
4.966653545e-06
5.010350681e-06
4.973678828e-06
4.896070799e-06
4.923609158e-06
4.886816087e-06
4.86869698e-06
4.756784407e-06
4.789568923e-06
4.783485482e-06
4.666316756e-06
4.709347813e-06
3.750880087e-06
4.750966731e-06
4.758291105e-06
4.772277104e-06
4.734915844e-06
4.759545366e-06
4.817780027e-06
4.826358662e-06
4.911153184e-06
4.825820467e-06
4.822514647e-06
4.781696357e-06
4.728576636e-06
4.732312762e-06
4.766613972e-06
4.791502594e-06
4.751249159e-06
4.805596483e-06
4.829385387e-06
4.76504729e-06
3.771904699e-06
4.866470884e-06
4.86951427e-06
4.977838596e-06
4.925270399e-06
4.876858638e-06
4.862065346e-06
4.809917459e-06
4.738389538e-06
4.774486538e-06
4.828988405e-06
4.835895802e-06
4.922072469e-06
4.945441064e-06
4.884442112e-06
4.917791483e-06
5.007589722e-06
4.97646978e-06
4.898743864e-06
4.774637749e-06
3.717120405e-06
4.777933571e-06
4.791623813e-06
4.813341165e-06
4.835751255e-06
4.860374112e-06
4.88348694e-06
4.90478065e-06
4.844750199e-06
4.882242675e-06
4.787621922e-06
4.700601304e-06
4.767562479e-06
4.72357625e-06
4.774758968e-06
4.746100895e-06
4.832993629e-06
4.803518265e-06
4.833958798e-06
4.931908698e-06
3.713814585e-06
4.818761859e-06
4.876451659e-06
4.764952731e-06
4.747102722e-06
4.775044728e-06
4.728408762e-06
4.780438763e-06
4.867183618e-06
4.865505714e-06
4.850140901e-06
4.929971695e-06
4.808498656e-06
4.859415608e-06
4.862324446e-06
4.841289836e-06
4.818603983e-06
4.811693254e-06
4.926783762e-06
4.902433335e-06
3.669673813e-06
4.803544925e-06
4.871040962e-06
4.961236183e-06
4.965520502e-06
4.986682996e-06
4.936751208e-06
4.90533884e-06
4.925956474e-06
4.986282682e-06
4.970793318e-06
4.938832757e-06
5.127119092e-06
5.146347915e-06
5.108848774e-06
5.101379855e-06
5.116031933e-06
5.127506077e-06
5.076747e-06
5.151863168e-06
3.720318335e-06
4.739213493e-06
4.775599586e-06
4.813233276e-06
4.735500695e-06
4.808827738e-06
4.752230991e-06
4.804230999e-06
4.828430215e-06
4.835209728e-06
4.919049077e-06
4.864523882e-06
4.826062905e-06
4.790376216e-06
4.87933717e-06
4.853883692e-06
4.899127515e-06
4.807691362e-06
4.890962524e-06
4.836460657e-06
3.722242009e-06
4.825800472e-06
4.790113783e-06
4.701990115e-06
4.790386214e-06
4.749994897e-06
4.797986349e-06
4.784719749e-06
4.847258723e-06
4.822481322e-06
4.782920627e-06
4.88350027e-06
4.82069553e-06
4.828016571e-06
4.805471931e-06
4.776161109e-06
4.784739744e-06
4.831910573e-06
4.730237877e-06
4.684846175e-06
1.141728645e-05
1.356683637e-05
1.37223605e-05
1.416116736e-05
1.418379342e-05
1.452478257e-05
1.423302822e-05
1.426230145e-05
1.384203474e-05
1.46555325e-05
7.804680043e-06
9.549663447e-06
1.033502276e-05
1.135593717e-05
1.16534303e-05
1.162232081e-05
1.181771421e-05
1.223001194e-05
1.248713248e-05
1.244432809e-05
6.412440751e-06
7.536526088e-06
8.703210428e-06
9.182332313e-06
9.954591082e-06
1.025782906e-05
1.067093711e-05
1.123982032e-05
1.185277045e-05
1.168755843e-05
5.995915222e-06
6.776535228e-06
7.225273605e-06
8.310316706e-06
8.501428826e-06
9.034184287e-06
9.488327031e-06
1.009657167e-05
1.030869466e-05
1.057083292e-05
5.526358336e-06
6.001482037e-06
6.501202671e-06
7.11887361e-06
7.753756615e-06
8.001709575e-06
8.59299946e-06
8.808240847e-06
9.318839556e-06
1.020896758e-05
5.133884575e-06
5.474202684e-06
5.957873132e-06
6.265035447e-06
6.593934923e-06
7.018758084e-06
7.477516349e-06
8.013632341e-06
8.369172511e-06
8.817982842e-06
5.047840824e-06
5.242323736e-06
5.654863476e-06
6.03150783e-06
6.03948839e-06
6.351267566e-06
6.880585397e-06
7.256046775e-06
7.697187147e-06
8.165121417e-06
5.130313701e-06
5.174706813e-06
5.133270276e-06
5.448551282e-06
5.658215406e-06
5.842821757e-06
6.16658966e-06
6.653474088e-06
7.080983883e-06
7.426901886e-06
4.895016892e-06
5.002343923e-06
5.135908589e-06
5.228695584e-06
5.561865812e-06
5.77812529e-06
5.88006473e-06
6.188650978e-06
6.612538547e-06
6.812593662e-06
4.906650033e-06
4.962034062e-06
5.172758558e-06
5.254625505e-06
5.214851232e-06
5.451403335e-06
5.599961457e-06
5.814807749e-06
5.918338591e-06
6.207063642e-06
5.013799641e-06
5.058924125e-06
5.06903522e-06
5.130905592e-06
5.228305837e-06
5.249318956e-06
5.273365729e-06
5.396775405e-06
5.552347349e-06
5.718816287e-06
4.864485131e-06
4.915542269e-06
4.877779128e-06
4.815550854e-06
4.861472946e-06
5.049806377e-06
5.208243457e-06
5.267322985e-06
5.358534763e-06
5.551792116e-06
4.805990446e-06
4.860702546e-06
4.875079797e-06
4.833094962e-06
4.807091068e-06
4.864654617e-06
4.976589782e-06
5.08955978e-06
5.155855193e-06
5.432728219e-06
4.717000772e-06
4.739101979e-06
4.779249744e-06
4.948070119e-06
4.940970987e-06
4.968995292e-06
4.934460656e-06
4.965203992e-06
5.122652486e-06
5.105932458e-06
4.746300619e-06
4.827860917e-06
4.831147681e-06
4.846135693e-06
4.896310722e-06
4.954508543e-06
5.106306077e-06
5.167851492e-06
5.114581124e-06
5.097363633e-06
4.892064289e-06
4.92682734e-06
4.857209192e-06
4.852227135e-06
4.907118726e-06
4.77479729e-06
4.912611302e-06
4.88865261e-06
5.005609029e-06
5.136266476e-06
4.786983545e-06
4.779643354e-06
4.727280638e-06
4.674769939e-06
4.72458848e-06
4.775950279e-06
4.86062218e-06
4.960352369e-06
4.927023369e-06
5.027943744e-06
4.92010873e-06
4.887675825e-06
4.989909503e-06
5.084228132e-06
5.094794229e-06
5.063140124e-06
5.005392598e-06
5.044484753e-06
5.072250612e-06
5.114483539e-06
4.920787237e-06
5.102931712e-06
5.01933782e-06
5.037615594e-06
5.07155836e-06
5.04689957e-06
5.006258326e-06
4.917966735e-06
4.847623114e-06
4.904222665e-06
5.024099233e-06
5.00527306e-06
4.930405586e-06
4.8175183e-06
4.87788743e-06
4.868379462e-06
4.889435476e-06
5.060965286e-06
5.002642816e-06
5.09378251e-06
4.835405206e-06
4.76422031e-06
4.773002583e-06
4.838893649e-06
4.839462339e-06
4.831873132e-06
4.832396475e-06
4.803783137e-06
4.79913462e-06
4.773847041e-06
4.695108176e-06
4.725003554e-06
4.634981563e-06
4.682893743e-06
)
;

boundaryField
{
    flow
    {
        type            calculated;
        value           nonuniform List<scalar> 
42
(
3.637585369e-06
3.668981074e-06
3.665386161e-06
3.78338884e-06
3.698039461e-06
3.742166903e-06
3.675205729e-06
3.745072409e-06
3.673699031e-06
3.743276619e-06
3.734697984e-06
3.743552381e-06
3.721972911e-06
3.745489385e-06
3.659571818e-06
3.750880087e-06
3.771904699e-06
3.717120405e-06
3.713814585e-06
3.669673813e-06
3.720318335e-06
3.722242009e-06
3.637585369e-06
4.73963047e-06
4.779473593e-06
4.780445428e-06
4.76204056e-06
4.82539016e-06
4.771860128e-06
4.853079732e-06
4.787776466e-06
4.713356369e-06
4.68898928e-06
4.755540143e-06
4.644730621e-06
4.73810711e-06
4.736573753e-06
4.81986491e-06
4.764414535e-06
4.796654191e-06
5.000836869e-06
6.519438977e-06
)
;
    }
    obstacle
    {
        type            calculated;
        value           nonuniform List<scalar> 10(6.453890056e-24 7.116971586e-24 6.911135015e-24 6.318281869e-24 6.953207544e-24 7.771331175e-24 6.165732383e-24 6.370858257e-24 6.694643559e-24 6.343172452e-24);
    }
    frontAndBack
    {
        type            empty;
    }
    procBoundary0to1
    {
        type            processor;
        value           nonuniform List<scalar> 
21
(
1.431204705e-05
1.290200767e-05
1.167984187e-05
1.024046432e-05
1.042474132e-05
9.364958867e-06
8.502015926e-06
8.0325098e-06
7.107167877e-06
6.34077687e-06
6.022948151e-06
5.816025486e-06
5.478666224e-06
5.221867591e-06
5.287460769e-06
5.068846394e-06
5.115760618e-06
5.082683212e-06
5.043117885e-06
5.070041672e-06
4.782758541e-06
)
;
    }
    procBoundary0to2
    {
        type            processor;
        value           nonuniform List<scalar> 
31
(
3.705790808e-06
4.783889128e-06
4.820547651e-06
4.827041404e-06
4.808367439e-06
4.79646299e-06
4.733254604e-06
4.72093651e-06
4.671428363e-06
4.703358931e-06
4.661595466e-06
4.714715188e-06
4.700614634e-06
4.699380367e-06
4.721104384e-06
4.653857449e-06
4.597014932e-06
4.600068316e-06
4.633545571e-06
4.618748946e-06
4.658971816e-06
4.662004116e-06
4.663063136e-06
4.784849742e-06
4.762861747e-06
4.777845516e-06
4.648563502e-06
4.632714504e-06
4.718839753e-06
4.658971816e-06
4.697581799e-06
)
;
    }
}


// ************************************************************************* //
