/*--------------------------------*- C++ -*----------------------------------*\
| =========                 |                                                 |
| \\      /  F ield         | OpenFOAM: The Open Source CFD Toolbox           |
|  \\    /   O peration     | Version:  2406                                  |
|   \\  /    A nd           | Website:  www.openfoam.com                      |
|    \\/     M anipulation  |                                                 |
\*---------------------------------------------------------------------------*/
FoamFile
{
    version     2.0;
    format      ascii;
    arch        "LSB;label=32;scalar=64";
    class       volScalarField;
    location    "0.001";
    object      rhoNMean;
}
// * * * * * * * * * * * * * * * * * * * * * * * * * * * * * * * * * * * * * //

dimensions      [0 -3 0 0 0 0 0];

internalField   nonuniform List<scalar> 
654
(
7.583473402e+19
9.884966977e+19
9.968278962e+19
9.972444561e+19
9.930788569e+19
1.005575655e+20
9.949533765e+19
1.012657173e+20
9.987024158e+19
9.837062586e+19
9.774578598e+19
9.918291771e+19
9.689183813e+19
9.880801378e+19
9.87038738e+19
1.004950815e+20
9.949533765e+19
1.002034895e+20
1.043899168e+20
1.361317829e+20
7.64387459e+19
9.857890582e+19
1.003284575e+20
9.92662297e+19
1.003492855e+20
1.013073733e+20
1.019738692e+20
1.016822772e+20
9.953699365e+19
9.970361761e+19
1.002243175e+20
1.007658454e+20
1.020571812e+20
1.000785215e+20
1.006825334e+20
1.004117695e+20
1.02911129e+20
1.053480046e+20
1.128669112e+20
1.278005844e+20
7.637626192e+19
9.882884178e+19
1.004950815e+20
1.007658454e+20
1.002451455e+20
1.011199214e+20
1.020780092e+20
1.015156533e+20
1.019946972e+20
1.017031052e+20
1.017031052e+20
1.022238051e+20
1.004950815e+20
9.995355357e+19
1.019530412e+20
1.019113852e+20
1.018072452e+20
1.014115133e+20
1.071392122e+20
1.185112981e+20
7.881313747e+19
9.997438156e+19
9.930788569e+19
9.855807783e+19
9.70792901e+19
9.574629834e+19
9.568381436e+19
9.732922605e+19
9.801654993e+19
9.755833401e+19
9.843310985e+19
9.859973382e+19
1.024320851e+20
1.020155252e+20
1.015781373e+20
1.019738692e+20
1.033693449e+20
1.075349442e+20
1.096385718e+20
1.178656303e+20
7.708441379e+19
9.897463775e+19
9.809986191e+19
9.951616565e+19
9.955782164e+19
9.97661016e+19
9.905794973e+19
9.799572193e+19
9.764164599e+19
9.843310985e+19
9.859973382e+19
9.968278962e+19
1.004742535e+20
1.014115133e+20
1.018489012e+20
1.027028491e+20
1.039941848e+20
1.056604245e+20
1.062644364e+20
1.110965315e+20
7.798001762e+19
9.891215376e+19
1.003284575e+20
1.003076295e+20
9.997438156e+19
1.000160376e+20
1.001410055e+20
1.006200494e+20
1.026820211e+20
1.03181893e+20
1.024529131e+20
1.018072452e+20
9.970361761e+19
9.968278962e+19
9.941202567e+19
9.953699365e+19
1.011199214e+20
1.03223549e+20
1.039733568e+20
1.03223549e+20
7.656371388e+19
1.009324694e+20
1.014739973e+20
1.002451455e+20
1.018697292e+20
1.021613212e+20
1.03161065e+20
1.012865453e+20
1.007866734e+20
1.004534255e+20
9.949533765e+19
9.949533765e+19
1.007450174e+20
9.991189758e+19
9.876635779e+19
9.880801378e+19
9.989106958e+19
9.912043372e+19
1.013906853e+20
1.036609369e+20
7.804250161e+19
9.991189758e+19
1.000785215e+20
1.013698573e+20
1.014323413e+20
1.004950815e+20
1.018280732e+20
1.017655892e+20
1.036817649e+20
1.015364813e+20
1.004742535e+20
1.000160376e+20
9.957864964e+19
9.995355357e+19
1.025570531e+20
1.03306861e+20
1.021613212e+20
1.02869473e+20
1.023904291e+20
1.043066048e+20
7.662619787e+19
9.953699365e+19
9.934954168e+19
9.953699365e+19
9.874552979e+19
9.830814187e+19
9.934954168e+19
9.859973382e+19
9.757916201e+19
9.828731388e+19
1.010782654e+20
1.014115133e+20
9.993272557e+19
9.891215376e+19
9.628782624e+19
9.697515012e+19
9.801654993e+19
9.916208971e+19
9.934954168e+19
1.005367375e+20
7.802167361e+19
9.920374571e+19
1.000368656e+20
9.903712174e+19
9.941202567e+19
9.939119767e+19
9.87247018e+19
9.797489393e+19
9.822482989e+19
9.782909796e+19
9.876635779e+19
9.92245737e+19
1.008491574e+20
1.004117695e+20
1.013906853e+20
1.007033614e+20
1.004534255e+20
9.887049777e+19
9.930788569e+19
1.006408774e+20
7.783422165e+19
9.937036968e+19
9.972444561e+19
9.997438156e+19
9.989106958e+19
9.882884178e+19
9.876635779e+19
9.905794973e+19
9.98077576e+19
9.853724983e+19
9.918291771e+19
9.841228185e+19
1.000785215e+20
9.955782164e+19
9.991189758e+19
9.98077576e+19
1.012240613e+20
1.016406213e+20
1.02952785e+20
1.016822772e+20
7.802167361e+19
1.015989653e+20
1.017447612e+20
9.937036968e+19
9.951616565e+19
1.008491574e+20
1.006200494e+20
9.987024158e+19
1.012448893e+20
1.005783935e+20
1.000160376e+20
9.97661016e+19
9.939119767e+19
9.864138981e+19
9.945368166e+19
9.930788569e+19
1.005367375e+20
1.020363532e+20
1.002868015e+20
1.027653331e+20
7.758428569e+19
9.92662297e+19
9.916208971e+19
9.945368166e+19
1.005783935e+20
1.018905572e+20
1.015364813e+20
1.008491574e+20
9.957864964e+19
1.003284575e+20
1.010157814e+20
9.864138981e+19
1.010157814e+20
1.016614493e+20
1.017031052e+20
1.027653331e+20
1.03119409e+20
1.019113852e+20
1.020988372e+20
9.999520956e+19
7.806332961e+19
9.947450966e+19
1.006617054e+20
1.016197933e+20
1.000368656e+20
9.92454017e+19
9.853724983e+19
9.841228185e+19
9.699597811e+19
9.695432212e+19
9.657941819e+19
9.784992596e+19
9.772495798e+19
9.699597811e+19
9.791240994e+19
9.59754063e+19
9.557967438e+19
9.664190218e+19
9.635031023e+19
9.751667802e+19
7.623046594e+19
1.004117695e+20
1.006200494e+20
9.928705769e+19
1.000785215e+20
1.022238051e+20
1.025570531e+20
1.035567969e+20
1.035984529e+20
1.043899168e+20
1.035567969e+20
1.019530412e+20
1.025778811e+20
1.018489012e+20
1.014948253e+20
9.920374571e+19
9.987024158e+19
9.97661016e+19
9.737088204e+19
9.830814187e+19
7.814664159e+19
9.903712174e+19
9.914126172e+19
9.951616565e+19
9.86830458e+19
9.92245737e+19
1.003909415e+20
1.005783935e+20
1.022862891e+20
1.006617054e+20
1.006825334e+20
9.97869296e+19
9.87038738e+19
9.878718578e+19
9.945368166e+19
9.989106958e+19
9.907877773e+19
1.000785215e+20
1.005367375e+20
9.914126172e+19
7.856320151e+19
1.013698573e+20
1.014323413e+20
1.037025929e+20
1.026195371e+20
1.016614493e+20
1.014115133e+20
1.003701135e+20
9.884966977e+19
9.953699365e+19
1.006408774e+20
1.007241894e+20
1.024529131e+20
1.02869473e+20
1.016614493e+20
1.024112571e+20
1.043690888e+20
1.037650769e+20
1.022862891e+20
9.962030563e+19
7.741766172e+19
9.953699365e+19
9.97869296e+19
1.002243175e+20
1.006825334e+20
1.011824053e+20
1.017239332e+20
1.020988372e+20
1.009116414e+20
1.017031052e+20
9.97661016e+19
9.793323794e+19
9.934954168e+19
9.847476584e+19
9.951616565e+19
9.878718578e+19
1.006825334e+20
1.000160376e+20
1.006825334e+20
1.027445051e+20
7.743848972e+19
1.004950815e+20
1.017031052e+20
9.941202567e+19
9.901629374e+19
9.957864964e+19
9.851642183e+19
9.968278962e+19
1.015156533e+20
1.013698573e+20
1.009949534e+20
1.027028491e+20
1.001201775e+20
1.012240613e+20
1.013073733e+20
1.008283294e+20
1.003701135e+20
1.002659735e+20
1.025987091e+20
1.020780092e+20
7.64595739e+19
1.001826615e+20
1.014948253e+20
1.033485169e+20
1.034110009e+20
1.038275609e+20
1.02848645e+20
1.021404932e+20
1.025987091e+20
1.039108728e+20
1.036192809e+20
1.02931957e+20
1.068684483e+20
1.072641802e+20
1.064310604e+20
1.062852644e+20
1.065143724e+20
1.067018243e+20
1.057229085e+20
1.072641802e+20
7.758428569e+19
9.882884178e+19
9.959947763e+19
1.004117695e+20
9.889132576e+19
1.004534255e+20
9.918291771e+19
1.001618335e+20
1.005992214e+20
1.007450174e+20
1.025153971e+20
1.012657173e+20
1.004534255e+20
9.974527361e+19
1.016406213e+20
1.011199214e+20
1.020988372e+20
1.002451455e+20
1.019113852e+20
1.008075014e+20
7.75426297e+19
1.005367375e+20
9.982858559e+19
9.799572193e+19
9.98077576e+19
9.899546575e+19
9.991189758e+19
9.972444561e+19
1.010782654e+20
1.004742535e+20
9.968278962e+19
1.018072452e+20
1.005159095e+20
1.005992214e+20
1.001618335e+20
9.966196162e+19
9.984941359e+19
1.008075014e+20
9.874552979e+19
9.770412998e+19
2.383020781e+20
2.827684259e+20
2.856374595e+20
2.947134814e+20
2.951280039e+20
3.018242199e+20
2.958875801e+20
2.970877345e+20
2.88046288e+20
3.054644371e+20
1.628463724e+20
1.993647886e+20
2.156002311e+20
2.364365633e+20
2.423513637e+20
2.420090524e+20
2.461080257e+20
2.551170129e+20
2.606964831e+20
2.592528079e+20
1.337091828e+20
1.570842163e+20
1.813974815e+20
1.916032402e+20
2.075823883e+20
2.138543731e+20
2.225259423e+20
2.342194569e+20
2.469220866e+20
2.435742599e+20
1.248676971e+20
1.414683953e+20
1.505853393e+20
1.731236315e+20
1.772616065e+20
1.885129978e+20
1.977233447e+20
2.103584869e+20
2.145754702e+20
2.20056438e+20
1.149393148e+20
1.248844775e+20
1.353487985e+20
1.482849891e+20
1.614243169e+20
1.662229752e+20
1.784348571e+20
1.834243469e+20
1.936817228e+20
2.122617055e+20
1.068084922e+20
1.138986842e+20
1.239478819e+20
1.304028734e+20
1.373782822e+20
1.463350809e+20
1.55659185e+20
1.669828872e+20
1.742251111e+20
1.839111493e+20
1.05219951e+20
1.092476108e+20
1.178659805e+20
1.258789971e+20
1.262470529e+20
1.327013779e+20
1.437155793e+20
1.512438667e+20
1.604064952e+20
1.698806304e+20
1.06975707e+20
1.080901039e+20
1.072915245e+20
1.137797612e+20
1.180812859e+20
1.219026193e+20
1.287424821e+20
1.388853331e+20
1.476049293e+20
1.54959285e+20
1.022309854e+20
1.044702639e+20
1.07121994e+20
1.090638335e+20
1.160398444e+20
1.204743266e+20
1.2255273e+20
1.291828963e+20
1.380092823e+20
1.423095475e+20
1.02293691e+20
1.03312757e+20
1.077153504e+20
1.095546314e+20
1.086046987e+20
1.136791158e+20
1.168206711e+20
1.21368264e+20
1.234831531e+20
1.292366673e+20
1.04342073e+20
1.054383606e+20
1.056386034e+20
1.070793028e+20
1.091204314e+20
1.09567364e+20
1.09977072e+20
1.12565827e+20
1.157005085e+20
1.193930335e+20
1.016666352e+20
1.027024352e+20
1.018453618e+20
1.005708955e+20
1.014059306e+20
1.054123307e+20
1.087565579e+20
1.099975357e+20
1.11897626e+20
1.15807457e+20
1.001617015e+20
1.012923815e+20
1.016334492e+20
1.007416079e+20
1.002670206e+20
1.014737051e+20
1.0374373e+20
1.061121692e+20
1.075641069e+20
1.134244954e+20
9.832233766e+19
9.88510932e+19
9.978980543e+19
1.033022923e+20
1.03039084e+20
1.035512217e+20
1.028501387e+20
1.036097315e+20
1.067902645e+20
1.064315059e+20
9.89702961e+19
1.00661014e+20
1.006162666e+20
1.010190157e+20
1.022010192e+20
1.034430185e+20
1.06489888e+20
1.077146093e+20
1.066576065e+20
1.063201533e+20
1.019383592e+20
1.027024354e+20
1.012943887e+20
1.011257109e+20
1.021795296e+20
9.948275226e+19
1.024578312e+20
1.019853409e+20
1.04358188e+20
1.071218972e+20
9.984817346e+19
9.971396221e+19
9.851832777e+19
9.74127173e+19
9.852642342e+19
9.952603317e+19
1.012591117e+20
1.032585128e+20
1.026115157e+20
1.046053121e+20
1.025236112e+20
1.01818521e+20
1.038585354e+20
1.05820299e+20
1.059830571e+20
1.054772528e+20
1.043103971e+20
1.050365604e+20
1.055521172e+20
1.064315066e+20
1.024400045e+20
1.061960018e+20
1.045366561e+20
1.049667382e+20
1.056822138e+20
1.051526408e+20
1.043103978e+20
1.026438781e+20
1.012628181e+20
1.02600953e+20
1.047183063e+20
1.044913098e+20
1.028413525e+20
1.005068781e+20
1.017497524e+20
1.014737058e+20
1.018911638e+20
1.054097311e+20
1.041149811e+20
1.060529053e+20
1.006633459e+20
9.910364037e+19
9.932359763e+19
1.007842863e+20
1.007612649e+20
1.007379179e+20
1.006924442e+20
1.001414403e+20
1.000910001e+20
9.954987124e+19
9.813422114e+19
9.868272875e+19
9.682302487e+19
9.786083781e+19
)
;

boundaryField
{
    flow
    {
        type            calculated;
        value           nonuniform List<scalar> 
42
(
7.583473402e+19
7.64387459e+19
7.637626192e+19
7.881313747e+19
7.708441379e+19
7.798001762e+19
7.656371388e+19
7.804250161e+19
7.662619787e+19
7.802167361e+19
7.783422165e+19
7.802167361e+19
7.758428569e+19
7.806332961e+19
7.623046594e+19
7.814664159e+19
7.856320151e+19
7.741766172e+19
7.743848972e+19
7.64595739e+19
7.758428569e+19
7.75426297e+19
7.583473402e+19
9.884966977e+19
9.968278962e+19
9.972444561e+19
9.930788569e+19
1.005575655e+20
9.949533765e+19
1.012657173e+20
9.987024158e+19
9.837062586e+19
9.774578598e+19
9.918291771e+19
9.689183813e+19
9.880801378e+19
9.87038738e+19
1.004950815e+20
9.949533765e+19
1.002034895e+20
1.043899168e+20
1.361317829e+20
)
;
    }
    obstacle
    {
        type            calculated;
        value           nonuniform List<scalar> 10(134.5582833 148.7162758 144.3683579 131.4379235 144.2535999 161.9466136 128.2749623 132.390261 139.8990586 132.6993376);
    }
    frontAndBack
    {
        type            empty;
    }
    procBoundary0to1
    {
        type            processor;
        value           nonuniform List<scalar> 
21
(
2.982811625e+20
2.691170899e+20
2.436994786e+20
2.130996362e+20
2.166441927e+20
1.953095521e+20
1.771380911e+20
1.674915132e+20
1.482432253e+20
1.320459478e+20
1.254728145e+20
1.214795804e+20
1.144353343e+20
1.087371232e+20
1.102850633e+20
1.056188108e+20
1.064488652e+20
1.057758489e+20
1.053944726e+20
1.056636786e+20
9.971869532e+19
)
;
    }
    procBoundary0to2
    {
        type            processor;
        value           nonuniform List<scalar> 
31
(
7.727186575e+19
9.970361761e+19
1.004534255e+20
1.005367375e+20
1.001618335e+20
9.987024158e+19
9.864138981e+19
9.834979786e+19
9.743336603e+19
9.793323794e+19
9.716260208e+19
9.824565788e+19
9.801654993e+19
9.805820592e+19
9.853724983e+19
9.70584621e+19
9.59754063e+19
9.610037428e+19
9.678769815e+19
9.65169342e+19
9.74090027e+19
9.74052349e+19
9.742320834e+19
9.987802506e+19
9.933926741e+19
9.966122457e+19
9.694281526e+19
9.657817131e+19
9.836998937e+19
9.74090027e+19
9.78394981e+19
)
;
    }
}


// ************************************************************************* //
