/*--------------------------------*- C++ -*----------------------------------*\
| =========                 |                                                 |
| \\      /  F ield         | OpenFOAM: The Open Source CFD Toolbox           |
|  \\    /   O peration     | Version:  2406                                  |
|   \\  /    A nd           | Website:  www.openfoam.com                      |
|    \\/     M anipulation  |                                                 |
\*---------------------------------------------------------------------------*/
FoamFile
{
    version     2.0;
    format      ascii;
    arch        "LSB;label=32;scalar=64";
    class       volScalarField;
    location    "0.001";
    object      rhoN;
}
// * * * * * * * * * * * * * * * * * * * * * * * * * * * * * * * * * * * * * //

dimensions      [0 -3 0 0 0 0 0];

internalField   nonuniform List<scalar> 
654
(
7.289798656e+19
9.372598272e+19
1.457959731e+20
9.372598272e+19
7.289798656e+19
1.145539789e+20
8.331198464e+19
1.041399808e+20
5.20699904e+19
1.457959731e+20
5.20699904e+19
1.145539789e+20
1.457959731e+20
7.289798656e+19
1.145539789e+20
7.289798656e+19
9.372598272e+19
1.35381975e+20
8.331198464e+19
9.372598272e+19
6.248398848e+19
1.041399808e+20
7.289798656e+19
1.35381975e+20
1.041399808e+20
7.289798656e+19
1.562099712e+20
1.35381975e+20
1.562099712e+20
1.041399808e+20
5.20699904e+19
1.041399808e+20
1.145539789e+20
9.372598272e+19
1.457959731e+20
7.289798656e+19
9.372598272e+19
7.289798656e+19
1.145539789e+20
8.331198464e+19
1.041399808e+20
6.248398848e+19
8.331198464e+19
7.289798656e+19
9.372598272e+19
7.289798656e+19
1.24967977e+20
1.562099712e+20
3.124199424e+19
9.372598272e+19
3.124199424e+19
1.24967977e+20
1.457959731e+20
9.372598272e+19
9.372598272e+19
1.145539789e+20
1.35381975e+20
6.248398848e+19
1.666239693e+20
9.372598272e+19
8.331198464e+19
1.145539789e+20
1.24967977e+20
1.041399808e+20
1.562099712e+20
6.248398848e+19
1.041399808e+20
5.20699904e+19
1.145539789e+20
1.35381975e+20
1.24967977e+20
8.331198464e+19
1.666239693e+20
1.041399808e+20
1.145539789e+20
5.20699904e+19
1.978659635e+20
1.35381975e+20
1.35381975e+20
1.457959731e+20
7.289798656e+19
7.289798656e+19
1.24967977e+20
6.248398848e+19
8.331198464e+19
8.331198464e+19
1.562099712e+20
7.289798656e+19
1.24967977e+20
8.331198464e+19
1.145539789e+20
9.372598272e+19
7.289798656e+19
1.24967977e+20
1.24967977e+20
1.145539789e+20
4.165599232e+19
1.666239693e+20
9.372598272e+19
1.145539789e+20
9.372598272e+19
7.289798656e+19
7.289798656e+19
9.372598272e+19
1.145539789e+20
1.24967977e+20
8.331198464e+19
4.165599232e+19
1.145539789e+20
3.124199424e+19
1.041399808e+20
1.457959731e+20
4.165599232e+19
7.289798656e+19
1.457959731e+20
1.145539789e+20
1.978659635e+20
6.248398848e+19
8.331198464e+19
6.248398848e+19
1.145539789e+20
7.289798656e+19
1.457959731e+20
7.289798656e+19
1.145539789e+20
1.041399808e+20
1.041399808e+20
1.562099712e+20
7.289798656e+19
9.372598272e+19
7.289798656e+19
7.289798656e+19
1.666239693e+20
9.372598272e+19
1.145539789e+20
3.124199424e+19
6.248398848e+19
9.372598272e+19
1.24967977e+20
8.331198464e+19
7.289798656e+19
1.457959731e+20
1.24967977e+20
4.165599232e+19
1.562099712e+20
1.24967977e+20
5.20699904e+19
8.331198464e+19
7.289798656e+19
1.145539789e+20
4.165599232e+19
1.35381975e+20
8.331198464e+19
8.331198464e+19
5.20699904e+19
1.041399808e+20
9.372598272e+19
1.145539789e+20
1.24967977e+20
7.289798656e+19
7.289798656e+19
9.372598272e+19
6.248398848e+19
1.041399808e+20
9.372598272e+19
1.145539789e+20
1.562099712e+20
9.372598272e+19
1.35381975e+20
7.289798656e+19
9.372598272e+19
1.041399808e+20
1.35381975e+20
1.145539789e+20
6.248398848e+19
7.289798656e+19
8.331198464e+19
9.372598272e+19
1.770379674e+20
8.331198464e+19
8.331198464e+19
1.35381975e+20
1.041399808e+20
7.289798656e+19
9.372598272e+19
9.372598272e+19
1.145539789e+20
1.666239693e+20
1.041399808e+20
1.770379674e+20
9.372598272e+19
7.289798656e+19
8.331198464e+19
1.041399808e+20
1.145539789e+20
1.666239693e+20
6.248398848e+19
1.041399808e+20
6.248398848e+19
4.165599232e+19
7.289798656e+19
7.289798656e+19
1.24967977e+20
9.372598272e+19
1.041399808e+20
7.289798656e+19
9.372598272e+19
9.372598272e+19
1.145539789e+20
6.248398848e+19
9.372598272e+19
1.145539789e+20
9.372598272e+19
2.082799616e+19
1.24967977e+20
7.289798656e+19
1.041399808e+20
7.289798656e+19
1.457959731e+20
1.24967977e+20
6.248398848e+19
1.457959731e+20
1.35381975e+20
7.289798656e+19
9.372598272e+19
8.331198464e+19
7.289798656e+19
8.331198464e+19
1.041399808e+20
7.289798656e+19
1.041399808e+20
7.289798656e+19
1.041399808e+20
7.289798656e+19
7.289798656e+19
1.041399808e+20
9.372598272e+19
1.35381975e+20
6.248398848e+19
8.331198464e+19
7.289798656e+19
9.372598272e+19
1.145539789e+20
1.041399808e+20
8.331198464e+19
1.041399808e+20
1.35381975e+20
4.165599232e+19
9.372598272e+19
8.331198464e+19
1.666239693e+20
5.20699904e+19
1.145539789e+20
9.372598272e+19
1.041399808e+20
9.372598272e+19
1.041399808e+20
1.35381975e+20
1.145539789e+20
1.24967977e+20
1.041399808e+20
1.145539789e+20
1.145539789e+20
1.041399808e+20
8.331198464e+19
9.372598272e+19
1.041399808e+20
1.457959731e+20
1.666239693e+20
1.041399808e+20
9.372598272e+19
9.372598272e+19
7.289798656e+19
1.145539789e+20
4.165599232e+19
8.331198464e+19
8.331198464e+19
9.372598272e+19
7.289798656e+19
1.24967977e+20
8.331198464e+19
6.248398848e+19
9.372598272e+19
7.289798656e+19
9.372598272e+19
7.289798656e+19
8.331198464e+19
1.145539789e+20
7.289798656e+19
1.666239693e+20
1.35381975e+20
7.289798656e+19
8.331198464e+19
1.145539789e+20
1.35381975e+20
1.35381975e+20
3.124199424e+19
1.35381975e+20
9.372598272e+19
1.35381975e+20
6.248398848e+19
9.372598272e+19
1.24967977e+20
8.331198464e+19
1.24967977e+20
4.165599232e+19
1.041399808e+20
7.289798656e+19
1.145539789e+20
9.372598272e+19
1.24967977e+20
8.331198464e+19
1.457959731e+20
4.165599232e+19
7.289798656e+19
1.24967977e+20
6.248398848e+19
9.372598272e+19
1.24967977e+20
5.20699904e+19
9.372598272e+19
1.457959731e+20
1.041399808e+20
1.24967977e+20
9.372598272e+19
1.457959731e+20
5.20699904e+19
1.978659635e+20
1.145539789e+20
1.24967977e+20
1.874519654e+20
7.289798656e+19
8.331198464e+19
1.041399808e+20
1.145539789e+20
5.20699904e+19
6.248398848e+19
9.372598272e+19
1.35381975e+20
6.248398848e+19
6.248398848e+19
1.24967977e+20
7.289798656e+19
5.20699904e+19
1.041399808e+20
4.165599232e+19
1.145539789e+20
7.289798656e+19
7.289798656e+19
4.165599232e+19
1.24967977e+20
8.331198464e+19
8.331198464e+19
5.20699904e+19
1.24967977e+20
9.372598272e+19
6.248398848e+19
1.562099712e+20
8.331198464e+19
8.331198464e+19
7.289798656e+19
6.248398848e+19
9.372598272e+19
8.331198464e+19
1.145539789e+20
1.041399808e+20
9.372598272e+19
6.248398848e+19
1.457959731e+20
7.289798656e+19
5.20699904e+19
1.041399808e+20
7.289798656e+19
1.041399808e+20
1.457959731e+20
1.145539789e+20
9.372598272e+19
1.041399808e+20
8.331198464e+19
9.372598272e+19
7.289798656e+19
8.331198464e+19
1.457959731e+20
1.35381975e+20
1.041399808e+20
1.35381975e+20
6.248398848e+19
9.372598272e+19
8.331198464e+19
7.289798656e+19
1.145539789e+20
7.289798656e+19
8.331198464e+19
9.372598272e+19
8.331198464e+19
8.331198464e+19
4.165599232e+19
1.041399808e+20
5.20699904e+19
1.041399808e+20
8.331198464e+19
8.331198464e+19
8.331198464e+19
7.289798656e+19
7.289798656e+19
1.35381975e+20
9.372598272e+19
9.372598272e+19
9.372598272e+19
8.331198464e+19
1.666239693e+20
9.372598272e+19
7.289798656e+19
5.20699904e+19
1.457959731e+20
1.24967977e+20
4.165599232e+19
1.145539789e+20
1.145539789e+20
9.372598272e+19
8.331198464e+19
9.372598272e+19
1.457959731e+20
7.289798656e+19
1.457959731e+20
9.372598272e+19
6.248398848e+19
1.041399808e+20
1.770379674e+20
1.562099712e+20
1.35381975e+20
1.24967977e+20
9.372598272e+19
1.35381975e+20
7.289798656e+19
1.041399808e+20
8.331198464e+19
9.372598272e+19
1.24967977e+20
1.041399808e+20
2.508222908e+20
1.788874383e+20
2.96678124e+20
2.8807704e+20
2.363774605e+20
3.137915816e+20
2.724362663e+20
3.841462505e+20
2.763723212e+20
2.895186412e+20
1.358620742e+20
2.104558097e+20
1.377434148e+20
2.453989601e+20
2.256330306e+20
2.272283869e+20
2.506413651e+20
2.085365361e+20
2.763723212e+20
2.004359824e+20
1.567639317e+20
1.473190668e+20
1.589347092e+20
2.027208801e+20
2.578663208e+20
2.164079873e+20
2.397439143e+20
2.414633576e+20
2.432076426e+20
3.229246383e+20
1.46313003e+20
1.999330193e+20
1.589347094e+20
1.387037599e+20
2.041441704e+20
1.731263899e+20
1.743592105e+20
2.195121433e+20
2.653174283e+20
2.672479765e+20
1.254111454e+20
2.104558097e+19
1.377434148e+20
1.387037601e+20
2.363774608e+20
1.7312639e+20
2.179490132e+20
2.085365361e+20
1.326587143e+20
2.44977312e+20
7.315650148e+19
1.578418572e+20
1.695303565e+20
1.2803424e+20
1.719108803e+20
2.055875878e+20
9.807705579e+19
1.865853215e+20
1.105489284e+20
2.227066472e+20
1.149602166e+20
1.052279048e+20
1.059564729e+20
1.493732801e+20
1.719108806e+20
1.623059906e+20
1.961541118e+20
1.536585003e+20
2.321527498e+20
2.338419794e+20
1.254111454e+20
1.052279049e+20
1.059564729e+20
2.240599199e+20
1.074443002e+20
1.623059905e+20
1.089745066e+20
1.207316788e+20
1.326587142e+20
8.908265883e+19
1.358620742e+20
1.157506953e+20
1.165521201e+20
1.2803424e+20
1.181887304e+20
1.19024393e+20
1.089745065e+20
1.97560929e+20
1.43713607e+20
1.670299853e+20
9.405835911e+19
1.473190669e+20
9.536082561e+19
1.3870376e+20
1.181887303e+20
1.623059906e+20
1.525643092e+20
3.29268215e+19
1.105489285e+20
1.670299853e+20
6.27055727e+19
1.788874382e+20
1.589347092e+20
7.468664002e+19
8.595544022e+19
6.49223962e+19
7.628215455e+19
6.585364294e+19
7.738424993e+19
1.002179912e+20
4.180371513e+19
9.470511441e+19
1.059564729e+20
2.027208799e+20
1.074443003e+20
1.190243931e+20
1.41666859e+20
1.975609302e+20
1.658233935e+20
6.681199441e+19
1.045092878e+20
5.261395256e+19
6.357388396e+19
1.600428001e+20
1.074442998e+20
1.623059903e+20
9.807705572e+19
8.780485658e+19
8.84391424e+19
1.002179912e+20
6.270557249e+19
8.418232335e+19
1.271477665e+20
9.60256797e+19
8.595544028e+19
9.73835941e+19
1.08974506e+20
1.865853215e+20
1.437136064e+20
8.908265819e+19
8.360743071e+19
6.313674307e+19
8.476517826e+19
9.602568036e+19
6.446658066e+19
1.406651925e+20
1.416668588e+20
9.878046504e+19
9.949403591e+19
7.794732648e+19
1.463130028e+20
1.157506956e+20
1.059564735e+19
1.280342405e+20
1.611664505e+20
5.41019971e+19
5.448725337e+19
7.682924951e+19
9.94940352e+19
8.908265883e+19
6.270557261e+19
1.052279044e+20
1.165521193e+20
8.535615974e+19
7.521101025e+19
9.73835941e+19
7.628215471e+19
1.207316795e+20
1.105489288e+20
4.454132941e+19
1.35862074e+20
1.367962766e+20
1.80126005e+20
7.468663977e+19
9.669986965e+19
6.492239607e+19
7.628215418e+19
8.78048572e+19
7.738425015e+19
1.336239882e+20
9.405835955e+19
6.313674307e+19
1.271477674e+20
1.066952004e+20
5.372215018e+19
8.656319476e+19
7.628215471e+19
1.646341072e+20
1.10548928e+20
1.002179919e+20
1.045092877e+20
1.157506956e+20
1.059564728e+20
1.493732795e+20
9.669987032e+19
9.738359478e+19
9.807705606e+19
6.58536429e+19
1.437136074e+20
5.567666177e+19
1.776657891e+20
7.365953308e+19
1.377434147e+20
1.280342405e+20
9.669987032e+19
1.082039934e+20
3.269235202e+19
6.585364336e+19
1.216038217e+20
1.113533235e+20
9.405835892e+19
1.578418566e+20
8.476517826e+19
1.387037605e+20
)
;

boundaryField
{
    flow
    {
        type            zeroGradient;
    }
    obstacle
    {
        type            calculated;
        value           nonuniform List<scalar> 10(35.13643387 62.23452177 90.62280029 316.9753137 129.0631774 1e-300 1e-300 249.9621025 33.43811254 110.5549869);
    }
    frontAndBack
    {
        type            empty;
    }
    procBoundary0to1
    {
        type            processor;
        value           nonuniform List<scalar> 
21
(
3.813763359e+20
2.243390213e+20
2.804237764e+20
2.01905119e+20
2.01905119e+20
1.906881682e+20
2.243390211e+20
1.906881679e+20
2.019051191e+20
1.346034127e+20
1.009525595e+20
1.12169511e+20
1.009525592e+20
1.682542654e+20
7.851865773e+19
1.121695102e+20
1.570373143e+20
8.973560883e+19
1.458203644e+20
1.233864613e+20
4.486780442e+19
)
;
    }
    procBoundary0to2
    {
        type            processor;
        value           nonuniform List<scalar> 
31
(
9.372598272e+19
6.248398848e+19
5.20699904e+19
9.372598272e+19
9.372598272e+19
1.24967977e+20
1.24967977e+20
8.331198464e+19
9.372598272e+19
1.35381975e+20
1.24967977e+20
1.457959731e+20
1.145539789e+20
7.289798656e+19
9.372598272e+19
1.457959731e+20
1.041399808e+20
4.165599232e+19
6.248398848e+19
9.372598272e+19
1.074443004e+20
7.574279541e+19
8.717960478e+19
1.317072858e+20
9.949403591e+19
6.681199412e+19
1.35862074e+20
1.367962766e+20
8.476517826e+19
1.074443004e+20
1.066951997e+20
)
;
    }
}


// ************************************************************************* //
