/*--------------------------------*- C++ -*----------------------------------*\
| =========                 |                                                 |
| \\      /  F ield         | OpenFOAM: The Open Source CFD Toolbox           |
|  \\    /   O peration     | Version:  2406                                  |
|   \\  /    A nd           | Website:  www.openfoam.com                      |
|    \\/     M anipulation  |                                                 |
\*---------------------------------------------------------------------------*/
FoamFile
{
    version     2.0;
    format      ascii;
    arch        "LSB;label=32;scalar=64";
    class       volScalarField;
    location    "0.001";
    object      translationalT;
}
// * * * * * * * * * * * * * * * * * * * * * * * * * * * * * * * * * * * * * //

dimensions      [1 2 -2 0 0 0 0];

internalField   nonuniform List<scalar> 
654
(
281.9317043
291.5111504
283.1986117
290.8826051
289.8081147
294.9885758
299.4419269
302.7826996
295.4992424
296.7563222
295.2571394
296.8335417
289.9926254
312.2412838
309.953611
328.9688156
361.974823
442.8382906
649.8052996
1293.626875
281.808627
301.1918304
297.8517045
300.8804958
303.0282445
306.8054139
305.2540347
307.2572496
303.4966385
298.1986888
298.2197608
294.3763464
305.2155301
307.7899598
333.7219578
363.3467682
374.5685008
476.2490354
739.1361015
1146.658239
289.3391924
303.3550904
294.2561406
291.6130193
290.2399014
297.6663219
296.003502
291.9042719
291.2561895
296.2502283
298.1804893
292.3984919
293.4685767
305.1002192
335.1444346
355.4132285
420.8950498
483.5375504
717.0728472
931.5349391
286.5035384
304.1933076
292.5825148
298.7257786
292.4893091
286.1670137
287.1039181
291.2462049
294.1284851
290.8458172
296.747466
303.4235079
317.7021177
313.5838231
340.7545481
374.4501495
427.579875
474.5143654
549.0631408
767.8391729
290.9772683
302.5626757
298.3817314
294.3843442
293.9486628
292.6502753
290.0830481
292.3888295
295.6088126
299.0487109
309.0447716
304.3111931
297.6307457
303.0609201
319.9037438
350.2289441
366.8524836
430.5394943
504.1106379
591.5723115
293.2399104
312.3394452
301.2988373
303.1398291
298.5586218
294.8832337
300.211537
301.0385361
303.8050813
310.9242685
300.3166104
297.7060134
295.8852121
302.9799045
319.6191064
320.6228559
361.4171674
443.702482
461.1765688
514.5554492
290.3715874
306.7996879
299.5899828
303.185396
308.9483965
310.9338288
314.5572274
309.6053475
310.3256189
308.3878284
306.7718766
300.0269873
300.8168876
299.2787626
291.4242563
320.0102268
371.7462191
353.6254893
397.7194676
435.3580079
288.6519148
308.7889391
301.6758715
305.0682823
305.3958736
303.9504623
295.6636636
301.492518
304.6392714
302.7275105
302.0131288
305.9589196
303.6147288
305.1283562
326.4957778
324.3134993
317.0718496
341.8040116
350.0510402
398.4411285
289.8819756
307.2828491
295.0907632
301.1436622
303.4188601
304.9031977
308.1490226
306.6734748
301.8886284
301.3037287
303.4656665
305.5135214
304.2270226
323.4540511
305.6275047
321.6644577
315.0519212
317.686804
341.5954266
380.3593726
296.5615417
308.7206535
303.0571732
300.0752821
292.0481116
295.3695594
293.4761227
290.5929896
294.7878464
298.4841676
304.9815477
310.0380373
332.241081
321.7760444
315.0083116
317.0044911
318.2486497
309.3432645
317.2330613
344.9159206
290.0448709
304.268543
298.1602855
298.9495649
303.0636114
299.8954002
300.3964699
306.9887295
303.9595907
301.9865876
303.7921921
301.3997275
315.5828249
311.677469
314.0123108
306.35564
312.5475158
306.6921247
320.4311206
322.5887712
307.182015
314.5580351
308.668729
301.9940602
303.1412738
303.367829
306.1547445
306.1591689
312.030592
308.5926261
305.3493215
298.4313516
297.400453
305.8484562
306.246002
307.145464
329.3221853
317.4707934
317.3724661
324.9102914
285.7280149
308.5830702
298.1125883
301.310922
306.270312
305.9737066
305.1342937
302.4843915
295.1924797
301.3271935
309.2260214
309.4253438
305.831885
307.812582
306.3906292
313.6921479
318.5420183
302.8971345
315.7130997
309.5189063
288.5356543
305.0671295
302.2714576
304.7128332
300.6558062
301.1268498
303.1502516
304.9185461
302.5721573
301.646138
300.9346479
304.4292313
309.0342953
306.6024593
311.7045763
303.1157846
294.8178332
311.4438182
299.4461826
307.8417331
295.3018667
312.8977584
302.537005
294.7429056
300.7103186
303.9045744
299.2761566
300.9970537
301.4628851
301.6033278
298.7929412
297.4143127
292.2915354
292.0182777
290.9161556
292.0224963
296.493177
302.9404335
301.7463984
298.995426
283.1463265
298.9112393
299.4856933
302.9130293
302.747875
299.0311235
304.1092696
302.5394872
305.1126707
305.9508898
303.7301953
302.5087969
298.5239669
300.6043732
299.9482439
303.14243
293.8253305
292.547908
299.8621985
304.4040886
290.7221541
303.0506833
296.2654532
296.7162467
303.5522936
304.3569323
305.4346238
301.4290847
297.3246674
293.8347629
291.702569
294.3128102
297.622953
300.0564943
299.1133367
304.9430807
311.0451241
308.072859
302.5740639
310.6322794
298.9688304
304.3714339
303.0358376
305.0344081
304.9590312
298.2270223
296.2519696
295.4138464
295.7051184
298.2411957
295.1727525
294.0842741
295.6970483
297.7251229
297.1554618
287.0603415
292.2301716
295.739077
299.5945304
311.1617787
284.9792542
311.0349826
297.8660721
290.4102415
291.5938382
290.0787006
294.796547
295.9640261
303.0999495
308.557617
307.3209749
307.2869632
295.8301319
293.4827732
297.6990612
303.6653583
298.6217851
298.8129261
305.2155748
286.3107644
285.8033221
299.3351985
292.9138167
297.3012559
295.2049855
298.1037452
299.5542364
291.2539665
286.334826
286.8221134
289.2287486
294.7712007
301.3294894
303.3094297
294.1944267
288.8799732
289.4643195
291.7669522
301.4394805
306.7881565
279.1539836
293.8922615
286.1995922
293.226151
291.9268956
294.4347381
296.7087966
299.0273333
302.3348494
303.7476047
300.3996225
290.9164327
289.3553357
288.9512936
296.1173804
296.8653614
297.508902
296.2639363
289.3084137
297.0787062
290.3860182
308.7356886
298.4153019
293.7217195
295.3873301
292.5787827
287.6710362
287.9101225
291.1403268
289.8067591
293.1865896
303.7658822
297.389221
301.6203508
301.5590464
299.5459294
298.7703709
306.8796814
298.3661338
299.1808902
1405.804332
1245.022008
1200.300352
1138.884401
1082.916869
1060.215434
1044.726176
1010.551901
1007.943615
970.6084466
1328.522231
1291.488861
1258.714435
1209.710949
1161.61596
1141.408285
1106.798072
1057.924711
1070.709674
1075.122829
1107.289834
1155.144174
1179.789512
1178.992477
1157.596809
1123.786992
1073.43368
1069.14223
1071.750507
1045.938821
868.1279334
1028.02577
1054.04546
1116.406092
1073.881791
1053.208251
1053.060368
1070.861689
1046.287196
1057.840978
665.1519516
844.577438
946.176568
1005.711425
1005.227546
1019.93243
1038.187201
1010.665495
1004.340607
1003.545935
593.9271323
712.2370783
845.5766684
899.3719061
930.1754688
929.149215
934.4833153
973.9420223
989.2853668
974.3386309
508.0687519
586.8680566
711.0447622
787.9592426
765.4593249
805.9899506
874.237088
895.2055419
916.8302967
932.4609467
461.3598437
554.905851
584.5377364
690.605769
684.9911894
701.9908674
756.6753986
801.1532476
842.6818266
830.9958382
430.2602834
456.7731218
482.1070868
536.774697
607.0355449
643.0153306
665.9532603
727.5417757
801.0741173
807.3597978
382.8439389
422.8724927
450.9479146
482.6852074
506.7188229
603.4489749
568.8784641
649.4529199
709.7237123
769.6311928
351.4954386
411.958527
419.3738921
449.602864
486.2049851
542.7379089
563.6180882
606.6869097
623.4479345
633.7019104
356.5402145
360.8469281
392.1984194
426.9962366
423.829449
472.5630014
501.9421543
510.5611501
550.0308495
568.9150451
332.1401279
351.119058
393.1718207
363.5441132
376.3947573
409.329704
427.8518995
448.5612273
479.8003461
536.9341866
336.461893
326.5268106
366.6943317
365.5826737
376.0323784
393.0859676
404.1418325
432.0667035
449.901162
469.6589701
311.4997129
313.2794562
333.8769503
344.2661512
358.680765
353.2332155
376.1143647
416.7687522
417.3365531
431.0291552
299.6982241
325.007381
318.7476035
328.8151914
342.0515306
348.4168037
378.5402264
369.3183189
396.7426626
410.2294812
317.6250482
330.563194
332.3712464
313.1911901
313.134474
323.809807
344.4942788
363.6732339
346.1318529
389.363946
311.4147053
321.2606189
311.1758883
313.5207179
308.4689686
318.0330029
317.1110159
323.5775781
321.5451428
339.9636122
304.0760356
319.2593133
303.779893
307.2881887
302.1432571
301.9412755
295.8646859
323.749322
318.4502948
337.1564264
307.8750378
303.589078
298.2385808
302.7821276
305.6669871
308.4764207
311.1490577
318.6858016
331.1038528
319.4320109
295.3804659
296.5951404
295.3368934
295.0721606
305.5953208
306.2709546
308.5362292
320.8551073
332.9572326
322.3955417
288.4667668
293.4268865
299.1420701
300.5088079
)
;

boundaryField
{
    flow
    {
        type            calculated;
        value           nonuniform List<scalar> 
42
(
281.9317043
281.808627
289.3391924
286.5035384
290.9772683
293.2399104
290.3715874
288.6519148
289.8819756
296.5615417
290.0448709
307.182015
285.7280149
288.5356543
295.3018667
283.1463265
290.7221541
298.9688304
284.9792542
285.8033221
279.1539836
290.3860182
281.9317043
291.5111504
283.1986117
290.8826051
289.8081147
294.9885758
299.4419269
302.7826996
295.4992424
296.7563222
295.2571394
296.8335417
289.9926254
312.2412838
309.953611
328.9688156
361.974823
442.8382906
649.8052996
1293.626875
)
;
    }
    obstacle
    {
        type            calculated;
        value           nonuniform List<scalar> 10(1216.963371 1079.511574 1014.054205 1024.512919 900.1671935 821.8339746 921.7212908 855.7877776 831.0726519 861.4024204);
    }
    frontAndBack
    {
        type            empty;
    }
    procBoundary0to1
    {
        type            processor;
        value           nonuniform List<scalar> 
21
(
959.5973732
1026.375378
1014.50863
1007.665918
972.0114035
974.0137278
924.615804
887.5943859
827.6299599
768.550677
685.5123211
617.3623952
553.805758
523.7206831
450.4869867
425.6468622
381.8412281
352.2213986
362.1932459
346.8260647
340.5329321
)
;
    }
    procBoundary0to2
    {
        type            processor;
        value           nonuniform List<scalar> 
31
(
285.0048192
297.1198868
295.4691315
297.9637897
295.6017516
294.7977278
296.6290299
303.45209
305.1145879
300.9357083
299.5052294
297.6576518
299.0043551
297.7260695
292.5241099
291.8849756
294.5958772
297.2074828
308.5976911
312.2028316
308.4932371
317.2287246
302.1036967
300.7920098
299.6263645
313.7037226
302.8069628
302.710269
301.7258912
308.4932371
297.6006788
)
;
    }
}


// ************************************************************************* //
