/*--------------------------------*- C++ -*----------------------------------*\
| =========                 |                                                 |
| \\      /  F ield         | OpenFOAM: The Open Source CFD Toolbox           |
|  \\    /   O peration     | Version:  2406                                  |
|   \\  /    A nd           | Website:  www.openfoam.com                      |
|    \\/     M anipulation  |                                                 |
\*---------------------------------------------------------------------------*/
FoamFile
{
    version     2.0;
    format      ascii;
    arch        "LSB;label=32;scalar=64";
    class       volVectorField;
    location    "0.001";
    object      UMean;
}
// * * * * * * * * * * * * * * * * * * * * * * * * * * * * * * * * * * * * * //

dimensions      [0 1 -1 0 0 0 0];

internalField   nonuniform List<vector> 
654
(
(1714.234725 -2.748171576 3.04645638)
(1748.534653 -2.696536552 0.2233390264)
(1741.367165 -1.92099715 0.573733791)
(1747.280355 -4.183024781 -3.220401981)
(1743.196337 -2.097442823 -6.163454454)
(1740.53709 -5.084588991 -5.721456648)
(1736.110199 -6.086029926 -1.945738362)
(1733.206753 -7.455123707 0.6449151587)
(1728.659772 -7.708957296 1.868500822)
(1735.23298 -5.434014702 3.461875769)
(1736.20356 -1.925215971 5.923819319)
(1730.695971 0.7123314592 2.620008811)
(1737.564991 -4.881339629 0.3457889856)
(1730.589797 -8.57319556 3.984940754)
(1730.859491 -5.045644111 0.7102004223)
(1721.090489 -6.301817619 -2.759491887)
(1710.818481 -8.44439456 -2.632944602)
(1679.977625 -16.55490844 0.7681593446)
(1594.53329 -23.83660509 0.6943274995)
(1208.988664 7.025225196 17.7104417)
(1710.551946 -3.6212535 -0.2221436428)
(1749.661321 -7.980991329 1.698044385)
(1736.219635 -2.127201326 3.156297341)
(1737.986629 1.776212861 2.252923149)
(1737.0744 1.761979025 -0.03792985831)
(1737.136126 -1.505129585 2.033701043)
(1733.334561 -5.037927099 -6.209286054)
(1735.862761 -1.756135599 -3.393236184)
(1740.73391 -2.298245597 -1.250191821)
(1740.737905 -3.820352219 3.823736679)
(1747.044836 -0.2214346169 1.153093158)
(1741.939546 -2.341593672 -0.5015849168)
(1737.614927 -0.656632003 4.48788625)
(1735.197313 -0.9177606466 3.473897942)
(1731.233029 -6.35210095 -5.555209128)
(1715.009732 -1.58889477 -5.929794185)
(1706.67727 2.007557675 1.293752704)
(1663.215942 4.362285917 -6.923031069)
(1546.5163 16.56911453 3.273136102)
(1306.115316 66.95098087 -6.148093677)
(1715.49882 -0.07099457059 16.85081801)
(1754.048899 -5.186579508 13.21799227)
(1737.384572 -10.02712011 10.39315719)
(1736.423251 -14.28970135 9.169551094)
(1730.867836 -15.85617147 9.440646266)
(1727.182611 -8.060331878 7.023016457)
(1730.93244 -6.102035523 11.26343418)
(1733.363458 -0.141979766 8.076530518)
(1725.861854 7.471269508 6.757869587)
(1728.78943 6.666052019 -1.24473975)
(1723.36187 6.161870319 -7.412441909)
(1724.669883 0.304478858 -1.948585406)
(1725.368967 1.09631579 -1.504514804)
(1717.075151 -2.116546304 -3.15540146)
(1708.010308 2.953814464 -6.723746724)
(1703.468884 -0.2223230768 -0.6433252027)
(1684.637914 3.46245979 6.731877252)
(1662.503925 13.9335701 1.72657577)
(1551.330994 40.09882454 -2.719642439)
(1428.499408 71.36274778 -3.642843343)
(1716.965324 -5.048297328 -1.657844358)
(1744.291397 -0.7555235564 0.03920507068)
(1740.252264 -0.08245231901 2.220907515)
(1739.674034 -3.570233869 5.435501495)
(1739.38605 -0.2072362671 6.669986589)
(1750.024855 -3.511471255 3.414564545)
(1749.682215 -6.044650113 0.6285694904)
(1742.22696 -6.534724271 -4.198523133)
(1740.161106 -9.424719954 -5.972357332)
(1733.127733 -3.80598205 -4.894683584)
(1732.950222 -0.774022616 -0.1490880092)
(1729.545841 6.251133822 -4.957467464)
(1728.975235 8.316145297 -11.08988186)
(1726.683784 3.234256268 -3.914597273)
(1713.713403 8.947878369 -8.35156717)
(1700.493728 4.567374309 -4.678423843)
(1674.743771 7.595074083 -1.484207359)
(1657.177828 7.087426483 -4.390108175)
(1628.560055 17.31885218 -14.74818057)
(1522.834175 61.42749522 -13.34930694)
(1708.196136 -2.644594066 -6.200092077)
(1749.765488 -5.63667526 -4.537018018)
(1747.317325 -2.686092922 1.293511577)
(1745.254578 0.2781598715 -3.968186773)
(1747.250794 5.112325858 -5.693719904)
(1742.365555 -0.4090683191 -4.876238951)
(1743.136312 7.734209916 1.505479799)
(1739.530329 -1.001947086 5.825851837)
(1739.641839 -1.880365744 1.603153212)
(1736.442784 -3.130125882 6.536455836)
(1734.676724 -9.41611274 5.599375809)
(1735.407907 -12.72655058 6.827689516)
(1734.962765 -13.47504182 8.028687569)
(1739.201587 -7.29559943 4.962177144)
(1727.464724 -6.572692131 4.714932113)
(1716.775513 -2.847137235 -6.552079151)
(1709.136395 4.787742721 -3.458218501)
(1676.988085 15.05143005 -3.193437499)
(1640.573583 19.42197784 -5.778245674)
(1600.577257 42.06779199 -1.897441596)
(1710.086792 1.87879343 6.242631593)
(1748.939222 4.839599425 -2.766202031)
(1736.162154 8.484154399 -4.53864255)
(1737.398951 2.1348329 -4.760947789)
(1739.754676 0.8597328521 -0.650399963)
(1744.625426 -1.943157974 5.117183663)
(1746.413896 -0.8101307569 0.3728097799)
(1741.947837 -2.65105611 0.8698783281)
(1745.131577 -7.703633482 9.114201313)
(1744.51048 -7.781185572 13.06201466)
(1745.333676 -4.343439084 11.71988751)
(1747.123382 -5.355003333 9.068807567)
(1736.514941 -7.196508847 9.613605996)
(1735.642745 -6.775602885 6.747375557)
(1729.108199 -9.801959125 10.90213585)
(1729.930055 -8.958952293 11.46367163)
(1721.71757 -1.919092224 2.728672317)
(1685.770889 14.00726838 1.622438857)
(1672.105301 14.9848699 4.161538005)
(1654.148116 35.16867477 -0.8664709167)
(1711.893458 1.83739496 -1.535924015)
(1750.635403 -0.7517330312 -4.048085019)
(1741.746332 -2.302602878 -3.384002815)
(1743.251839 1.809252099 -4.293312964)
(1743.761978 1.564399708 -9.184057178)
(1737.348865 0.1972885198 -11.24237616)
(1733.796025 -8.433209433 -7.900644612)
(1734.621966 -6.815077502 -13.75491011)
(1732.515516 -3.038989605 -11.55817998)
(1727.019894 -0.3075995988 -11.54178769)
(1725.259097 -0.4193191782 -16.48845945)
(1720.441635 -1.93816061 -14.75512553)
(1725.842866 -2.329832809 -15.30056989)
(1725.069771 -0.351211995 -17.07314978)
(1725.164482 -0.8267475025 -20.42936205)
(1710.274707 7.384767119 -12.6781431)
(1691.904035 4.306565041 -5.176911564)
(1701.277088 5.649528523 2.217099817)
(1685.720454 17.28743744 9.26258453)
(1669.286775 31.96828406 10.08628162)
(1713.215251 -9.883034867 4.577402491)
(1741.433623 -2.719324816 3.215904025)
(1727.929297 -7.061965337 0.58380345)
(1721.48156 -9.569626899 -3.186299797)
(1721.85768 -7.944588402 -0.07143155282)
(1727.365393 -5.334747743 2.561385)
(1732.4885 -0.4601641903 3.82227359)
(1732.879012 3.179460467 6.781546509)
(1731.992349 6.274080169 1.518288333)
(1738.672627 2.019645502 -1.200186736)
(1733.217424 -0.7711766483 1.990359996)
(1738.679357 5.69338413 -2.620380473)
(1741.625952 9.643751396 3.022680568)
(1743.053388 4.982860293 3.36292518)
(1734.385223 9.628726672 4.899578135)
(1733.98387 4.098161563 6.38274379)
(1741.132928 5.793576372 1.660602968)
(1725.876754 5.809397371 -7.526937434)
(1718.724149 9.778687786 -4.488141819)
(1701.856885 6.37658576 1.246929974)
(1706.336457 -1.141887891 0.09781844365)
(1748.989736 -6.744077249 2.351551004)
(1746.283134 -2.226595689 4.527734299)
(1747.079193 -1.130340649 3.928341454)
(1750.739036 -0.9243063947 5.345863432)
(1743.338921 -0.6773806178 2.867882699)
(1741.215698 -3.98486978 0.4069825304)
(1740.519166 -0.5927417043 -1.271850797)
(1744.399187 -1.919424658 -1.601802306)
(1743.228302 1.864011574 1.182110863)
(1741.502956 5.291575534 4.248332896)
(1748.085673 2.381724345 -0.5636955617)
(1741.087275 -0.7541276887 1.637097663)
(1742.496476 4.454873238 5.142615357)
(1749.663044 6.286621605 10.02575853)
(1744.404973 6.435188737 5.776799074)
(1742.188145 6.074904194 7.474628897)
(1741.264515 -0.274664262 9.55915258)
(1727.180644 5.898229584 8.644120517)
(1701.25298 16.10317546 3.057464978)
(1709.609132 -1.275406542 8.326021515)
(1742.47637 -1.667959876 9.2063533)
(1731.86232 -5.351144265 10.05235123)
(1734.777318 -6.190878933 12.55822612)
(1732.212597 -4.858999724 9.899262818)
(1733.635231 -0.6700347379 9.994900183)
(1734.34078 -1.296053786 12.47298955)
(1738.900986 -6.00758218 9.617908378)
(1739.436797 -2.476916806 13.05511496)
(1740.936766 4.669306445 6.054326178)
(1737.145716 2.963336187 6.719528202)
(1738.381923 5.272268752 6.005813969)
(1727.846706 8.331184302 9.842832067)
(1733.570873 10.71222203 -2.502422707)
(1733.49277 4.69466648 -2.380136457)
(1736.376701 -0.311184324 3.150427803)
(1737.955369 5.347972484 2.590013058)
(1739.666259 10.44026183 6.812411634)
(1730.024907 11.12872093 9.633607191)
(1724.683793 8.515558799 7.88706498)
(1693.282136 4.063970127 1.577588154)
(1734.397104 -0.532129367 0.4512218917)
(1729.161094 0.0521003076 -2.724368466)
(1727.310628 2.532150815 -5.091590025)
(1728.965702 3.013289284 0.2495726256)
(1735.274077 -0.194200833 3.114091601)
(1731.994038 5.613713215 -0.6373384673)
(1731.732195 4.198001161 -3.960257584)
(1736.159687 -1.265560026 -5.125082563)
(1729.40681 -4.602313367 -1.112993367)
(1734.232771 -8.792629432 -4.645803294)
(1731.787248 -5.522548967 -0.5058740668)
(1735.801638 -5.022609271 1.746883237)
(1733.577413 -3.712483271 -1.288795992)
(1734.007644 5.168536015 -4.077774188)
(1732.91025 6.26822708 -5.18217211)
(1730.61474 6.92549798 -7.366942096)
(1741.451403 -0.9331493548 -11.03172184)
(1731.949736 2.456530634 -13.56392299)
(1732.1381 6.05084861 -13.4363997)
(1703.108387 3.140430316 -7.540451262)
(1742.449161 11.39261129 -6.183095942)
(1733.064449 12.4992859 0.1428467469)
(1733.58778 5.95269159 -1.24357711)
(1735.338705 3.044541797 -3.446218948)
(1731.963773 -1.170494571 -7.873053133)
(1725.045731 0.4999984947 -6.691095815)
(1725.650754 -4.095255318 -7.028938156)
(1720.698722 -1.409953367 -6.091993388)
(1723.17635 -2.738939244 -3.789228158)
(1723.839557 3.651819306 -2.86287341)
(1725.446555 -1.287577012 -9.454269174)
(1724.426418 -1.928901456 -9.46712852)
(1722.502788 -1.177523925 -9.736170799)
(1725.534692 -2.853571924 -5.721324582)
(1724.850139 -2.856467363 -0.168456098)
(1716.030676 -4.200223413 -1.22909751)
(1710.175634 -5.307121385 1.019118851)
(1713.889183 -4.628243932 -2.421622014)
(1715.104553 -4.92538103 1.921901515)
(1703.479855 17.77515453 -7.644386121)
(1734.329155 8.88432691 -10.8862943)
(1727.265093 6.440251115 -13.26850494)
(1725.274992 5.527157004 -6.92510353)
(1726.473586 -0.3834140243 -9.977973497)
(1725.042512 4.105072078 -4.610575879)
(1728.316451 -3.990340064 -2.509770288)
(1726.023273 -3.149012972 -2.86748065)
(1726.525931 4.096169323 -1.800324621)
(1730.785643 2.609096577 -1.459337912)
(1732.689506 4.062751035 0.2898381868)
(1728.105902 2.915397303 -0.4823825207)
(1729.571515 -2.660542162 -3.158482746)
(1732.205389 -7.948960935 -5.344314286)
(1726.640582 -8.375040859 -5.744389755)
(1725.833113 -12.57929713 -11.23343528)
(1721.784071 -6.950138383 -8.410485979)
(1732.646087 -5.180592467 -3.770076498)
(1730.022552 1.263999435 0.5539889939)
(1729.351333 7.107073457 1.778677436)
(1702.225929 0.0158100033 -7.015544341)
(1746.154897 -4.968283083 -10.23829541)
(1735.653327 1.771994017 -8.139701331)
(1739.404769 7.272678437 -11.10325022)
(1735.579496 12.32924193 -9.815039983)
(1735.821223 8.77244543 -12.60869436)
(1738.891541 9.175518925 -12.36761629)
(1741.892799 10.74325271 -10.82943024)
(1740.737474 0.1989259146 -10.39054364)
(1736.407978 -2.576957147 -7.759470499)
(1737.41028 -5.558459671 -8.245453764)
(1740.103099 -10.03624791 -7.624251226)
(1730.645054 -11.13019887 -6.372152742)
(1740.007966 -3.991630854 -1.433642058)
(1738.892307 -2.890886647 1.787431767)
(1737.160217 -1.155574312 -2.399211911)
(1734.84581 0.5423917458 -4.967300711)
(1730.530157 0.8799075917 -2.724853264)
(1734.116237 4.893593874 -4.329479626)
(1724.360516 5.820248258 -2.980509655)
(1714.894632 5.209614194 7.319761935)
(1744.541799 4.821223888 7.976920959)
(1736.782418 2.810527446 6.710420636)
(1738.963834 0.3866235013 8.229964945)
(1737.348172 5.073723424 -4.235207638)
(1739.819291 7.519459033 -5.992029669)
(1738.663483 9.411138817 -0.8511765747)
(1735.979333 6.922311318 -1.376088012)
(1738.954799 7.861489124 -0.4446481602)
(1738.934492 3.804358671 -1.740787686)
(1737.216367 0.31891235 -1.774152598)
(1739.132705 -0.6422466051 0.1493986677)
(1738.049057 2.909117752 -1.651835681)
(1734.632277 4.486723763 -7.730838358)
(1735.136864 4.012486904 -7.889225809)
(1740.121857 9.068207468 -8.522281376)
(1736.359483 10.09018731 -9.274773686)
(1735.018845 7.205079083 -12.39551275)
(1735.260027 1.089691431 -9.175261706)
(1731.393872 -6.180709755 -13.44581736)
(1703.357028 -7.57568224 -9.008742863)
(1743.206138 -2.446434456 -7.119761535)
(1734.757565 7.308573881 -7.751856533)
(1733.08821 6.592495303 -7.603058236)
(1733.923537 4.27510752 -0.1881910153)
(1736.895747 -1.308848355 3.712994934)
(1734.277897 2.99161785 0.7836047177)
(1737.84747 -0.1644130254 2.323023134)
(1728.249862 -1.128364822 -2.168993199)
(1732.22377 2.778566198 0.640941954)
(1734.370933 3.689918447 -2.517630097)
(1735.90608 13.59260994 -5.076835415)
(1740.529697 18.08848125 -2.261744495)
(1736.661082 20.76875234 4.013599316)
(1732.240661 12.38662348 4.045734773)
(1734.090896 2.168139856 2.526949624)
(1737.548435 -2.574017618 3.637564416)
(1736.809531 0.3354883109 6.723509138)
(1736.938353 2.068718828 3.520455087)
(1738.326301 2.811193702 1.547051152)
(1710.974152 16.55526904 5.793228714)
(1748.364004 10.40988133 0.3489619575)
(1740.163354 2.176171697 -2.335941532)
(1737.598732 5.158354874 -5.020078377)
(1733.718151 11.35265416 -0.9316479226)
(1730.479647 3.694749653 -0.9792994899)
(1728.449599 -1.042293189 -0.6412616259)
(1736.30669 -4.852899385 0.7843093944)
(1733.670874 -1.405042111 -1.747803085)
(1737.820025 3.038540293 -2.456092944)
(1728.668255 4.92203245 3.343419284)
(1741.819058 6.265585656 -1.787762745)
(1734.420309 4.491983291 -2.951795557)
(1739.75937 0.747501375 -4.972152543)
(1736.923751 2.297109742 -4.901120463)
(1731.349669 7.980827748 -2.514103888)
(1727.175268 8.751045599 -4.204152162)
(1730.09736 2.334944446 -4.024101956)
(1727.941854 10.45892655 -0.3043997053)
(1728.202579 4.121491281 3.886111644)
(1706.079937 -8.979346551 1.80019857)
(1743.545846 -6.430976841 6.161475541)
(1737.598452 0.3250197484 7.459359396)
(1729.072012 -6.094483217 1.897842003)
(1727.898191 -4.264670082 1.039877532)
(1729.121369 -1.813444002 2.248984736)
(1733.689888 9.991602912 -2.574202866)
(1730.982764 15.44800796 -3.056052792)
(1740.647244 10.80470989 1.673331349)
(1736.946737 4.611380865 -2.240890269)
(1739.123719 1.268209241 -3.268565718)
(1741.690549 -1.940077441 -3.042242161)
(1730.579396 -1.513358168 -1.519419224)
(1733.145549 -0.5083859239 -4.302693858)
(1731.210562 3.784114522 1.552965208)
(1735.555121 8.90604223 5.478796014)
(1742.564078 8.518859429 3.707273593)
(1737.928843 7.725816261 1.753004779)
(1737.685864 8.50629145 -3.090121428)
(1727.906492 15.25894324 -4.446034791)
(1704.970591 0.7176951692 -9.958377468)
(1732.32555 -5.576765417 -10.98678221)
(1725.112318 -1.950538979 -4.161224983)
(1734.152818 -8.628129974 -3.685346723)
(1732.5262 -1.606048088 -9.316201559)
(1730.041959 0.1030317257 -9.208660395)
(1726.23527 -1.145398814 -8.668792812)
(1728.530103 -1.243637011 -6.023105446)
(1729.065028 5.846223503 -10.67778804)
(1723.14349 7.932854198 -4.750404252)
(1723.265523 11.05617423 -5.609347514)
(1718.850001 6.877602495 -4.842453794)
(1730.967076 10.51168861 -2.606080689)
(1735.058254 2.379477143 2.195424422)
(1730.376821 3.358708821 -2.563433206)
(1730.194535 -3.384353679 -5.950143133)
(1728.223208 -0.1812472661 -6.122565569)
(1728.576764 2.481200467 -3.86876093)
(1723.9431 -2.074167531 0.4518982927)
(1737.983123 -6.723247215 2.470623101)
(1712.936218 -7.782701827 -13.1845545)
(1751.430916 -5.711075008 -11.4087533)
(1736.915087 0.06977537015 -15.41468648)
(1732.87225 7.734194068 -12.7890731)
(1733.47927 6.765361306 -9.218539249)
(1733.63232 0.9220173492 -5.844020326)
(1733.982824 -4.634108824 -2.94868821)
(1737.527651 -2.034573313 -4.322511916)
(1740.084549 -0.2518924846 -0.8592553027)
(1735.719561 -1.227184665 -7.394042348)
(1733.579271 -4.008651184 -7.349743053)
(1735.824345 -2.606502809 -6.367410712)
(1729.899821 3.827238677 -9.405415666)
(1734.151254 6.64684902 -5.224702972)
(1736.119643 -2.275353313 -8.039867559)
(1738.764268 -0.5425255759 -5.929183332)
(1737.669517 -0.355722696 1.09314079)
(1739.291814 1.46256736 5.041209231)
(1730.437723 5.588001175 -7.181152554)
(1723.674207 -1.188314693 -4.720944379)
(1712.00384 -5.220408964 -3.350272367)
(1748.553239 -4.618345849 -3.167075734)
(1743.727146 -4.902050245 -3.408396701)
(1740.114821 -8.849441215 -4.354549794)
(1741.631967 -10.83159597 -4.288624281)
(1741.401282 -3.662010029 -7.655606649)
(1737.947354 1.603715772 -5.79041815)
(1733.236143 0.8737591559 -7.306761711)
(1737.956073 -4.153779293 -1.585621823)
(1740.890477 -6.170308472 1.556399426)
(1744.237966 -2.807041387 5.392610145)
(1748.659157 -3.804485747 -2.135902043)
(1742.625928 -5.883805867 -1.470996898)
(1741.193779 -4.658370214 -0.7787670141)
(1739.402445 10.61514142 3.244490731)
(1740.843627 6.595515287 -2.824163749)
(1738.039166 -1.79540199 -2.70607884)
(1741.544224 -6.359069859 -7.221725983)
(1743.434037 -0.6518031884 -4.494560039)
(1747.232696 -1.627015394 -3.617527075)
(1711.612967 3.07796212 2.819625334)
(1746.225708 -0.2657270513 4.044251776)
(1738.233547 -13.00778145 -2.287005062)
(1741.450542 -10.16267444 -4.047312434)
(1737.683493 -9.77140077 -3.13903691)
(1734.729317 -2.969182834 -4.231116429)
(1736.726924 -3.470413611 -1.60959026)
(1741.727455 -2.7781453 -1.344628486)
(1731.537844 -2.438759614 -7.467220031)
(1730.109233 -3.50041533 -6.989430789)
(1728.052275 3.019102609 -2.24269072)
(1724.40407 -4.019973218 -0.5430720306)
(1726.849931 -2.688862469 4.796909369)
(1731.828259 -2.876443097 -3.051123723)
(1734.994783 -9.583089523 -4.32045819)
(1740.573194 -6.280506978 -7.668910475)
(1740.262659 1.865295912 -1.558923419)
(1735.183393 5.663657445 -1.7802787)
(1737.357331 11.60301694 -3.911047835)
(1738.028554 8.993899473 -5.470396171)
(693.2568802 156.4031436 -7.440439884)
(595.8145568 167.5763787 -7.106928943)
(575.8683927 170.4728665 -0.2679328127)
(540.7787409 149.8742394 19.41201234)
(508.7195623 151.8039174 21.43004787)
(487.337881 140.959883 17.87335788)
(469.4064755 124.9990119 7.841917051)
(441.7469047 128.3329895 9.560780449)
(438.9891796 118.7423496 2.359415068)
(401.6039561 118.1005427 1.979550829)
(1057.073136 167.9587561 -3.57308805)
(928.6782023 216.483481 -10.58851254)
(905.5713994 247.253808 8.271142149)
(851.8000399 244.8003105 -3.161047036)
(841.2030807 239.5664446 7.74389904)
(817.369541 235.7822023 -10.88878419)
(789.930887 240.4953776 3.061141864)
(762.6340033 228.412087 -9.544714126)
(732.9021088 211.3821656 2.924439879)
(715.9151247 200.9669306 -4.809632801)
(1298.426837 120.2412056 0.9658023524)
(1178.684615 194.8752701 -41.00903)
(1085.398014 240.8039693 -17.65871132)
(1061.808355 271.3378972 -18.56613978)
(1021.831236 283.6295642 5.396324809)
(1037.989901 288.059401 -8.344078688)
(1006.844211 284.078864 5.182396049)
(960.9396551 283.3675994 -1.506709342)
(899.6187398 270.9060293 -14.72750274)
(875.2085889 266.9438922 -8.576561333)
(1447.414639 92.24413785 -2.507147212)
(1327.543929 160.5871223 0.7436948403)
(1268.815746 217.0391348 -1.547592469)
(1170.028589 254.3086047 7.765508401)
(1161.811622 265.5629603 10.12334579)
(1145.285786 291.7000929 2.94615631)
(1123.794404 304.0784825 11.22459061)
(1084.542958 304.9443398 -6.242016151)
(1080.815685 327.7045644 -7.961880781)
(1033.957066 323.4099333 2.212122596)
(1556.627924 70.62577553 -0.2295103586)
(1457.628224 125.6436876 -3.659480631)
(1388.714967 178.1519271 7.568319319)
(1312.790276 223.5561404 -4.501890909)
(1292.813999 247.0703142 5.90616829)
(1273.207321 262.0973037 10.85876108)
(1230.644497 292.6640732 -0.9619683253)
(1229.433487 317.8112332 -6.618942681)
(1192.896381 339.3779866 -6.457287547)
(1147.826527 342.4928546 13.42674301)
(1609.717903 60.93984821 -9.867385183)
(1535.10166 93.93429 -0.09221478593)
(1468.900055 145.277792 8.636267616)
(1437.281169 163.9530246 -2.05153625)
(1396.591326 206.1285157 -6.063028444)
(1370.143595 246.4051741 -0.2170048226)
(1326.528334 268.591038 -4.371991775)
(1294.706527 285.1273447 -10.24841404)
(1277.411706 309.1487061 -10.5185792)
(1255.064538 319.1677189 -10.76067957)
(1646.450125 47.31678252 2.903194678)
(1619.070581 59.31788486 -6.830435373)
(1555.107759 92.53189424 -0.8869223648)
(1501.470848 146.3549026 -3.933938166)
(1490.13751 173.378695 -16.3869857)
(1467.146978 194.3973192 -15.00047294)
(1426.432174 228.7710814 -10.04925649)
(1386.424003 264.0291302 -13.62335419)
(1363.912378 277.9404121 -7.508703955)
(1332.13557 297.396887 -8.764993727)
(1674.610648 24.10093669 -5.429672198)
(1631.704921 45.90999978 -14.62876441)
(1607.496473 66.32106818 -0.4945237434)
(1564.950404 113.0430851 8.27664025)
(1566.568296 131.4730679 12.17221064)
(1553.476095 162.0449036 6.459667044)
(1509.556248 192.1960874 4.203862685)
(1476.801983 204.0735912 -2.246550119)
(1426.084015 245.3685774 -7.742059565)
(1424.956339 261.2576691 9.045039884)
(1679.946809 25.14119919 -0.01779460401)
(1674.950005 35.09790506 10.92672188)
(1656.832974 52.48635749 2.490617789)
(1620.277784 68.50236861 6.104764305)
(1591.926741 98.85798994 23.76847949)
(1580.959906 108.3181716 24.79323303)
(1561.567008 129.8903039 3.208814)
(1527.914635 172.0805607 -3.109836)
(1488.575131 200.6200074 2.937749663)
(1466.942952 213.2956334 -12.56455885)
(1707.321942 13.59981341 0.3998436718)
(1692.1133 29.60863172 -0.7775699066)
(1689.396033 42.60791567 -3.473544885)
(1677.34687 38.05195304 -13.94667308)
(1664.047871 57.53115784 1.174093657)
(1620.605496 91.66304788 3.992596891)
(1622.005616 95.47708519 -5.861638927)
(1589.819828 120.5998247 -1.625221824)
(1565.044347 167.8098564 8.306229277)
(1526.61006 191.2242977 3.669422954)
(1724.472394 13.81719113 -13.51031996)
(1691.853591 19.97975205 -10.30914154)
(1694.547267 25.98406734 -8.504545941)
(1679.860711 39.86061814 -1.424272751)
(1655.488923 49.62373591 -0.935915758)
(1627.053321 66.83531019 -1.317457643)
(1619.538766 83.69445105 -2.165266074)
(1587.104355 104.4698975 -6.195406536)
(1576.741472 120.7936735 -4.756811271)
(1562.716714 160.5589702 2.001879375)
(1710.635807 7.465854621 3.147151051)
(1704.23897 5.009262327 4.603872376)
(1697.568563 14.02701235 1.585893857)
(1676.967592 28.60794103 5.921336179)
(1683.409018 36.55783259 -1.828913806)
(1666.742513 58.79718274 -0.3706592456)
(1641.026701 67.40441688 8.47127147)
(1620.507835 87.62763359 -4.769000705)
(1604.251537 104.5752535 -1.418240792)
(1607.992162 115.0593143 -6.599570956)
(1719.905586 12.69481069 -1.816195602)
(1713.558376 19.84644121 -4.641543318)
(1692.750743 26.79618101 -4.100831646)
(1710.37216 21.93592113 -8.295096438)
(1702.955016 29.41773668 -9.115398413)
(1685.267022 41.73455897 -2.463804729)
(1674.948699 46.92728813 -6.117246917)
(1678.328673 54.20628036 4.937128785)
(1664.818346 68.61097715 -1.915227739)
(1639.855914 92.35880073 -4.918766302)
(1718.561743 11.45876302 -3.665178908)
(1717.117961 6.872395089 -5.224381859)
(1700.913838 18.40300822 -3.704370417)
(1699.409271 21.72019403 0.6510701961)
(1696.070984 17.76790483 -6.881421701)
(1692.552726 25.85931996 -5.616390847)
(1695.0097 29.48899563 0.9610256759)
(1684.636587 47.0543042 -1.570820941)
(1670.083929 43.81960432 -5.810888404)
(1660.156146 59.11618889 3.890277804)
(1731.851606 -0.06236066562 -7.283689084)
(1725.845737 1.05438399 -6.29605044)
(1725.692798 4.868080488 -5.3863063)
(1716.790421 11.32656998 -7.644891017)
(1717.76728 16.05561039 3.214294024)
(1720.609006 20.39821647 0.6259050759)
(1703.785929 32.34061943 -1.925408338)
(1680.860061 45.3041029 0.6773307458)
(1689.844138 56.68810785 7.15397499)
(1696.9369 59.55439094 15.47082555)
(1735.640515 -0.937407293 -1.339909391)
(1732.185134 2.94052567 3.298808779)
(1734.727826 3.022096324 -1.210402367)
(1730.320299 2.254420548 8.467071487)
(1721.44798 10.57536447 -2.56242064)
(1720.469178 16.79592013 -6.204638502)
(1709.722787 21.22421798 -5.270518676)
(1712.231061 19.16064671 -1.98307313)
(1693.798813 24.22445076 -2.564884354)
(1679.379385 35.73129706 -12.22876367)
(1723.982609 2.515473327 4.084006148)
(1718.581725 6.133864719 5.006956198)
(1721.113037 4.865456205 -3.606348412)
(1726.704527 4.513420363 -5.864644269)
(1732.020304 2.738469593 -6.623154382)
(1726.353698 5.772014847 -0.8575450461)
(1709.718206 7.816401776 8.558062121)
(1708.017433 17.03435763 3.444588436)
(1714.125378 25.68017056 4.545166257)
(1707.861002 38.42216056 3.383716781)
(1729.782797 20.11895304 -5.113903977)
(1727.403785 27.34802054 -9.845906812)
(1732.746096 18.06295966 -6.331829643)
(1734.184046 9.781088008 -4.880893072)
(1732.590456 12.37367898 -2.043373912)
(1736.209782 10.1187751 -10.11751548)
(1735.333579 14.20130893 -12.95390916)
(1733.568158 20.51975162 -6.28322847)
(1728.70769 8.909856651 -11.88833947)
(1717.353135 23.44072932 -16.58759463)
(1727.853566 0.02360425417 -2.205576467)
(1723.510685 -1.167632357 -3.775160889)
(1721.594975 3.591093165 -4.004532588)
(1717.587474 6.179992256 -4.822034619)
(1723.73357 7.986631792 -11.42077982)
(1729.006915 19.35004496 -4.16159376)
(1737.981158 13.83731731 -10.00998257)
(1729.79327 21.49698996 -6.232074363)
(1724.417631 28.6649411 -6.729005531)
(1720.203142 29.96700316 -4.328060327)
(1725.398237 -1.375031818 -4.377801588)
(1740.040199 1.718269628 -3.022178031)
(1748.33406 3.004260871 4.100726097)
(1753.786469 9.312142874 2.228953661)
(1746.28793 18.26611119 3.654892247)
(1741.615179 17.88146365 1.198647462)
(1728.333828 20.42328835 4.069746831)
(1730.165675 16.09255709 1.518376756)
(1727.605909 17.37760898 2.245962357)
(1729.664737 12.47829489 8.92029838)
(1748.641245 9.210554199 -6.580160204)
(1747.281166 18.77221534 -5.75804958)
(1745.658043 14.30213026 -9.889105453)
(1733.648327 12.02147876 -4.182155956)
(1734.963087 8.911748561 -6.055660442)
(1736.953692 6.133847384 -4.516871901)
(1734.292649 1.177021451 3.579419892)
(1724.56383 6.886114723 -0.4850061234)
(1723.659803 16.09126964 0.6812288243)
(1726.437634 13.63777686 5.85940827)
(1737.053206 0.7492728805 -3.025128295)
(1728.588697 -1.440754379 -2.53782125)
(1727.454181 4.264804754 -1.192390196)
(1736.282346 0.3841489137 -2.371983521)
)
;

boundaryField
{
    flow
    {
        type            calculated;
        value           nonuniform List<vector> 
42
(
(1714.234725 -2.748171576 3.04645638)
(1710.551946 -3.6212535 -0.2221436428)
(1715.49882 -0.07099457059 16.85081801)
(1716.965324 -5.048297328 -1.657844358)
(1708.196136 -2.644594066 -6.200092077)
(1710.086792 1.87879343 6.242631593)
(1711.893458 1.83739496 -1.535924015)
(1713.215251 -9.883034867 4.577402491)
(1706.336457 -1.141887891 0.09781844365)
(1709.609132 -1.275406542 8.326021515)
(1693.282136 4.063970127 1.577588154)
(1703.108387 3.140430316 -7.540451262)
(1703.479855 17.77515453 -7.644386121)
(1702.225929 0.0158100033 -7.015544341)
(1714.894632 5.209614194 7.319761935)
(1703.357028 -7.57568224 -9.008742863)
(1710.974152 16.55526904 5.793228714)
(1706.079937 -8.979346551 1.80019857)
(1704.970591 0.7176951692 -9.958377468)
(1712.936218 -7.782701827 -13.1845545)
(1712.00384 -5.220408964 -3.350272367)
(1711.612967 3.07796212 2.819625334)
(1714.234725 -2.748171576 3.04645638)
(1748.534653 -2.696536552 0.2233390264)
(1741.367165 -1.92099715 0.573733791)
(1747.280355 -4.183024781 -3.220401981)
(1743.196337 -2.097442823 -6.163454454)
(1740.53709 -5.084588991 -5.721456648)
(1736.110199 -6.086029926 -1.945738362)
(1733.206753 -7.455123707 0.6449151587)
(1728.659772 -7.708957296 1.868500822)
(1735.23298 -5.434014702 3.461875769)
(1736.20356 -1.925215971 5.923819319)
(1730.695971 0.7123314592 2.620008811)
(1737.564991 -4.881339629 0.3457889856)
(1730.589797 -8.57319556 3.984940754)
(1730.859491 -5.045644111 0.7102004223)
(1721.090489 -6.301817619 -2.759491887)
(1710.818481 -8.44439456 -2.632944602)
(1679.977625 -16.55490844 0.7681593446)
(1594.53329 -23.83660509 0.6943274995)
(1208.988664 7.025225196 17.7104417)
)
;
    }
    obstacle
    {
        type            calculated;
        value           nonuniform List<vector> 10((433.0085908 116.0243022 12.57371029) (357.33694 95.74814452 -15.76876083) (327.6228735 87.78628436 16.5066134) (305.4756889 81.85196415 13.8965541) (293.7308959 78.70495629 54.09578692) (247.0213627 66.18917476 65.89272256) (262.8730422 70.43661916 17.27708129) (203.5821845 54.54968203 25.01281822) (249.0289262 66.72709978 -39.58637382) (219.7642032 58.8856406 -15.69419033));
    }
    frontAndBack
    {
        type            empty;
    }
    procBoundary0to1
    {
        type            processor;
        value           nonuniform List<vector> 
21
(
(396.2454135 106.5475597 13.81011161)
(668.1082645 202.867526 10.94592814)
(875.2236793 269.5499786 -2.884725297)
(1043.553982 309.2278544 -1.84012859)
(1160.931859 337.2154946 2.30783658)
(1232.213769 335.2191557 -18.50832593)
(1311.657306 321.3562555 0.4337556543)
(1372.30881 279.0218878 -11.70671434)
(1456.790518 256.0291777 -5.440202009)
(1502.825899 215.8651918 6.990191013)
(1531.279587 185.7474604 -18.93559768)
(1582.428943 135.0546731 6.17474414)
(1632.239617 102.3804965 -8.246332488)
(1638.319555 91.04635085 7.452824747)
(1677.297079 64.7173458 11.25685761)
(1680.211513 45.7184177 -11.51170565)
(1707.688309 40.88686558 9.1702758)
(1718.956673 29.7924517 -10.52265171)
(1703.660051 37.74726808 1.255050936)
(1724.53219 21.17979215 -0.2768852304)
(1720.216937 15.5169711 9.365666232)
)
;
    }
    procBoundary0to2
    {
        type            processor;
        value           nonuniform List<vector> 
31
(
(1702.866865 -14.57350998 0.7017121137)
(1737.323104 -7.29264708 -3.070456118)
(1730.994834 -0.05317071925 0.03316549805)
(1729.366732 1.264520715 -0.8325923193)
(1737.581175 -4.668275484 1.377159093)
(1734.722014 -5.234725714 4.049321958)
(1735.48652 -3.395049146 2.061055612)
(1734.338519 -5.625722184 -1.095017128)