/*--------------------------------*- C++ -*----------------------------------*\
| =========                 |                                                 |
| \\      /  F ield         | OpenFOAM: The Open Source CFD Toolbox           |
|  \\    /   O peration     | Version:  2406                                  |
|   \\  /    A nd           | Website:  www.openfoam.com                      |
|    \\/     M anipulation  |                                                 |
\*---------------------------------------------------------------------------*/
FoamFile
{
    version     2.0;
    format      ascii;
    arch        "LSB;label=32;scalar=64";
    class       volScalarField;
    location    "0.001";
    object      dsmcSigmaTcRMax;
}
// * * * * * * * * * * * * * * * * * * * * * * * * * * * * * * * * * * * * * //

dimensions      [0 3 -1 0 0 0 0];

internalField   nonuniform List<scalar> 
546
(
8.241677279e-16
8.279819661e-16
8.266550711e-16
8.222642165e-16
8.322584879e-16
7.961518847e-16
8.271547341e-16
7.980745666e-16
7.900699054e-16
8.061204497e-16
8.002666434e-16
8.12043955e-16
8.33718195e-16
8.010696466e-16
8.256145273e-16
8.128660922e-16
8.525204679e-16
7.8465963e-16
8.074817881e-16
7.898188076e-16
8.63217294e-16
7.747155508e-16
8.299169088e-16
7.911214851e-16
8.254540068e-16
8.520406946e-16
8.163373367e-16
8.379525782e-16
7.985274055e-16
7.966012827e-16
8.133274635e-16
8.28848025e-16
8.498064826e-16
7.948008214e-16
8.126356365e-16
8.37834995e-16
8.949216749e-16
8.122129016e-16
8.601185104e-16
8.154639136e-16
8.606811187e-16
8.404774896e-16
8.442426458e-16
8.254533877e-16
7.929968442e-16
8.10590561e-16
8.235916971e-16
8.398446898e-16
8.639327092e-16
7.797371606e-16
8.532494333e-16
8.609353969e-16
8.122662244e-16
8.501205921e-16
8.135511598e-16
7.765836649e-16
8.023496301e-16
7.825848552e-16
7.936358245e-16
7.737417115e-16
8.324837849e-16
8.644285188e-16
8.55385706e-16
8.646922545e-16
7.684275724e-16
7.851709112e-16
8.304191595e-16
9.195298302e-16
8.547560706e-16
8.366805363e-16
8.286913929e-16
8.771631714e-16
8.399634056e-16
8.056846121e-16
7.970095927e-16
7.845645581e-16
8.115053849e-16
8.601257825e-16
7.983603413e-16
7.63098687e-16
7.769472576e-16
8.277486753e-16
8.233061151e-16
8.295344209e-16
7.560737019e-16
8.467927528e-16
8.143428881e-16
8.558780009e-16
8.017419531e-16
7.548058668e-16
8.127837483e-16
8.038629007e-16
8.766887428e-16
8.334352647e-16
8.229399406e-16
8.999787222e-16
8.548284278e-16
8.248107652e-16
8.575612395e-16
8.305471344e-16
8.732982416e-16
8.187354156e-16
8.193859317e-16
8.401439716e-16
8.285402293e-16
7.835801197e-16
8.252361182e-16
8.050504063e-16
8.088436226e-16
8.484135848e-16
8.180701565e-16
7.997594977e-16
7.738062075e-16
8.629514406e-16
8.441474844e-16
8.248344296e-16
8.038822199e-16
7.977578826e-16
7.955603529e-16
7.474919287e-16
8.242168805e-16
8.561510626e-16
8.228762687e-16
7.917203803e-16
8.101265556e-16
8.377898314e-16
8.43677779e-16
8.43677779e-16
8.344874169e-16
8.133896842e-16
8.106742295e-16
7.796699376e-16
7.981076712e-16
8.518999353e-16
7.971404954e-16
8.658007736e-16
8.594862484e-16
8.039773517e-16
8.473726245e-16
8.245714075e-16
8.295694409e-16
7.498154705e-16
8.489664414e-16
8.194097704e-16
8.358998444e-16
9.016023559e-16
8.083985065e-16
8.008554223e-16
7.465122923e-16
7.69723514e-16
8.209446286e-16
7.968950356e-16
8.361891395e-16
8.114377254e-16
8.236434606e-16
8.345641248e-16
7.870305972e-16
8.06967636e-16
8.242682095e-16
8.161684649e-16
8.05857016e-16
7.805836833e-16
7.667204805e-16
8.527054104e-16
7.836715185e-16
8.38473873e-16
7.77899678e-16
8.049733357e-16
8.346585875e-16
8.334589475e-16
8.286309571e-16
8.235997028e-16
7.777872143e-16
7.57295095e-16
7.589737199e-16
8.421952315e-16
7.764423816e-16
8.021472492e-16
7.559649408e-16
7.805877607e-16
8.343970979e-16
7.741411419e-16
8.672829389e-16
7.485358696e-16
7.96058785e-16
8.607546083e-16
8.636840009e-16
7.870669308e-16
7.882752504e-16
7.659068702e-16
7.905849543e-16
8.161266919e-16
7.970919536e-16
7.946942481e-16
7.700641048e-16
8.326561659e-16
8.933592332e-16
7.555621976e-16
8.173572104e-16
8.000729022e-16
7.805099652e-16
8.207197613e-16
8.314237029e-16
8.612433594e-16
7.669792096e-16
8.139899358e-16
8.074449287e-16
7.543120721e-16
7.480197068e-16
7.432217407e-16
8.389381493e-16
8.170581183e-16
7.739474581e-16
8.203426212e-16
7.754568161e-16
8.108566268e-16
7.424703144e-16
7.820201799e-16
7.824311775e-16
8.829887113e-16
7.80743723e-16
7.610530971e-16
8.00303945e-16
7.689263094e-16
7.996969114e-16
7.867843938e-16
7.887635071e-16
7.525539736e-16
7.708940582e-16
8.237348174e-16
8.142536258e-16
7.935526443e-16
7.696514212e-16
7.991131778e-16
7.625672874e-16
7.586691216e-16
7.51180075e-16
7.508110771e-16
7.98163869e-16
7.145693648e-16
7.454047192e-16
7.54243243e-16
7.63453038e-16
7.808435999e-16
8.081830179e-16
8.3432835e-16
7.698453635e-16
8.472596394e-16
7.913099845e-16
7.777876166e-16
7.434434078e-16
7.911950145e-16
8.23205906e-16
8.63181513e-16
7.727216021e-16
8.205690177e-16
8.495964127e-16
8.215271428e-16
8.106539767e-16
7.424589121e-16
8.093731412e-16
7.949148485e-16
7.551232616e-16
8.098170747e-16
8.536880336e-16
7.507276804e-16
8.351256009e-16
7.75784503e-16
8.280320271e-16
7.953376186e-16
7.242664207e-16
8.037542443e-16
7.37591728e-16
7.802650501e-16
8.104791277e-16
7.552509957e-16
7.71913596e-16
7.968774948e-16
7.813493438e-16
7.270358499e-16
8.097549414e-16
7.602504945e-16
7.920921584e-16
8.296794438e-16
7.917623768e-16
8.023386672e-16
7.740239037e-16
8.24492793e-16
7.759291846e-16
7.553847904e-16
7.629353767e-16
7.675453705e-16
7.882564245e-16
9.00023708e-16
7.407823516e-16
8.055858487e-16
8.232692779e-16
7.482809722e-16
7.431061803e-16
7.939948893e-16
7.467434019e-16
7.854874599e-16
8.398221774e-16
7.825109612e-16
8.039057669e-16
7.13687923e-16
7.469311286e-16
7.993332209e-16
8.547694799e-16
7.903399393e-16
7.617972492e-16
7.877271949e-16
7.317326661e-16
7.647606162e-16
7.755970709e-16
7.604789188e-16
7.970910527e-16
8.10092868e-16
7.783781475e-16
7.734108162e-16
7.903539654e-16
7.76339613e-16
7.944306957e-16
8.411294351e-16
7.533444225e-16
7.766020137e-16
8.122566127e-16
8.243898434e-16
7.593476628e-16
7.016882691e-16
7.185670394e-16
7.078275338e-16
7.680791261e-16
7.13616452e-16
7.427924211e-16
7.28749802e-16
7.587989813e-16
7.371062294e-16
8.158225465e-16
7.242130757e-16
8.186059388e-16
7.52483829e-16
8.367451255e-16
7.804279445e-16
7.829066984e-16
8.400914532e-16
8.009232183e-16
8.303209824e-16
7.69773543e-16
8.547177957e-16
8.03778677e-16
7.645628787e-16
7.95134541e-16
7.964521776e-16
7.558924111e-16
7.516715177e-16
8.031844802e-16
7.807042893e-16
7.300209604e-16
7.35475425e-16
7.740645628e-16
7.656605359e-16
7.973020118e-16
7.452945076e-16
7.20604702e-16
7.688266063e-16
7.075872659e-16
7.609292158e-16
7.372875375e-16
7.509988624e-16
7.784469598e-16
7.447091558e-16
7.780356349e-16
7.45912232e-16
7.501471717e-16
7.417449769e-16
7.934233073e-16
7.580271222e-16
7.637572307e-16
8.122353726e-16
7.982990501e-16
7.91895741e-16
7.802797417e-16
7.613330587e-16
7.772479187e-16
7.60016917e-16
7.651890321e-16
7.73836806e-16
7.887629688e-16
7.238178871e-16
7.510818402e-16
7.82270154e-16
7.281515838e-16
7.726979308e-16
7.784567839e-16
8.026394573e-16
7.492805895e-16
7.14796105e-16
7.419769413e-16
7.471120718e-16
7.204795975e-16
7.865592053e-16
7.96928608e-16
7.58812917e-16
7.469251655e-16
7.751799781e-16
7.796464968e-16
8.025140506e-16
7.757931159e-16
7.617947386e-16
7.520412123e-16
7.389734274e-16
7.534436364e-16
7.422887578e-16
7.905735386e-16
7.685607152e-16
7.387960127e-16
7.652352843e-16
7.687081169e-16
7.814452159e-16
7.367926725e-16
6.635048579e-16
7.196398723e-16
6.690005633e-16
7.002360871e-16
7.787252794e-16
7.541856321e-16
7.138035307e-16
7.484670005e-16
7.640985145e-16
7.523958134e-16
7.371072611e-16
7.306048327e-16
7.36717823e-16
7.690462496e-16
7.191026214e-16
7.112032284e-16
7.857964745e-16
7.538644413e-16
7.484317527e-16
8.171167358e-16
7.920010011e-16
8.196276598e-16
7.789336373e-16
7.521624507e-16
7.376931707e-16
7.481435693e-16
8.01602802e-16
8.360534905e-16
7.001350169e-16
7.211373681e-16
7.719688014e-16
6.973950171e-16
7.153919078e-16
6.998979696e-16
7.264906484e-16
6.889658328e-16
7.731041246e-16
7.517060139e-16
7.473857037e-16
7.334565504e-16
6.933906572e-16
7.626499948e-16
6.998325488e-16
7.370446347e-16
7.169757715e-16
7.583359686e-16
7.203604718e-16
7.682058877e-16
7.569702183e-16
7.185456167e-16
7.525053916e-16
7.699862451e-16
7.452839128e-16
7.478964278e-16
7.801477873e-16
6.935784862e-16
7.341602011e-16
7.673765514e-16
6.943071999e-16
6.908805203e-16
7.146075774e-16
7.3825002e-16
7.104968861e-16
7.184343174e-16
7.743032856e-16
7.409720382e-16
7.562689376e-16
7.489598143e-16
7.403401824e-16
6.591042483e-16
7.926146897e-16
7.33236444e-16
7.599057653e-16
6.938827109e-16
7.639559083e-16
7.273917323e-16
8.00797763e-16
7.396157127e-16
7.634846041e-16
7.315351268e-16
7.534677417e-16
8.263047111e-16
7.797976353e-16
6.882892113e-16
6.886476279e-16
6.791330042e-16
7.111860998e-16
6.907080761e-16
6.644462549e-16
6.527966368e-16
6.856101242e-16
7.040806921e-16
7.563611164e-16
7.260433969e-16
7.315458977e-16
6.900948129e-16
7.552722279e-16
6.895789159e-16
7.034873335e-16
7.224580739e-16
7.916027984e-16
7.031735906e-16
7.607753432e-16
6.58123582e-16
7.127282697e-16
7.439853854e-16
7.144767752e-16
6.603652019e-16
6.506822244e-16
7.258924987e-16
6.916223742e-16
6.380431294e-16
7.476516988e-16
7.170742315e-16
7.585163218e-16
7.049870701e-16
6.674248282e-16
6.51458389e-16
5.683956565e-16
6.405183011e-16
6.212046837e-16
7.884482978e-16
7.13754531e-16
6.074578475e-16
6.585102569e-16
)
;

boundaryField
{
    flow
    {
        type            zeroGradient;
    }
    obstacle
    {
        type            zeroGradient;
    }
    frontAndBack
    {
        type            empty;
    }
    procBoundary1to0
    {
        type            processor;
        value           nonuniform List<scalar> 
21
(
8.417244288e-16
8.48577127e-16
8.164728944e-16
8.616015149e-16
7.773917958e-16
7.905352972e-16
8.175119747e-16
7.79613904e-16
7.610873283e-16
7.721639156e-16
7.885171468e-16
7.431680312e-16
6.381730579e-16
7.418016973e-16
7.77492275e-16
7.078588146e-16
6.550539977e-16
6.95855734e-16
7.400506274e-16
6.209432003e-16
5.806647261e-16
)
;
    }
    procBoundary1to3
    {
        type            processor;
        value           nonuniform List<scalar> 
36
(
7.295832352e-16
7.509966436e-16
7.586741795e-16
7.218760788e-16
7.295832352e-16
7.000996564e-16
7.428273327e-16
7.142555573e-16
7.103408414e-16
7.454296919e-16
7.658987871e-16
7.509966436e-16
7.874333576e-16
7.452461486e-16
8.211519486e-16
7.274762363e-16
7.168260656e-16
7.428273327e-16
7.378939604e-16
7.177626811e-16
6.957740343e-16
6.649023484e-16
7.162237297e-16
7.026591642e-16
7.452461486e-16
7.254783891e-16
6.421564942e-16
6.040926333e-16
7.059266907e-16
6.747856256e-16
6.691191322e-16
6.768001755e-16
7.177626811e-16
6.791524088e-16
6.421564942e-16
6.847267215e-16
)
;
    }
}


// ************************************************************************* //
