/*--------------------------------*- C++ -*----------------------------------*\
| =========                 |                                                 |
| \\      /  F ield         | OpenFOAM: The Open Source CFD Toolbox           |
|  \\    /   O peration     | Version:  2406                                  |
|   \\  /    A nd           | Website:  www.openfoam.com                      |
|    \\/     M anipulation  |                                                 |
\*---------------------------------------------------------------------------*/
FoamFile
{
    version     2.0;
    format      ascii;
    arch        "LSB;label=32;scalar=64";
    class       volScalarField;
    location    "0.001";
    object      dsmcRhoNMean;
}
// * * * * * * * * * * * * * * * * * * * * * * * * * * * * * * * * * * * * * //

dimensions      [0 -3 0 0 0 0 0];

internalField   nonuniform List<scalar> 
546
(
26.592
26.422
24.894
24.214
24.156
23.388
24.18
23.17
23.412
23.2
23.27
22.94
20.682
21.548
20.73
20.234
19.946
19.916
19.68
19.508
18.186
18.984
19.512
19.464
18.186
17.452
16.836
16.144
15.242
12.162
23.992
23.45
23.094
21.972
20.996
20.992
21.114
21.606
21.016
20.778
20.246
19.7
19.716
19.336
19.25
18.528
18.414
18.158
17.918
17.112
16.838
17.158
17.15
16.694
16.124
16.74
15.776
14.376
14.034
11.252
21.726
21.85
20.854
20.204
19.826
20.436
19.534
19.62
20.206
19.864
20.036
19.016
19.146
18.638
18.158
17.938
17.766
17.2
16.792
16.414
16.064
15.682
16.348
16.03
15.232
14.894
15.088
14.314
13.282
11.608
18.998
19.958
20.77
19.848
19.492
19.874
19.536
19.568
19.384
18.74
18.468
18.554
18.17
18.922
17.41
17.43
17.21
17.524
17.38
16.772
15.62
15
14.93
15.3
15.374
14.528
14.102
13.626
12.91
11.88
19.314
19.258
19.826
20.052
20.002
19.564
19.252
18.89
18.988
18.764
18.542
18.37
18.228
17.882
17.042
17.512
17.406
17.69
16.498
16.548
15.532
14.992
14.756
15.166
14.93
14.274
14.558
13.194
12.824
11.586
17.412
17.968
18.734
18.776
18.742
19.22
18.52
18.75
19.258
18.758
18.074
17.902
17.71
17.758
17.716
17.14
16.904
17.216
16.396
16.4
16.112
15.364
15.166
14.742
14.846
14.516
14.202
13.53
13.11
11.894
15.792
16.81
17.012
17.846
17.852
18.754
18.564
18.026
18.284
18.162
17.99
17.658
17.702
17.834
17.122
16.474
16.336
16.468
16.424
15.908
15.878
15.414
15.07
15.308
15.164
14.814
14.188
13.85
13.126
12.324
14.932
15.12
15.822
16.412
16.678
16.93
17.694
17.84
17.806
17.792
17.986
17.582
17.634
17.454
17.814
17.482
16.992
16.768
16.364
16.312
16.152
15.458
15.68
15.392
14.92
14.964
14.65
14.062
13.946
13.106
13.216
13.966
14.706
14.86
15.806
16.128
16.104
16.782
17.218
17.404
17.132
17.162
16.926
17.284
17.16
17.138
17.038
16.798
17.026
16.534
15.674
15.518
15.27
15.122
15.24
14.486
14.604
14.414
13.838
13.314
11.772
12.132
12.95
13.696
14.24
14.876
15.448
15.636
16.48
16.666
16.72
16.614
16.884
17.282
16.908
17.178
16.89
16.712
16.336
16.458
16.362
16.074
16.036
15.42
15.282
15.366
14.684
14.152
13.246
12.954
11.186
11.748
11.992
12.166
12.674
13.234
14.074
14.832
15.34
16.232
16.562
16.596
16.372
16.46
16.87
16.39
16.412
16.308
16.344
16.55
17.002
16.492
15.858
15.76
14.662
14.752
14.98
15.218
14.7
13.976
10.83
11.056
11.526
11.826
12.12
12.386
13.176
13.576
13.946
14.214
14.686
15.328
16.082
15.5
15.77
16.374
16.166
16.648
16.926
16.618
16.034
15.842
15.704
15.926
15.872
15.888
15.498
14.786
14.502
14.27
10.202
10.276
10.61
10.892
11.326
11.784
12.12
12.318
12.462
13.05
13.68
14.15
14.78
15.248
15.694
15.702
16.054
15.934
15.854
16.116
16.34
16.3
16.264
16.01
15.474
15.23
14.894
14.242
14.386
14.074
9.694
9.802
9.858
10.4
10.544
10.546
10.88
11.26
12.006
12.484
12.946
13.524
13.952
14.59
14.622
15.08
15.138
15.634
15.284
15.226
15.508
15.5
15.552
15.59
15.166
14.752
15.022
14.854
14.23
14.274
9.832
9.98
10.018
9.99
10.182
10.662
10.928
11.334
11.568
11.848
12.042
12.026
12.524
13.214
13.892
14.258
14.562
14.412
15.148
15.488
15.612
15.666
15.746
15.39
15.796
15.424
15.274
15.45
15.136
14.56
9.416
9.426
9.48
9.536
9.938
9.93
10.27
10.42
10.61
10.778
11.136
11.634
11.84
12.11
12.63
13.064
13.516
13.97
13.92
14.592
14.896
15.14
15.194
15.844
15.68
15.784
15.23
15.41
15.15
9.49
9.502
9.526
9.692
9.612
9.748
9.934
10.062
10.148
10.578
10.656
10.82
11.022
11.394
11.9
12.144
12.758
13.112
13.652
13.412
13.68
14.316
14.568
14.73
14.806
9.43
9.376
9.566
9.29
9.39
9.458
9.396
9.402
9.726
9.888
9.95
10.138
10.49
10.644
10.982
11.536
11.89
12.612
12.752
9.396
9.328
9.296
9.338
9.228
9.258
9.546
9.59
9.54
9.126
9.536
9.83
9.938
10.396
9.42
9.346
9.166
9.262
9.194
9.024
8.944
8.992
8.89
)
;

boundaryField
{
    flow
    {
        type            calculated;
        value           nonuniform List<scalar> 
15
(
12.162
11.252
11.608
11.88
11.586
11.894
12.324
13.106
13.314
12.954
13.976
14.27
14.074
14.274
14.56
)
;
    }
    obstacle
    {
        type            calculated;
        value           nonuniform List<scalar> 
30
(
26.592
26.422
24.894
24.214
24.156
23.388
24.18
23.17
23.412
23.2
23.27
22.94
20.682
21.548
20.73
20.234
19.946
19.916
19.68
19.508
18.186
18.984
19.512
19.464
18.186
17.452
16.836
16.144
15.242
12.162
)
;
    }
    frontAndBack
    {
        type            empty;
    }
    procBoundary1to0
    {
        type            processor;
        value           nonuniform List<scalar> 
21
(
27.432
23.282
21.874
19.762
19.062
16.516
15.256
13.916
12.78
11.606
10.722
10.4
10.186
9.558
9.548
9.62
9.394
9.558
9.214
9.524
8.94
)
;
    }
    procBoundary1to3
    {
        type            processor;
        value           nonuniform List<scalar> 
36
(
14.726
14.986
15.178
14.944
14.726
15.07
13.21
13.442
13.752
14.242
14.498
14.986
14.824
10.616
11.024
11.17
11.45
13.21
12.016
9.186
9.44
9.428
9.636
9.654
10.616
9.744
8.922
8.894
8.762
8.822
8.962
8.722
9.186
8.964
8.922
8.798
)
;
    }
}


// ************************************************************************* //
