/*--------------------------------*- C++ -*----------------------------------*\
| =========                 |                                                 |
| \\      /  F ield         | OpenFOAM: The Open Source CFD Toolbox           |
|  \\    /   O peration     | Version:  2406                                  |
|   \\  /    A nd           | Website:  www.openfoam.com                      |
|    \\/     M anipulation  |                                                 |
\*---------------------------------------------------------------------------*/
FoamFile
{
    version     2.0;
    format      ascii;
    arch        "LSB;label=32;scalar=64";
    class       volVectorField;
    location    "0.001";
    object      fD;
}
// * * * * * * * * * * * * * * * * * * * * * * * * * * * * * * * * * * * * * //

dimensions      [1 -1 -2 0 0 0 0];

internalField   uniform (0 0 0);

boundaryField
{
    flow
    {
        type            zeroGradient;
    }
    obstacle
    {
        type            calculated;
        value           nonuniform List<vector> 
30
(
(0 0 0)
(4.108205739 -2.925297889 1.560130181)
(2.160758632 -2.61925652 0.1643964576)
(3.910876731 -1.92337438 0.5408049143)
(5.864108565 -6.8870104 0.4821848217)
(0 0 0)
(0 0 0)
(4.761657741 -4.399591029 0.01505824864)
(0.3289564274 -0.3823037379 -1.070143528)
(1.759895677 -3.742786415 0.2343898013)
(-0.357775319 -2.78136944 1.601304096)
(0 0 0)
(8.021199612 -6.764964588 2.359667583)
(1.218468811 -1.517122406 0.2984450893)
(0.1514509603 -1.161834613 1.150346086)
(0 0 0)
(2.635691039 -3.535512687 -1.124247602)
(0 0 0)
(0 0 0)
(0 0 0)
(1.159905127 -4.165750982 0.9332217336)
(7.822034651 -3.366042782 -0.6332777014)
(2.282165784 -1.853006523 0.5899641844)
(-0.3571238154 -1.381337114 0.8973488614)
(3.149588532 -4.726352855 -3.775936555)
(4.258324408 -4.259992249 5.068368634)
(1.491862767 -0.999101606 -1.406121574)
(1.251308573 -1.272335545 -1.3578514)
(-0.5130816462 -1.890426409 0.4005557174)
(0 0 0)
)
;
    }
    frontAndBack
    {
        type            empty;
    }
    procBoundary1to0
    {
        type            processor;
        value           uniform (0 0 0);
    }
    procBoundary1to3
    {
        type            processor;
        value           uniform (0 0 0);
    }
}


// ************************************************************************* //
