/*--------------------------------*- C++ -*----------------------------------*\
| =========                 |                                                 |
| \\      /  F ield         | OpenFOAM: The Open Source CFD Toolbox           |
|  \\    /   O peration     | Version:  2406                                  |
|   \\  /    A nd           | Website:  www.openfoam.com                      |
|    \\/     M anipulation  |                                                 |
\*---------------------------------------------------------------------------*/
FoamFile
{
    version     2.0;
    format      ascii;
    arch        "LSB;label=32;scalar=64";
    class       volVectorField;
    location    "0.001";
    object      fDMean;
}
// * * * * * * * * * * * * * * * * * * * * * * * * * * * * * * * * * * * * * //

dimensions      [1 -1 -2 0 0 0 0];

internalField   uniform (0 0 0);

boundaryField
{
    flow
    {
        type            calculated;
        value           uniform (0 0 0);
    }
    obstacle
    {
        type            calculated;
        value           nonuniform List<vector> 
30
(
(2.448428714 -2.586663555 -0.02551538462)
(2.636576847 -2.731640691 -0.02983639441)
(2.247097644 -2.529730931 0.01859529473)
(2.267148988 -2.364371683 0.08108749284)
(2.191033721 -2.406042252 0.007148324006)
(1.983348543 -2.348100876 0.07113649527)
(2.151336047 -2.451696278 -0.02914827043)
(2.227315451 -2.586545682 -0.07719855254)
(1.911135917 -2.431029346 -0.03884297032)
(1.977591637 -2.406476731 0.07364567447)
(1.973048695 -2.364945868 -0.03945983065)
(2.000370954 -2.508282368 0.05938232386)
(1.925250793 -2.228100856 -0.09543389885)
(1.942940163 -2.316003233 0.05162514879)
(1.852000734 -2.223409443 -0.0369130701)
(1.811860292 -2.20636112 -0.02497603234)
(1.85922551 -2.294919022 -0.08991913161)
(1.718096987 -2.158753446 0.06481063826)
(1.675367644 -2.085595448 -0.08971703706)
(1.890963178 -2.214978942 -0.02196856315)
(1.688666049 -2.047646187 -0.05554452774)
(1.756655747 -2.176363006 0.1337409394)
(1.790126323 -2.15316791 -0.0003545145784)
(1.979046776 -2.403035183 0.07591826608)
(1.69968884 -2.008680647 0.0008074365897)
(1.721228938 -2.083518355 -0.006236466768)
(1.659044786 -1.841107055 -0.02499222849)
(1.713373537 -1.873737032 -0.04144004079)
(1.646959229 -1.870478203 -0.05182795738)
(1.721776803 -1.551683268 -0.02198237943)
)
;
    }
    frontAndBack
    {
        type            empty;
    }
    procBoundary1to0
    {
        type            processor;
        value           uniform (0 0 0);
    }
    procBoundary1to3
    {
        type            processor;
        value           uniform (0 0 0);
    }
}


// ************************************************************************* //
