/*--------------------------------*- C++ -*----------------------------------*\
| =========                 |                                                 |
| \\      /  F ield         | OpenFOAM: The Open Source CFD Toolbox           |
|  \\    /   O peration     | Version:  2406                                  |
|   \\  /    A nd           | Website:  www.openfoam.com                      |
|    \\/     M anipulation  |                                                 |
\*---------------------------------------------------------------------------*/
FoamFile
{
    version     2.0;
    format      ascii;
    arch        "LSB;label=32;scalar=64";
    class       volScalarField;
    location    "0.001";
    object      iDof;
}
// * * * * * * * * * * * * * * * * * * * * * * * * * * * * * * * * * * * * * //

dimensions      [0 -3 0 0 0 0 0];

internalField   nonuniform List<scalar> 
546
(
7.627526718e+20
5.197896538e+20
7.057975416e+20
7.56963733e+20
7.164566291e+20
6.520457758e+20
5.866472621e+20
5.91179767e+20
6.434454829e+20
5.04384877e+20
8.714987673e+20
5.856311954e+20
7.379220801e+20
3.471535626e+20
5.749820323e+20
7.813578014e+20
4.828732361e+20
4.612891705e+20
4.910277345e+20
4.430818658e+20
5.783248621e+20
6.893958983e+20
6.151796258e+20
4.587065664e+20
4.900091882e+20
4.120055044e+20
6.928939768e+20
5.593806061e+20
3.669506506e+20
3.703663331e+20
4.486780426e+20
5.875883043e+20
4.781209153e+20
6.422722583e+20
4.853415875e+20
6.054710779e+20
6.570449336e+20
5.675325763e+20
4.766262837e+20
5.284032041e+20
5.083742809e+20
6.100324952e+20
3.443636371e+20
5.951203925e+20
6.74978907e+20
4.78896717e+20
3.812157127e+20
7.175609312e+20
4.910277341e+20
6.255273405e+20
4.994623813e+20
4.50758857e+20
4.279510444e+20
3.777583488e+20
2.994500594e+20
4.669395721e+20
6.374624592e+20
6.153186673e+20
3.951776238e+20
3.133868972e+20
5.608475528e+20
5.649887541e+20
3.870502648e+20
5.734573735e+20
5.546761004e+20
5.12321681e+20
5.631813712e+20
4.965910043e+20
3.57469713e+20
5.04384877e+20
5.567908787e+20
4.880259961e+20
4.91948053e+20
4.959336604e+20
4.749851571e+20
6.301272592e+20
5.337019978e+20
6.150522268e+20
3.876534746e+20
5.734000621e+20
2.891624308e+20
5.037893103e+20
5.349388055e+20
8.904303936e+20
4.355637228e+20
4.39472538e+20
4.157363861e+20
3.63597394e+20
5.080855163e+20
2.848971796e+20
4.03810238e+20
6.10187854e+20
6.147268911e+20
3.899510142e+20
6.471221167e+20
3.958849353e+20
4.693178097e+20
6.148269577e+20
4.527949695e+20
5.04384877e+20
4.115410846e+20
3.41618197e+20
6.395324689e+20
5.703237099e+20
5.249835947e+20
6.301272592e+20
5.337019978e+20
3.844076417e+20
6.202455589e+20
7.297818972e+20
2.1029995e+20
4.242436301e+20
4.012041038e+20
4.58706566e+20
5.444546535e+20
3.296044035e+20
4.988836637e+20
3.356283643e+20
3.951776241e+20
3.703663321e+20
4.03810238e+20
5.875883039e+20
4.553532523e+20
5.275807832e+20
4.853415875e+20
4.424596339e+20
5.397154812e+20
3.547078602e+20
4.051323411e+20
5.284032041e+20
6.536240755e+20
6.100324956e+20
4.181558454e+20
3.967469286e+20
2.49992188e+20
4.032814459e+20
3.558013321e+20
5.894250516e+20
6.460891244e+20
5.734000616e+20
4.994623805e+20
4.772740831e+20
5.34938805e+20
3.777583488e+20
5.172319217e+20
5.493406716e+20
3.048733487e+20
2.517212737e+20
3.66950651e+20
4.273457701e+20
3.813763364e+20
4.067919033e+20
5.464239036e+20
4.587658991e+20
3.004495544e+20
4.890343322e+20
4.458519192e+20
3.783550509e+20
5.719515404e+20
5.284032041e+20
5.325825796e+20
3.904207966e+20
4.919480526e+20
3.96746928e+20
5.499828131e+20
4.284865362e+20
6.099451403e+20
3.587804656e+20
6.460891244e+20
5.734000626e+20
4.994623813e+20
4.772740847e+20
5.616857486e+20
4.04741088e+20
3.538955223e+20
3.845384708e+20
4.711679067e+20
3.356283643e+20
3.387236766e+20
5.128149195e+20
4.486780422e+20
5.197896534e+20
3.870502645e+20
4.358276035e+20
5.084530917e+20
6.287584271e+20
4.693178097e+20
6.384741484e+20
4.289636553e+20
6.725131693e+20
5.567908795e+20
3.660194974e+20
4.919480534e+20
3.471535626e+20
3.749882817e+20
4.536916262e+20
5.337019978e+20
5.125435223e+20
5.944019964e+20
4.691455089e+20
4.994623847e+20
3.712131782e+20
2.407224629e+20
3.237928726e+20
3.266727961e+20
5.768077112e+20
4.98883666e+20
3.356283643e+20
3.387236796e+20
3.703663375e+20
3.813763359e+20
2.259955017e+20
4.098179277e+20
6.422722588e+20
5.315645958e+20
3.260228879e+20
3.285224668e+20
5.91179767e+20
4.527949698e+20
6.004581869e+20
3.38916187e+20
5.368285953e+20
6.641298716e+20
2.479668304e+20
4.749851583e+20
3.780763564e+20
4.574588545e+20
7.175609277e+20
5.685584266e+20
4.691455034e+20
4.731748836e+20
4.242436251e+20
5.88432682e+20
4.047410873e+20
5.444546507e+20
4.944066009e+20
3.880206222e+20
5.873496322e+20
2.822697305e+20
3.988560485e+20
4.038102383e+20
3.389932525e+20
3.187472766e+20
3.440744241e+20
4.160070753e+20
3.958849356e+20
4.223860287e+20
3.547078602e+20
4.289636553e+20
6.004581864e+20
4.357493826e+20
7.076376949e+20
5.903376645e+20
3.967469293e+20
5.49982814e+20
6.301272551e+20
3.303869505e+20
6.40679405e+20
5.42714864e+20
3.909545862e+20
6.046123564e+20
4.507588593e+20
5.616857467e+20
5.666375222e+20
5.444546507e+20
4.944066053e+20
4.711679067e+20
4.754735161e+20
3.387236766e+20
3.703663341e+20
2.692068253e+20
1.129977507e+20
2.276766263e+20
4.358276038e+20
3.697840667e+20
3.958849353e+20
3.285224663e+20
5.202381958e+20
3.574697125e+20
4.803665477e+20
4.357493853e+20
3.41618197e+20
3.443636357e+20
3.471535626e+20
4.999843743e+20
5.293068986e+20
6.607739063e+20
5.894250526e+20
4.651841692e+20
8.861637361e+20
5.520373688e+20
5.303045358e+20
4.546979854e+20
3.777583482e+20
3.811182588e+20
5.768077062e+20
4.157363846e+20
5.593806071e+20
4.234045957e+20
5.128149195e+20
2.01905119e+20
3.841923517e+20
3.187472755e+20
4.12889308e+20
3.235610583e+20
3.72597587e+20
2.815906871e+20
3.783550526e+20
4.289636559e+20
4.083115661e+20
4.599576803e+20
5.368285953e+20
4.673506522e+20
3.967469286e+20
5.499828162e+20
4.284865369e+20
5.08287612e+20
4.356619918e+20
3.618099093e+20
4.170182253e+20
3.680249126e+20
4.507588593e+20
4.814449258e+20
4.047410873e+20
2.994500579e+20
4.944066053e+20
3.048733514e+20
4.475044857e+20
5.363124928e+20
2.564074644e+20
2.243390219e+20
2.711946032e+20
2.73211953e+20
2.064446549e+20
2.311150415e+20
3.260228867e+20
3.285224643e+20
3.783550469e+20
4.766262807e+20
4.083115693e+20
3.389161907e+20
3.660194997e+20
3.93558444e+20
3.967469286e+20
3.49989062e+20
4.788967178e+20
3.812157152e+20
3.075261144e+20
5.944019939e+20
4.430818643e+20
4.468873901e+20
6.363654376e+20
6.419265567e+20
6.745684789e+20
6.261228592e+20
4.12005508e+20
4.157363883e+20
5.593806071e+20
4.516315688e+20
4.843252017e+20
2.019051184e+20
1.581968501e+20
2.276766258e+20
2.752595399e+20
2.542265456e+20
3.493102383e+20
2.815906879e+20
2.837662895e+20
3.574697133e+20
4.083115661e+20
4.115410823e+20
2.928155952e+20
3.935584409e+20
5.207303438e+20
5.999812492e+20
4.032814433e+20
3.812157121e+20
4.100348192e+20
2.325920846e+20
5.473364252e+20
3.680249157e+20
3.977284053e+20
4.279510451e+20
4.317238265e+20
3.538955229e+20
4.394725342e+20
4.157363846e+20
4.195354554e+20
4.516315688e+20
4.843252017e+20
3.365085307e+20
3.615928029e+20
1.821413007e+20
2.52321243e+20
2.311150415e+20
1.862987924e+20
2.346589031e+20
1.891775249e+20
4.051323417e+20
4.083115661e+20
4.115410823e+20
5.124272955e+20
4.181558434e+20
5.207303397e+20
4.749851556e+20
4.284865369e+20
5.845307585e+20
6.406793997e+20
3.359663444e+20
4.170182253e+20
5.257498707e+20
7.159111234e+20
4.012041048e+20
3.50775609e+20
4.355637205e+20
6.317417734e+20
6.928939743e+20
2.51721271e+20
6.774473532e+20
4.273457701e+20
1.570373155e+20
2.937941545e+20
1.82141302e+20
3.670127198e+20
2.311150432e+20
2.328734922e+20
4.223860287e+20
1.418831447e+20
2.14481828e+20
1.921466194e+20
4.115410855e+20
5.368285995e+20
3.93558444e+20
3.967469286e+20
5.249835973e+20
4.536916273e+20
4.574588545e+20
4.869163478e+20
3.359663472e+20
4.170182287e+20
4.468873938e+20
5.037893133e+20
5.88432687e+20
4.856893048e+20
6.805683193e+20
3.021373726e+20
4.711679067e+20
5.034425464e+20
1.975888131e+20
5.128149242e+20
2.243390205e+20
1.355973001e+20
2.73211951e+20
1.835063599e+20
9.24460166e+19
1.862987938e+20
2.11193016e+20
3.31060671e+20
3.098070872e+20
2.882199313e+20
4.599576803e+20
3.416181944e+20
3.197662332e+20
2.479668304e+20
3.49989062e+20
3.024610849e+20
4.828732392e+20
4.100348192e+20
3.618099093e+20
5.212727859e+20
4.205999036e+20
3.977284053e+20
3.209632838e+20
5.126720439e+20
4.08340988e+20
6.592088013e+20
6.928939743e+20
3.356283643e+20
4.516315688e+20
3.140746287e+20
2.033959516e+20
3.187472785e+20
2.064446549e+20
2.773380498e+20
2.561608395e+20
1.877271225e+20
3.074134756e+20
3.574697106e+20
2.40183276e+20
4.599576874e+20
3.172168997e+20
2.213766247e+20
2.727635134e+20
2.249929685e+20
4.788967139e+20
2.795581889e+20
3.84407643e+20
3.101227794e+20
3.127636689e+20
3.94312403e+20
4.507588516e+20
4.546979816e+20
5.666375271e+20
5.716773932e+20
1.794712177e+20
3.389932527e+20
2.049089618e+20
3.89951012e+20
3.004495539e+20
3.027355399e+20
2.11193016e+20
3.547078618e+20
1.429878853e+20
2.88219929e+20
2.662912886e+20
2.440129979e+20
5.165454577e+20
2.975601965e+20
1.749945324e+20
4.032814498e+20
4.066300929e+20
3.844076398e+20
6.719326888e+20
2.916407287e+20
2.033959516e+20
9.1070651e+19
1.146914749e+20
2.542265456e+20
1.862987924e+20
1.642612322e+20
1.418831437e+20
1.429878853e+20
1.681282919e+20
1.210414957e+20
1.708090985e+20
1.967792204e+20
2.975601965e+20
2.467729225e+20
3.163937003e+20
3.187472762e+20
2.293829499e+20
1.848920346e+20
1.630114445e+20
4.693178097e+20
3.074134802e+20
8.973560883e+19
)
;

boundaryField
{
    flow
    {
        type            zeroGradient;
    }
    obstacle
    {
        type            calculated;
        value           nonuniform List<scalar> 
30
(
1e-300
309.2323091
68.75567276
347.7930862
379.161231
1e-300
1e-300
214.9471818
951.6730783
238.8958124
406.516073
1e-300
579.1375925
121.0638277
212.4364386
1e-300
215.4299068
1e-300
1e-300
1e-300
225.3935844
584.8317919
93.60441358
190.592916
761.1828496
471.8449493
179.8703936
148.2518935
134.0894138
1e-300
)
;
    }
    frontAndBack
    {
        type            empty;
    }
    procBoundary1to0
    {
        type            processor;
        value           nonuniform List<scalar> 
21
(
5.790372824e+20
4.008719647e+20
6.458492765e+20
5.34495953e+20
4.899546239e+20
4.454132945e+20
4.676839589e+20
1.781653177e+20
3.340599706e+20
3.340599706e+20
2.004359824e+20
1.336239888e+20
2.004359824e+20
1.781653164e+20
1.55894653e+20
1.781653177e+20
8.908265883e+19
2.672479765e+20
2.004359838e+20
1.113533235e+20
2.227066471e+20
)
;
    }
    procBoundary1to3
    {
        type            processor;
        value           nonuniform List<scalar> 
36
(
4.273457701e+20
3.296044064e+20
3.880206291e+20
3.635973946e+20
4.273457701e+20
3.669506496e+20
2.606363908e+20
4.205999001e+20
3.181827242e+20
4.012041048e+20
5.126720439e+20
3.296044064e+20
4.900091856e+20
3.249898433e+20
2.772559923e+20
2.541438081e+20
4.100348192e+20
2.606363908e+20
2.842792145e+20
2.621444564e+20
1.200916371e+20
1.936663917e+20
1.220064989e+20
2.213766247e+20
3.249898433e+20
4.463402947e+20
2.033959531e+20
1.82141302e+20
1.376297699e+20
3.928955705e+20
2.328734922e+20
1.877271253e+20
2.621444564e+20
1.891775263e+20
2.033959531e+20
3.813763348e+20
)
;
    }
}


// ************************************************************************* //
