/*--------------------------------*- C++ -*----------------------------------*\
| =========                 |                                                 |
| \\      /  F ield         | OpenFOAM: The Open Source CFD Toolbox           |
|  \\    /   O peration     | Version:  2406                                  |
|   \\  /    A nd           | Website:  www.openfoam.com                      |
|    \\/     M anipulation  |                                                 |
\*---------------------------------------------------------------------------*/
FoamFile
{
    version     2.0;
    format      ascii;
    arch        "LSB;label=32;scalar=64";
    class       volScalarField;
    location    "0.001";
    object      iDofMean;
}
// * * * * * * * * * * * * * * * * * * * * * * * * * * * * * * * * * * * * * //

dimensions      [0 -3 0 0 0 0 0];

internalField   nonuniform List<scalar> 
546
(
5.96562325e+20
5.971253145e+20
5.667781936e+20
5.554278736e+20
5.582814946e+20
5.446445216e+20
5.674052319e+20
5.479054081e+20
5.579387276e+20
5.572251974e+20
5.633271199e+20
5.597658176e+20
5.08723482e+20
5.343189261e+20
5.182338057e+20
5.099997985e+20
5.069152404e+20
5.103908399e+20
5.086013587e+20
5.084494728e+20
4.78064361e+20
5.033650667e+20
5.218862982e+20
5.251920358e+20
4.950726164e+20
4.793546709e+20
4.666225197e+20
4.515320253e+20
4.302355244e+20
3.464919495e+20
5.382341798e+20
5.299594514e+20
5.257964008e+20
5.040002164e+20
4.852491415e+20
4.888480334e+20
4.954588117e+20
5.109212019e+20
5.008388989e+20
4.990528079e+20
4.901212234e+20
4.807056062e+20
4.849623907e+20
4.794686629e+20
4.812349615e+20
4.669999143e+20
4.679804089e+20
4.653382639e+20
4.630649968e+20
4.460009938e+20
4.426288198e+20
4.549482628e+20
4.587100257e+20
4.504498482e+20
4.389393417e+20
4.597981433e+20
4.372438155e+20
4.0208278e+20
3.961373408e+20
3.205663062e+20
4.873989573e+20
4.938001711e+20
4.747968365e+20
4.634453109e+20
4.582086819e+20
4.759002669e+20
4.583827044e+20
4.639578812e+20
4.815355347e+20
4.77100057e+20
4.850374802e+20
4.640151171e+20
4.709418711e+20
4.621605781e+20
4.539358149e+20
4.52128911e+20
4.515118901e+20
4.407874292e+20
4.339651431e+20
4.278085736e+20
4.22282299e+20
4.158117876e+20
4.372589796e+20
4.325333094e+20
4.146566641e+20
4.090939988e+20
4.181753729e+20
4.003486998e+20
3.749106571e+20
3.30708646e+20
4.261992723e+20
4.510418219e+20
4.728843529e+20
4.552792783e+20
4.504894392e+20
4.628127767e+20
4.584296365e+20
4.627282272e+20
4.619461941e+20
4.501034569e+20
4.470788676e+20
4.527417163e+20
4.469348062e+20
4.692028365e+20
4.352363993e+20
4.393247251e+20
4.373814944e+20
4.490906342e+20
4.491611589e+20
4.371393565e+20
4.106106524e+20
3.977284032e+20
3.99331818e+20
4.128359094e+20
4.185222922e+20
3.990410645e+20
3.908476348e+20
3.811060076e+20
3.644102234e+20
3.384578481e+20
4.332883854e+20
4.352221368e+20
4.51391679e+20
4.599586898e+20
4.622763063e+20
4.555936988e+20
4.517653236e+20
4.46695432e+20
4.525089937e+20
4.506798964e+20
4.488702818e+20
4.482518778e+20
4.483614559e+20
4.434142861e+20
4.260366867e+20
4.413915425e+20
4.423627134e+20
4.533447462e+20
4.26367135e+20
4.313011009e+20
4.082973523e+20
3.975162807e+20
3.946778504e+20
4.092202227e+20
4.064353996e+20
3.920644373e+20
4.034860191e+20
3.690233872e+20
3.619827037e+20
3.300818729e+20
3.906191041e+20
4.060687177e+20
4.265293921e+20
4.306894261e+20
4.331558114e+20
4.475828507e+20
4.345882918e+20
4.433848253e+20
4.589434485e+20
4.505357864e+20
4.375407974e+20
4.368320688e+20
4.356200006e+20
4.403394967e+20
4.428861599e+20
4.320152489e+20
4.296046938e+20
4.41197464e+20
4.237310913e+20
4.27443683e+20
4.235440994e+20
4.073799465e+20
4.056440983e+20
3.977795413e+20
4.041486865e+20
3.987114601e+20
3.936192124e+20
3.784209807e+20
3.700556167e+20
3.388567029e+20
3.542761821e+20
3.79898438e+20
3.873234764e+20
4.093568112e+20
4.125865724e+20
4.36730946e+20
4.35620791e+20
4.262642592e+20
4.357317485e+20
4.362208636e+20
4.35507301e+20
4.308781523e+20
4.354232221e+20
4.422240453e+20
4.280366239e+20
4.152286584e+20
4.151693255e+20
4.220283363e+20
4.244547125e+20
4.146203753e+20
4.173928286e+20
4.087057092e+20
4.030763906e+20
4.130517745e+20
4.128055233e+20
4.068966397e+20
3.932311918e+20
3.873710704e+20
3.705072516e+20
3.511072879e+20
3.349830263e+20
3.417051985e+20
3.602299584e+20
3.764632968e+20
3.854536665e+20
3.942548208e+20
4.152054662e+20
4.218658818e+20
4.243403807e+20
4.273340824e+20
4.354104671e+20
4.290236529e+20
4.337505983e+20
4.328013058e+20
4.453360847e+20
4.406353909e+20
4.318411586e+20
4.29716487e+20
4.229040951e+20
4.251500807e+20
4.245955956e+20
4.098723723e+20
4.193920206e+20
4.153183211e+20
4.061631694e+20
4.110166876e+20
4.060358654e+20
3.933005014e+20
3.936533661e+20
3.733862408e+20
2.964864505e+20
3.156253176e+20
3.348212464e+20
3.408630628e+20
3.653004351e+20
3.755783671e+20
3.778947004e+20
3.96847154e+20
4.103275676e+20
4.180149711e+20
4.147365791e+20
4.187751076e+20
4.163356379e+20
4.285858703e+20
4.289865949e+20
4.319648359e+20
4.330102202e+20
4.304853058e+20
4.400125369e+20
4.309362085e+20
4.120301771e+20
4.114632929e+20
4.084257787e+20
4.080329815e+20
4.148744438e+20
3.978874491e+20
4.047609476e+20
4.031456036e+20
3.906048531e+20
3.793121056e+20
2.640918957e+20
2.741777424e+20
2.948412311e+20
3.141628875e+20
3.291078193e+20
3.464226057e+20
3.625010757e+20
3.69747474e+20
3.927400574e+20
4.002894442e+20
4.047627624e+20
4.054031947e+20
4.153025447e+20
4.285362763e+20
4.226867901e+20
4.32973043e+20
4.292488953e+20
4.282813686e+20
4.221804771e+20
4.289553755e+20
4.301159728e+20
4.262057555e+20
4.28913935e+20
4.160738378e+20
4.160178022e+20
4.220584387e+20
4.069782048e+20
3.958177176e+20
3.73894485e+20
3.690558037e+20
2.50945629e+20
2.654995146e+20
2.730298091e+20
2.790672956e+20
2.929152038e+20
3.081847791e+20
3.302589442e+20
3.507351338e+20
3.655723601e+20
3.898654907e+20
4.009378474e+20
4.049639713e+20
4.027086778e+20
4.081534028e+20
4.217368231e+20
4.131114318e+20
4.171008144e+20
4.17927986e+20
4.223872256e+20
4.313532268e+20
4.469399688e+20
4.37289124e+20
4.241529796e+20
4.252479691e+20
3.991397044e+20
4.051936801e+20
4.151820731e+20
4.25632704e+20
4.149365076e+20
3.981723025e+20
2.429591607e+20
2.498606277e+20
2.624200808e+20
2.712682765e+20
2.801114303e+20
2.884371053e+20
3.091865707e+20
3.210342573e+20
3.323515056e+20
3.413965086e+20
3.55523084e+20
3.740231261e+20
3.95575431e+20
3.843485871e+20
3.942376792e+20
4.127081503e+20
4.108488834e+20
4.266412294e+20
4.374281804e+20
4.331255542e+20
4.214936713e+20
4.200542193e+20
4.200339436e+20
4.297271038e+20
4.320792183e+20
4.363962341e+20
4.295388364e+20
4.135500829e+20
4.093475632e+20
4.065482723e+20
2.288706687e+20
2.32232976e+20
2.415649e+20
2.49843909e+20
2.61760896e+20
2.744181232e+20
2.844065948e+20
2.912860961e+20
2.969858378e+20
3.134391728e+20
3.311695298e+20
3.452783893e+20
3.635496097e+20
3.78099823e+20
3.923377385e+20
3.957703264e+20
4.080024694e+20
4.083434256e+20
4.097238788e+20
4.200416109e+20
4.295376516e+20
4.321982004e+20
4.350122374e+20
4.319936539e+20
4.212445632e+20
4.183229185e+20
4.127985142e+20
3.983349303e+20
4.060732343e+20
4.009642876e+20
2.174742464e+20
2.215207909e+20
2.244436177e+20
2.385582661e+20
2.436876997e+20
2.455883831e+20
2.553088866e+20
2.662673663e+20
2.861187585e+20
2.998447995e+20
3.134006383e+20
3.300031783e+20
3.431829604e+20
3.617836027e+20
3.655385761e+20
3.800927634e+20
3.847228966e+20
4.006552694e+20
3.949930467e+20
3.968449686e+20
4.076664497e+20
4.109860153e+20
4.159684159e+20
4.206609034e+20
4.128599616e+20
4.051936801e+20
4.163461313e+20
4.154519732e+20
4.016698265e+20
4.066622349e+20
2.205701265e+20
2.255435124e+20
2.280864454e+20
2.291535669e+20
2.35321337e+20
2.482897174e+20
2.564352512e+20
2.680172604e+20
2.756806429e+20
2.845691433e+20
2.915163383e+20
2.934500335e+20
3.08057872e+20
3.276633697e+20
3.472891492e+20
3.59374179e+20
3.700842133e+20
3.693388634e+20
3.914783252e+20
4.036736454e+20
4.104003525e+20
4.153875464e+20
4.211573223e+20
4.152643556e+20
4.300102869e+20
4.236515304e+20
4.233305063e+20
4.32121519e+20
4.272434679e+20
4.148102942e+20
2.112376217e+20
2.130233585e+20
2.158374413e+20
2.18739581e+20
2.296821282e+20
2.312433778e+20
2.409946971e+20
2.46403728e+20
2.528502458e+20
2.588695349e+20
2.695836172e+20
2.838847195e+20
2.912332462e+20
3.002878316e+20
3.157401324e+20
3.292793011e+20
3.435007738e+20
3.580116515e+20
3.597424242e+20
3.803206246e+20
3.915785103e+20
4.01440537e+20
4.063930112e+20
4.275145192e+20
4.268524461e+20
4.33539655e+20
4.221110092e+20
4.310027578e+20
4.276386417e+20
2.128977304e+20
2.147409258e+20
2.168847553e+20
2.22317955e+20
2.221477779e+20
2.270050785e+20
2.331101543e+20
2.379380301e+20
2.418401749e+20
2.540658694e+20
2.579636377e+20
2.640220658e+20
2.711125731e+20
2.825334066e+20
2.974907027e+20
3.060906154e+20
3.242366703e+20
3.360235343e+20
3.528163487e+20
3.495655273e+20
3.596129115e+20
3.795919835e+20
3.896494233e+20
3.974557512e+20
4.030597849e+20
2.115516978e+20
2.118933825e+20
2.177954587e+20
2.130967589e+20
2.17017024e+20
2.202517489e+20
2.204855087e+20
2.223308878e+20
2.317833621e+20
2.374932215e+20
2.408725747e+20
2.473803772e+20
2.580267548e+20
2.639358943e+20
2.745414222e+20
2.907659253e+20
3.021769878e+20
3.232099436e+20
3.295571403e+20
2.107889451e+20
2.108086041e+20
2.116481929e+20
2.141977986e+20
2.132729603e+20
2.155942775e+20
2.240053889e+20
2.267765579e+20
2.273507376e+20
2.19191256e+20
2.308503407e+20
2.398647769e+20
2.444489866e+20
2.577863169e+20
2.113273573e+20
2.112153945e+20
2.086883952e+20
2.124544882e+20
2.124871707e+20
2.101450394e+20
2.098789245e+20
2.126355396e+20
1.994373906e+20
)
;

boundaryField
{
    flow
    {
        type            calculated;
        value           nonuniform List<scalar> 
15
(
3.464919495e+20
3.205663062e+20
3.30708646e+20
3.384578481e+20
3.300818729e+20
3.388567029e+20
3.511072879e+20
3.733862408e+20
3.793121056e+20
3.690558037e+20
3.981723025e+20
4.065482723e+20
4.009642876e+20
4.066622349e+20
4.148102942e+20
)
;
    }
    obstacle
    {
        type            calculated;
        value           nonuniform List<scalar> 
30
(
267.5507172
275.1643652
250.3769715
254.169447
256.8953209
240.4121444
252.1197272
240.7110034
249.4581119
245.0333303
248.2291772
246.1785669
227.0457448
260.1613614
271.2232904
227.6517795
232.8515392
222.3531931
214.0508385
242.4915906
206.7473529
210.2965325
246.6961391
219.3235648
217.6127942
196.6917581
192.833515
207.0325549
172.8714389
166.6890086
)
;
    }
    frontAndBack
    {
        type            empty;
    }
    procBoundary1to0
    {
        type            processor;
        value           nonuniform List<scalar> 
21
(
6.109288743e+20
5.185056157e+20
4.871485198e+20
4.401128759e+20
4.24523411e+20
3.678222986e+20
3.397612608e+20
3.099185701e+20
2.84619095e+20
2.584733346e+20
2.38786067e+20
2.316149139e+20
2.268489907e+20
2.128630118e+20
2.126403066e+20
2.142437945e+20
2.092106243e+20
2.128630133e+20
2.052019061e+20
2.121058107e+20
1.990997425e+20
)
;
    }
    procBoundary1to3
    {
        type            processor;
        value           nonuniform List<scalar> 
36
(
4.195395874e+20
4.116209696e+20
4.206697934e+20
4.179691897e+20
4.195395874e+20
4.253804839e+20
3.443006722e+20
3.533564911e+20
3.646374019e+20
3.80929924e+20
3.911957523e+20
4.116209696e+20
4.035497871e+20
2.653917059e+20
2.778609144e+20
2.838786336e+20
2.934311675e+20
3.443006722e+20
3.105362765e+20
2.189144524e+20
2.267330108e+20
2.282358426e+20
2.351309248e+20
2.374633261e+20
2.653917059e+20
2.416188795e+20
2.016331882e+20
2.024955925e+20
2.009853407e+20
2.038896896e+20
2.087012237e+20
2.046694984e+20
2.189144524e+20
2.119734182e+20
2.016331882e+20
1.973734702e+20
)
;
    }
}


// ************************************************************************* //
