/*--------------------------------*- C++ -*----------------------------------*\
| =========                 |                                                 |
| \\      /  F ield         | OpenFOAM: The Open Source CFD Toolbox           |
|  \\    /   O peration     | Version:  2406                                  |
|   \\  /    A nd           | Website:  www.openfoam.com                      |
|    \\/     M anipulation  |                                                 |
\*---------------------------------------------------------------------------*/
FoamFile
{
    version     2.0;
    format      ascii;
    arch        "LSB;label=32;scalar=64";
    class       volScalarField;
    location    "0.001";
    object      internalEMean;
}
// * * * * * * * * * * * * * * * * * * * * * * * * * * * * * * * * * * * * * //

dimensions      [1 -1 -2 0 0 0 0];

internalField   nonuniform List<scalar> 
546
(
2.763963503
2.778974246
2.738723817
2.728843245
2.735681624
2.552477699
2.828499219
2.668394251
2.657724353
2.564813546
2.612867572
2.711365238
2.393302559
2.526344378
2.550745576
2.516490897
2.451722515
2.401766376
2.532819038
2.449502862
2.278326191
2.384757531
2.39659659
2.452966497
2.253312452
2.260933537
2.139123315
2.129894173
2.008107974
1.647432716
2.788582506
2.713961124
2.685769679
2.596672631
2.568190711
2.554684785
2.563358625
2.624090874
2.554739628
2.61291703
2.502138564
2.504342836
2.420466056
2.494979217
2.5641665
2.43196673
2.417251454
2.388699943
2.409571108
2.287690897
2.264756048
2.296244482
2.382124718
2.334889277
2.252750863
2.337991736
2.214901154
2.052681114
2.016968772
1.685732905
2.564266685
2.59870072
2.455374467
2.411761077
2.545697113
2.598701481
2.438580104
2.506215062
2.589948621
2.67009073
2.6676258
2.522267873
2.503871121
2.483158589
2.491998194
2.497012225
2.502566455
2.36719142
2.305340393
2.285509879
2.274073988
2.324759264
2.369703355
2.353153228
2.177943563
1.986566094
2.147958877
2.101747124
1.921740816
1.710160078
2.096910121
2.332670671
2.46675994
2.381457411
2.39144736
2.507474758
2.450231301
2.410079577
2.430170007
2.420613963
2.481681387
2.553722911
2.448371593
2.53324945
2.307823478
2.409233014
2.307198015
2.446626953
2.385511408
2.37464675
2.319194721
2.155323459
2.126623586
2.215764876
2.314034393
2.186376233
2.159998987
1.975485156
1.802738348
1.752037259
1.90836309
1.945720639
2.071739528
2.196428693
2.283870036
2.304067262
2.271152886
2.301442779
2.322312629
2.322618227
2.432985936
2.365809554
2.296341846
2.309908488
2.255405181
2.32608363
2.423070164
2.43047557
2.35863467
2.346785794
2.206690501
2.098692255
2.093166704
2.205559409
2.219867415
2.139538587
2.147206249
1.935927219
1.903233969
1.722010462
1.604852173
1.736679173
1.878803775
1.953245268
1.975359252
2.206630594
2.11145672
2.334831587
2.364360157
2.353662856
2.200687857
2.250916253
2.286565305
2.30817494
2.250196462
2.190711264
2.304986165
2.361380133
2.206895069
2.226586988
2.217930675
2.153192941
2.194596104
2.15482279
2.174081617
2.157476714
2.088012137
1.989151032
1.916493102
1.745909515
1.370612597
1.572866272
1.643125676
1.785454292
1.885362712
2.064236274
2.007903985
1.94996928
2.124055491
2.126294593
2.169889742
2.274397369
2.221911773
2.275679904
2.188508019
2.21980762
2.133979869
2.160780097
2.187433551
2.140886656
2.233002516
2.109663172
2.081542203
2.187167557
2.240957033
2.188855435
2.041178165
2.021843404
1.878925994
1.770929904
1.181098607
1.280398707
1.406887895
1.534876152
1.611379633
1.698787301
1.885246623
1.896356024
1.916447769
2.033303556
2.06574501
2.031160138
2.082028997
2.103382186
2.222609328
2.214987268
2.223140294
2.213840697
2.189203697
2.243074635
2.158256754
2.035053626
2.076697906
2.126214839
2.096754944
2.047916139
2.057794636
2.024889256
2.005825149
1.925658823
0.9994145261
1.073999803
1.155794754
1.225310078
1.399910297
1.47415812
1.535997838
1.655183906
1.781315976
1.846000054
1.87597806
1.894458763
1.920087619
2.026953767
2.091913988
2.148019761
2.206704144
2.131903395
2.094045654
2.161150302
2.122180033
2.095829667
2.063161393
1.998517898
1.993539302
1.947528718
2.004681303
2.03367111
2.008630829
1.914953301
0.7482991745
0.8226943139
0.9494157407
1.06214291
1.177894215
1.31686028
1.41271076
1.46956774
1.609548459
1.638017719
1.731205816
1.755825975
1.781689554
1.865988597
1.88920733
1.996540776
1.99840782
2.032605363
2.085062275
2.04341988
2.051747422
2.088538318
2.102616161
2.114357567
2.043848044
2.044813388
1.995305519
1.929684671
1.831558288
1.768968288
0.7031124778
0.7535673335
0.8155615809
0.8704056814
0.9236546772
1.024790135
1.167528839
1.259680656
1.363034088
1.529152711
1.621964679
1.66964957
1.663651746
1.720253843
1.864542429
1.816792879
1.890968387
1.951308748
1.950325007
2.047831198
2.168554149
2.107543184
2.05239272
2.124522618
2.007670601
1.973634708
1.949925517
2.042965642
2.033929002
1.974487544
0.6528547674
0.6973576285
0.7590756758
0.7862524459
0.8210408651
0.8374860626
0.9864546037
1.097593332
1.164579059
1.259723734
1.354573945
1.429921824
1.596297
1.546871772
1.650923427
1.719132626
1.705748121
1.879054122
1.963425793
1.957260154
1.921786889
1.965369341
1.975963565
2.032337264
2.091265264
2.114349183
2.153071111
2.066407749
2.043846822
1.980726065
0.5644755945
0.5957836155
0.673446108
0.7179817598
0.7646974889
0.821388043
0.8825897476
0.9297574445
0.9767884484
1.033615333
1.148726667
1.281906224
1.358596741
1.477289432
1.547592733
1.55491023
1.673995765
1.674799974
1.71664822
1.829123708
1.92686442
1.977041511
2.013055772
2.010259339
1.942176969
1.909879102
1.892779359
1.871919271
1.916388956
1.907755115
0.4945583397
0.5151680276
0.5483877453
0.6248497141
0.6599272922
0.6919022236
0.7237105274
0.8032148699
0.8687837414
0.9180036751
0.9881953254
1.089317747
1.170946491
1.280752415
1.364355603
1.435385006
1.490747277
1.532423904
1.6025951
1.60436323
1.687682355
1.736890353
1.833329253
1.844888407
1.830785879
1.792246618
1.867098595
1.833144335
1.828338967
1.78728717
0.4972563451
0.5149982456
0.529044808
0.5441659432
0.5774263455
0.6385257364
0.679712633
0.7183649923
0.7874893304
0.818207875
0.8902199092
0.9092515238
0.9744902092
1.065172963
1.166821706
1.248081897
1.340875267
1.37962041
1.507300797
1.58604275
1.633347171
1.720219015
1.780417623
1.76502927
1.859111842
1.873154496
1.864344578
1.928649212
1.869034339
1.833159674
0.4806630672
0.4953394377
0.4850425616
0.5028827093
0.5339428543
0.5636777681
0.6023549217
0.66210436
0.6790134971
0.7083466106
0.7724822872
0.82346851
0.8947190359
0.9156741959
1.011373503
1.119103027
1.196922253
1.294639985
1.359564454
1.471454943
1.522852942
1.564600098
1.595267464
1.741580398
1.736440948
1.83459396
1.794883434
1.843763359
1.83148849
0.4581006314
0.4632767288
0.4791864452
0.4958873035
0.4887177844
0.5059054428
0.5605237739
0.5978223534
0.6190440572
0.6605023119
0.6664202218
0.7034601799
0.7697452939
0.8369140683
0.8939461091
0.9831767427
1.079680884
1.169585762
1.235974301
1.255413144
1.270420509
1.380476961
1.442405046
1.525496447
1.564245101
0.4519648395
0.4597659452
0.4818162192
0.4813348456
0.4989372983
0.5207184379
0.5072110719
0.5321814124
0.5589873088
0.5752156399
0.6098688723
0.6232792575
0.6681278526
0.7113884476
0.7643862764
0.8030236678
0.8850930636
1.00599187
1.064955262
0.4483420883
0.455347154
0.4641383982
0.4637515582
0.4614405975
0.4706910928
0.5065320475
0.5232843282
0.5430318473
0.5316948332
0.5635123917
0.6132979539
0.633216168
0.7089137575
0.4387423986
0.4333698144
0.4383809662
0.4487864346
0.4634176755
0.4567283002
0.4607955231
0.4766018458
0.4084951267
)
;

boundaryField
{
    flow
    {
        type            calculated;
        value           nonuniform List<scalar> 
15
(
1.647432716
1.685732905
1.710160078
1.752037259
1.722010462
1.745909515
1.770929904
1.925658823
1.914953301
1.768968288
1.974487544
1.980726065
1.907755115
1.78728717
1.833159674
)
;
    }
    obstacle
    {
        type            calculated;
        value           nonuniform List<scalar> 
30
(
1.188544792e-18
1.035425044e-18
1.035524941e-18
1.049067819e-18
1.103129768e-18
1.049878557e-18
1.029201322e-18
1.07079324e-18
1.015145513e-18
9.972755322e-19
1.034110504e-18
1.062087913e-18
9.209057396e-19
1.055002744e-18
1.308577895e-18
1.058230515e-18
9.753242549e-19
9.478421602e-19
9.647106799e-19
9.474309209e-19
8.665487201e-19
8.528535268e-19
9.415050825e-19
9.614272059e-19
1.074944573e-18
8.345085586e-19
7.757447327e-19
9.527948007e-19
7.169556044e-19
6.817546225e-19
)
;
    }
    frontAndBack
    {
        type            empty;
    }
    procBoundary1to0
    {
        type            processor;
        value           nonuniform List<scalar> 
21
(
3.013684754
2.811247365
2.499825126
2.075158954
1.813876914
1.461206812
1.259980416
1.058833007
0.9063561064
0.7363951774
0.6470273144
0.5830541947
0.5377243303
0.4725926745
0.4712613835
0.4814028001
0.4673044632
0.4466908897
0.4255248755
0.4434498772
0.4179761205
)
;
    }
    procBoundary1to3
    {
        type            processor;
        value           nonuniform List<scalar> 
36
(
1.811716739
1.665528306
1.749929638
1.756058148
1.811716739
1.767153258
1.138983649
1.187448511
1.25676044
1.347516664
1.424073274
1.665528306
1.539454139
0.7328037807
0.7838812438
0.8089128612
0.8222681444
1.138983649
0.9212677668
0.5013379512
0.5183849158
0.5257647419
0.5456373731
0.5647034015
0.7328037807
0.5752812123
0.4188296734
0.4342874549
0.4335206996
0.4435017209
0.441393331
0.4482682428
0.5013379512
0.4742824091
0.4188296734
0.4172090968
)
;
    }
}


// ************************************************************************* //
