/*--------------------------------*- C++ -*----------------------------------*\
| =========                 |                                                 |
| \\      /  F ield         | OpenFOAM: The Open Source CFD Toolbox           |
|  \\    /   O peration     | Version:  2406                                  |
|   \\  /    A nd           | Website:  www.openfoam.com                      |
|    \\/     M anipulation  |                                                 |
\*---------------------------------------------------------------------------*/
FoamFile
{
    version     2.0;
    format      ascii;
    arch        "LSB;label=32;scalar=64";
    class       volScalarField;
    location    "0.001";
    object      internalE;
}
// * * * * * * * * * * * * * * * * * * * * * * * * * * * * * * * * * * * * * //

dimensions      [1 -1 -2 0 0 0 0];

internalField   nonuniform List<scalar> 
546
(
2.9008492
1.890963836
4.924423663
3.148457245
3.634444028
2.69069967
2.549481567
2.822100323
2.328870651
2.556167705
3.103013878
3.60880482
3.898555373
1.567458475
2.712746331
4.198262455
2.377849654
1.327572235
2.934610181
1.452644868
2.898208584
2.419795024
2.840082654
3.526600526
1.559342264
2.080386928
3.130750761
2.498213088
1.066443336
1.743770732
1.730854767
2.91516273
3.027317057
2.48739507
2.311501373
3.263318643
2.416180773
3.566713056
2.849274511
2.873300491
3.393185
3.624930088
1.762921724
2.589659831
3.501347831
2.988606881
2.18556369
2.614554286
3.15529244
2.928635224
2.233410032
2.069268635
2.191968877
2.278665301
1.812645997
2.299223603
3.978776364
3.473025172
2.256363643
1.290763432
3.632858972
3.017924084
2.503347944
2.20789606
2.699050136
3.315355276
2.799315373
3.140949199
1.836875397
2.389941427
3.359714228
2.117619955
2.716892021
2.644514814
3.531933815
2.13115415
3.813419352
2.857029064
2.630248968
2.616277715
1.933956223
3.756032901
2.752597939
4.382223718
2.274001764
2.524757753
1.600599156
2.609118645
1.65952971
1.530112739
2.005150601
4.354402129
3.130726128
2.625887112
3.278324421
2.532448218
2.314377362
4.373964911
1.242271314
2.80201289
2.527946035
2.146716927
3.242811514
2.070514281
2.339797336
3.280430236
2.625434802
1.803600636
5.444386252
5.974120241
1.765075104
1.387008409
2.496839711
2.846590195
2.442850003
1.238595725
3.537636436
1.108546114
1.217508612
3.000233143
2.541119567
2.924486978
2.189614489
2.500558254
2.700268051
2.345310636
2.835847835
1.082548617
2.372697074
2.135119794
5.15510075
3.053537832
3.463405633
1.899608677
2.22547295
1.976143955
2.473772363
2.976355268
4.479104512
4.793789137
3.553055019
2.199307303
3.557204348
2.450865986
3.081236541
3.388966284
2.009971004
1.553094028
1.094623597
2.236148196
1.733291335
1.884069122
1.777991943
1.969101836
2.493086545
2.869631887
2.572437111
1.935498282
2.762758867
3.101556127
2.840998287
1.848862747
1.817072386
1.546826249
4.813653442
3.062518109
3.985414418
1.620110453
3.471192266
3.546089363
2.918793172
2.575847581
2.759684448
2.523331143
1.618047295
1.667341637
2.285890446
1.893116509
1.855013411
1.114627907
1.252121527
2.241313664
1.671165229
1.253883034
2.154259934
4.142202737
1.929216332
3.192511491
2.608538761
3.922920134
2.813498387
2.324499519
3.502301367
2.207203238
2.701710514
2.254050376
2.629094589
3.647500688
3.154715013
2.468346074
3.166676317
1.997105175
1.225484489
2.008957958
3.318084031
2.578915045
2.378522277
1.072051622
1.856271618
2.460232415
1.343308816
0.7218739781
2.006549795
1.895919868
2.796708085
1.60227447
1.429671096
3.347765489
1.111309763
2.926255352
1.453479561
2.389503421
3.215765509
1.613281856
2.047670994
2.403697856
1.824909108
3.564055383
3.690793933
3.71630859
3.457163917
1.84736722
2.685193101
2.892401248
2.616689457
3.161857816
2.720281974
3.722346445
1.639983601
1.758775888
0.8607558847
1.271825374
0.5698277888
0.8084493305
1.866521941
1.34378061
2.328484123
1.798385257
2.5093431
1.929376433
1.695323511
4.975314298
2.737129302
1.607683499
2.800651778
3.826279664
1.494644599
3.371486521
3.4530031
2.247172919
3.640543355
2.116339251
3.090013497
2.641644751
3.689456454
3.63445775
1.92111783
3.334151384
1.737423742
3.16713081
0.7430797487
0.1880251102
0.6396098341
1.766070706
1.927009047
1.482839246
1.617082062
2.170780696
1.233209503
2.38160989
1.187215801
1.664064355
1.809275143
0.9087843243
1.576209032
1.779546417
3.363458417
2.477944411
2.22171186
5.298528847
2.790776802
3.670896004
1.683129518
1.220937325
1.573636832
2.665019094
2.473822258
2.687823637
1.948839631
2.008881421
0.4870206591
1.473656634
0.4975567991
1.340972042
0.838823902
1.546722037
1.316779696
0.4587731045
1.326450054
2.785898804
1.952970571
2.471915575
2.186415388
1.322382711
2.097074219
2.008460932
3.065036991
1.73425411
1.890534202
1.488417707
2.090328959
1.470514857
2.248193349
1.539867345
1.584321844
3.062084768
1.192383348
1.746593422
3.285513372
1.625407869
0.8156062577
0.3995346033
1.185418022
1.506365777
0.4491954134
0.9549198263
1.552912741
1.131510615
1.287667622
1.552458542
1.006849762
1.385566317
1.184445592
1.364523095
1.632858828
2.594046018
2.139160934
1.782391629
3.86008699
1.797366712
1.788347194
2.056514087
2.900551915
2.676599279
3.025352084
2.049468219
2.188641206
3.545836795
2.440677811
3.058312312
0.3637853366
0.3424588046
0.5426881048
0.9609093825
1.19224445
1.26833948
0.9808913025
0.4079288709
0.660171677
2.007595686
1.793773636
2.050828612
1.433006632
2.046664193
3.070725209
2.4783322
1.768488348
1.853179594
0.8109912825
3.191247768
2.497953379
2.803733175
2.341750738
3.028629215
2.838830025
2.111330056
2.019398303
2.302317243
2.523038585
2.337072337
1.347153693
0.5547254873
0.2323241408
0.5336983579
0.5429078605
0.4421787364
1.599607582
0.2851320282
0.6881317617
1.13926476
1.463790219
1.255597389
1.164960499
2.188817509
1.655797998
1.824078912
1.616894157
2.49835162
1.471621928
1.677382814
3.204498448
2.848067768
1.79400637
1.429631687
2.183970619
2.102114285
4.192137887
1.114633007
3.308127365
2.982160504
0.3954408306
0.5490692371
0.4151239266
0.7776046918
0.1780576735
0.4778152364
1.260864958
0.2499500365
0.9481882001
0.807588866
0.869901473
1.919050232
0.8505830107
0.7815778287
1.776602432
1.020074723
1.375866289
1.951859194
1.855530697
2.518843052
2.318266342
1.512667325
2.226021041
2.560036441
2.876279107
0.8917970401
1.940932367
2.341035504
0.7975704629
2.454489916
0.350364731
0.2305006513
0.6993683445
0.305072306
0.1177859477
0.4239320326
0.2574685398
0.931985114
1.139533803
0.5497427461
1.400125201
1.304045285
0.9461057463
0.7451386827
0.6754725526
0.9551373084
2.270692942
1.34452285
1.38285105
1.971220304
2.494254254
2.215453895
2.01666593
1.867223385
1.257449886
3.820638729
3.937521234
0.9676656569
1.596022849
0.4611391465
0.3835315561
0.7755305407
0.5522271002
0.4358049288
0.529263829
0.4943172368
0.7856675308
1.003932003
1.208582428
1.57049253
1.074771613
0.8848661076
0.5978068124
0.6637917723
3.441275808
0.977970688
1.64697783
0.7222178537
0.9850921127
1.068006725
1.788121392
2.223037571
3.612012445
4.189255223
0.3439146197
0.6449816638
0.3895665926
0.8825202066
0.8469934663
0.5742534525
0.2066124127
0.8012241172
0.4318387959
0.7949569695
0.9682550346
0.7052616492
1.337404754
1.460204034
1.117042354
1.34644703
1.178886503
1.44380905
2.329663068
0.3880282769
0.7537160908
0.22265429
0.2211942458
0.6130112812
0.3400463549
0.4950719018
0.1966750335
0.3169350832
0.3530500559
0.2962234518
0.2879253443
0.9229598843
1.310733902
0.3960243865
0.6948278364
0.862608619
0.2096908171
0.6011585082
0.5679318491
0.9628703604
0.6692529763
0.07669668623
)
;

boundaryField
{
    flow
    {
        type            zeroGradient;
    }
    obstacle
    {
        type            calculated;
        value           nonuniform List<scalar> 
30
(
0
5.582536593e-19
2.594297302e-19
1.294416579e-18
1.157072795e-18
0
0
8.280032062e-19
5.368127032e-18
1.007275537e-18
1.434926263e-18
0
2.368056243e-18
1.825624126e-19
2.072353907e-19
0
1.482259804e-18
0
0
0
5.751166875e-19
1.472901881e-18
6.893813432e-19
1.353499169e-18
7.912682228e-19
2.823648061e-18
1.359936903e-18
5.781297098e-19
4.448484183e-19
0
)
;
    }
    frontAndBack
    {
        type            empty;
    }
    procBoundary1to0
    {
        type            processor;
        value           nonuniform List<scalar> 
21
(
3.669705775
2.254034426
3.38884208
1.858208988
1.727673437
3.118724626
1.885080792
0.5495494957
0.9569401866
0.4881941243
0.3791112711
0.1464650912
0.5048168468
0.503031511
0.2455678237
0.4045433746
0.3361626614
0.9803634578
0.4431173722
0.3053111527
0.8651353871
)
;
    }
    procBoundary1to3
    {
        type            processor;
        value           nonuniform List<scalar> 
36
(
1.336797524
1.721197794
2.252342913
2.109787728
1.336797524
1.282152991
0.808094178
1.8067106
1.145400114
2.179920231
2.219023729
1.721197794
2.194986931
1.777692927
1.266524463
0.6785822591
1.097064792
0.808094178
0.5600461317
0.4428168946
0.2856518616
0.148414003
0.7716782032
0.4370228625
1.777692927
1.500997736
0.4073651293
0.4671969403
0.3135022615
1.078759373
0.7134734037
0.329731025
0.4428168946
0.3802437863
0.4073651293
0.698761631
)
;
    }
}


// ************************************************************************* //
