/*--------------------------------*- C++ -*----------------------------------*\
| =========                 |                                                 |
| \\      /  F ield         | OpenFOAM: The Open Source CFD Toolbox           |
|  \\    /   O peration     | Version:  2406                                  |
|   \\  /    A nd           | Website:  www.openfoam.com                      |
|    \\/     M anipulation  |                                                 |
\*---------------------------------------------------------------------------*/
FoamFile
{
    version     2.0;
    format      ascii;
    arch        "LSB;label=32;scalar=64";
    class       volScalarField;
    location    "0.001";
    object      internalT;
}
// * * * * * * * * * * * * * * * * * * * * * * * * * * * * * * * * * * * * * //

dimensions      [1 2 -2 0 0 0 0];

internalField   nonuniform List<scalar> 
546
(
671.155077
674.1638132
699.9733481
711.7005749
709.8371408
678.8834404
722.1195878
705.4899113
690.0329457
666.7629363
671.897674
701.6621465
681.4942864
684.9177036
712.9971613
714.7789558
700.6197334
681.6701668
721.394861
697.8732444
690.3604962
686.2898169
665.2202185
676.5811336
659.3240382
683.2462093
664.0740736
683.3069929
676.1253076
688.7489287
750.5136984
741.8351012
739.9417904
746.3333972
766.6707484
757.0243476
749.459574
743.9972739
738.9158647
758.4474831
739.52736
754.6767896
722.9983981
753.7947405
771.8545157
754.3748948
748.2393707
743.5997453
753.7792736
743.0326815
741.1875896
731.1433141
752.2681274
750.8725782
743.4556309
736.5837897
733.7989272
739.5242351
737.5641356
761.7584663
762.1228674
762.3447769
749.1284953
753.8452243
804.8034228
791.0188701
770.6464853
782.5032999
779.1287064
810.7051819
796.7021854
787.4182514
770.1779214
778.319583
795.2426654
800.0272659
802.902529
777.9480134
769.5318698
773.8913944
780.0961091
809.8928943
785.0578216
788.092234
760.8593301
703.4387825
744.0701942
760.4811223
742.5290122
749.0962332
712.7110799
749.1745481
755.6459193
757.7245064
768.9933953
784.8336736
774.2492546
754.4870466
762.0643783
779.0396895
804.0966995
817.089554
793.5596051
782.1025945
768.1106328
794.4005904
764.1363573
789.1874245
769.3530901
786.9107956
818.1885549
785.0046832
771.4416975
777.4860508
800.9356279
793.6951119
800.5573658
750.8866346
716.6193705
749.8685634
638.0142212
647.6135207
664.8566266
691.7428497
715.6755008
732.5948188
728.2489655
746.3371652
743.4296314
746.5450883
785.1726147
764.5467775
741.9158814
754.6255265
766.873929
763.3921961
793.476146
776.6208958
801.3520556
788.2051757
782.9089544
764.7865433
768.2586558
780.7429504
791.1920371
790.5130998
770.8886825
759.9439007
761.64178
755.7192924
595.1520768
619.5358759
638.0854753
656.9600636
660.6148681
714.1716324
703.8021033
762.8183525
746.2783731
756.7655596
728.595176
746.4336715
760.3651378
759.3246144
735.9947679
734.5687745
777.2231066
775.3169812
754.4626611
754.5832524
758.5701169
765.6489636
783.7108158
784.7214355
779.2576432
783.8515053
768.4279078
761.4457218
750.2165811
746.3663473
560.4271435
599.7505986
614.5303824
631.819629
661.9515787
684.6866145
667.699023
662.6668535
706.1436404
706.095429
721.7530453
764.6422111
739.1994265
745.4443368
740.6509952
774.4161763
744.5801571
741.6779327
746.534543
747.9790489
774.9802374
747.7369042
748.0734786
767.050507
786.3835652
779.2545992
751.9333596
756.0782245
734.6142705
730.6475387
510.7516213
542.8002506
565.7519551
590.6049678
605.5807861
624.1779058
657.7358404
651.1662314
654.2278448
689.2568435
687.2650288
685.8187068
695.3333908
704.0054604
722.9722776
728.179179
745.743087
746.2953723
749.878118
764.2718382
736.3325891
719.2396332
717.2979013
741.6046659
747.8139024
721.770474
734.1486973
745.801366
738.1174982
747.0805536
488.3005406
492.9226422
500.0507793
520.7298359
555.1321974
568.5777991
588.7978309
604.1842269
628.8639013
639.7146132
655.2421281
655.3158856
668.0729042
685.097515
706.3931853
720.3379181
738.2311425
717.3904449
689.3939911
726.4711699
746.1043937
737.8554419
731.7562746
709.5110631
696.0725657
709.0388448
717.4524688
730.7438847
744.9187188
731.3207276
410.4559831
434.6630249
466.4602173
489.7500317
518.4590816
550.6553621
564.5343233
575.7458185
593.6702085
592.7763332
619.5759477
627.3944914
621.4609433
630.765298
647.4516546
667.9804082
674.4058561
687.4961709
715.4302232
690.0680149
691.0106233
709.8548206
710.1273514
736.1298421
711.6772563
701.822828
710.2065125
706.2159388
709.6073144
694.3435514
405.8743145
411.1541999
432.7061742
451.8134672
456.7874021
481.6927933
512.1054848
520.2685652
540.1069469
568.1754473
586.0177041
597.2488766
598.436164
610.5419556
640.4380797
637.0662592
656.7341938
676.3491301
668.8713786
687.713425
702.85781
698.158781
700.9456448
723.7115592
728.6415397
705.5869009
680.3397213
695.3003872
710.0689796
718.3395036
389.2509665
404.3003598
419.0196679
419.8647355
424.6003432
420.6034767
462.1712009
495.2636801
507.5954546
534.5183693
551.9265825
553.8092909
584.5622768
583.0092211
606.6178691
603.4103226
601.4218317
638.0032124
650.2107303
654.6077544
660.4813614
677.7744979
681.4609006
685.0928458
701.1196576
701.8464644
726.1098628
723.8262151
723.2734665
705.7626894
357.2740142
371.6302577
403.8456556
416.2852696
423.1860021
433.5927233
449.5371771
462.3770904
476.4432446
477.6965109
502.4729997
537.8154294
541.3439457
565.9857739
571.4036308
569.1260838
594.3441081
594.1331382
606.9269615
630.8079558
649.8248536
662.6424169
670.3486379
674.0950219
667.8837692
661.3640992
664.2143656
680.7460374
683.6372103
689.2286653
329.4246503
336.8843274
353.9377447
379.4263641
392.2914832
408.1157027
410.6249716
436.978627
439.8572466
443.5006875
456.7613174
478.170583
494.2625797
512.8173411
540.6805682
547.047708
561.3094957
554.0570143
587.7339233
585.6366126
599.6973601
612.1977897
638.44944
635.308038
642.3639864
640.7395104
649.6195961
639.1786106
659.3771682
636.6590153
326.5728224
330.7667214
336.0000779
343.9942114
355.4525926
372.5341332
383.9671005
388.2654933
413.7945857
416.5069448
442.3650435
448.8448769
458.2384923
470.9107879
486.6981368
503.0864407
524.8488122
541.1043192
557.7487498
569.1554396
576.523717
599.8969728
612.3841294
615.7063821
626.2865293
640.4883251
637.9593639
646.537543
633.706625
640.1727267
329.6217667
336.8387739
325.5363302
333.0318163
336.7549386
353.1083603
362.0690273
389.2472669
389.010591
396.3795818
415.0891983
420.1954814
445.0329066
441.7226208
464.0109004
492.3251679
504.7596379
523.8395123
547.4627102
560.4585371
563.3593612
564.5839485
568.6351153
590.1182661
589.2894182
612.9958439
615.9649045
619.6857786
620.4026592
311.6996087
312.5158601
320.0529954
323.1133101
318.6856941
322.8346763
348.3206674
363.9608633
370.7998152
376.5948821
374.2278225
385.9630169
411.2858631
429.0989589
435.2956622
465.2945659
482.3693222
504.2068895
507.4662195
520.2408756
511.7509039
526.8154816
536.2404784
555.9923465
562.1882094
309.4813863
314.3155047
320.4638116
327.2026837
333.0416626
342.4758786
333.2384247
346.7418788
349.354296
350.8535423
366.7714407
364.9755947
375.0949653
390.4404009
403.321525
400.0656219
424.3008952
450.8750006
468.1090491
308.1116206
312.8964908
317.6722893
313.6294072
313.4197807
316.2606427
327.563015
334.2611997
345.9993886
351.3869377
353.6057751
370.3833333
375.2408858
398.3638687
300.746292
297.2209978
304.2984838
305.9991424
315.9266621
314.8365744
318.0429839
324.6880201
296.7062502
)
;

boundaryField
{
    flow
    {
        type            calculated;
        value           nonuniform List<scalar> 
15
(
688.7489287
761.7584663
749.0962332
749.8685634
755.7192924
746.3663473
730.6475387
747.0805536
731.3207276
694.3435514
718.3395036
705.7626894
689.2286653
636.6590153
640.1727267
)
;
    }
    obstacle
    {
        type            calculated;
        value           nonuniform List<scalar> 
30
(
643.5107884
545.0958469
599.1182925
597.897337
622.0378459
632.5998171
591.3436059
644.4008076
589.4908477
589.571389
603.4767188
624.9663377
587.5545735
587.4314459
698.9063683
673.3728931
606.7591162
617.5029693
652.8697575
565.9750294
607.1547901
587.4741159
552.8492372
635.0055335
715.5632775
614.5978425
582.7505824
666.6642022
600.7799294
592.4715848
)
;
    }
    frontAndBack
    {
        type            empty;
    }
    procBoundary1to0
    {
        type            processor;
        value           nonuniform List<scalar> 
21
(
714.5844607
785.4019865
743.3522151
683.0204276
618.9457237
575.466481
537.2004078
494.9100467
461.2976373
412.7067655
392.51841
364.6605662
343.3754444
321.6126935
321.0425989
325.4968266
323.5657854
303.9857935
300.3931059
302.8575266
304.1075279
)
;
    }
    procBoundary1to3
    {
        type            processor;
        value           nonuniform List<scalar> 
36
(
625.5524777
586.1394131
602.5951846
608.6127155
625.5524777
601.7873485
479.2101599
486.7972453
499.2725469
512.4310684
527.3325798
586.1394131
552.606554
399.9878078
408.6666623
412.7769453
405.9323121
479.2101599
429.7540059
331.7435947
331.1951734
333.6983116
336.1559138
344.484952
399.9878078
344.9020084
300.8997483
310.6762882
312.4581485
315.0985778
306.3706585
317.2716345
331.7435947
324.1171507
300.8997483
306.2043744
)
;
    }
}


// ************************************************************************* //
