/*--------------------------------*- C++ -*----------------------------------*\
| =========                 |                                                 |
| \\      /  F ield         | OpenFOAM: The Open Source CFD Toolbox           |
|  \\    /   O peration     | Version:  2406                                  |
|   \\  /    A nd           | Website:  www.openfoam.com                      |
|    \\/     M anipulation  |                                                 |
\*---------------------------------------------------------------------------*/
FoamFile
{
    version     2.0;
    format      ascii;
    arch        "LSB;label=32;scalar=64";
    class       volScalarField;
    location    "0.001";
    object      linearKEMean;
}
// * * * * * * * * * * * * * * * * * * * * * * * * * * * * * * * * * * * * * //

dimensions      [1 -1 -2 0 0 0 0];

internalField   nonuniform List<scalar> 
546
(
7.133921036
6.924762003
6.515528039
6.236352666
6.158017778
6.163356157
6.223973245
5.941542768
5.861391076
5.794101048
5.819414417
5.666457899
5.418178916
5.468055453
5.340221617
5.177337534
5.038077351
5.095025247
5.030196047
5.096025
5.0373699
5.153256561
5.341207341
5.347586842
4.977934508
4.8649546
4.65404072
4.548540506
4.49287748
3.920379384
8.866138178
8.674014621
8.306786909
7.940496666
7.527806209
7.488265994
7.311308213
7.284972809
7.100947432
7.200486948
6.96943958
6.744763
6.684536721
6.509133948
6.375753277
6.131483794
6.118173543
6.147266059
6.113196823
5.955083319
5.981202802
6.158457145
6.026338825
5.846126221
5.607140537
5.699867718
5.550098489
5.225806147
5.206889672
4.763751859
10.01801626
9.933044871
9.449058418
9.127730359
8.978497935
8.753989685
8.434908834
8.374431797
8.254895888
8.289864422
8.327127788
7.835428104
7.750426386
7.431837048
7.402092439
7.452519717
7.359672481
7.098863255
6.940879084
6.905561802
6.771643929
6.674070421
6.757749513
6.660100086
6.23646463
6.1458369
6.347143551
6.277440093
6.019737924
5.602550969
10.51265319
10.78050574
10.96872043
10.53557646
10.36898528
10.16876536
10.06502627
9.947694656
9.681413632
9.257626639
8.914753616
8.747181944
8.830619797
8.938314074
8.570504731
8.322828543
8.136374026
8.207349936
8.065964317
7.754310513
7.711849327
7.401438585
7.289662076
7.377444517
7.416499601
7.124682777
6.69891194
6.765899961
6.478131578
6.374700773
11.97886009
11.67411484
11.95185485
11.86315865
11.72094872
11.33031509
11.04455016
10.62566869
10.54648486
10.47055056
10.46293296
10.36662955
10.08083647
9.667328376
9.270921686
9.381247429
9.270116532
9.213316395
8.834719205
8.675549878
8.184086973
7.970738335
8.032182523
8.187140115
7.962593342
7.577001331
7.672968225
7.236232657
7.175449699
6.633540913
11.57713173
11.77043636
11.92031804
11.93651476
11.73566547
11.91112781
11.62154344
11.55304233
11.75711289
11.55759781
11.13370003
10.97786778
10.76271717
10.69032417
10.56831928
10.24858809
10.11815304
9.997362969
9.705737305
9.536875323
9.456737818
9.106169607
8.985557377
8.59272999
8.582995892
8.428832282
8.247485905
7.972500962
7.933435789
7.653177757
11.14456639
11.73302475
11.86356398
12.19119324
12.2275746
12.69661414
12.51238008
12.23244638
12.22703909
12.05790181
11.83214546
11.48103649
11.52131469
11.46471276
11.05631124
10.706996
10.55203369
10.48434084
10.4368568
9.938936135
9.981744769
9.649084081
9.41894725
9.504121607
9.519073408
9.352320177
9.249752825
9.068286315
8.863150019
8.491122749
10.95557157
11.17331276
11.50166227
11.92101463
12.07487126
12.12281855
12.61603571
12.64399799
12.30790544
12.3730074
12.36393326
12.19077581
12.16055403
12.04378359
12.24807687
11.97948395
11.70722136
11.5377042
11.21300712
11.2102363
10.92149484
10.55138507
10.54491194
10.47015356
10.21469178
10.0652299
9.754371853
9.799307526
9.612225185
9.336605635
10.31548929
10.78912668
11.13563049
11.19919995
11.75005422
12.04156964
11.93942216
12.35999956
12.48577963
12.61313552
12.43108624
12.51447612
12.24275903
12.28301704
12.20341255
12.1141472
12.07401744
12.06432758
12.12229175
11.59559366
11.27621784
11.21827477
10.8463156
10.78047437
10.87749908
10.52567035
10.49851221
10.45762855
10.32420971
10.07184837
9.409873195
9.561055143
10.19267044
10.68529781
10.93512768
11.31923651
11.75845283
11.84012096
12.46253919
12.66045177
12.73898068
12.602069
12.57680103
12.82492112
12.68914177
12.81069157
12.51810577
12.34558402
12.08646591
12.2199214
12.02851133
12.02245897
12.0382597
11.55592589
11.62592504
11.59629088
10.99420101
10.81042572
10.34872562
10.33961572
8.947649198
9.391516344
9.604604328
9.776235358
10.16768342
10.69633649
11.22156068
11.77242419
12.04356233
12.58220139
12.93345691
13.11097711
13.00541624
13.16039968
13.11800402
12.8875544
12.96229762
12.88533767
12.87133643
13.10015004
13.21449081
13.05950555
12.56598845
12.37991575
11.68752765
11.7905819
11.81900711
11.9977261
11.7729628
11.31953774
8.888220407
9.105559242
9.496149923
9.727920587
9.997690404
10.0634926
10.59561752
10.96516954
11.4413235
11.60599259
11.95543145
12.41385826
12.85192517
12.62766113
12.7925985
13.1912704
13.24431582
13.39498729
13.76636814
13.48002109
13.15045964
12.84344811
12.78750122
13.09731638
12.99802166
13.08737467
12.78536007
12.33651443
11.97975266
11.8968014
8.639526808
8.763758672
8.966605897
9.163416529
9.561577736
10.09829107
10.24641
10.42804481
10.59673035
11.10898305
11.58552807
12.0060649
12.4427894
12.7872192
13.12490226
13.23841645
13.46943335
13.52191096
13.33718573
13.67374822
13.85948417
13.88552936
13.83531214
13.43642439
13.12235867
12.88735436
12.59533736
12.19763523
12.43398447
12.33862552
8.209148374
8.385409049
8.464765037
8.888563475
9.168468869
9.138700066
9.411107177
9.673570024
10.26240348
10.67165835
11.06452486
11.59183159
11.92882562
12.40056562
12.49182466
12.90654741
13.03978702
13.35852853
13.22813864
13.23646107
13.59156996
13.59111964
13.52412081
13.56858043
13.28803806
13.14206557
13.47078178
13.21305494
12.75607655
12.79740371
8.477983426
8.606939538
8.716352844
8.70693662
8.842240644
9.271032856
9.520720618
9.897927983
10.13446865
10.39113933
10.57754437
10.51591459
10.87731719
11.50854834
12.2149341
12.48725082
12.65203724
12.79896311
13.36422679
13.62202338
13.64256752
14.00005055
14.09360156
13.87151801
14.12526091
13.77762244
13.7910347
13.69934773
13.83435255
13.48131299
8.091624619
8.136138188
8.261674897
8.250126398
8.763103949
8.695084283
8.958659767
9.11835774
9.273319138
9.493907638
9.818736447
10.34705092
10.59420559
10.73774466
11.16706075
11.57845873
11.95840069
12.38930894
12.28663916
12.96224801
13.44412825
13.49540416
13.68531158
14.30654511
14.28644188
14.42439342
14.03896324
14.30407146
13.8334791
8.305560329
8.361790187
8.409840481
8.57385317
8.469833476
8.682959491
8.880262948
9.033546245
9.178175428
9.544282015
9.697204062
9.908818125
10.04326295
10.34835689
10.7354205
10.93224312
11.38375537
11.82587327
12.44951248
12.28335348
12.5018346
13.13785531
13.35992522
13.54320078
13.86388027
8.283297009
8.212841087
8.357445177
8.183197907
8.333123408
8.505552203
8.510719046
8.527378179
8.831843868
8.971770118
9.069329029
9.267508552
9.605206658
9.796435061
10.13219458
10.62167104
11.06767069
11.58316307
11.60428304
8.112871402
8.134777183
8.251753505
8.319848488
8.197424637
8.244616841
8.521602144
8.6240048
8.660874958
8.285641471
8.673314096
8.923211645
9.073348113
9.520363627
8.299266418
8.273400118
8.17786889
8.212668598
8.218980124
8.128542876
8.063916566
8.081391437
7.780478022
)
;

boundaryField
{
    flow
    {
        type            calculated;
        value           nonuniform List<scalar> 
15
(
3.920379384
4.763751859
5.602550969
6.374700773
6.633540913
7.653177757
8.491122749
9.336605635
10.07184837
10.33961572
11.31953774
11.8968014
12.33862552
12.79740371
13.48131299
)
;
    }
    obstacle
    {
        type            calculated;
        value           nonuniform List<scalar> 
30
(
2.465713311e-18
2.577232664e-18
2.184140516e-18
2.305780869e-18
2.14252036e-18
2.043773509e-18
2.196921547e-18
2.173230753e-18
2.031811621e-18
1.973529663e-18
2.446797896e-18
2.059140989e-18
1.929902431e-18
2.264037739e-18
1.997545512e-18
1.814665769e-18
1.91238627e-18
1.743624677e-18
1.762608319e-18
1.851671281e-18
1.631009244e-18
1.794854261e-18
1.886403387e-18
1.939857881e-18
1.714886049e-18
1.752236481e-18
1.708159927e-18
1.949087951e-18
1.569986954e-18
1.464472555e-18
)
;
    }
    frontAndBack
    {
        type            empty;
    }
    procBoundary1to0
    {
        type            processor;
        value           nonuniform List<scalar> 
21
(
7.424257116
9.212916274
10.16922291
11.02422739
11.73634415
11.10564783
10.88681754
10.46073707
9.865038001
9.406313887
8.62352946
8.578788232
8.589140531
8.080445975
8.297888002
8.156688703
8.179964606
8.293524027
7.974691291
8.321813778
7.779626598
)
;
    }
    procBoundary1to3
    {
        type            processor;
        value           nonuniform List<scalar> 
36
(
13.44685886
14.01066421
14.16162419
13.99386259
13.44685886
14.31281701
12.1849087
12.48694417
12.68078561
13.17232688
13.44713801
14.01066421
13.53385944
9.823668287
10.26526013
10.41642385
10.77373296
12.1849087
11.30430916
8.297863609
8.655980328
8.670115741
8.917290869
9.02068651
9.823668287
9.138815715
7.84782132
7.889016246
7.824897843
7.903257705
8.101013136
7.940230402
8.297863609
8.198325125
7.84782132
7.636379798
)
;
    }
}


// ************************************************************************* //
