/*--------------------------------*- C++ -*----------------------------------*\
| =========                 |                                                 |
| \\      /  F ield         | OpenFOAM: The Open Source CFD Toolbox           |
|  \\    /   O peration     | Version:  2406                                  |
|   \\  /    A nd           | Website:  www.openfoam.com                      |
|    \\/     M anipulation  |                                                 |
\*---------------------------------------------------------------------------*/
FoamFile
{
    version     2.0;
    format      ascii;
    arch        "LSB;label=32;scalar=64";
    class       volScalarField;
    location    "0.001";
    object      linearKE;
}
// * * * * * * * * * * * * * * * * * * * * * * * * * * * * * * * * * * * * * //

dimensions      [1 -1 -2 0 0 0 0];

internalField   nonuniform List<scalar> 
546
(
8.532667277
5.000801044
8.286588616
9.192583292
7.211315561
5.944326673
6.234947203
6.846984434
4.480805925
5.127834282
9.011685828
5.094786872
5.40159054
1.627579871
3.48158823
7.647835833
3.671616783
3.299491878
5.138663199
2.62912411
3.900359292
4.461998052
5.748499597
3.037549726
7.116771855
3.477885024
3.19054165
4.456320244
3.019428273
3.582337656
7.145324047
7.422748496
5.503769817
8.403419462
6.820519233
8.096994758
7.63210366
7.703794167
5.443977837
4.738841072
7.145851987
5.544084033
4.810641454
4.598313817
10.04608135
2.996574051
3.176526255
6.769707954
6.330069499
4.492852232
4.855820779
4.966469567
4.812952253
3.744903377
2.559878879
5.491011754
6.221741956
6.156889002
3.813666851
4.447759518
12.37757511
12.14975871
7.891504312
9.150939364
9.519956733
11.0382506
10.11593996
10.23994653
6.59386422
8.457539822
9.039218621
7.557628411
7.179766221
6.659656322
10.86403141
7.148841946
7.031969077
7.05838069
4.130515082
6.337572736
3.357093429
6.525793802
6.985526148
11.89948785
7.175187938
3.83075163
7.691094417
3.383046094
5.950480282
2.962486242
9.672119805
11.84474778
13.10269214
8.247173692
14.09342619
6.27817991
8.941717632
10.92592281
8.787100598
11.30932426
6.387092615
4.37997392
13.84953132
8.30621668
5.635708781
8.393981731
9.453336532
4.383671267
8.267784282
10.82967416
3.597427503
8.181572787
8.031150796
6.245215389
6.55539252
4.777770721
6.410531987
4.428471125
9.111598237
3.244826508
7.346431693
15.25214999
10.98035345
14.35692454
11.6627061
7.668151146
13.12076155
6.229212155
8.710525875
10.87677997
15.69539143
12.29630576
7.416145391
7.730059077
1.901890713
8.906691553
5.228102509
9.585082013
8.194188376
8.409993497
8.611973188
5.375950456
12.29238105
7.686371521
11.53557703
8.991160959
4.628314829
4.128011382
6.365921858
6.953080555
10.79610074
11.32873762
14.46392677
14.42516807
5.230814647
11.31347717
11.47423034
9.031815513
14.81780646
12.99197922
10.48368777
9.349665783
9.839287293
9.419973112
12.42186945
8.33760627
12.39662931
7.549323625
10.71689148
12.04047816
12.09653854
10.85920073
9.767682366
7.257367628
8.303368551
7.555501601
5.592493264
5.56252086
6.745936247
7.590668413
14.93276567
15.01662471
11.11260422
11.34612793
16.5116473
17.03462947
13.78582678
13.6738132
9.61316181
16.35905758
14.43205081
9.69639413
9.50776145
8.452737358
10.01307842
12.39554377
10.89141618
12.84088874
16.11792098
10.44629957
11.39294375
7.884444649
5.380426299
6.004931431
8.614325842
12.96847824
13.9662651
4.465974974
6.315412409
7.257069426
11.98393548
7.921207417
13.53425079
20.67402185
16.8679824
8.152643323
12.81705643
13.80295681
13.77700926
17.46459423
9.810203268
16.56691271
15.43696102
5.611586698
13.65255742
8.921158884
9.770233739
15.67992793
12.61018597
10.36118025
9.715500868
14.30082894
10.07284032
9.280254459
9.628698331
9.969107603
8.947983042
15.64136488
5.526937964
10.55281361
14.18124974
10.09025239
12.23947004
11.4055689
13.13033344
9.443983116
14.71501597
10.25043943
12.89728416
17.78846326
10.50449649
22.45292752
18.07760739
8.623842896
15.46396294
18.70925641
8.172361842
16.84948917
14.46046254
12.92912766
13.35615625
11.0153512
13.64467291
13.50978079
12.30951825
12.53477881
12.12120034
11.5795484
8.051051916
8.689160442
10.75350406
3.789053732
5.05544789
14.20017381
9.85221973
11.81334329
11.26516925
16.60569837
10.72531501
11.58308196
11.69345195
11.19958382
11.83230346
14.33532738
14.51772643
13.08942149
16.68261617
11.99913057
12.02970112
20.83180576
11.04043873
13.61538864
12.72430328
7.856299776
8.623130457
13.75946814
9.545185517
14.98230824
7.551614862
7.535627201
8.705149966
11.59806664
9.328234625
13.28809737
12.34387126
14.00733395
9.186037572
11.58090425
12.31916205
12.47746513
18.03240993
14.27275853
14.50616729
14.77141524
17.1315107
12.84513034
17.90749685
11.85461737
8.908519192
9.561490664
11.94891401
12.9925211
11.02337748
11.55539021
9.367801421
12.05243326
7.948120871
11.95293357
14.81206433
4.15855886
5.586144156
11.21342951
9.240521491
7.600932983
7.874627348
7.341114175
10.97205826
11.95518411
18.20480122
11.65101676
10.44726053
12.5005491
13.43384509
13.62418265
10.9599253
12.44798371
11.82142898
6.272595444
15.95096278
15.34753597
15.53007885
19.4316695
15.7143041
19.56966511
14.03311734
11.34978724
14.15736302
12.42963668
14.92233755
12.9736471
8.547962339
6.288481914
8.488508637
11.94048374
9.940074321
11.4968321
7.989735221
10.23142801
11.60486216
13.78819947
14.2456642
9.511771215
11.53549845
14.12354641
18.22981535
13.71185821
11.90660077
15.91906136
6.601608263
15.90051962
11.49639988
11.1958595
10.84179915
12.55128313
9.703496883
11.53989726
10.10668161
15.5491079
14.34311288
14.31552846
11.70164267
14.04452168
8.528521772
7.435949007
10.25146098
6.622877901
8.254969353
5.964099185
13.1142891
15.73115889
12.81430917
17.70716448
17.45471407
15.88477808
17.94273286
14.03721002
19.5272739
18.627077
11.67676264
12.2030036
15.32802409
19.55207288
13.32222675
8.547140881
13.88000425
18.21816756
20.91492736
6.962114509
21.86101612
12.21388415
6.183121307
11.88653853
5.717712174
14.33336516
9.268913305
8.133996535
14.4698229
4.064595931
9.813741649
7.13899723
17.89816571
20.03452864
16.97253457
15.92707115
16.28813247
19.05984599
14.45578515
14.95849723
9.2637397
15.9040864
14.09579579
15.96517111
16.8373044
20.95492822
21.4855583
11.02780539
13.99143983
16.72116924
6.238431851
15.20829025
8.04876251
5.720865901
11.58461926
6.007924072
2.103796857
6.774935635
7.628921616
10.93084374
14.42598699
9.654546348
15.64113085
11.98076833
11.72108872
7.592470421
10.59212241
8.459205864
15.76421368
13.5862737
13.65224965
13.87513924
16.21040644
13.16811247
8.780744951
14.66825966
11.89513725
23.76167184
21.33865931
11.80037497
11.8299101
13.22398736
8.233540341
11.82847569
9.574510963
10.7117339
9.29793721
8.519016927
11.65291419
12.6511128
7.691734234
17.12925874
12.14624427
7.658644763
10.1537813
8.687447503
17.33071985
11.05546254
10.70436439
11.41385017
10.65734369
11.77004575
15.27012704
16.03251488
22.12572693
18.47265705
6.696772973
13.79361006
7.904203138
15.37491103
11.54980217
12.05068165
8.68439006
13.47582823
5.345883629
9.202872409
8.704068706
9.544673081
15.7675591
9.898902245
4.726374219
16.58609952
13.02401983
14.23783769
23.14640589
11.62261593
6.913180971
5.915374971
3.788035204
10.6579539
5.845332591
5.152534789
6.027555668
5.070358605
6.460896185
3.790231413
7.863498163
6.353786139
9.817127029
10.90767169
12.30753468
10.50753481
9.587866651
8.649870191
6.056909216
18.42385718
10.25261263
2.691784925
)
;

boundaryField
{
    flow
    {
        type            zeroGradient;
    }
    obstacle
    {
        type            calculated;
        value           nonuniform List<scalar> 
30
(
0
2.39367007e-18
8.685432508e-19
2.267590877e-18
4.176662607e-18
0
0
1.745377912e-18
8.061629126e-19
1.731669911e-18
3.872470877e-18
0
5.764928859e-18
4.657985151e-19
5.375494329e-19
0
1.317923801e-18
0
0
0
2.260239727e-18
4.576767219e-18
1.533961175e-18
7.540749336e-19
3.882286657e-18
4.024641175e-18
1.999209261e-18
9.187452036e-19
6.141176137e-19
0
)
;
    }
    frontAndBack
    {
        type            empty;
    }
    procBoundary1to0
    {
        type            processor;
        value           nonuniform List<scalar> 
21
(
5.388201676
8.606017185
12.23168494
12.82089567
11.26918982
14.73442604
12.13620211
6.153918049
11.47302496
14.49306925
9.264326821
4.404854593
8.678021124
6.670882945
6.407466207
5.507930885
3.573262357
9.116728056
8.794452465
4.15705051
9.338762923
)
;
    }
    procBoundary1to3
    {
        type            processor;
        value           nonuniform List<scalar> 
36
(
11.17020346
10.52375005
15.74624192
10.66548101
11.17020346
12.1184783
8.968899748
13.23089362
11.93315406
10.77648578
15.30003914
10.52375005
14.15240935
11.64498898
6.461828653
8.310570084
12.38678499
8.968899748
8.957056623
9.600026883
3.842197922
8.701237478
5.010923715
8.287525104
11.64498898
18.45739267
6.858935423
8.879090216
5.107590957
16.81495991
11.16708099
7.518664354
9.600026883
7.470627884
6.858935423
13.95785687
)
;
    }
}


// ************************************************************************* //
