/*--------------------------------*- C++ -*----------------------------------*\
| =========                 |                                                 |
| \\      /  F ield         | OpenFOAM: The Open Source CFD Toolbox           |
|  \\    /   O peration     | Version:  2406                                  |
|   \\  /    A nd           | Website:  www.openfoam.com                      |
|    \\/     M anipulation  |                                                 |
\*---------------------------------------------------------------------------*/
FoamFile
{
    version     2.0;
    format      ascii;
    arch        "LSB;label=32;scalar=64";
    class       volVectorField;
    location    "0.001";
    object      momentumMean;
}
// * * * * * * * * * * * * * * * * * * * * * * * * * * * * * * * * * * * * * //

dimensions      [1 -2 -1 0 0 0 0];

internalField   nonuniform List<vector> 
546
(
(0.005671083002 0.001524913687 0.0001976509672)
(0.005298591262 0.001509098825 5.244993351e-05)
(0.005089435105 0.001495623596 -0.000106085868)
(0.004903737813 0.001234566572 -7.371977886e-05)
(0.004991450073 0.001296727086 -1.645069584e-05)
(0.004962320535 0.001382741165 -0.0001127637944)
(0.004791808008 0.00124564868 -0.0001122024343)
(0.004598228944 0.001278560547 -1.129227767e-05)
(0.00454553424 0.001142062686 0.000181610004)
(0.004246495472 0.00125842839 1.033559901e-05)
(0.004059953643 0.001124417049 4.128116232e-05)
(0.004079354701 0.0009587376379 -1.744940353e-05)
(0.004096722598 0.001030852812 -0.0001920071401)
(0.004106382733 0.00113162376 7.859016454e-05)
(0.004002286276 0.001041516918 -0.0001630702151)
(0.003871887853 0.001034449804 -0.0001242268494)
(0.003794701393 0.001042341655 -1.619071878e-05)
(0.003773316405 0.001023363931 -2.458466157e-05)
(0.003570498059 0.0009929235385 8.984327263e-05)
(0.003583383976 0.0009545713908 -0.0002858937413)
(0.003661411547 0.0009344695004 -0.0002328163648)
(0.003756604499 0.0009412848711 -9.780298057e-05)
(0.003766017906 0.0009686770113 -0.000300194089)
(0.003930243627 0.001015465445 0.0001450520756)
(0.00381217562 0.0009564633381 -0.0001143463555)
(0.003764173397 0.001024170168 -0.0001118834086)
(0.0036584563 0.00100372737 -0.0001595810602)
(0.003646388181 0.0008893936802 3.130008536e-05)
(0.003716755909 0.001023134177 0.0002612002768)
(0.003888741856 0.0007434066325 1.844853928e-05)
(0.008619937951 0.002617398375 0.0001412244487)
(0.008391119134 0.002521974146 0.0001253599395)
(0.008057909273 0.002349940383 8.466791684e-05)
(0.007891691313 0.002091784042 2.115779209e-05)
(0.007380716556 0.001941516219 -7.33639293e-05)
(0.007223761394 0.001984606916 -7.659371289e-05)
(0.006986767913 0.001957068779 -5.19379835e-05)
(0.007087574486 0.001874501677 -2.920350126e-05)
(0.006700885919 0.002081229231 8.054223264e-05)
(0.006754876556 0.001890550529 -9.023348133e-05)
(0.006548834208 0.001761260719 -1.086095737e-06)
(0.006434527332 0.001626601033 7.881686233e-06)
(0.006197547614 0.001776034517 -0.0001281451188)
(0.006025907514 0.001592361473 0.0001970127633)
(0.005842763332 0.001575017687 0.0001548981962)
(0.005770106333 0.001567749985 -3.667377263e-05)
(0.005647466154 0.001550983849 -6.803689478e-05)
(0.005626169151 0.001457516732 -7.517114471e-05)
(0.005564176863 0.001499345586 -7.834967502e-05)
(0.005402380315 0.001445142346 -3.137879248e-05)
(0.005555487997 0.001199074332 -0.0002404849038)
(0.005613978491 0.001409673384 -0.000111940139)
(0.005573703375 0.00143998615 -0.0003994347586)
(0.005305558726 0.001391981806 -0.00017887749)
(0.005270574391 0.001430052085 -0.0003513015314)
(0.00531471481 0.001462249246 -0.0003144610542)
(0.005207570963 0.001425317093 -4.209818767e-05)
(0.005109312224 0.001196951367 -0.0001735180543)
(0.005221142706 0.001280701723 -1.327584475e-05)
(0.005534679353 0.000807173679 4.86059017e-05)
(0.01022247418 0.003148301127 -3.369313532e-05)
(0.009970029394 0.003188666321 -0.000153772166)
(0.00956054808 0.003064182168 -0.0001772205362)
(0.009201392181 0.002609322093 -8.461416768e-05)
(0.009064181696 0.002528862583 -0.0001620465746)
(0.008810390799 0.002634290662 0.0001693850922)
(0.008594376506 0.002384391676 -0.0001730604191)
(0.008486093534 0.00228393687 -5.340082432e-05)
(0.008368207683 0.002365104391 -7.630903861e-05)
(0.008451145519 0.002322854243 -0.0002459529245)
(0.008446739056 0.002399640192 -9.088440262e-05)
(0.00795677289 0.00222826491 5.544437204e-06)
(0.007680370154 0.002158451996 -0.0001158756843)
(0.007444492454 0.002089824078 -6.23447053e-05)
(0.007529314852 0.001944552716 -8.421885356e-05)
(0.007541805285 0.00209144659 -0.0001423649589)
(0.007492896507 0.001964116188 -0.0001123474957)
(0.007094685309 0.001991882619 -9.276089587e-05)
(0.006968427242 0.001950260979 -5.693589444e-05)
(0.007049387821 0.001749034848 3.870759174e-05)
(0.006819998395 0.00160917878 -0.0002026069571)
(0.006794556374 0.001476530985 -7.550136269e-06)
(0.006778140493 0.001757814755 -0.0002975570364)
(0.00666063374 0.001852655573 -7.790438352e-05)
(0.006314669004 0.001765102994 -0.0001367178553)
(0.006252853651 0.001657166586 5.945108686e-05)
(0.006467106667 0.001646771968 -4.053451245e-05)
(0.006592235525 0.001560726802 -4.419072501e-05)
(0.006581989793 0.001490827278 -0.0001413415849)
(0.006530551052 0.001054435221 -0.0001742493045)
(0.01068647731 0.003166636809 -1.884377116e-05)
(0.01090177723 0.003428715381 -0.0001032764524)
(0.01109087568 0.003521468556 -0.0001183363864)
(0.01086648308 0.003251821853 -3.731836217e-05)
(0.01065192291 0.00312638412 -5.265444106e-05)
(0.01044676225 0.003052547647 -4.516437553e-05)
(0.01041891733 0.002926478466 5.152816807e-05)
(0.01018368481 0.002853269297 -2.294434364e-05)
(0.009966799305 0.002841829207 -0.0001047670682)
(0.009456954639 0.002814271661 -0.0001418399778)
(0.00919938691 0.002666334762 -0.0001875530408)
(0.00912892788 0.002738284011 -0.0002439804134)
(0.00916553107 0.002490151969 -0.0001570196105)
(0.009358023024 0.002610759625 -0.0002200379388)
(0.008952109396 0.002405684165 -8.176384335e-05)
(0.008692766796 0.002352378582 -6.335684139e-05)
(0.008571626813 0.002373282651 -5.747055261e-05)
(0.008554059689 0.00235154887 -0.0001888809087)
(0.008463356419 0.002310376776 -0.00027748895)
(0.008196857141 0.002179787609 -9.417236539e-06)
(0.008051033413 0.001852321373 -5.182580047e-05)
(0.007772627468 0.001991006632 -0.0001196556507)
(0.007439356839 0.001982485136 -0.0002077044287)
(0.007409515828 0.002109519018 2.266930726e-05)
(0.007693292082 0.002059926365 -7.698183934e-05)
(0.007579148328 0.001868702762 -7.427232945e-05)
(0.00722650107 0.001759731759 -0.0002035843722)
(0.007468321872 0.00175198225 3.946479096e-05)
(0.007243768491 0.001611160181 6.336044674e-05)
(0.007418216455 0.001411701074 3.4955794e-05)
(0.01210241433 0.003515384302 2.405859937e-05)
(0.01186671299 0.003345598625 0.0001173674525)
(0.01198861812 0.003726258129 -6.719795358e-05)
(0.01211975869 0.003706111695 4.071041588e-05)
(0.01208174432 0.003436863415 3.662056789e-05)
(0.0116001617 0.003521007407 -3.467251817e-05)
(0.01144580792 0.003309244724 2.363811459e-05)
(0.01112382001 0.00320158973 -0.0001003287849)
(0.0109393623 0.003343382854 -0.0003112032664)
(0.01088617414 0.00317572093 -0.0001763417354)
(0.01093873323 0.003070198323 -0.0001573998233)
(0.01087840698 0.003089837241 4.832987755e-06)
(0.0106331897 0.003026286668 -0.0001131287623)
(0.01013901729 0.00295879344 8.437580532e-05)
(0.009922749327 0.00267372408 -6.170216632e-05)
(0.01001135393 0.002736775062 -5.76243874e-05)
(0.009788011354 0.002694171406 -0.0001133840799)
(0.009748952632 0.002767183643 4.884699279e-05)
(0.009404491113 0.002493693516 9.637073661e-06)
(0.009118964513 0.002587877574 -7.272927734e-07)
(0.008688418293 0.0023518922 -3.988107161e-05)
(0.00846071204 0.002207979969 -0.0001236800975)
(0.008473703246 0.002185988024 -0.0002672831894)
(0.008592448294 0.002247232996 -9.791715158e-05)
(0.008483800653 0.002290479099 -5.290758824e-06)
(0.008130666981 0.00220772938 -0.0001452673963)
(0.008318605415 0.002112965213 -0.0003287227077)
(0.007995104988 0.001843040009 -9.170448316e-05)
(0.00799391171 0.001855648833 4.965740572e-05)
(0.007696611917 0.001441831957 -0.0001485553742)
(0.01153963126 0.003139313604 -0.0001733297111)
(0.01175980775 0.00343276698 -0.0001900627544)
(0.01209205608 0.003436459795 -4.80195928e-05)
(0.01213351683 0.003583077587 -5.090402839e-05)
(0.0120865905 0.003586133009 5.35089344e-05)
(0.01219133299 0.003892501817 -3.097438532e-05)
(0.01205984947 0.003482278867 1.491638016e-06)
(0.01204702753 0.00340097091 0.0001207580835)
(0.01213128868 0.003509343356 8.462705265e-05)
(0.01194611266 0.003589433517 -3.864600747e-05)
(0.01160691221 0.003396333193 -0.0001121744529)
(0.01145443735 0.00317608212 3.13287155e-05)
(0.01124062392 0.003401703563 3.851853671e-05)
(0.01133362116 0.003330706847 -3.552944808e-05)
(0.01124015707 0.003171714182 -7.756003754e-05)
(0.01095960284 0.00294245098 -0.0001005400372)
(0.01068583392 0.003048310288 -0.0002030796673)
(0.01049314678 0.003085723455 -1.522337326e-05)
(0.01031663399 0.002991513619 -1.158314841e-05)
(0.01011805267 0.002865740845 -0.0001305590804)
(0.01006032531 0.002845097078 -0.0001578323383)
(0.009850629918 0.002505301332 0.0001056443647)
(0.009609868861 0.002579605042 -0.0001585400054)
(0.00919587699 0.002478518565 5.523036011e-07)
(0.009128219813 0.002576522495 3.444365801e-05)
(0.009142249406 0.002309369121 -0.0001401483137)
(0.008957147704 0.002266955526 0.0001040695927)
(0.008787045656 0.002126301556 -0.0001355517258)
(0.008766476274 0.002122097339 -6.065214578e-05)
(0.008705333543 0.001717198433 -0.0001549818172)
(0.01115173131 0.002732176002 3.687797481e-06)
(0.01171409606 0.002994085647 8.711888623e-06)
(0.01191229096 0.003105797048 -0.0002115143388)
(0.01226503405 0.003426552647 -0.0001358503175)
(0.01244189218 0.003497174037 -0.0001334556403)
(0.01282496262 0.003891832767 -0.0001031213349)
(0.01278009322 0.003774521485 -0.0001144409328)
(0.01255712654 0.003632220544 -2.226828916e-05)
(0.01242597836 0.003771679532 5.79239679e-05)
(0.01237060533 0.003514265098 0.0001428438269)
(0.01216310496 0.003653598605 0.000101190314)
(0.01196591669 0.003455637825 -3.618318877e-05)
(0.01200626789 0.003468241409 1.241768078e-05)
(0.01193469466 0.003560162423 -1.594933976e-05)
(0.01147785441 0.003479263049 -0.0001229488675)
(0.0111950122 0.003225327672 -9.115167218e-05)
(0.01104226129 0.003136485643 -6.708634257e-05)
(0.0109738354 0.003257718571 -0.000177633392)
(0.01097770645 0.003087336217 -7.441385599e-07)
(0.01056571345 0.003100342309 -3.34153367e-05)
(0.01060686205 0.002997097305 -0.0001017009857)
(0.01037134054 0.002921340494 -1.648534193e-05)
(0.01013738693 0.002772694559 -0.0001607997158)
(0.01019166995 0.002737945485 -0.0001344421602)
(0.01017364967 0.002695427128 -0.00016301575)
(0.01006658428 0.00273381239 -3.54321608e-05)
(0.009953454263 0.002537910185 5.63302549e-05)
(0.009813661132 0.002450308155 -0.0001579747141)
(0.009703413665 0.002315691141 -0.0001882696178)
(0.009472444093 0.002015433643 4.047112869e-05)
(0.01102308397 0.002241246048 -9.403429769e-05)
(0.01120660176 0.002588590094 -7.423040299e-05)
(0.01161499985 0.002729633501 6.340885819e-05)
(0.01194884667 0.003109436727 4.715154147e-05)
(0.01216642176 0.003220958418 6.87091284e-06)
(0.01220299078 0.003374902443 2.59193144e-06)
(0.01272548013 0.003711812093 3.210780734e-05)
(0.01289135776 0.003753680216 -1.532942531e-05)
(0.01253750612 0.003750761376 -6.620776586e-05)
(0.01261852987 0.003683833648 -0.0001989549734)
(0.01265287599 0.003746735795 -0.0002108765387)
(0.0126262104 0.003623929162 1.874170946e-05)
(0.01258983821 0.003690673326 -3.61108231e-05)
(0.01241523606 0.003736348911 2.065641171e-05)
(0.01258055827 0.003836816354 -0.0001029438605)
(0.01246961307 0.003578670321 -0.0001019662539)
(0.01214602957 0.0035289052 -7.933221514e-05)
(0.01200991038 0.003532926778 -2.691077906e-05)
(0.01155341205 0.003465092611 4.902079652e-05)
(0.01166420601 0.003279653566 -0.0001117769092)
(0.01149330122 0.003310752064 3.821437527e-05)
(0.01121476152 0.00310775352 -4.52556148e-05)
(0.01134469227 0.002982095791 -9.973825687e-05)
(0.0111711459 0.002988793264 -5.275302854e-05)
(0.01078291946 0.003029943518 -0.0001684279282)
(0.01080195288 0.002847984887 -7.689017693e-05)
(0.01067550464 0.00280419791 -6.837499313e-05)
(0.01067888764 0.002683916838 9.462161019e-05)
(0.01054723647 0.002620901199 8.287102563e-05)
(0.01035394906 0.002275202164 -1.348782005e-06)
(0.01035365478 0.001819642347 -3.866442896e-05)
(0.01079931048 0.002107577519 -3.109135192e-05)
(0.01115311559 0.002383583911 -5.413025075e-05)
(0.01128213204 0.002572336094 -0.0001328601953)
(0.01182727709 0.002974586718 5.726479983e-06)
(0.01206291588 0.00318876471 2.43634455e-05)
(0.01207973157 0.003255013849 1.656388505e-06)
(0.01251225834 0.00347482926 -6.702918962e-05)
(0.01257241371 0.00372249002 -3.326656746e-05)
(0.01278407254 0.00378388107 1.827886692e-05)
(0.01267736578 0.003641378132 -0.0001432028722)
(0.01279531349 0.003692699642 3.230621936e-05)
(0.01256941678 0.003601494392 4.629468897e-05)
(0.01263088746 0.003700721062 -5.668172217e-05)
(0.01257500224 0.003771479468 -2.096274311e-06)
(0.01256593807 0.003764003898 -6.164999122e-05)
(0.01259524125 0.003714253299 -0.0001415010156)
(0.01254700333 0.003564260039 2.917157774e-05)
(0.01271087417 0.00364698667 -5.589677751e-05)
(0.01210947928 0.003650023694 7.531838225e-05)
(0.01179975756 0.003542836449 1.116949301e-05)
(0.01182492928 0.003361570979 7.412568028e-05)
(0.01143421653 0.003123063766 -7.410800059e-05)
(0.01143529726 0.003106333451 -1.450005636e-05)
(0.01155206087 0.003158146907 -3.927543371e-06)
(0.01114826156 0.002904955085 -0.000160835652)
(0.01114742664 0.002940155904 -0.0001365274272)
(0.01120867657 0.002853483637 -4.839648957e-05)
(0.01106880426 0.002768151445 6.228653867e-05)
(0.01095573351 0.002533296024 5.195283055e-05)
(0.009529083702 0.001368753015 4.432324149e-05)
(0.009704308064 0.001614881269 -1.903609532e-05)
(0.010231338 0.001916444143 8.07488393e-06)
(0.01076190222 0.0020741129 2.851304395e-05)
(0.0110622886 0.002372938025 -5.303304033e-06)
(0.01143215905 0.002801045007 -7.31546694e-05)
(0.01192667509 0.003083804888 -3.35378599e-05)
(0.01205874022 0.003076207121 -7.345160693e-06)
(0.01261074974 0.003387043848 1.802036955e-05)
(0.01277429984 0.003598672776 -5.367931692e-05)
(0.01285881023 0.003607285447 8.378470384e-05)
(0.01279871163 0.003674971806 -2.668863045e-05)
(0.01291415632 0.003642766064 -8.811884834e-06)
(0.01311244535 0.003925140523 -2.541396643e-05)
(0.01305004235 0.003723021177 -6.461463957e-05)
(0.01315824404 0.003789401118 -7.99247992e-05)
(0.0129863288 0.003671705423 -2.207805055e-05)
(0.01279576578 0.003771607603 -0.0001133586392)
(0.01255903933 0.003764027018 -7.826462473e-05)
(0.01268327825 0.003893309562 -0.0001514738421)
(0.01259725414 0.003653848832 -0.0002048548597)
(0.01263320456 0.003505469224 -0.0001692423942)
(0.01262956967 0.003490783355 -9.520844611e-05)
(0.01217565247 0.003244343813 -7.686799968e-05)
(0.01221517022 0.003327617531 7.056663039e-05)
(0.01223153239 0.003392027409 -3.42694113e-05)
(0.01168395286 0.003106269884 -9.023754242e-05)
(0.01146746867 0.002940772837 1.818493952e-05)
(0.01100410903 0.002848482528 -8.437579973e-05)
(0.01102512854 0.002704825215 -3.879652796e-05)
(0.009222817557 0.001118747323 -0.000114048123)
(0.009646910307 0.001217160102 -0.0001133673942)
(0.009776568368 0.001384839921 -0.0001342504076)
(0.009938104807 0.001668587428 -4.091957197e-05)
(0.01030962801 0.00185923493 -5.199966689e-06)
(0.01078427527 0.002124277818 7.707535971e-05)
(0.01125832782 0.002509832939 -4.331764377e-05)
(0.01185240019 0.002763450058 3.221535663e-07)
(0.01220490585 0.002954019228 -2.395048253e-05)
(0.01276154978 0.003274818332 -5.859461517e-05)
(0.01311085701 0.003572888607 -0.0001571733703)
(0.01324204799 0.003694484488 -0.0001242580074)
(0.01316141222 0.003548991589 -0.000147934561)
(0.01332522254 0.003598672196 -1.838455796e-05)
(0.01335449936 0.00390714101 4.601420146e-05)
(0.01313666213 0.003723348667 1.144117043e-05)
(0.01322433767 0.003900079526 -4.993246922e-05)
(0.01312595127 0.003895988337 -4.990322607e-05)
(0.01317272893 0.003878120725 -1.304237607e-06)
(0.01346588595 0.003781263451 -7.12020393e-05)
(0.01362232557 0.003852413379 -4.059393132e-05)
(0.01351935117 0.003739264612 -3.5897444e-05)
(0.01295642057 0.003697608165 7.991265422e-06)
(0.01275292502 0.003726750497 0.0001190323518)
(0.01220160177 0.003316798916 3.287982371e-05)
(0.01219191059 0.003401715972 9.655870367e-05)
(0.01233245415 0.00320422875 -1.199860737e-05)
(0.01261567915 0.003395605632 -0.0001335963408)
(0.01250821291 0.003166239084 5.229847948e-06)
(0.01210382761 0.00295384575 -2.085154738e-05)
(0.009203447062 0.000785481421 3.591246929e-05)
(0.00940390378 0.0009628359517 5.281109753e-05)
(0.009732766327 0.001208634639 -2.735880258e-06)
(0.009964794455 0.001322361756 -3.618773375e-05)
(0.01018817979 0.001549843257 -6.376288583e-05)
(0.0103135236 0.001682439073 -4.323387793e-05)
(0.01075328985 0.002029284015 8.707732126e-05)
(0.01116432233 0.002056732637 -1.81749886e-05)
(0.01152803953 0.00245685022 6.843220438e-05)
(0.01169522156 0.002778140583 -1.556368611e-05)
(0.01204084055 0.003019768853 -8.054812892e-06)
(0.01250521622 0.003212652549 3.309568447e-05)
(0.01297076424 0.003625414446 6.913549012e-05)
(0.01278075715 0.00340328283 2.300922228e-05)
(0.01292024132 0.003578015729 5.734564127e-06)
(0.01335791282 0.003858404549 4.965541089e-05)
(0.01347165633 0.00374379629 -4.899377154e-06)
(0.01374003423 0.003737394181 -4.401758231e-05)
(0.01406587976 0.003922385129 -3.542077187e-05)
(0.01372344763 0.003980378046 -4.308916157e-05)
(0.01340563733 0.003869919882 3.357137552e-05)
(0.01324772495 0.003783258694 0.0001079056022)
(0.01319689883 0.003845888216 -0.0001203515405)
(0.01351085039 0.003760102856 -0.0001519404191)
(0.0135143038 0.003625744628 -6.796016689e-05)
(0.01363804147 0.003580830086 3.130162311e-05)
(0.01330357383 0.003578808396 7.513682843e-05)
(0.01291181912 0.003298712314 1.776951394e-05)
(0.01260923176 0.003362064907 -2.526738285e-05)
(0.01259050885 0.003327299126 -2.170415845e-05)
(0.008942496058 0.000560908568 -4.517890327e-05)
(0.009062988976 0.000652700308 -4.236498191e-05)
(0.009235122904 0.0008621201521 -2.903714237e-06)
(0.009447308584 0.001043894602 -1.522866191e-05)
(0.009791804407 0.00123641836 6.114799678e-07)
(0.01027418076 0.001412606406 2.658701778e-05)
(0.01042567691 0.001635301551 -7.666036525e-06)
(0.01054395075 0.001902197174 -1.599797685e-05)
(0.01067637226 0.002095104619 1.139523835e-05)
(0.01111400922 0.00228666818 0.0001044321755)
(0.01161030501 0.002518480109 4.065272221e-05)
(0.01202258802 0.002847848035 6.16069288e-06)
(0.01247399516 0.003080226448 -5.143889036e-05)
(0.01289438442 0.003317692777 0.0001186588929)
(0.0132476122 0.003430031753 0.0001646606101)
(0.01334283788 0.003519646069 0.0001397295866)
(0.01360055085 0.003636609022 5.44445487e-05)
(0.01364772574 0.003693696546 4.805305763e-05)
(0.01351874652 0.003673649439 -2.476602116e-05)
(0.01381077341 0.003891795008 6.42788921e-05)
(0.01397695833 0.004007870792 -2.048288794e-05)
(0.01403068998 0.004051888111 3.237287577e-05)
(0.01404687708 0.003819608128 -8.526421658e-05)
(0.01375192832 0.003864203176 6.995195904e-07)
(0.01344981935 0.003743529426 -6.280417999e-05)
(0.01330328879 0.00364904474 -0.0001571175379)
(0.01301804677 0.003720888954 -0.0001325512116)
(0.01266653158 0.003512697925 -0.0001100896711)
(0.01290316081 0.003449127393 -9.780538511e-05)
(0.01286225816 0.00337398785 -3.995549582e-05)
(0.008555087788 0.0004754319888 3.891766401e-05)
(0.008705543721 0.0005273345156 -1.60989993e-05)
(0.008784268489 0.0005850801752 7.267076701e-05)
(0.00917053055 0.0007365432958 3.34218914e-05)
(0.009360735592 0.0009181220916 1.296922263e-06)
(0.009319289909 0.001040851823 1.919763564e-05)
(0.009589661325 0.001234712342 1.420009925e-05)
(0.009905044701 0.001467412462 -1.830326428e-05)
(0.01047101035 0.001658348947 4.855773113e-05)
(0.01085619021 0.001842092521 0.0001013577239)
(0.0112515703 0.002045110075 2.755953611e-05)
(0.01179274008 0.002333824394 5.362617408e-05)
(0.0120926495 0.002597078778 8.638668877e-05)
(0.01248891699 0.002985917229 7.586266371e-05)
(0.01258349589 0.003137200352 -6.100715075e-06)
(0.01299611267 0.00322607364 4.253630199e-05)
(0.01312758954 0.003356011125 5.444660185e-05)
(0.01349019885 0.003570433788 -1.58267756e-05)
(0.01333616576 0.003603341452 2.09061823e-05)
(0.01338768026 0.003624982003 1.722543014e-05)
(0.01370587073 0.00375583587 -1.857086901e-05)
(0.01369681135 0.003855156233 -6.202758513e-06)
(0.01367659523 0.003905518037 -6.759127541e-06)
(0.01370329522 0.003968624842 -2.532031597e-05)
(0.01352983087 0.003839659204 -5.242364879e-05)
(0.01332779771 0.003749471607 -2.550770527e-05)
(0.01368804803 0.003813701792 -3.881435182e-05)
(0.01349292245 0.00370903654 5.986883961e-06)
(0.01314681859 0.003483843344 -6.973615713e-05)
(0.01327516269 0.003338223236 -0.0001524784031)
(0.008868642506 0.000342190427 5.952019301e-05)
(0.008979602635 0.00039594884 6.097447119e-05)
(0.009091286034 0.0004197898376 1.093859069e-05)
(0.009091259851 0.0005772979865 -1.981019923e-05)
(0.009191597305 0.0007637320688 -4.423432224e-05)
(0.009584013296 0.0009407845897 -5.290802912e-05)
(0.009844404544 0.0009765968136 -1.371579453e-05)
(0.01017921193 0.001151150321 -3.528905889e-05)
(0.01038907612 0.001300467623 -7.791752679e-05)
(0.01060678569 0.001528890531 -5.838809017e-05)
(0.01078131504 0.00174511478 2.996521166e-05)
(0.01074910632 0.001826832584 -1.032970738e-05)
(0.0110754855 0.002169282989 -0.000107159438)
(0.0116733668 0.002417453076 -1.212043392e-05)
(0.01233187334 0.002684930838 -3.373978081e-05)
(0.01261503059 0.002907255228 3.635852158e-05)
(0.01279382815 0.003153937061 7.145269784e-05)
(0.01289677385 0.003228462727 0.0001273396356)
(0.01348048745 0.003516147778 7.01268562e-05)
(0.01382320186 0.003543132967 0.000131204245)
(0.01387288831 0.003645317571 2.579987087e-05)
(0.01413811533 0.003819560348 -6.527834938e-05)
(0.01422582924 0.00397626449 2.158355467e-05)
(0.01397413605 0.003980445042 9.655331796e-06)
(0.01435809912 0.003922365697 -2.139173338e-05)
(0.01408365029 0.003839911584 3.257057839e-06)
(0.01411476515 0.003815425737 -2.423415449e-05)
(0.01409377895 0.00386857137 0.0001230370193)
(0.01416944006 0.003715078486 4.175629255e-05)
(0.01386228439 0.003550325921 -8.053559706e-05)
(0.008516734071 0.0002317396367 -5.83510677e-05)
(0.008535334689 0.0003306402814 -4.192533686e-05)
(0.008633918334 0.0004201058863 6.310275831e-07)
(0.008671378507 0.0004311774217 1.081795994e-05)
(0.009131608301 0.0005007930889 -5.996611733e-05)
(0.009084292835 0.0005975753923 -3.231086501e-05)
(0.009309733678 0.0007637153505 -7.201415062e-05)
(0.009470977414 0.0008828587008 -4.077858626e-05)
(0.00960130077 0.001004600678 -4.262850838e-05)
(0.009821093156 0.001191965418 5.839447653e-06)
(0.01010601229 0.001434954493 4.500912807e-06)
(0.01060509825 0.001577943907 2.370272568e-05)
(0.01082339246 0.001711883619 -6.993729729e-06)
(0.01097353217 0.001888391984 9.15044466e-05)
(0.0113477761 0.002186363726 3.97708617e-05)
(0.01176988968 0.002436185311 4.453244623e-05)
(0.01208662945 0.002765004363 3.62647491e-05)
(0.01255341961 0.002957649779 2.036036979e-05)
(0.01250794192 0.002902580023 3.228796576e-05)
(0.01314533074 0.003241199189 -7.753754804e-06)
(0.01363298542 0.003453188563 7.44644872e-05)
(0.01371362533 0.003628145837 0.0001623238659)
(0.01389128297 0.00360843047 2.673759747e-05)
(0.01451661898 0.003930786142 1.266507755e-05)
(0.01452823578 0.003938276214 1.967396543e-05)
(0.01468046225 0.003978533223 -5.838559202e-05)
(0.01436756795 0.003832075774 -4.447855247e-05)
(0.014510831 0.003925535899 -2.009729232e-05)
(0.01422789045 0.003789098919 2.896216045e-05)
(0.008736124597 0.0002091674168 4.69129358e-05)
(0.00879496853 0.0002493460728 3.697925936e-05)
(0.008843693466 0.0002468077529 1.629198223e-06)
(0.008987877618 0.0003295422639 2.378348582e-05)
(0.008905810126 0.0003811551107 6.156640861e-05)
(0.009082008578 0.000427165828 -1.936611454e-05)
(0.009257509838 0.0005930715437 -3.047506328e-06)
(0.009382870184 0.0006751811036 -2.67191703e-05)
(0.009436479838 0.0009032824408 9.346384925e-06)
(0.009854843961 0.0009396084229 -1.689345521e-05)
(0.009962730366 0.00108867138 1.526776824e-05)
(0.01013495411 0.001259879996 -9.761154703e-06)
(0.01029395491 0.001428920391 6.157595126e-05)
(0.01059533613 0.001608326625 2.511922663e-05)
(0.01096634489 0.001867476009 8.857243867e-05)
(0.01117422978 0.002024864033 2.483518201e-05)
(0.01166666158 0.002289939831 -2.472516928e-06)
(0.0120154039 0.002530706943 6.93615117e-05)
(0.01259183275 0.002724745 1.292939832e-05)
(0.01241999827 0.002827426638 3.638349069e-05)
(0.01271482443 0.002960502005 -8.231507661e-07)
(0.01328809527 0.003258016641 4.609443333e-06)
(0.01352239316 0.003414765311 -3.706169657e-06)
(0.01370978334 0.003519434645 -4.754648992e-05)
(0.01397368088 0.003641441015 -3.54517815e-05)
(0.008736912224 0.0001514255941 -5.34833052e-05)
(0.008672238744 0.0001805816344 -7.214876019e-05)
(0.008837970518 0.0002303668187 -6.724581596e-05)
(0.00863440106 0.0002405906968 -6.111411886e-05)
(0.008784919294 0.0003259135882 -5.211171615e-05)
(0.008936085757 0.0003948183064 -3.988849203e-06)
(0.008890479642 0.0004098666506 1.881723721e-05)
(0.00890296964 0.0005425687405 3.046901027e-05)
(0.009232467765 0.0005833000819 9.873850541e-06)
(0.009330220567 0.0007450714344 4.34716586e-05)
(0.009416848643 0.0008227372455 4.756500294e-05)
(0.009605701662 0.0009727606808 4.368130455e-05)
(0.00992554517 0.001113078699 -4.999227119e-05)
(0.01008947528 0.001283373491 -0.0001146474628)
(0.01040389365 0.00148572569 -7.307097532e-05)
(0.01088068219 0.001703520149 -2.151742713e-06)
(0.01136284353 0.001772502502 -9.018182626e-06)
(0.01183682028 0.002181290849 1.67648937e-05)
(0.01192874527 0.002419535456 0.0001449743166)
(0.008591758476 0.0001903639228 6.329369822e-06)
(0.008627358747 0.0001482234119 4.245976474e-05)
(0.008699522965 0.0001631209228 4.421410836e-05)
(0.008776147057 0.0002152589978 3.587365073e-05)
(0.008676414959 0.0002200128233 3.976717761e-05)
(0.008726737211 0.0002436328825 5.458017249e-05)
(0.009004408958 0.0003578802599 6.425144374e-06)
(0.009067751507 0.0004317390779 -4.227987288e-06)
(0.009080772026 0.0005083822473 -1.484545838e-05)
(0.008702078095 0.0005418278865 -6.413604418e-06)
(0.00906471984 0.0007091543143 -2.859463745e-05)
(0.009319770587 0.0007901712231 -3.421943484e-05)
(0.009479859981 0.0008585394481 4.562166824e-05)
(0.009947946979 0.0009529677441 0.0001129237598)
(0.008743450069 0.0001073824288 -1.403819657e-06)
(0.008726495547 0.0001504013756 -8.665446641e-07)
(0.00863589001 0.000178142081 2.575655023e-05)
(0.008716142105 0.0001696135633 1.048410174e-05)
(0.008685254802 0.0002355165531 3.488636081e-05)
(0.008582256416 0.0002535156578 5.402610885e-05)
(0.008535144403 0.0002916429426 4.461051312e-05)
(0.008566815091 0.0003638354103 4.532933778e-05)
(0.008227382247 7.421392608e-05 4.479372016e-05)
)
;

boundaryField
{
    flow
    {
        type            calculated;
        value           nonuniform List<vector> 
15
(
(0.003888741856 0.0007434066325 1.844853928e-05)
(0.005534679353 0.000807173679 4.86059017e-05)
(0.006530551052 0.001054435221 -0.0001742493045)
(0.007418216455 0.001411701074 3.4955794e-05)
(0.007696611917 0.001441831957 -0.0001485553742)
(0.008705333543 0.001717198433 -0.0001549818172)
(0.009472444093 0.002015433643 4.047112869e-05)
(0.01035394906 0.002275202164 -1.348782005e-06)
(0.01095573351 0.002533296024 5.195283055e-05)
(0.01102512854 0.002704825215 -3.879652796e-05)
(0.01210382761 0.00295384575 -2.085154738e-05)
(0.01259050885 0.003327299126 -2.170415845e-05)
(0.01286225816 0.00337398785 -3.995549582e-05)
(0.01327516269 0.003338223236 -0.0001524784031)
(0.01386228439 0.003550325921 -8.053559706e-05)
)
;
    }
    obstacle
    {
        type            calculated;
        value           nonuniform List<vector> 
30
(
(1.096946168e-21 2.939258403e-22 1.339714931e-22)
(1.384584257e-21 3.709982342e-22 -6.862052556e-23)
(1.112902573e-21 2.982013447e-22 -1.876366368e-23)
(1.268980274e-21 3.400222401e-22 4.384075379e-23)
(1.123742691e-21 3.011059457e-22 7.298217127e-23)
(1.192410482e-21 3.195054263e-22 1.185307006e-22)
(1.0165233e-21 2.723765978e-22 -3.592858134e-23)
(1.102456043e-21 2.954022056e-22 -1.313849987e-22)
(1.166130734e-21 3.12463789e-22 1.98261701e-22)
(1.043474518e-21 2.795981548e-22 -5.088997963e-23)
(1.458918753e-21 3.909161003e-22 -1.55064334e-23)
(8.100164409e-22 2.170432516e-22 1.358295972e-22)
(1.198695998e-21 3.211896251e-22 6.874953336e-23)
(1.469756251e-21 3.938199993e-22 -1.35021609e-23)
(4.519161025e-22 1.210905549e-22 6.437184731e-22)
(1.06679212e-21 2.858460861e-22 3.352818203e-23)
(9.857059022e-22 2.64119101e-22 9.90834715e-23)
(1.183111676e-21 3.170138188e-22 2.667924713e-23)
(9.999069936e-22 2.679242706e-22 -1.850933842e-23)
(1.007511894e-21 2.699619989e-22 5.979011544e-23)
(8.324844071e-22 2.23063525e-22 -1.46678989e-22)
(9.565872151e-22 2.56316771e-22 -1.522145568e-23)
(1.106785118e-21 2.965621791e-22 -9.906419959e-23)
(9.319645695e-22 2.497191542e-22 7.026222961e-23)
(8.228964736e-22 2.204944449e-22 2.512954524e-22)
(9.739012515e-22 2.609560543e-22 -4.898880931e-23)
(9.57203365e-22 2.564818678e-22 1.042372101e-22)
(1.160104806e-21 3.108491464e-22 -2.943649207e-22)
(1.089618638e-21 2.919624345e-22 7.095586716e-23)
(1.075091861e-21 2.88069995e-22 1.530063864e-22)
)
;
    }
    frontAndBack
    {
        type            empty;
    }
    procBoundary1to0
    {
        type            processor;
        value           nonuniform List<vector> 
21
(
(0.005885719831 0.001730826342 2.90113715e-05)
(0.008909082694 0.002500898419 -5.985264855e-05)
(0.01022905152 0.003119922337 -0.0001002390617)
(0.01092978739 0.003418712368 2.338397835e-05)
(0.0117181238 0.00349649845 0.0001370731841)
(0.01106713756 0.002814415469 -9.488748784e-05)