/*--------------------------------*- C++ -*----------------------------------*\
| =========                 |                                                 |
| \\      /  F ield         | OpenFOAM: The Open Source CFD Toolbox           |
|  \\    /   O peration     | Version:  2406                                  |
|   \\  /    A nd           | Website:  www.openfoam.com                      |
|    \\/     M anipulation  |                                                 |
\*---------------------------------------------------------------------------*/
FoamFile
{
    version     2.0;
    format      ascii;
    arch        "LSB;label=32;scalar=64";
    class       volVectorField;
    location    "0.001";
    object      momentum;
}
// * * * * * * * * * * * * * * * * * * * * * * * * * * * * * * * * * * * * * //

dimensions      [1 -2 -1 0 0 0 0];

internalField   nonuniform List<vector> 
546
(
(0.008901187627 0.004275704704 0.001650761659)
(0.004284424697 0.000946874997 0.0002948208551)
(0.006389033974 0.001651282751 -0.0004605823382)
(0.006291531442 -0.001374081417 -0.001042556707)
(0.003114080216 0.002658293439 -0.002042213502)
(0.002126424306 0.0008036543785 -1.889312095e-05)
(0.002811934829 0.001163904352 -0.000118892113)
(0.004998088097 0.0002957039785 0.002198258708)
(0.00105276987 0.0003068287211 0.0009680336454)
(0.004191007355 0.002165889169 -0.001648177563)
(0.006686882784 0.001501434839 4.964596043e-05)
(0.004710832954 0.001544656995 0.0008515540837)
(0.004198191641 -0.0008364877938 -0.0008073688905)
(0.0006284955774 2.423908271e-05 -0.0009877057225)
(0.001666010366 0.001354268161 0.0007535674579)
(0.00621866855 -0.0004445814578 -0.002234835626)
(0.002731441477 0.001718670455 -0.0001820733315)
(0.002748197214 2.490642688e-05 0.001238033601)
(0.002052008927 0.0004028429268 0.0005860413701)
(0.002452698831 -0.001018641606 -0.0008788307016)
(0.003103775999 0.003076213282 0.0003092557057)
(0.002670041371 -0.002256439416 0.002399249373)
(0.00474205848 0.001518558626 0.001045111038)
(0.001642699228 -0.0003839983303 -0.0006760543674)
(0.002978937167 0.001031737784 -0.0003941670386)
(0.0004999447937 0.0008908391753 0.000864552851)
(0.0004091948051 0.0005829703156 0.002388472068)
(0.003448672508 -0.0007134022609 -0.003484927275)
(0.004948955618 0.00124859095 -0.0009033213269)
(0.003988498345 0.001536279343 0.00128373674)
(0.004448861862 0.003059329618 7.40687098e-05)
(0.005051718645 0.00377166532 2.028821857e-05)
(0.006144231218 0.002970736431 0.001436280483)
(0.00735192687 0.0006709059283 -4.244778522e-06)
(0.00617233987 0.001836362374 -8.489638718e-05)
(0.008748284573 0.001822372446 0.0007236772291)
(0.007145697906 0.002631982759 -0.0001828360932)
(0.006219982612 0.0008335333083 -0.002609882237)
(0.00637669996 0.0001112260951 -0.0001935181862)
(0.0039222556 0.002748521666 -0.0003045627394)
(0.007800034972 0.001087451436 0.0005804451853)
(0.00502749021 0.003283544498 0.0005826595649)
(0.00511688725 4.875323698e-05 0.000531123692)
(0.00491889178 0.002689031527 -0.001638749625)
(0.01004657968 -0.001015836881 -0.0003593472281)
(0.002803563154 0.001561011999 0.0001193241042)
(0.002974576297 0.0007182727181 0.00055600244)
(0.004946212514 0.002239796873 0.0003141212927)
(0.005601682921 -0.0003955880793 0.0002831429278)
(0.006182462341 -0.001244742135 0.0008769283605)
(0.003702570726 0.001191357405 0.00118864413)
(0.003113862263 0.00222569744 0.000680793666)
(0.005884897323 0.001706698948 -0.0009701824789)
(0.003888726044 -0.0008552234137 -0.0002083036586)
(0.001086033832 0.00325290761 -0.001696115013)
(0.003034209512 0.001869981069 0.00239880699)
(0.007604834011 0.001425623298 0.0006277418381)
(0.006051725504 0.0003827283652 0.0003913302835)
(0.005147606992 0.0004699600495 -0.0009625686882)
(0.005388323297 0.0005449207272 0.0007253618764)
(0.01261776066 0.003383632274 -0.0005890429091)
(0.01031981165 0.006637876122 0.001123265294)
(0.008203753099 0.001197395371 -0.0005465078259)
(0.009743661239 0.004051796899 -0.002401634225)
(0.009866463117 0.004062180827 0.000443567366)
(0.01153450519 0.001711688836 0.001746872802)
(0.01164116866 0.002849393679 -0.0007247105455)
(0.009702017512 0.00415876693 -0.001720459777)
(0.006653965098 0.00243281024 -0.0001665946954)
(0.008954091353 0.0004307422327 -0.001949977322)
(0.009481723528 0.001438296095 0.0002292514891)
(0.007697580171 0.003269168936 -0.0004020863166)
(0.007623979029 0.001910654429 0.000474246741)
(0.0075908342 0.002004327973 -0.001690852798)
(0.01081353241 0.0002302418545 0.002396662818)
(0.007731808154 0.00262203996 0.001061012346)
(0.006369262537 0.001760688852 0.001812233934)
(0.007275465761 0.002805366269 0.002474278196)
(0.004028972193 0.001720504939 -0.0006439389972)
(0.003937787886 0.000465155852 0.002387997938)
(0.00456746661 0.0003666619361 0.001615706901)
(0.008012163165 0.001691212057 3.272802254e-06)
(0.005401841897 0.003048186736 -0.0002179130112)
(0.009675291985 0.003637189455 0.0005430297518)
(0.006899106155 0.001149398156 -0.0002497670213)
(0.004101178496 0.002760818275 -0.001272090739)
(0.008273682578 0.002816781925 0.001287649641)
(0.003511130511 0.001896496957 7.842733426e-05)
(0.005857074338 0.001860179897 -0.00091871932)
(0.004393025959 -0.0001380899995 0.001412366646)
(0.01077418613 0.001381258887 -0.0005608901506)
(0.01215621156 0.004142754249 0.0006426936312)
(0.01168608898 0.004769723892 0.0005980155464)
(0.008782601038 0.003304111832 0.0004885109626)
(0.01441895304 0.005940411155 -0.0003686034914)
(0.007337397259 0.002212282179 -0.0003581804706)
(0.008728417448 0.003975763253 -3.25700594e-05)
(0.01113046278 0.005396835702 0.0009755823089)
(0.009573411189 0.001712300649 0.0006855077609)
(0.01010608051 0.002374628007 0.0003855727813)
(0.007009880993 0.002392617856 0.0009021106479)
(0.00467677421 0.002079449163 -0.0001385359384)
(0.01281970756 0.006637665144 0.00170859126)
(0.009242445188 0.002526619179 0.0004175020625)
(0.00677335281 0.001124603984 0.001365636349)
(0.009445523736 0.00200726374 0.001964447793)
(0.01019518688 0.003887423127 0.001260916231)
(0.005618340792 0.001057233733 -0.0006824359385)
(0.009001510101 0.002723136094 0.0006785556413)
(0.01201701048 0.003425371784 -0.00388865821)
(0.00400928966 0.001313334423 -0.0005512999247)
(0.008330057328 0.002372638363 0.0005637216827)
(0.006834651079 0.001382857186 -0.001972471171)
(0.006130962383 0.002287418331 -0.001901479487)
(0.008644237692 0.001263441017 -0.0001433878902)
(0.005596462642 0.002564691673 -0.0001550529011)
(0.006464724526 0.001650905485 -0.001620855729)
(0.005053681252 0.0004690930155 -0.000174773087)
(0.01024780015 -0.0009912244774 0.002346737083)
(0.005055490934 0.0009444513923 0.0007229453266)
(0.006632490795 0.005628021897 -0.0003682483353)
(0.01494108851 0.006962705751 0.0002421016364)
(0.01102330623 0.004744024788 0.001974646961)
(0.01557192197 0.004073865008 2.429001133e-05)
(0.01322169166 0.00383383994 0.002023153559)
(0.007702310281 0.003272893254 0.001292792125)
(0.01423499077 0.004700355006 0.001051379938)
(0.006961141234 0.001573456463 0.0005664709402)
(0.009912231729 0.003307543697 0.0003669430121)
(0.01208698175 0.003915840744 0.0006503420349)
(0.01581728724 0.005615494008 0.00128292392)
(0.01244835139 0.004114258638 -2.699888884e-05)
(0.009486531732 0.0009718844973 0.002164400813)
(0.007224378495 0.004286121463 0.001680664656)
(0.001182523248 0.001075981534 0.000345858758)
(0.00978070973 0.0007782492379 0.0008156823522)
(0.003954413908 0.002393903216 -0.001639887611)
(0.01039839624 0.003983254097 5.349609512e-05)
(0.009679873622 0.005514255268 0.000305063268)
(0.01048167586 0.001140130716 -0.0025107118)
(0.008781796568 0.00331867149 -0.002452684)
(0.007786184985 0.002653729181 0.0005272897638)
(0.01239033474 0.004896847764 0.0006107437408)
(0.008079899267 0.001848358849 0.0001665935581)
(0.01136715902 0.004462380914 -0.0001405959756)
(0.009519953885 0.003757437132 -0.001771433479)
(0.005462493736 0.001823689805 0.001630638715)
(0.003962182704 -0.0002260850242 -0.0004821361844)
(0.007050692499 0.003091292352 -0.002121334712)
(0.008518804161 0.00125271479 -0.0003061567843)
(0.01163632636 0.001956322044 0.00107977263)
(0.0123947819 0.002667094813 0.0009215903272)
(0.0154574837 0.001533972174 -0.0005375213777)
(0.01417717092 0.003947028401 3.806685365e-05)
(0.006785682022 0.001705262926 -0.0001806688775)
(0.01116916788 0.005372330614 -0.001292301298)
(0.01124588556 0.005153837844 0.001897355888)
(0.009946189284 0.002174755894 -0.0002699433878)
(0.01588490937 0.003751640253 -0.001657115962)
(0.01080822493 0.007931526047 -0.0001151325261)
(0.01103527053 0.006020757108 0.002031982391)
(0.01025525033 0.002199379089 0.0003244990368)
(0.0115179035 0.002250987547 -0.0002972118659)
(0.009753603552 0.003377384521 0.0007048322607)
(0.01251085315 0.003999510703 0.001498322199)
(0.007891948071 0.005885881923 -0.0008844839941)
(0.01266598 0.005445017654 0.0002445225755)
(0.007076115226 0.004688567657 -0.0006607271978)
(0.01090996234 0.004790027718 0.0003919226842)
(0.0134430373 0.001826544249 -0.0006828527837)
(0.01210613135 0.003435442388 -0.001069585312)
(0.01160812392 0.002861444455 -0.0003414998624)
(0.01025112826 0.003782721879 0.00013532079)
(0.008468649397 0.003016589398 -9.620278747e-05)
(0.007648991528 0.001884169719 -0.001746205386)
(0.007074044051 0.001881624777 0.001641936568)
(0.008362449431 0.002861401802 0.0006475039032)
(0.007242446011 0.002231424421 -6.775557314e-05)
(0.007746596536 -0.0001312060023 0.001351566159)
(0.01015401854 0.002386258604 -0.001050190063)
(0.01492353388 0.004161302007 -0.0006787579778)
(0.01619596187 0.001183530987 0.001558576996)
(0.01086242616 0.003285740587 0.0002859825466)
(0.01143756173 0.0007997385556 -0.002818780806)
(0.01625174605 0.004738134986 -0.001462452068)
(0.01682392573 0.00768904214 0.002657614599)
(0.01450654252 0.004391636233 -0.001181161585)
(0.01338875052 0.004446853605 0.001532607146)
(0.01067236133 0.003245091102 0.001815785643)
(0.01665624793 0.004384734824 0.0009860229397)
(0.01474369838 0.006240595021 -0.000505715922)
(0.01015551072 0.003210089568 -0.001914634852)
(0.01074306093 0.002091850078 0.001485370277)
(0.007602246347 0.003687325647 -0.0003986607765)
(0.01053955269 0.0039303155 -0.0009670395262)
(0.01048166533 0.004165553372 0.0007941688271)
(0.0110631644 0.005219455013 -0.001125327199)
(0.01385143082 0.00286549247 0.0001430368097)
(0.01656100778 0.00684370575 -0.002148901028)
(0.009476931435 0.002655549294 0.0006973368076)
(0.01036963027 0.005595072434 0.002769766191)
(0.008291863756 0.00154298615 -0.001591223128)
(0.005317125213 0.001762732359 -0.0008104785762)
(0.005904495952 0.003309591087 -0.001057918915)
(0.008405520582 0.002414604858 0.001581749605)
(0.01443779883 0.004758932171 -0.0009595994856)
(0.01505217682 0.001437648983 0.0004362485536)
(0.006658561892 0.0001635449777 -0.0001770510627)
(0.007220429119 0.003294853826 -0.001476710765)
(0.009819485059 0.0001435416108 0.0008050467675)
(0.01239865575 0.002297530408 -0.0006306845117)
(0.008576433047 0.0004643943726 -0.0002723698698)
(0.01364911203 0.003287793437 -0.0004484847707)
(0.02039432074 0.007512671471 8.192197813e-05)
(0.01784545978 0.002624959556 0.0004091654924)
(0.008446719192 0.001768407533 -0.000632838377)
(0.01241617372 0.002054734227 -0.0007610223331)
(0.01427611918 0.005852981804 -0.0003884830609)
(0.01440709529 0.003203313351 0.0004866434172)
(0.01746910699 0.005806356147 -0.00140513549)
(0.01047093215 0.003494394857 -0.0004994633578)
(0.01596329854 0.006465118693 -0.00112315189)
(0.01591892711 0.007282377333 0.00123287523)
(0.006283682543 0.002014947342 -0.0002790323408)
(0.01476895523 0.003881471441 -0.0007364107491)
(0.009574242507 0.002150334899 0.001386633602)
(0.01109370996 0.003624088041 0.0001807527384)
(0.01823597072 0.004923041938 -0.000558086778)
(0.01379869174 0.004478239961 0.001832779574)
(0.01136033074 0.003712323025 -0.0008653835897)
(0.01175560399 0.001047063103 -0.001158985639)
(0.01389923775 0.002666018772 0.001246116166)
(0.01167341004 0.00522284343 0.0001958241485)
(0.01014456224 0.003125835415 -0.001519613744)
(0.01046332966 0.00403435709 -0.002146677807)
(0.01043120797 0.004542038003 -0.0005346784043)
(0.0104346755 0.00352775698 0.0007983041825)
(0.01646902702 0.003950718949 0.002560914141)
(0.00737403403 0.00174814639 -0.0003393878467)
(0.01194972636 -0.0006889741041 -0.0009340975596)
(0.01398311281 0.003325677813 -0.0002290289353)
(0.01035812198 0.002423656207 0.0001249820596)
(0.01171719711 0.001846310164 -0.001106631389)
(0.0115000668 0.000997423491 -0.0004227099211)
(0.01343018691 0.00376637188 -0.001356207856)
(0.0101335031 0.003119115602 -0.0006826059132)
(0.01352420052 0.004800758846 -0.001900485937)
(0.01126751846 0.002473426551 0.001163230907)
(0.01258492213 0.004309349171 -0.002363517977)
(0.01777198736 0.003435679748 0.00119342309)
(0.01083631584 0.005021842524 -5.02203503e-05)
(0.02137970385 0.01086806872 -0.0005838067869)
(0.0184720936 0.005910808522 -0.001504020514)
(0.009304021693 0.003977520726 -0.001644125438)
(0.01563782543 0.005309069671 0.001735186762)
(0.01710067056 0.005100406114 -0.001323412892)
(0.009015234502 0.00234388645 0.0002567662149)
(0.01790443324 0.002937153083 -0.0003768304807)
(0.01637572688 0.003095089524 -0.0009211739361)
(0.01230109739 0.005254147585 0.0001091430294)
(0.01496433956 0.004480389766 -0.00201296535)
(0.01234213817 0.004171657392 -0.000503428295)
(0.0157310958 0.003329713414 0.0006095068642)
(0.01586575077 0.004101683148 -0.001184610212)
(0.01302871014 0.003602721691 -0.002117946899)
(0.01404481101 0.004078134229 0.001723078561)
(0.01312037149 0.0019331609 4.164198285e-05)
(0.0123931065 0.003014776896 -0.0002515780528)
(0.009084229321 0.003064592389 -0.001201624238)
(0.009645932285 0.0009397876988 -0.001635200555)
(0.009370069715 0.003309232037 0.001058278587)
(0.003904001393 0.001380156587 0.0005810396092)
(0.005768209305 0.001468681031 0.0001449259896)
(0.01154018328 0.005126663281 -9.870642128e-05)
(0.009911747647 0.005940670373 0.001400242687)
(0.01142750522 0.002413570691 -0.0002434492748)
(0.01148745009 0.002540898377 -0.0007519508892)
(0.01656440461 0.003904997224 -4.776440031e-05)
(0.01010638709 0.004750059018 -0.002613831717)
(0.01190797416 0.005746304774 0.0005313623687)
(0.01262071453 0.003555723641 -0.0014423966)
(0.01140375309 0.00414959368 -0.0003640755366)
(0.01146632859 0.003867774 -0.0008254280525)
(0.01174398909 0.005684139496 -5.566444321e-05)
(0.01445466458 0.00411596154 9.523778511e-05)
(0.0140499721 0.00534731491 0.002393708972)
(0.01796398537 0.004040089222 0.0002001148301)
(0.01385645904 0.003821738033 -0.001122317785)
(0.01280715455 0.003914539935 0.0001271722774)
(0.02207605283 0.009664918698 -0.003613489361)
(0.01287486208 0.003987150664 -0.0008451784329)
(0.01480909245 0.004126915904 0.0005718487278)
(0.0128996237 0.00160460406 -0.001026422342)
(0.01024310482 0.002685790556 0.0008441402493)
(0.00937716222 0.00320723318 0.0004622969467)
(0.01419749636 0.004279862727 -0.002752221049)
(0.0101686482 0.005511701242 -0.003374452682)
(0.0159917201 0.004899633306 0.001393599147)
(0.008890861991 0.002007961368 -0.000787915634)
(0.0100450382 0.002820805617 -0.0008262167256)
(0.008571477858 0.0008007589692 9.549771346e-05)
(0.01172135992 0.003716884124 0.001078572847)
(0.01018936737 0.001303124534 -0.001335529873)
(0.01398656322 0.003883101548 0.0002539465479)
(0.01211784994 0.002729544196 0.0004523506822)
(0.01283753851 0.005711813206 0.001320843145)
(0.009637649062 0.0006029860908 -6.956379451e-05)
(0.01275210896 0.0009410986503 -0.001833836612)
(0.01176230813 0.005289812685 0.002394511741)
(0.01271566304 0.003561371685 -0.0008484057366)
(0.01534558758 0.006112813317 0.0006685929639)
(0.01604989642 0.002784477965 -0.000369367632)
(0.01485817434 0.003605105669 -0.0005122704941)
(0.01352072292 0.00177899985 0.001453622311)
(0.01777138538 0.00377017101 0.0007174300413)
(0.01256477781 0.005632500534 0.0002907052751)
(0.01672092782 0.005151796601 0.0004079835137)
(0.01238027392 0.002750149747 -0.002128652934)
(0.01057509937 0.003277750872 -4.684149618e-05)
(0.01099931008 0.004762826181 0.0003127930315)
(0.01261697316 0.001862403549 -0.0004749694245)
(0.01330053788 0.004579620777 0.001560611932)
(0.01269964754 0.00432391492 0.0002526657201)
(0.01182091249 0.003537715195 0.002728224586)
(0.007917666716 0.002637759301 -0.001976736192)
(0.01221157942 0.004214342961 -0.001481877494)
(0.008513428287 0.002984102784 3.632470687e-06)
(0.01376482041 0.003820935896 -0.001191524327)
(0.01420276246 0.006420433277 0.001464880274)
(0.005793161675 0.001928102808 -0.0008304297301)
(0.006743257722 0.0006381530638 3.109284477e-05)
(0.01149654319 3.872790765e-05 -0.001545440923)
(0.00997850982 0.001137540382 -8.210033733e-05)
(0.006954185283 0.001925420984 0.0004980580776)
(0.008079291782 0.001226038852 -0.001407459755)
(0.0081292543 0.002102674027 -0.0001369418074)
(0.01126994545 0.001737014895 0.0006853680754)
(0.01297482149 0.001049781588 0.0002562262931)
(0.01663573092 0.005299832695 0.0001819348619)
(0.01156312136 0.004585935295 0.0006178544361)
(0.01108309546 0.003953648263 0.001123622588)
(0.01195962311 0.004533478438 -0.0004383760781)
(0.0140332043 0.002775754466 -0.000534152633)
(0.01282759977 0.004249983844 0.0005057320426)
(0.01094756273 0.003287091356 0.001931866476)
(0.01214416003 0.005547596194 0.0007644122083)
(0.01306092684 0.001577867241 0.001453900119)
(0.007665562746 0.003930426628 -0.001164394885)
(0.01692770146 0.005023730483 -0.001136232373)
(0.01431169373 0.004688235658 0.001397921496)
(0.01472094142 0.004197131241 0.000277190401)
(0.01980157562 0.007130462405 0.003395458235)
(0.01814691274 0.005408912392 0.0001951823471)
(0.01880212131 0.006552049636 0.0009404328395)
(0.01555239134 0.006140297952 0.00168598112)
(0.01245049845 0.002659795092 0.0002890801762)
(0.01398554675 0.00291849368 0.002867896328)
(0.01342449049 0.004287436679 -0.0001342631381)
(0.01575916995 0.003019059152 -0.0003851495886)
(0.01311380348 0.004560767809 0.002408371499)
(0.008657026826 0.0004695405325 -0.0006304152022)
(0.006462551213 -0.0008456203487 -0.0006732534444)
(0.008233827848 0.001308753323 0.0004860073516)
(0.01087766013 0.002622369969 0.002131747763)
(0.009601423529 0.002582855398 -0.0008110016841)
(0.01227401578 0.002096369577 0.0003238269758)
(0.008296367367 0.00326956695 0.0002543491372)
(0.009138132599 0.003664326443 -3.372353033e-05)
(0.01213346888 0.00257300195 0.0004706222673)
(0.01324160778 0.0048765804 0.0005766507422)
(0.01337778167 0.006121669162 0.001016014834)
(0.008989866613 0.003777351005 -0.000827554742)
(0.01200593093 0.003788840727 3.041529282e-05)
(0.01596053392 0.004600205488 -0.0008819250264)
(0.01907892734 0.004973295295 0.001206152171)
(0.01313761614 0.006022690667 0.001354317638)
(0.01224691093 0.00339511659 -0.0003765611637)
(0.01515547549 0.003792465672 0.001954026876)
(0.006427597138 0.001941911848 -0.0009852025399)
(0.01622543851 0.005168001979 0.002001311341)
(0.01121720592 0.004505869562 -0.0009974372622)
(0.01095487396 0.004927368838 3.309249223e-05)
(0.01137198015 0.005460778558 0.001763120967)
(0.01283009322 0.005469633451 -0.0004475223494)
(0.01047672225 0.003184938951 -0.0005932709354)
(0.01330567887 0.002809216439 0.001686613023)
(0.01062420626 0.005806619126 -0.002538264496)
(0.01368663766 0.005112281909 -0.0008088858591)
(0.01410512484 0.005412833586 -7.337508189e-05)
(0.01486589732 0.003177415342 0.0009697805858)
(0.01250546147 0.001431818481 -0.0008735274453)
(0.01460437111 0.0008577377569 -0.001558137904)
(0.00755793052 0.0005280990989 0.0009750355495)
(0.008807609807 0.0002653952678 -0.0006731949903)
(0.008697830966 0.002900932293 -0.000993654081)
(0.00702827647 0.000692786121 -0.0009537443146)
(0.007779587315 0.002226952453 0.0006778056582)
(0.006130155994 0.002174200817 -0.0006906734247)
(0.01276756909 0.003419765306 -0.002130324695)
(0.01514702904 0.003222041021 0.0002280348427)
(0.01389698727 0.001302599686 0.0006964109737)
(0.01918471125 0.002238084522 -0.00241479739)
(0.01622089855 0.004175809052 0.001246244948)
(0.01638412343 0.003898918229 -0.001694436452)
(0.01708207825 0.005390774026 -5.395975051e-05)
(0.01344308785 0.00457758104 -0.0001003686994)
(0.01996648284 0.005075431952 0.000706482705)
(0.01871308636 0.006282549478 0.000265338526)
(0.01117999454 0.005596191789 0.0003230381414)
(0.01344152033 0.002766809298 0.002884416264)
(0.01713688417 0.004723209689 0.001121751155)
(0.02039427786 0.006761699447 -0.0007945575598)
(0.0126257322 0.00431393089 -0.0001596643021)
(0.009827751121 0.002901680378 0.0009385561305)
(0.01375125991 0.003423893881 -0.000668618724)
(0.01968762257 0.006197256168 -0.003411960614)
(0.02256797507 0.002995102501 -0.001940421505)
(0.007406933198 0.001777657482 0.0008119073239)
(0.02204831209 0.007345337528 -0.0001862868807)
(0.01217755709 0.003090551932 0.002577684448)
(0.006592367704 0.0003929767923 0.0001851443386)
(0.01203757771 0.00079316917 -0.0007898927835)
(0.006543512742 0.0002188626436 0.0003713178488)
(0.01486073601 0.0001562472274 0.0005997802282)
(0.008260908233 0.002855840016 0.0003758795312)
(0.008774364178 -2.040091971e-05 0.0005086321397)
(0.01565926218 0.001270319912 0.0002582031228)
(0.004967063734 0.0003241355771 0.0005578041518)
(0.00907126956 0.001123187385 6.527479192e-05)
(0.007231138394 0.002023072369 0.0005639428578)
(0.01637000041 0.003961755425 1.766161364e-05)
(0.01949236645 0.003922218692 0.000710580199)
(0.01557824004 0.003431647779 -0.0004755009835)
(0.01508257151 0.004794222038 0.0003780894631)
(0.01642731023 0.005234510615 -0.001390485346)
(0.01777994138 0.004455481801 0.0003376005576)
(0.01588014402 0.002703258155 -0.0004267154489)
(0.01610031303 0.003802224374 -0.001254750996)
(0.009935336509 0.003957499286 0.0003651170736)
(0.01564156969 0.004052867338 -0.000238123792)
(0.01311863939 0.006064523164 -0.00294147555)
(0.01703177662 0.003530580632 0.0004542704178)
(0.01723425026 0.005145877298 -0.0007341756104)
(0.01827309664 0.005378178247 0.0007988635657)
(0.02225828808 0.007634105796 0.00249262384)
(0.01049547848 0.003543084982 0.001320211479)
(0.0153461436 0.001865066351 -0.0006584622355)
(0.01637263012 0.004575393022 0.0001066633106)
(0.00669348099 0.0008715288701 -0.0009691051806)
(0.01564308061 0.006698084597 0.0007412469581)
(0.008907390848 -0.0003190327509 -0.0006337470318)
(0.005120841843 0.002100602746 0.0004966891614)
(0.01174097215 -0.0004191372935 0.000676479625)
(0.006349032526 0.000983097128 0.0002483424886)
(0.002406839276 0.0007115617797 -0.0007261341832)
(0.007106615737 0.0001272616588 9.207108206e-05)
(0.006928858252 0.00207517703 -0.0005208712023)
(0.01187984855 0.002188538973 0.0002625252618)
(0.01406007628 0.001764926906 -0.0004231565392)
(0.01041483711 0.001947901993 -0.0002386493477)
(0.01623016165 0.004004607436 0.0001866449329)
(0.01256427616 0.002661309792 -0.0005207381968)
(0.01192248474 0.002070154148 -0.00070135172)
(0.008535288727 0.001348477464 -0.0006513374102)
(0.01096906215 0.002736925744 0.0004187231453)
(0.008829934681 0.00365029007 0.0004569837242)
(0.01576879764 0.005915803224 -0.001304897901)
(0.01404058647 0.003822073001 1.762197025e-05)
(0.01248165806 0.004167235574 -0.0002870826773)
(0.0139553286 0.005220338162 0.003014618771)
(0.01516675912 0.005249607179 -0.0008018852624)
(0.01323889493 0.004192086556 0.001050214851)
(0.009769634315 0.002799141229 0.0003015055807)
(0.01545015039 0.005533407045 0.0005469630808)
(0.01362028639 0.00257597701 -0.0001662562989)
(0.02206050932 0.008640386149 0.0004963340757)
(0.02302178596 0.006793776832 -0.000745048907)
(0.01250418865 0.002711922209 0.0004281899009)
(0.01288971381 0.003163626025 0.001487846703)
(0.01353411717 -0.0001800780001 -0.0003634307467)
(0.008792703829 -0.0002109986062 -0.000292710436)
(0.01246588362 0.0007556505054 0.0008557044672)
(0.009022003163 -0.0002267627749 -0.0002401864536)
(0.01131828767 0.0006197831462 0.0001583676296)
(0.009649974496 0.001436123541 0.0006324522668)
(0.008353747555 -0.0002204918611 -0.0009534176218)
(0.01194505236 0.001114051538 -0.0007048830743)
(0.01378748372 0.001257775739 -0.001230815787)
(0.008513889924 0.0007146015874 -0.0002595916632)
(0.01695464399 0.003787886369 -0.0001155597313)
(0.01236401295 0.002043356656 0.0002482325446)
(0.008128425902 0.0009886435582 0.000795465158)
(0.0101057973 0.002246344906 -0.0003836901769)
(0.008617128068 0.001086411952 -0.0006083341901)
(0.01721298259 0.005113718301 2.645009333e-05)
(0.01021050951 0.003738885865 2.816305216e-07)
(0.01143942789 0.004714063712 0.0007385538753)
(0.01134963752 0.002273059598 -0.001015534385)
(0.01011453674 0.001793463937 -0.0001234198804)
(0.01292413114 0.003434375754 -0.0007759512733)
(0.01508632768 0.004755116156 -0.001772037984)
(0.01568043788 0.005770803331 0.001809158735)
(0.02074753584 0.00657481313 -0.000850105174)
(0.01865094148 0.005971369716 -0.001135338571)
(0.00734494869 0.0002616409965 0.0003823308478)
(0.01340748394 0.0001321614687 -0.0004110348573)
(0.008347042898 0.0002916536597 0.0003788184584)
(0.01629203371 0.0007308693516 -0.0003614110037)
(0.01204031124 0.0007437562275 -0.000581633127)
(0.01271413659 -0.000950644292 -0.0008150306114)
(0.008998576313 -0.0003218168918 0.0001329754323)
(0.01408907453 0.0004830964992 -2.703863071e-05)
(0.00547751229 -6.050943689e-05 0.0009684139208)
(0.009819127126 0.003180826382 0.000528055053)
(0.009634837651 0.0003501434492 -0.0001996403833)
(0.009101303728 0.001720579879 0.0005622723694)
(0.01718806894 0.001468513342 0.000228811417)
(0.01001868783 0.003431822189 -0.001256616245)
(0.005113916479 0.001559481287 -4.485135857e-05)
(0.01632593413 0.003550494758 0.001054679999)
(0.01444531218 0.001779806185 0.001440015877)
(0.01426098997 0.003641367783 -0.000285916408)
(0.02303310433 0.006134162998 0.0004856967534)
(0.0118265128 0.001022403072 -0.0008333356388)
(0.007518581689 -0.0001416385761 -0.0001342646375)
(0.004290715344 0.0007943660867 0.0008136664288)
(0.004369073212 0.0003464965013 0.0004550211384)
(0.01071010365 0.001961271694 -0.001244738676)
(0.006884508117 -0.000615177969 0.000842789902)
(0.005981641552 0.0003097556304 -0.0002473528706)
(0.005952743796 0.0004094126267 0.0006312100555)
(0.005698058182 -0.0002625586811 -0.0005400291933)
(0.006637115951 0.0003547121316 -3.144154443e-05)
(0.004391738887 0.0003620377323 -0.0002183110951)
(0.007276947557 7.006062998e-05 -0.001166678272)
(0.006700762916 1.012478604e-05 0.0001162643184)
(0.01117458669 0.0001323104036 0.000426485421)
(0.01110346891 -7.068964892e-05 -0.0002154638762)
(0.01301479641 0.0004902101432 0.0002063003883)
(0.01206840496 -0.0007670693139 0.0004334658045)
(0.009709642453 -0.0002829041086 -0.0001979739656)
(0.008503951066 0.0005276374973 -0.0002081142795)
(0.006615536339 -0.0008207428458 9.84980517e-05)
(0.01913352559 0.002027501241 -0.001235533861)
(0.01143128568 0.001204269136 0.0002664488281)
(0.00298539868 8.661210804e-05 0.0002483536125)
)
;

boundaryField
{
    flow
    {
        type            zeroGradient;
    }
    obstacle
    {
        type            calculated;
        value           nonuniform List<vector> 
30
(
(0 0 0)
(2.179223982e-23 5.83921307e-24 -1.343278717e-21)
(-1.622953777e-22 -4.348691525e-23 -5.971799676e-22)
(1.564721341e-21 4.192658204e-22 1.832299605e-22)
(6.014689147e-22 1.611631095e-22 -3.881880281e-21)
(0 0 0)
(0 0 0)
(1.013303987e-21 2.715139842e-22 -5.232641228e-22)
(1.990638773e-21 5.333900525e-22 -2.041731388e-21)
(2.949600084e-22 7.903429619e-23 -1.827895194e-21)
(2.070721987e-22 5.548482826e-23 1.525083124e-21)
(0 0 0)
(3.617080896e-21 9.691939069e-22 -2.300394327e-21)
(3.464448684e-22 9.282962241e-23 -2.082350131e-22)
(-7.443235552e-22 -1.994408959e-22 -3.607293144e-22)
(0 0 0)
(-1.189216613e-22 -3.186496317e-23 -1.232624995e-21)
(0 0 0)
(0 0 0)
(0 0 0)
(3.414171152e-21 9.148244046e-22 -3.905850876e-22)
(-4.310674462e-22 -1.155041737e-22 5.735342505e-21)
(1.767174422e-21 4.735129601e-22 2.052509774e-22)
(1.565121572e-21 4.193730619e-22 -5.20651238e-23)
(1.470301872e-21 3.93966198e-22 2.591485946e-21)
(1.040326312e-21 2.787545956e-22 2.453624518e-21)
(2.785592149e-21 7.463971644e-22 1.402030613e-21)
(1.199823e-21 3.214916045e-22 -5.70992872e-22)
(6.425504872e-22 1.721708844e-22 -6.65256891e-22)
(0 0 0)
)
;
    }
    frontAndBack
    {
        type            empty;
    }
    procBoundary1to0
    {
        type            processor;
        value           nonuniform List<vector> 
21
(
(0.005136893517 0.001553649523 0.002328508704)
(0.008580706185 0.001225492447 -0.001787212094)
(0.01161616381 0.006402479241 -0.001278579933)
(0.01309737184 0.003794154015 3.413106699e-05)
(0.01047439308 0.006703121203 0.0008548657008)
(0.01393362307 0.003690559399 -6.740951989e-05)
(0.01245080898 0.003843564406 -0.001700034824)
(0.005837713479 0.001998611104 -0.0007979286355)
(0.01110307381 0.002714834902 -0.0001134861345)
(0.0139580818 0.0002418291924 0.0006104334771)
(0.00887894844 0.001574216436 -6.65263495e-05)
(0.005174954648 -2.805146809e-06 8.243550199e-05)
(0.008720418438 -0.0003325307524 -0.0001294566218)
(0.007203127166 0.0001243897267 4.585192741e-05)
(0.006397341646 0.0009059983148 0.0008397087309)
(0.006407755063 -0.0001646875058 -0.0001007540397)
(0.003810330619 -0.0003693450197 -8.800502656e-05)
(0.009907516919 0.0008165376318 0.0008496941062)
(0.009038526765 0.0003231947514 0.0002634970606)
(0.004650546353 -5.447508573e-05 1.326834778e-05)
(0.009560346713 0.0003426849506 0.0006133883556)
)
;
    }
    procBoundary1to3
    {
        type            processor;
        value           nonuniform List<vector> 
36
(
(0.009995460574 0.007077757985 -0.0002912413678)
(0.01045484232 0.004491964528 -0.0008012948935)
(0.01415833355 0.0033606716 0.000103141369)
(0.01201211158 0.001473607022 0.001335841855)
(0.009995460574 0.007077757985 -0.0002912413678)
(0.01164580621 0.005078893114 -0.0009627876782)
(0.008891207873 0.002413960027 -8.934963142e-05)
(0.01321213993 0.005749041511 -0.0006557144122)
(0.01141365427 0.004055334156 0.0001248664921)
(0.01192400164 0.004187672653 0.001218870157)