/*--------------------------------*- C++ -*----------------------------------*\
| =========                 |                                                 |
| \\      /  F ield         | OpenFOAM: The Open Source CFD Toolbox           |
|  \\    /   O peration     | Version:  2406                                  |
|   \\  /    A nd           | Website:  www.openfoam.com                      |
|    \\/     M anipulation  |                                                 |
\*---------------------------------------------------------------------------*/
FoamFile
{
    version     2.0;
    format      ascii;
    arch        "LSB;label=32;scalar=64";
    class       volScalarField;
    location    "0.001";
    object      overallT;
}
// * * * * * * * * * * * * * * * * * * * * * * * * * * * * * * * * * * * * * //

dimensions      [1 2 -2 0 0 0 0];

internalField   nonuniform List<scalar> 
546
(
844.2204547
838.4361644
840.0799848
835.1885576
820.0597476
819.3713387
832.4649639
818.951263
799.339737
792.9871778
799.9574466
799.5969134
806.2785688
790.3270374
805.2269048
799.3952215
783.3969318
780.1691982
797.4955605
795.4286053
811.0137769
795.896023
791.7333789
788.6332872
770.2926936
781.3611429
763.732044
773.6526535
778.4252222
773.8462615
916.030706
914.3815207
903.5417975
893.403403
906.2309698
906.4700436
895.4822859
875.1085773
880.1483137
900.5489684
888.9838703
884.760104
874.8738065
883.9960821
885.5555741
864.8484991
867.614666
874.3051194
879.0845647
881.0444384
879.3961868
881.3123226
871.0832777
872.8734383
849.7383511
838.9519006
845.2113917
843.4664675
834.5870685
798.6084767
913.5543251
927.8783383
912.553591
927.4028268
947.6621314
931.9328601
917.6889548
926.2009314
911.2563242
923.6296208
917.9453186
911.3875458
915.3443338
904.6260127
908.4200256
913.2424262
910.2088388
906.4431432
899.1588136
897.1697462
907.8292829
915.8252338
899.0590896
899.0460485
874.1409091
850.2423392
869.5199839
866.5011396
835.4042192
798.0174301
889.6839829
911.3318145
916.3793773
895.4191535
909.2012983
920.1092204
908.8515086
915.4248734
911.2160766
922.863138
922.7418544
910.7239985
916.3636008
898.2221819
901.2905859
906.5625673
883.4143183
902.9569373
886.7783348
888.5858096
926.4648294
900.5661297
917.3139468
925.369246
908.618011
889.3876618
875.0291154
838.9006299
814.56768
790.0967523
838.4125306
846.2768948
867.9323712
854.7535861
864.330254
878.855416
868.1665089
865.2716176
874.8906526
879.3757683
892.3380859
877.0212938
865.8031423
879.7682154
865.4175752
868.9946212
895.5025577
884.0787116
891.2543054
896.8963768
888.1285195
882.9563602
891.3846808
902.4991298
885.9210573
876.8363646
863.2041085
843.3084165
832.4696018
787.1632456
822.4690674
829.0858828
825.6971411
827.8149648
810.4568826
840.2788135
822.6142499
852.3311801
869.1151582
863.873884
843.0371162
861.4803983
859.3996438
842.3449519
838.2706023
835.504175
867.4919184
880.9407972
853.1587136
864.0060084
860.565681
849.8985993
870.8392603
874.4126115
877.3126014
862.9429413
856.1834072
837.289223
825.107601
778.97388
778.9403398
807.2292593
800.9903987
809.6407825
797.2682399
821.5066087
801.1315662
792.1444303
835.1955895
833.179057
836.8367873
840.0277534
833.6483987
842.4829374
845.7851159
853.8089967
846.8442869
847.9572953
851.4527094
836.1842587
852.8515975
827.4392983
831.2479152
850.9354131
865.6835951
849.7167845
839.0194178
835.6591775
804.7627704
775.8047074
736.8572801
740.8650036
750.0150477
771.387569
769.2540155
784.2169293
791.5428141
773.5289414
793.4573822
808.408561
810.0527629
790.1623684
797.7198171
810.4751142
829.2589279
820.1990561
833.5209585
829.8886258
853.1686393
851.9658952
827.2649432
806.2297876
798.7724388
821.1279551
837.2036455
817.0009161
793.9867685
796.5206967
791.4508756
775.9372174
691.8981922
708.0732939
722.0056825
717.556296
739.7268325
751.758747
742.8381356
751.8277665
781.3108649
776.7611919
775.7208503
772.0168795
780.9933708
794.9704251
799.6872165
800.1545643
800.2909622
802.6363837
783.6774532
810.8649387
805.7614301
798.7495464
816.2098462
796.8137814
793.4065271
803.8267099
810.0630259
802.0248235
799.8812989
771.0920563
625.3127994
641.492079
686.6972046
695.6422148
703.1499818
717.2550498
710.2097244
718.7151568
741.0103334
743.9899728
758.4640076
749.6352833
743.0642852
756.1970712
753.6517954
773.8861028
764.2852824
771.2997945
778.6123055
772.0809188
774.6321018
777.2002565
783.9344161
796.4750752
786.5248512
781.7613939
785.1193658
786.3443056
774.4257003
759.2772706
573.6571185
594.3696186
629.6545346
634.3345309
648.1772711
669.3016303
698.9982073
698.4447331
700.269555
717.6374815
716.4724729
723.3861581
727.1099613
732.3063647
743.8649284
742.4987565
744.0863644
761.3141828
758.097296
765.5543864
783.6296808
767.4813243
780.526402
800.9267081
778.0909815
790.1655181
784.5213927
773.8481723
761.5204125
754.1026508
526.1178237
542.0044598
576.8758736
586.4436621
604.3376228
602.1623308
655.94554
666.1237157
678.2006102
683.9217889
694.1584514
704.1152078
713.8481511
703.5107975
724.0689331
721.6698847
709.6000615
731.1666208
738.2210559
749.9396036
747.6804905
744.6163037
743.3948257
753.6782662
758.8873302
759.8896475
774.4166982
766.4360945
757.3116944
739.3189632
475.1930605
483.2215598
529.5623999
540.876717
565.0457982
579.6324891
603.1359447
620.8932578
632.4976085
657.4182606
671.9545178
682.6895362
691.4138882
688.7566225
698.3876673
697.9855632
712.6713215
707.0541202
715.4357252
728.8750712
744.9868115
746.6923375
757.4576315
749.8616178
745.8969031
737.7244983
733.7480784
733.1603392
741.7672696
730.7809255
446.00227
455.5493995
467.1207032
510.7691109
535.5357138
558.1837054
568.7438101
572.3042907
597.2953075
612.1130345
620.9504274
624.8536352
643.8110513
670.2986984
676.2031964
686.6229437
691.4664989
689.788597
699.8277744
693.6709232
706.281657
714.5394498
726.3309488
733.8747672
720.1404402
725.3546496
727.5424985
727.589946
719.4429415
709.0833925
400.921321
425.1820865
426.6180185
434.5414077
464.6157178
494.8992931
506.1741801
531.7803475
553.5149315
570.3571416
583.2022504
586.5384868
607.2402408
624.9286788
635.1710741
646.3639713
657.6346214
657.7673057
671.6788493
672.0372595
679.9718727
691.3410855
697.7914158
702.8055636
705.9991403
706.6460631
701.0729978
714.1234439
709.6003902
703.8547255
387.236824
403.9188753
409.1029629
412.7788624
427.9390511
446.3409131
485.2386434
500.5677354
520.001488
521.0144799
544.1992622
554.660038
572.9126704
586.3120705
616.1006428
622.114781
642.9491705
645.1319421
655.3282397
667.3107532
655.1206518
663.8788553
673.4040915
680.1261106
674.2599007
687.751331
675.9539151
701.0723681
690.3290906
353.7845803
360.6623779
370.0703863
390.7308119
393.0448741
408.5717595
431.8061866
455.7503251
488.2152219
490.8076949
507.5998558
523.2482522
534.7088043
557.7776532
576.9753686
595.3165655
605.3022107
629.9556072
638.3550387
640.2681133
626.0770725
644.5374757
649.6881623
663.051742
665.765171
335.1253937
346.2355876
360.8531818
370.6879615
380.6326987
385.8148332
404.0401255
419.2116247
427.7323972
454.1999197
468.4642822
481.3359406
501.9893983
516.9875482
533.7489962
545.7409967
543.8058747
583.0263997
582.372553
340.5605958
337.3387975
345.4634988
349.2022778
351.5193138
362.4713824
381.2550539
402.1074586
413.4448251
419.1603335
443.4079032
466.7717568
467.920575
478.5511018
328.3941556
326.2105796
323.4851066
328.9568105
350.173062
350.9290964
353.8420371
368.2775404
323.0022593
)
;

boundaryField
{
    flow
    {
        type            calculated;
        value           nonuniform List<scalar> 
15
(
773.8462615
798.6084767
798.0174301
790.0967523
787.1632456
778.97388
775.8047074
775.9372174
771.0920563
759.2772706
754.1026508
739.3189632
730.7809255
709.0833925
703.8547255
)
;
    }
    obstacle
    {
        type            calculated;
        value           nonuniform List<scalar> 
30
(
769.2887269
727.7136979
719.514943
732.5105519
707.0932853
713.646717
720.3961777
753.4181407
678.7207366
678.997502
767.7003488
720.2886146
691.3484358
698.2844771
695.8274547
702.6797707
695.1482795
664.6938163
710.167041
646.4231369
678.3635163
702.7089053
637.7650968
743.0973896
722.7466121
730.2451762
714.2392688
768.9367902
714.9477829
691.4493089
)
;
    }
    frontAndBack
    {
        type            empty;
    }
    procBoundary1to0
    {
        type            processor;
        value           nonuniform List<scalar> 
21
(
868.1988523
959.2344919
924.9041788
907.9127578
849.7058505
814.7897709
774.3567311
696.5615216
668.9349336
626.8614219
537.2285102
487.2132535
459.5106897
410.4404595
387.0345327
376.3364194
363.0446818
325.5724848
322.4510982
312.8022171
315.0803362
)
;
    }
    procBoundary1to3
    {
        type            processor;
        value           nonuniform List<scalar> 
36
(
684.9011788
682.4351905
680.9605781
677.1258596
684.9011788
679.2031957
604.9944927
609.446128
623.1654081
617.4426765
633.7096782
682.4351905
650.6093826
492.3086
528.9513297
530.7282457
537.9234428
604.9944927
560.0107001
395.7268426
386.2980402
397.8105759
426.7919517
433.3991403
492.3086
447.1205666
320.9925891
324.6303728
327.0330008
336.3517079
340.650306
346.5026116
395.7268426
367.1280583
320.9925891
320.8760327
)
;
    }
}


// ************************************************************************* //
