/*--------------------------------*- C++ -*----------------------------------*\
| =========                 |                                                 |
| \\      /  F ield         | OpenFOAM: The Open Source CFD Toolbox           |
|  \\    /   O peration     | Version:  2406                                  |
|   \\  /    A nd           | Website:  www.openfoam.com                      |
|    \\/     M anipulation  |                                                 |
\*---------------------------------------------------------------------------*/
FoamFile
{
    version     2.0;
    format      ascii;
    arch        "LSB;label=32;scalar=64";
    class       volScalarField;
    location    "0.001";
    object      p;
}
// * * * * * * * * * * * * * * * * * * * * * * * * * * * * * * * * * * * * * //

dimensions      [1 -1 -2 0 0 0 0];

internalField   nonuniform List<scalar> 
546
(
3.951832009
3.907554136
3.652361895
3.517984445
3.44367022
3.432825749
3.548859612
3.383640999
3.359399356
3.3740508
3.442863071
3.342098334
3.123674401
3.174354781
3.10066504
3.012998852
2.934501573
2.980178227
2.978135259
3.020194216
2.94195901
3.019533634
3.156247304
3.130047597
2.88539177
2.802054587
2.674155716
2.599245669
2.514496538
1.986676148
3.813564535
3.766046405
3.675469014
3.449492252
3.347354528
3.395227205
3.395755264
3.394810488
3.368571873
3.42883683
3.344931133
3.223797002
3.267884417
3.213233192
3.193707515
3.025544565
3.060005003
3.088484833
3.07716709
2.99588819
2.968601159
3.082284533
3.009189493
2.967172544
2.789497732
2.879536365
2.775380751
2.533531385
2.459172635
1.821644916
3.413453123
3.539159242
3.348122528
3.33719302
3.29883134
3.37026629
3.214065032
3.273277148
3.321970897
3.289959506
3.344230175
3.184101166
3.290438263
3.154774086
3.083091935
3.085949735
3.060004753
3.018847151
2.952561214
2.892300214
2.894669931
2.831548884
2.943226264
2.905312217
2.718387059
2.677540621
2.75153318
2.59009426
2.322358331
1.896302335
2.964714486
3.174173496
3.341267531
3.102726454
3.118154553
3.227797272
3.160180658
3.266893425
3.222893899
3.165422074
3.091971734
3.041463055
3.079850759
3.160106428
2.974732231
2.976168515
2.90743529
3.034471166
2.992339977
2.886018227
2.830718547
2.68413622
2.796830565
2.918187745
2.832554503
2.625713525
2.494888383
2.361407462
2.213405388
1.908689791
2.90738141
2.940510008
3.126403121
3.059084179
3.074517325
3.070735378
2.998409057
2.912696534
3.006738738
3.011379838
2.986435542
2.945877146
2.935424857
2.948344704
2.738439488
2.862374311
2.942340457
2.990966962
2.799652992
2.886144019
2.700973208
2.6391526
2.652273748
2.77881784
2.662840075
2.528931157
2.575759821
2.289873599
2.198214978
1.84142609
2.626468273
2.715694666
2.799488959
2.799875948
2.722117623
2.856035563
2.705531636
2.791465806
3.012979607
2.908869776
2.77679879
2.82913362
2.78292522
2.728779994
2.771352161
2.692412231
2.751165133
2.897543593
2.688058336
2.764719094
2.714960295
2.548077389
2.601233647
2.565305163
2.630027272
2.520296139
2.485435123
2.319365373
2.235352408
1.873036097
2.261293164
2.479732638
2.474050799
2.622960038
2.527708254
2.751725482
2.676667719
2.584972363
2.771028443
2.764114969
2.746539037
2.64811612
2.695075206
2.769409577
2.706266198
2.599097191
2.622464537
2.67683143
2.699804389
2.561659041
2.606962467
2.484450089
2.467268795
2.585816545
2.617592489
2.518725239
2.435180635
2.376525014
2.177957846
1.953348412
2.052536789
2.059082497
2.170583929
2.317911961
2.337238495
2.424734872
2.524457508
2.49027314
2.596196011
2.619131643
2.680859845
2.546210457
2.592986549
2.633554147
2.767198445
2.681499866
2.659265742
2.627131363
2.691783129
2.672032643
2.602474874
2.445277657
2.469835358
2.506209746
2.514480051
2.498253114
2.337334876
2.254398597
2.247379801
2.049626019
1.693926866
1.85529805
2.010822294
1.997218492
2.175749312
2.265716995
2.205739818
2.329308341
2.501016511
2.50511686
2.450868445
2.456745403
2.460989638
2.568743571
2.552382494
2.544703339
2.51588387
2.554119098
2.571358281
2.5795831
2.404988919
2.384105806
2.460017911
2.408368319
2.458143825
2.381454378
2.435963422
2.364297634
2.255636599
2.088521099
1.401138882
1.475142598
1.696519333
1.806355631
1.87723048
1.980882723
2.020282931
2.077773423
2.275325147
2.334431658
2.378002544
2.325997694
2.362738147
2.484428502
2.405678542
2.524113729
2.44229421
2.445552377
2.39196054
2.448179012
2.465561979
2.418778435
2.466841739
2.403236405
2.402102925
2.432991722
2.346081495
2.29459308
2.110394788
2.044686002
1.187540698
1.313232274
1.434239743
1.456441668
1.56865987
1.690012479
1.877677594
1.978684541
2.036688
2.199574368
2.223746917
2.257358385
2.259840057
2.292056459
2.36639617
2.317915558
2.310164349
2.359857733
2.383939859
2.434147997
2.583901731
2.456318318
2.440751332
2.502309708
2.23475572
2.367933635
2.447584977
2.427620555
2.279559039
2.138323466
1.035445041
1.093222577
1.235683399
1.306154363
1.40029794
1.440005293
1.675771998
1.72868758
1.816946312
1.846566782
1.936365044
2.07673206
2.184710648
2.079740665
2.183666039
2.280673875
2.217105271
2.336363957
2.406363586
2.432326402
2.344655605
2.288409025
2.27526951
2.371436571
2.37844289
2.405779391
2.391804616
2.269148368
2.20415715
2.13768578
0.8749862068
0.8939485615
1.022851262
1.076127136
1.191932122
1.282478643
1.38519815
1.461003441
1.510017753
1.681736585
1.794492507
1.857429006
1.986307757
2.011366687
2.120799836
2.141672193
2.229451916
2.205320956
2.228163301
2.303057928
2.397155735
2.394989859
2.449036027
2.38683955
2.320274972
2.277400136
2.223024089
2.112134506
2.18797502
2.099446544
0.7862509115
0.8176083914
0.8406620618
0.9853477603
1.061545227
1.115933873
1.188174356
1.21778734
1.387056539
1.499689185
1.580229227
1.64624749
1.76143309
1.936264012
1.934319546
2.045765045
2.066873875
2.15810657
2.112012285
2.097633493
2.187602396
2.220819581
2.253920482
2.321939447
2.200233825
2.186715807
2.240367666
2.255745925
2.105925653
2.126147683
0.6859343372
0.7600034826
0.7668470893
0.7828942845
0.8729822357
0.9880834319
1.040271718
1.160914609
1.23065721
1.321926737
1.362590286
1.374141627
1.502602199
1.645805564
1.760075967
1.840498619
1.906273667
1.875367814
2.020455779
2.06387052
2.121811472
2.15724934
2.194266356
2.181170819
2.253485802
2.195626323
2.171745456
2.264668612
2.242098802
2.13708617
0.6206893689
0.6597475674
0.6925635549
0.7035813043
0.7749049491
0.8117277681
0.9438727855
0.97769539
1.060085329
1.079559423
1.172939337
1.262658256
1.323213413
1.415221581
1.563873223
1.6108104
1.743063803
1.794252384
1.806018423
1.939013234
1.936262691
2.02321752
2.085137959
2.184304924
2.153740781
2.207478394
2.086223845
2.247348576
2.175537773
0.5611868055
0.5822315515
0.6039973155
0.6688434545
0.6787726167
0.729832529
0.7844343952
0.8491029972
0.9457491362
0.9943616328
1.062265634
1.120489325
1.154733922
1.25520534
1.378880961
1.441075228
1.538279319
1.655741719
1.767291167
1.738150337
1.743444619
1.894611752
1.950999972
2.015067717
2.044569874
0.514382108
0.5375846064
0.5830250138
0.5879506146
0.6177659896
0.630543169
0.6868192438
0.717559711
0.7680032198
0.8576053241
0.8916942442
0.9544657397
1.044840032
1.095673213
1.176369285
1.290363608
1.300572698
1.497418662
1.4982073
0.5270378181
0.5146305225
0.5318127904
0.5514185828
0.5549290136
0.5853169247
0.6449112151
0.7003059911
0.7194532574
0.7026116608
0.8020294804
0.879305347
0.8938766301
0.9467441982
0.5059656713
0.5038180093
0.4844489482
0.5049036398
0.5471416793
0.5439930251
0.5472410889
0.5832418846
0.4688342196
)
;

boundaryField
{
    flow
    {
        type            calculated;
        value           nonuniform List<scalar> 
15
(
1.986676148
1.821644916
1.896302335
1.908689791
1.84142609
1.873036097
1.953348412
2.049626019
2.088521099
2.044686002
2.138323466
2.13768578
2.099446544
2.126147683
2.13708617
)
;
    }
    obstacle
    {
        type            calculated;
        value           nonuniform List<scalar> 
30
(
3.132225114
3.320958594
3.025124105
2.870589008
2.891139605
2.781419655
2.924963496
3.074882932
2.842832404
2.836316405
2.795024869
2.94054882
2.650471733
2.739957253
2.626981666
2.600125138
2.697924524
2.529871928
2.448147559
2.62892265
2.41493327
2.556861197
2.543119278
2.833368742
2.380148356
2.45801102
2.20776524
2.253344694
2.233007619
1.94443957
)
;
    }
    frontAndBack
    {
        type            empty;
    }
    procBoundary1to0
    {
        type            processor;
        value           nonuniform List<scalar> 
21
(
4.093438968
3.848266584
3.51739605
3.213942203
2.940982923
2.474010722
2.187046983
1.777870198
1.586297921
1.373257591
1.044594176
0.9096357934
0.84083641
0.6901387702
0.6327116609
0.6067205722
0.5623323541
0.4995583729
0.477602327
0.4677185593
0.4431118122
)
;
    }
    procBoundary1to3
    {
        type            processor;
        value           nonuniform List<scalar> 
36
(
2.098191599
2.121572663
2.129216673
2.08553167
2.098191599
2.146040326
1.63725598
1.686079219
1.77652881
1.807757077
1.902862778
2.121572663
1.9944821
1.014699979
1.16841997
1.194158553
1.267876517
1.63725598
1.386655299
0.662492685
0.6621294371
0.6941202442
0.7908331667
0.8076271455
1.014699979
0.859441228
0.4654425291
0.4667976276
0.4672238809
0.4933580749
0.5237054334
0.5171015772
0.662492685
0.5791792385
0.4654425291
0.4505264376
)
;
    }
}


// ************************************************************************* //
