/*--------------------------------*- C++ -*----------------------------------*\
| =========                 |                                                 |
| \\      /  F ield         | OpenFOAM: The Open Source CFD Toolbox           |
|  \\    /   O peration     | Version:  2406                                  |
|   \\  /    A nd           | Website:  www.openfoam.com                      |
|    \\/     M anipulation  |                                                 |
\*---------------------------------------------------------------------------*/
FoamFile
{
    version     2.0;
    format      ascii;
    arch        "LSB;label=32;scalar=64";
    class       volScalarField;
    location    "0.001";
    object      rhoM;
}
// * * * * * * * * * * * * * * * * * * * * * * * * * * * * * * * * * * * * * //

dimensions      [1 -3 0 0 0 0 0];

internalField   nonuniform List<scalar> 
546
(
1.832804935e-05
1.245913201e-05
1.678659766e-05
1.851051587e-05
1.719311018e-05
1.569963217e-05
1.418325353e-05
1.405801839e-05
1.503898913e-05
1.212445171e-05
2.130402945e-05
1.40197668e-05
1.788944499e-05
8.399628413e-06
1.386481674e-05
1.850028428e-05
1.147916754e-05
1.123392893e-05
1.184410583e-05
1.056046532e-05
1.405513427e-05
1.664281244e-05
1.465705579e-05
1.093286627e-05
1.175314261e-05
9.851875621e-06
1.647674161e-05
1.337590905e-05
8.81189647e-06
8.799619177e-06
1.065453314e-05
1.411025514e-05
1.156847706e-05
1.531245879e-05
1.136069099e-05
1.446260819e-05
1.5509311e-05
1.382131001e-05
1.155485099e-05
1.268287781e-05
1.230047885e-05
1.466786533e-05
8.087871965e-06
1.432901125e-05
1.63552389e-05
1.130120637e-05
9.367994924e-06
1.719224737e-05
1.158747922e-05
1.488859325e-05
1.204755839e-05
1.091897043e-05
1.02154589e-05
8.872194477e-06
7.142428372e-06
1.122000858e-05
1.537143715e-05
1.513935643e-05
9.655036158e-06
7.474847294e-06
1.34852429e-05
1.336040207e-05
9.149640582e-06
1.35606612e-05
1.320221565e-05
1.229688471e-05
1.371534366e-05
1.201537406e-05
8.863342378e-06
1.212445171e-05
1.342616475e-05
1.191198253e-05
1.160062704e-05
1.226915079e-05
1.137439456e-05
1.523446072e-05
1.257681465e-05
1.480891999e-05
9.184027685e-06
1.384917532e-05
7.158084537e-06
1.206416307e-05
1.270292434e-05
2.159563532e-05
1.057739278e-05
1.049048415e-05
1.012456679e-05
8.5462169e-06
1.20932821e-05
6.812461358e-06
9.685612898e-06
1.493491272e-05
1.451848311e-05
9.29413835e-06
1.558108276e-05
9.281405871e-06
1.129999956e-05
1.476435997e-05
1.092189129e-05
1.228345304e-05
9.648459686e-06
8.104159685e-06
1.552046912e-05
1.367041136e-05
1.253685823e-05
1.556817612e-05
1.291330105e-05
9.191955529e-06
1.493396244e-05
1.748505299e-05
4.976485443e-06
1.039025681e-05
9.682124902e-06
1.084355339e-05
1.310910692e-05
7.845134145e-06
1.187426267e-05
7.98851445e-06
9.281311042e-06
8.799619153e-06
9.83412533e-06
1.45590822e-05
1.088840697e-05
1.287365926e-05
1.143719007e-05
1.059551099e-05
1.309208962e-05
8.560046555e-06
9.89261683e-06
1.292137981e-05
1.575766604e-05
1.482940194e-05
1.037346263e-05
9.388520133e-06
5.977813199e-06
9.626580164e-06
8.272380972e-06
1.412826222e-05
1.562036754e-05
1.359036337e-05
1.187353516e-05
1.127215323e-05
1.287998908e-05
9.05082021e-06
1.238607116e-05
1.322675002e-05
7.455262006e-06
6.222829575e-06
8.718465197e-06
1.012439109e-05
9.386793335e-06
9.607520773e-06
1.300579961e-05
1.119778745e-05
7.291448455e-06
1.175545385e-05
1.067674551e-05
9.109843738e-06
1.369228156e-05
1.268287781e-05
1.262293339e-05
9.40035673e-06
1.184487924e-05
9.798905221e-06
1.311809006e-05
1.021259852e-05
1.443358931e-05
8.76577559e-06
1.544928314e-05
1.410798727e-05
1.196054678e-05
1.162321488e-05
1.359038789e-05
9.58885603e-06
8.588499872e-06
9.122351208e-06
1.122987132e-05
7.98851445e-06
8.155619323e-06
1.26773546e-05
1.072878935e-05
1.238432749e-05
9.149640576e-06
1.051262056e-05
1.21275307e-05
1.508112018e-05
1.114465537e-05
1.515761275e-05
1.036781324e-05
1.595393384e-05
1.33460353e-05
8.913794826e-06
1.176346185e-05
8.235474371e-06
8.966719791e-06
1.079861686e-05
1.308154425e-05
1.259524452e-05
1.424755742e-05
1.108017437e-05
1.196054686e-05
9.069533401e-06
5.862394379e-06
7.796122891e-06
7.685249756e-06
1.38653587e-05
1.205774105e-05
7.98851445e-06
8.155619397e-06
8.988221217e-06
9.312537106e-06
5.478808947e-06
9.980432599e-06
1.546431031e-05
1.274137225e-05
7.81127552e-06
7.793491548e-06
1.413629059e-05
1.09218913e-05
1.435815616e-05
8.200319228e-06
1.280433805e-05
1.576668912e-05
6.011459869e-06
1.120889976e-05
8.957132986e-06
1.097240477e-05
1.736189919e-05
1.364669442e-05
1.116644489e-05
1.134936246e-05
1.003919508e-05
1.430078646e-05
9.67816888e-06
1.292889236e-05
1.176770111e-05
9.204957789e-06
1.374845644e-05
6.843065076e-06
9.650606991e-06
9.38858804e-06
8.106006653e-06
7.636957071e-06
8.151581872e-06
1.036065621e-05
9.589730381e-06
1.005349146e-05
8.560046555e-06
1.013116829e-05
1.40401535e-05
1.061194997e-05
1.701795452e-05
1.421385512e-05
9.388520147e-06
1.295259525e-05
1.515103177e-05
7.849739799e-06
1.523509998e-05
1.287474719e-05
9.521047355e-06
1.44052837e-05
1.083120508e-05
1.323625836e-05
1.362088673e-05
1.310910685e-05
1.176770122e-05
1.132161048e-05
1.142506921e-05
7.968756762e-06
8.799619202e-06
6.333314905e-06
2.702002216e-06
5.444203489e-06
1.036076906e-05
8.826976786e-06
9.435568122e-06
8.026507828e-06
1.240862686e-05
8.468934115e-06
1.132752356e-05
1.053182056e-05
8.508001197e-06
8.169289336e-06
8.481705434e-06
1.22038686e-05
1.272352964e-05
1.603596613e-05
1.404343629e-05
1.081553193e-05
2.129347203e-05
1.318291524e-05
1.276840746e-05
1.074879291e-05
9.050820195e-06
9.131321253e-06
1.359261093e-05
9.849349267e-06
1.328333159e-05
1.003101941e-05
1.230015074e-05
4.768550233e-06
9.15688571e-06
7.712318007e-06
9.979305191e-06
7.752291842e-06
9.048299526e-06
6.702327671e-06
9.266388182e-06
1.036781325e-05
9.811246568e-06
1.125492235e-05
1.272356975e-05
1.127298968e-05
9.470597153e-06
1.303534272e-05
1.021259853e-05
1.207005178e-05
1.046844512e-05
8.497622592e-06
9.954485673e-06
8.904625634e-06
1.074343968e-05
1.145919164e-05
9.588856013e-06
7.05232109e-06
1.204044886e-05
7.36352291e-06
1.114509922e-05
1.256269674e-05
6.338677418e-06
5.290138476e-06
6.604492569e-06
6.578260798e-06
4.875763983e-06
5.373424715e-06
7.888356616e-06
7.793491489e-06
9.188115842e-06
1.155485092e-05
9.57274465e-06
8.120189846e-06
8.59072167e-06
9.394486031e-06
9.552674174e-06
8.550982762e-06
1.146806408e-05
8.947386979e-06
7.658937879e-06
1.450418396e-05
1.073300657e-05
1.047714342e-05
1.514655802e-05
1.554451904e-05
1.621959433e-05
1.536832169e-05
9.94279159e-06
9.849349354e-06
1.337590908e-05
1.124788422e-05
1.201496867e-05
4.768550219e-06
3.752881276e-06
5.670286366e-06
6.703487328e-06
6.216763501e-06
8.352706419e-06
6.857671887e-06
6.754110633e-06
8.705579084e-06
9.65224524e-06
9.808718573e-06
6.807962588e-06
9.557320762e-06
1.25173656e-05
1.461154336e-05
9.71000895e-06
9.283873308e-06
9.702961453e-06
5.664392566e-06
1.298438382e-05
8.904625709e-06
9.422716225e-06
1.048105603e-05
1.02162047e-05
8.318178153e-06
1.049048406e-05
9.941088429e-06
1.01245093e-05
1.068729654e-05
1.154346384e-05
8.120848202e-06
8.706250712e-06
4.46086813e-06
6.094246168e-06
5.526422872e-06
4.562690299e-06
5.533491594e-06
4.554921855e-06
9.577090245e-06
1.004974856e-05
9.888848042e-06
1.239854444e-05
1.012921037e-05
1.259944252e-05
1.153988935e-05
1.029602738e-05
1.426331294e-05
1.506544795e-05
7.982301907e-06
1.004075632e-05
1.291977732e-05
1.743482222e-05
9.505060182e-06
8.334158643e-06
1.039717824e-05
1.496074388e-05
1.656848071e-05
6.037674529e-06
1.659153249e-05
1.021869206e-05
3.725373801e-06
6.980323115e-06
4.234785271e-06
8.760823005e-06
5.449923834e-06
5.49138982e-06
9.898147266e-06
3.377055316e-06
5.06558415e-06
4.626410228e-06
9.808718649e-06
1.280433815e-05
9.557320837e-06
9.552674174e-06
1.253685829e-05
1.096547458e-05
1.105652637e-05
1.140563104e-05
7.896759772e-06
1.00407564e-05
1.065116672e-05
1.232745934e-05
1.403518946e-05
1.147090207e-05
1.645396414e-05
7.38835744e-06
1.122987132e-05
1.17050392e-05
4.687371187e-06
1.220584989e-05
5.438650873e-06
3.302246249e-06
6.653621713e-06
4.342448624e-06
2.225868965e-06
4.408528081e-06
4.910237621e-06
8.010249408e-06
7.676304682e-06
7.019116059e-06
1.0854275e-05
8.265696225e-06
7.678817129e-06
5.847305828e-06
8.468235348e-06
7.282506772e-06
1.164741082e-05
1.012709122e-05
8.497622592e-06
1.246467486e-05
1.030101739e-05
9.598247028e-06
7.816525839e-06
1.218756362e-05
9.764249705e-06
1.578118403e-05
1.638500239e-05
8.173669431e-06
1.068729654e-05
7.673516195e-06
4.953369409e-06
7.787679043e-06
4.875763983e-06
6.601107815e-06
6.186982895e-06
4.442327694e-06
7.538724309e-06
8.784460667e-06
5.663761832e-06
1.069401623e-05
7.617597827e-06
5.309841331e-06
6.505905729e-06
5.313833931e-06
1.146806399e-05
6.752092692e-06
9.446433419e-06
7.466981222e-06
7.530567239e-06
9.341786577e-06
1.06556741e-05
1.101438993e-05
1.371019971e-05
1.410246461e-05
4.246962027e-06
8.031202148e-06
4.914855286e-06
9.294138296e-06
7.061951208e-06
7.346925806e-06
5.143253915e-06
8.481774392e-06
3.324468334e-06
6.860114678e-06
6.271401929e-06
5.834838805e-06
1.209109929e-05
7.164505631e-06
4.151370293e-06
9.876866807e-06
9.958879262e-06
9.276781436e-06
1.622123041e-05
6.929159375e-06
4.803760387e-06
2.192753599e-06
2.666576793e-06
6.216763501e-06
4.485609174e-06
3.819073648e-06
3.377055291e-06
3.482231634e-06
4.067984115e-06
2.894344246e-06
4.29438475e-06
4.656534277e-06
7.08242861e-06
5.960239096e-06
7.505762552e-06
7.63695706e-06
5.560930854e-06
4.528237041e-06
3.867097212e-06
1.114465537e-05
7.303907819e-06
2.160609122e-06
)
;

boundaryField
{
    flow
    {
        type            zeroGradient;
    }
    obstacle
    {
        type            calculated;
        value           nonuniform List<scalar> 
30
(
1e-300
7.528246351e-24
1.598569392e-24
8.086189254e-24
9.568091496e-24
1e-300
1e-300
5.265139954e-24
2.212639907e-23
5.554327638e-24
1.018542994e-23
1e-300
1.47661405e-23
2.814733994e-24
4.939147197e-24
1e-300
5.008745333e-24
1e-300
1e-300
1e-300
5.240400838e-24
1.412811212e-23
2.176302616e-24
4.431285298e-24
1.920635593e-23
1.097039507e-23
4.18198665e-24
3.446856523e-24
3.11757887e-24
1e-300
)
;
    }
    frontAndBack
    {
        type            empty;
    }
    procBoundary1to0
    {
        type            processor;
        value           nonuniform List<scalar> 
21
(
1.397862812e-05
9.615136781e-06
1.538457518e-05
1.286932631e-05
1.176002451e-05
1.07244386e-05
1.124223154e-05
4.289775436e-06
7.840610217e-06
7.988042017e-06
4.80756839e-06
3.327905441e-06
4.881284291e-06
4.289775405e-06
3.771982481e-06
4.142343636e-06
2.144887718e-06
6.360947254e-06
4.881284325e-06
2.736396573e-06
5.325361345e-06
)
;
    }
    procBoundary1to3
    {
        type            processor;
        value           nonuniform List<scalar> 
36
(
1.021869206e-05
7.936050096e-06
9.296697115e-06
8.916526878e-06
1.021869206e-05
8.905327727e-06
6.404878667e-06
9.952970885e-06
7.573279141e-06
9.593592554e-06
1.191962502e-05
7.936050096e-06
1.184324979e-05
7.638761271e-06
6.529630668e-06
6.077086738e-06
9.702961453e-06
6.404878667e-06
6.866118337e-06
6.252621912e-06
2.792130563e-06
4.582873076e-06
2.917419403e-06
5.309841331e-06
7.638761271e-06
1.086987398e-05
4.803760421e-06
4.460868162e-06
3.351743664e-06
9.44081833e-06
5.645552072e-06
4.442327761e-06
6.252621912e-06
4.476649688e-06
4.803760421e-06
9.089768431e-06
)
;
    }
}


// ************************************************************************* //
