/*--------------------------------*- C++ -*----------------------------------*\
| =========                 |                                                 |
| \\      /  F ield         | OpenFOAM: The Open Source CFD Toolbox           |
|  \\    /   O peration     | Version:  2406                                  |
|   \\  /    A nd           | Website:  www.openfoam.com                      |
|    \\/     M anipulation  |                                                 |
\*---------------------------------------------------------------------------*/
FoamFile
{
    version     2.0;
    format      ascii;
    arch        "LSB;label=32;scalar=64";
    class       volScalarField;
    location    "0.001";
    object      rhoMMean;
}
// * * * * * * * * * * * * * * * * * * * * * * * * * * * * * * * * * * * * * //

dimensions      [1 -3 0 0 0 0 0];

internalField   nonuniform List<scalar> 
546
(
1.431204705e-05
1.427229663e-05
1.357323806e-05
1.332961936e-05
1.339849471e-05
1.30898604e-05
1.361501854e-05
1.315035597e-05
1.337673828e-05
1.338049639e-05
1.354656135e-05
1.34397196e-05
1.220380652e-05
1.284397015e-05
1.242676068e-05
1.221957652e-05
1.216870086e-05
1.223337445e-05
1.220478896e-05
1.222623211e-05
1.147713869e-05
1.202621448e-05
1.25333145e-05
1.264263186e-05
1.18955567e-05
1.150556848e-05
1.121427893e-05
1.084250785e-05
1.035128776e-05
8.334691482e-06
1.290200767e-05
1.26922884e-05
1.26109159e-05
1.204782652e-05
1.161848549e-05
1.171551092e-05
1.187002922e-05
1.225587686e-05
1.202092763e-05
1.196041277e-05
1.177977964e-05
1.153679351e-05
1.166210825e-05
1.150960607e-05
1.155776632e-05
1.122083036e-05
1.122392888e-05
1.115315924e-05
1.109029503e-05
1.070149255e-05
1.058661147e-05
1.091719921e-05
1.100762838e-05
1.079234178e-05
1.052341827e-05
1.104015114e-05
1.05088397e-05
9.669483373e-06
9.518516402e-06
7.70117816e-06
1.167984187e-05
1.184964022e-05
1.138779699e-05
1.109687683e-05
1.098948881e-05
1.143559558e-05
1.101033989e-05
1.114629014e-05
1.155682138e-05
1.145748437e-05
1.164587724e-05
1.115875491e-05
1.130828642e-05
1.107386983e-05
1.088747978e-05
1.085021774e-05
1.083413785e-05
1.056386027e-05
1.042296199e-05
1.027506796e-05
1.011320681e-05
9.961111563e-06
1.04830401e-05
1.038221278e-05
9.96100859e-06
9.825640759e-06
1.003155492e-05
9.592320166e-06
8.982951928e-06
7.938496378e-06
1.024046432e-05
1.084982345e-05
1.136699509e-05
1.093738688e-05
1.082623422e-05
1.111820764e-05
1.099776077e-05
1.107997349e-05
1.108133327e-05
1.079658214e-05
1.072920434e-05
1.085965645e-05
1.07142985e-05
1.124745158e-05
1.045834519e-05
1.050930427e-05
1.047734129e-05
1.076929438e-05
1.076788622e-05
1.050132589e-05
9.846713681e-06
9.538917568e-06
9.584589509e-06
9.891381097e-06
1.00130394e-05
9.563544281e-06
9.362241518e-06
9.12696754e-06
8.719383138e-06
8.11923113e-06
1.042474132e-05
1.046525957e-05
1.085176606e-05
1.104026099e-05
1.109706592e-05
1.092785639e-05
1.084157274e-05
1.07086199e-05
1.084629979e-05
1.08025113e-05
1.078896398e-05
1.075074469e-05
1.076456576e-05
1.063539208e-05
1.02274059e-05
1.058639101e-05
1.061199787e-05
1.086362188e-05
1.0211236e-05
1.033659951e-05
9.802674752e-06
9.530650634e-06
9.454605799e-06
9.814818662e-06
9.729676358e-06
9.38297269e-06
9.683055267e-06
8.855489519e-06
8.683124462e-06
7.922037882e-06
9.364958867e-06
9.751536407e-06
1.023362586e-05
1.03444136e-05
1.038543683e-05
1.073682515e-05
1.041657496e-05
1.063775352e-05
1.101814549e-05
1.081378886e-05
1.049494401e-05
1.049072637e-05
1.046734991e-05
1.057621478e-05
1.063802256e-05
1.036889276e-05
1.030813946e-05
1.058459061e-05
1.016825401e-05
1.02605453e-05
1.015263702e-05
9.776831821e-06
9.739849137e-06
9.558647234e-06
9.698676659e-06
9.566063558e-06
9.446129402e-06
9.096757631e-06
8.881097129e-06
8.129824717e-06
8.502015926e-06
9.121234487e-06
9.297369921e-06
9.821704439e-06
9.900929095e-06
1.048174344e-05
1.044974587e-05
1.022592445e-05
1.044755186e-05
1.045298267e-05
1.045728075e-05
1.032952115e-05
1.044160629e-05
1.060870391e-05
1.028035874e-05
9.968593068e-06
9.955188094e-06
1.013042579e-05
1.017994568e-05
9.944114025e-06
1.000596549e-05
9.801687759e-06
9.660672811e-06
9.900151104e-06
9.905354556e-06
9.760187453e-06
9.426099223e-06
9.297441018e-06
8.894774307e-06
8.43275661e-06
8.0325098e-06
8.181776165e-06
8.632478141e-06
9.02671178e-06
9.242396367e-06
9.445458259e-06
9.950700535e-06
1.011818312e-05
1.017765413e-05
1.023396291e-05
1.043900347e-05
1.030611151e-05
1.040532314e-05
1.038486474e-05
1.06827367e-05
1.057581851e-05
1.036400686e-05
1.031460416e-05
1.013824803e-05
1.019289812e-05
1.019257237e-05
9.837413678e-06
1.0058603e-05
9.963744477e-06
9.737764164e-06
9.876707381e-06
9.749311365e-06
9.446594738e-06
9.46300634e-06
8.972997287e-06
7.107167877e-06
7.560906859e-06
8.010224704e-06
8.162561975e-06
8.762970869e-06
9.006297519e-06
9.067224777e-06
9.510198243e-06
9.841917139e-06
1.003621473e-05
9.937181395e-06
1.004360234e-05
9.996354444e-06
1.027520093e-05
1.029003345e-05
1.036955609e-05
1.038866389e-05
1.033213989e-05
1.057861932e-05
1.035227154e-05
9.896423858e-06
9.88826952e-06
9.816563608e-06
9.794717584e-06
9.97346076e-06
9.545450648e-06
9.710495617e-06
9.678455846e-06
9.378300581e-06
9.111339451e-06
6.34077687e-06
6.585282014e-06
7.083854508e-06
7.530394036e-06
7.882784017e-06
8.298210265e-06
8.693633238e-06
8.876999797e-06
9.420544227e-06
9.615669156e-06
9.723559678e-06
9.72850541e-06
9.966310138e-06
1.029555205e-05
1.014074958e-05
1.038865861e-05
1.028422053e-05
1.025494161e-05
1.011372512e-05
1.029793519e-05
1.032892621e-05
1.023998384e-05
1.029627747e-05
9.984704129e-06
9.989591405e-06
1.013724656e-05
9.777275544e-06
9.510119203e-06
8.994082363e-06
8.860055499e-06
6.022948151e-06
6.370347622e-06
6.54192218e-06
6.688454916e-06
7.021721942e-06
7.401935171e-06
7.914954318e-06
8.411481226e-06
8.771541302e-06
9.349780041e-06
9.62116865e-06
9.718131929e-06
9.663406976e-06
9.797683752e-06
1.01171734e-05
9.905518362e-06
1.000817088e-05
1.003000309e-05
1.014265492e-05
1.035213236e-05
1.073017746e-05
1.049363496e-05
1.019337611e-05
1.023247745e-05
9.590507693e-06
9.72386661e-06
9.963428528e-06
1.021405662e-05
9.964566433e-06
9.567756217e-06
5.816025486e-06
5.984900587e-06
6.292834449e-06
6.503483287e-06
6.724187206e-06
6.908423571e-06
7.40902118e-06
7.696514917e-06
7.970285748e-06
8.176447821e-06
8.513030992e-06
8.963703837e-06
9.472156758e-06
9.199079425e-06
9.442733393e-06
9.893472345e-06
9.855242547e-06
1.02502298e-05
1.049714748e-05
1.03838492e-05
1.010479054e-05
1.008555112e-05
1.007848552e-05
1.030928759e-05
1.038068035e-05
1.04876925e-05
1.031777285e-05
9.940727038e-06
9.817058392e-06
9.757593858e-06
5.478666224e-06
5.561592871e-06
5.787604033e-06
5.983500125e-06
6.265254672e-06
6.578628183e-06
6.816886292e-06
6.968551872e-06
7.10386025e-06
7.497978526e-06
7.93495169e-06
8.27842736e-06
8.722671368e-06
9.072837528e-06
9.417591679e-06
9.497331928e-06
9.787549231e-06
9.785955575e-06
9.817607999e-06
1.007360858e-05
1.029929608e-05
1.036035086e-05
1.042690792e-05
1.035126734e-05
1.010768952e-05
1.004712274e-05
9.898286428e-06
9.568274089e-06
9.74634926e-06
9.620976544e-06
5.221867591e-06
5.312534568e-06
5.379888018e-06
5.710934875e-06
5.838473939e-06
5.889837253e-06
6.127160315e-06
6.388744934e-06
6.86855462e-06
7.198922488e-06
7.521183928e-06
7.921017194e-06
8.236771326e-06
8.682158775e-06
8.768528463e-06
9.113139381e-06
9.235868084e-06
9.619929835e-06
9.484867965e-06
9.53273377e-06
9.794097077e-06
9.866816497e-06
9.972275735e-06
1.009010303e-05
9.902295093e-06
9.718593489e-06
9.985355485e-06
9.960690683e-06
9.637242977e-06
9.751945005e-06
5.287460769e-06
5.410102289e-06
5.473627078e-06
5.50837188e-06
5.646709973e-06
5.953414089e-06
6.147134527e-06
6.433030495e-06
6.613405131e-06
6.82929436e-06
6.98897615e-06
7.030449355e-06
7.385917713e-06
7.860300557e-06
8.317915613e-06
8.615247099e-06
8.865571407e-06
8.850767636e-06
9.391345867e-06
9.673556214e-06
9.835037302e-06
9.96265746e-06
1.009911508e-05
9.95873864e-06
1.03089696e-05
1.016264872e-05
1.014792568e-05
1.036732859e-05
1.02460317e-05
9.964019617e-06
5.068846394e-06
5.10479585e-06
5.172559762e-06
5.238457881e-06
5.50213453e-06
5.542132954e-06
5.78425804e-06
5.912356717e-06
6.06492891e-06
6.214606324e-06
6.463976042e-06
6.799817434e-06
6.973576637e-06
7.196405572e-06
7.57000292e-06
7.883838224e-06
8.22647604e-06
8.57587363e-06
8.607293378e-06
9.116277553e-06
9.382985546e-06
9.619607695e-06
9.755490714e-06
1.025302211e-05
1.024708352e-05
1.040873063e-05
1.013388368e-05
1.033446666e-05
1.025484576e-05
5.115760618e-06
5.168965954e-06
5.215448613e-06
5.342458734e-06
5.331856826e-06
5.446984065e-06
5.585252655e-06
5.702066419e-06
5.790486452e-06
6.08495395e-06
6.197176959e-06
6.33833381e-06
6.497954917e-06
6.783286881e-06
7.139414877e-06
7.35204302e-06
7.786997793e-06
8.069739463e-06
8.469529603e-06
8.384139951e-06
8.619250633e-06
9.090389594e-06
9.32175904e-06
9.52164587e-06
9.656599756e-06
5.082683212e-06
5.079720782e-06
5.223057489e-06
5.109691889e-06
5.21730974e-06
5.2918191e-06
5.294370497e-06
5.33873073e-06
5.57165307e-06
5.699798887e-06
5.778495301e-06
5.948183819e-06
6.205433749e-06
6.344821021e-06
6.600051786e-06
6.981894788e-06
7.25341626e-06
7.757742368e-06
7.917632521e-06
5.043117885e-06
5.056145383e-06
5.078475621e-06
5.142883639e-06
5.114042455e-06
5.173204017e-06
5.374964956e-06
5.44068366e-06
5.455184671e-06
5.255993037e-06
5.533458942e-06
5.752284816e-06
5.858812023e-06
6.165401149e-06
5.070041672e-06
5.066351303e-06
5.006645886e-06
5.097036869e-06
5.101892775e-06
5.040805229e-06
5.034873845e-06
5.101259964e-06
4.782758541e-06
)
;

boundaryField
{
    flow
    {
        type            calculated;
        value           nonuniform List<scalar> 
15
(
8.334691482e-06
7.70117816e-06
7.938496378e-06
8.11923113e-06
7.922037882e-06
8.129824717e-06
8.43275661e-06
8.972997287e-06
9.111339451e-06
8.860055499e-06
9.567756217e-06
9.757593858e-06
9.620976544e-06
9.751945005e-06
9.964019617e-06
)
;
    }
    obstacle
    {
        type            calculated;
        value           nonuniform List<scalar> 
30
(
6.402045225e-24
6.563869372e-24
6.002041663e-24
6.09685804e-24
6.13560964e-24
5.795504057e-24
6.052587765e-24
5.781128185e-24
5.989955435e-24
5.880373677e-24
5.938219823e-24
5.913043782e-24
5.445450555e-24
6.298346766e-24
6.449975003e-24
5.441703678e-24
5.579526363e-24
5.331209516e-24
5.159536831e-24
5.815092933e-24
4.956029983e-24
5.038485294e-24
5.87280288e-24
5.282709053e-24
5.22525989e-24
4.721652455e-24
4.64157781e-24
4.949366715e-24
4.14946603e-24
4.017052139e-24
)
;
    }
    frontAndBack
    {
        type            empty;
    }
    procBoundary1to0
    {
        type            processor;
        value           nonuniform List<scalar> 
21
(
1.46555325e-05
1.244432809e-05
1.168755843e-05
1.057083292e-05
1.020896758e-05
8.817982842e-06
8.165121417e-06
7.426901886e-06
6.812593662e-06
6.207063642e-06
5.718816287e-06
5.551792116e-06
5.432728219e-06
5.105932458e-06
5.097363633e-06
5.136266476e-06
5.027943744e-06
5.114483539e-06
4.904222665e-06
5.09378251e-06
4.773847041e-06
)
;
    }
    procBoundary1to3
    {
        type            processor;
        value           nonuniform List<scalar> 
36
(
1.005096625e-05
9.86675515e-06
1.008808237e-05
1.001143946e-05
1.005096625e-05
1.020981809e-05
8.269496428e-06
8.48527439e-06
8.741115799e-06
9.136914225e-06
9.37663677e-06
9.86675515e-06
9.662766081e-06
6.354056421e-06
6.65882692e-06
6.804088991e-06
7.03908978e-06
8.269496428e-06
7.452472128e-06
5.254465904e-06
5.439129901e-06
5.487575942e-06
5.642707363e-06
5.706002672e-06
6.354056421e-06
5.809206716e-06
4.836383776e-06
4.862512501e-06
4.823090317e-06
4.889149492e-06
5.002611647e-06
4.908939019e-06
5.254465904e-06
5.085239466e-06
4.836383776e-06
4.731059579e-06
)
;
    }
}


// ************************************************************************* //
