/*--------------------------------*- C++ -*----------------------------------*\
| =========                 |                                                 |
| \\      /  F ield         | OpenFOAM: The Open Source CFD Toolbox           |
|  \\    /   O peration     | Version:  2406                                  |
|   \\  /    A nd           | Website:  www.openfoam.com                      |
|    \\/     M anipulation  |                                                 |
\*---------------------------------------------------------------------------*/
FoamFile
{
    version     2.0;
    format      ascii;
    arch        "LSB;label=32;scalar=64";
    class       volScalarField;
    location    "0.001";
    object      rhoN;
}
// * * * * * * * * * * * * * * * * * * * * * * * * * * * * * * * * * * * * * //

dimensions      [0 -3 0 0 0 0 0];

internalField   nonuniform List<scalar> 
546
(
3.813763359e+20
2.598948269e+20
3.528987708e+20
3.784818665e+20
3.582283146e+20
3.260228879e+20
2.933236311e+20
2.955898835e+20
3.217227415e+20
2.521924385e+20
4.357493837e+20
2.928155977e+20
3.6896104e+20
1.735767813e+20
2.874910162e+20
3.906789007e+20
2.41436618e+20
2.306445852e+20
2.455138673e+20
2.215409329e+20
2.891624311e+20
3.446979492e+20
3.075898129e+20
2.293532832e+20
2.450045941e+20
2.060027522e+20
3.464469884e+20
2.796903031e+20
1.834753253e+20
1.851831666e+20
2.243390213e+20
2.937941522e+20
2.390604576e+20
3.211361291e+20
2.426707937e+20
3.02735539e+20
3.285224668e+20
2.837662882e+20
2.383131418e+20
2.64201602e+20
2.541871405e+20
3.050162476e+20
1.721818186e+20
2.975601962e+20
3.374894535e+20
2.394483585e+20
1.906078563e+20
3.587804656e+20
2.455138671e+20
3.127636702e+20
2.497311907e+20
2.253794285e+20
2.139755222e+20
1.888791744e+20
1.497250297e+20
2.33469786e+20
3.187312296e+20
3.076593336e+20
1.975888119e+20
1.566934486e+20
2.804237764e+20
2.824943771e+20
1.935251324e+20
2.867286867e+20
2.773380502e+20
2.561608405e+20
2.815906856e+20
2.482955022e+20
1.787348565e+20
2.521924385e+20
2.783954393e+20
2.440129981e+20
2.459740265e+20
2.479668302e+20
2.374925786e+20
3.150636296e+20
2.668509989e+20
3.075261134e+20
1.938267373e+20
2.867000311e+20
1.445812154e+20
2.518946552e+20
2.674694027e+20
4.452151968e+20
2.177818614e+20
2.19736269e+20
2.07868193e+20
1.81798697e+20
2.540427581e+20
1.424485898e+20
2.01905119e+20
3.05093927e+20
3.073634455e+20
1.949755071e+20
3.235610583e+20
1.979424676e+20
2.346589049e+20
3.074134789e+20
2.263974847e+20
2.521924385e+20
2.057705423e+20
1.708090985e+20
3.197662345e+20
2.85161855e+20
2.624917974e+20
3.150636296e+20
2.668509989e+20
1.922038209e+20
3.101227794e+20
3.648909486e+20
1.05149975e+20
2.121218151e+20
2.006020519e+20
2.29353283e+20
2.722273268e+20
1.648022018e+20
2.494418319e+20
1.678141821e+20
1.975888121e+20
1.85183166e+20
2.01905119e+20
2.937941519e+20
2.276766262e+20
2.637903916e+20
2.426707937e+20
2.212298169e+20
2.698577406e+20
1.773539301e+20
2.025661706e+20
2.64201602e+20
3.268120377e+20
3.050162478e+20
2.090779227e+20
1.983734643e+20
1.24996094e+20
2.016407229e+20
1.779006661e+20
2.947125258e+20
3.230445622e+20
2.867000308e+20
2.497311902e+20
2.386370415e+20
2.674694025e+20
1.888791744e+20
2.586159609e+20
2.746703358e+20
1.524366744e+20
1.258606368e+20
1.834753255e+20
2.136728851e+20
1.906881682e+20
2.033959516e+20
2.732119518e+20
2.293829496e+20
1.502247772e+20
2.445171661e+20
2.229259596e+20
1.891775254e+20
2.859757702e+20
2.64201602e+20
2.662912898e+20
1.952103983e+20
2.459740263e+20
1.98373464e+20
2.749914066e+20
2.142432681e+20
3.049725702e+20
1.793902328e+20
3.230445622e+20
2.867000313e+20
2.497311907e+20
2.386370423e+20
2.808428743e+20
2.02370544e+20
1.769477612e+20
1.922692354e+20
2.355839534e+20
1.678141821e+20
1.693618383e+20
2.564074597e+20
2.243390211e+20
2.598948267e+20
1.935251322e+20
2.179138018e+20
2.542265458e+20
3.143792135e+20
2.346589049e+20
3.192370742e+20
2.144818276e+20
3.362565847e+20
2.783954398e+20
1.830097487e+20
2.459740267e+20
1.735767813e+20
1.874941408e+20
2.268458131e+20
2.668509989e+20
2.562717612e+20
2.972009982e+20
2.345727544e+20
2.497311924e+20
1.856065891e+20
1.203612314e+20
1.618964363e+20
1.63336398e+20
2.884038556e+20
2.49441833e+20
1.678141821e+20
1.693618398e+20
1.851831687e+20
1.906881679e+20
1.129977508e+20
2.049089638e+20
3.211361294e+20
2.657822979e+20
1.630114439e+20
1.642612334e+20
2.955898835e+20
2.263974849e+20
3.002290934e+20
1.694580935e+20
2.684142977e+20
3.320649358e+20
1.239834152e+20
2.374925791e+20
1.890381782e+20
2.287294272e+20
3.587804638e+20
2.842792133e+20
2.345727517e+20
2.365874418e+20
2.121218125e+20
2.94216341e+20
2.023705437e+20
2.722273253e+20
2.472033005e+20
1.940103111e+20
2.936748161e+20
1.411348652e+20
1.994280242e+20
2.019051191e+20
1.694966262e+20
1.593736383e+20
1.72037212e+20
2.080035376e+20
1.979424678e+20
2.111930144e+20
1.773539301e+20
2.144818276e+20
3.002290932e+20
2.178746913e+20
3.538188475e+20
2.951688323e+20
1.983734646e+20
2.74991407e+20
3.150636276e+20
1.651934752e+20
3.203397025e+20
2.71357432e+20
1.954772931e+20
3.023061782e+20
2.253794296e+20
2.808428734e+20
2.833187611e+20
2.722273253e+20
2.472033026e+20
2.355839534e+20
2.37736758e+20
1.693618383e+20
1.851831671e+20
1.346034127e+20
5.649887537e+19
1.138383132e+20
2.179138019e+20
1.848920333e+20
1.979424676e+20
1.642612332e+20
2.601190979e+20
1.787348562e+20
2.401832738e+20
2.178746927e+20
1.708090985e+20
1.721818179e+20
1.735767813e+20
2.499921872e+20
2.646534493e+20
3.303869532e+20
2.947125263e+20
2.325920846e+20
4.43081868e+20
2.760186844e+20
2.651522679e+20
2.273489927e+20
1.888791741e+20
1.905591294e+20
2.884038531e+20
2.078681923e+20
2.796903036e+20
2.117022979e+20
2.564074597e+20
1.009525595e+20
1.920961759e+20
1.593736377e+20
2.06444654e+20
1.617805292e+20
1.862987935e+20
1.407953435e+20
1.891775263e+20
2.14481828e+20
2.041557831e+20
2.299788401e+20
2.684142977e+20
2.336753261e+20
1.983734643e+20
2.749914081e+20
2.142432685e+20
2.54143806e+20
2.178309959e+20
1.809049547e+20
2.085091126e+20
1.840124563e+20
2.253794296e+20
2.407224629e+20
2.023705437e+20
1.497250289e+20
2.472033026e+20
1.524366757e+20
2.237522429e+20
2.681562464e+20
1.282037322e+20
1.12169511e+20
1.355973016e+20
1.366059765e+20
1.032223275e+20
1.155575207e+20
1.630114433e+20
1.642612322e+20
1.891775234e+20
2.383131404e+20
2.041557846e+20
1.694580953e+20
1.830097498e+20
1.96779222e+20
1.983734643e+20
1.74994531e+20
2.394483589e+20
1.906078576e+20
1.537630572e+20
2.97200997e+20
2.215409322e+20
2.23443695e+20
3.181827188e+20
3.209632783e+20
3.372842394e+20
3.130614296e+20
2.06002754e+20
2.078681941e+20
2.796903036e+20
2.258157844e+20
2.421626009e+20
1.009525592e+20
7.909842506e+19
1.138383129e+20
1.376297699e+20
1.271132728e+20
1.746551192e+20
1.40795344e+20
1.418831447e+20
1.787348566e+20
2.041557831e+20
2.057705412e+20
1.464077976e+20
1.967792204e+20
2.603651719e+20
2.999906246e+20
2.016407216e+20
1.90607856e+20
2.050174096e+20
1.162960423e+20
2.736682126e+20
1.840124578e+20
1.988642026e+20
2.139755226e+20
2.158619132e+20
1.769477615e+20
2.197362671e+20
2.078681923e+20
2.097677277e+20
2.258157844e+20
2.421626009e+20
1.682542654e+20
1.807964015e+20
9.107065033e+19
1.261606215e+20
1.155575207e+20
9.314939619e+19
1.173294515e+20
9.458876244e+19
2.025661709e+20
2.041557831e+20
2.057705412e+20
2.562136478e+20
2.090779217e+20
2.603651699e+20
2.374925778e+20
2.142432685e+20
2.922653793e+20
3.203396999e+20
1.679831722e+20
2.085091126e+20
2.628749353e+20
3.579555617e+20
2.006020524e+20
1.753878045e+20
2.177818603e+20
3.158708867e+20
3.464469872e+20
1.258606355e+20
3.387236766e+20
2.136728851e+20
7.851865773e+19
1.468970772e+20
9.1070651e+19
1.835063599e+20
1.155575216e+20
1.164367461e+20
2.111930144e+20
7.094157237e+19
1.07240914e+20
9.607330968e+19
2.057705428e+20
2.684142998e+20
1.96779222e+20
1.983734643e+20
2.624917986e+20
2.268458137e+20
2.287294272e+20
2.434581739e+20
1.679831736e+20
2.085091144e+20
2.234436969e+20
2.518946567e+20
2.942163435e+20
2.428446524e+20
3.402841596e+20
1.510686863e+20
2.355839534e+20
2.517212732e+20
9.879440656e+19
2.564074621e+20
1.121695102e+20
6.779865006e+19
1.366059755e+20
9.175317996e+19
4.62230083e+19
9.314939689e+19
1.05596508e+20
1.655303355e+20
1.549035436e+20
1.441099656e+20
2.299788401e+20
1.708090972e+20
1.598831166e+20
1.239834152e+20
1.74994531e+20
1.512305424e+20
2.414366196e+20
2.050174096e+20
1.809049547e+20
2.60636393e+20
2.102999518e+20
1.988642026e+20
1.604816419e+20
2.56336022e+20
2.04170494e+20
3.296044006e+20
3.464469872e+20
1.678141821e+20
2.258157844e+20
1.570373143e+20
1.016979758e+20
1.593736392e+20
1.032223275e+20
1.386690249e+20
1.280804198e+20
9.386356124e+19
1.537067378e+20
1.787348553e+20
1.20091638e+20
2.299788437e+20
1.586084499e+20
1.106883124e+20
1.363817567e+20
1.124964842e+20
2.394483569e+20
1.397790944e+20
1.922038215e+20
1.550613897e+20
1.563818345e+20
1.971562015e+20
2.253794258e+20
2.273489908e+20
2.833187636e+20
2.858386966e+20
8.973560883e+19
1.694966264e+20
1.024544809e+20
1.94975506e+20
1.50224777e+20
1.513677699e+20
1.05596508e+20
1.773539309e+20
7.149394266e+19
1.441099645e+20
1.331456443e+20
1.220064989e+20
2.582727288e+20
1.487800982e+20
8.749726621e+19
2.016407249e+20
2.033150464e+20
1.922038199e+20
3.359663444e+20
1.458203644e+20
1.016979758e+20
4.55353255e+19
5.734573747e+19
1.271132728e+20
9.314939619e+19
8.213061608e+19
7.094157183e+19
7.149394266e+19
8.406414597e+19
6.052074787e+19
8.540454926e+19
9.838961021e+19
1.487800982e+20
1.233864613e+20
1.581968501e+20
1.593736381e+20
1.146914749e+20
9.244601728e+19
8.150572227e+19
2.346589049e+20
1.537067401e+20
4.486780442e+19
)
;

boundaryField
{
    flow
    {
        type            zeroGradient;
    }
    obstacle
    {
        type            calculated;
        value           nonuniform List<scalar> 
30
(
1e-300
154.6161545
34.37783638
173.8965431
189.5806155
1e-300
1e-300
107.4735909
475.8365391
119.4479062
203.2580365
1e-300
289.5687962
60.53191384
106.2182193
1e-300
107.7149534
1e-300
1e-300
1e-300
112.6967922
292.4158959
46.80220679
95.29645802
380.5914248
235.9224746
89.93519678
74.12594674
67.04470689
1e-300
)
;
    }
    frontAndBack
    {
        type            empty;
    }
    procBoundary1to0
    {
        type            processor;
        value           nonuniform List<scalar> 
21
(
2.895186412e+20
2.004359824e+20
3.229246383e+20
2.672479765e+20
2.44977312e+20
2.227066472e+20
2.338419794e+20
8.908265883e+19
1.670299853e+20
1.670299853e+20
1.002179912e+20
6.681199441e+19
1.002179912e+20
8.908265819e+19
7.794732648e+19
8.908265883e+19
4.454132941e+19
1.336239882e+20
1.002179919e+20
5.567666177e+19
1.113533235e+20
)
;
    }
    procBoundary1to3
    {
        type            processor;
        value           nonuniform List<scalar> 
36
(
2.136728851e+20
1.648022032e+20
1.940103145e+20
1.817986973e+20
2.136728851e+20
1.834753248e+20
1.303181954e+20
2.1029995e+20
1.590913621e+20
2.006020524e+20
2.56336022e+20
1.648022032e+20
2.450045928e+20
1.624949217e+20
1.386279961e+20
1.27071904e+20
2.050174096e+20
1.303181954e+20
1.421396072e+20
1.310722282e+20
6.004581855e+19
9.683319584e+19
6.100324947e+19
1.106883124e+20
1.624949217e+20
2.231701474e+20
1.016979766e+20
9.1070651e+19
6.881488497e+19
1.964477853e+20
1.164367461e+20
9.386356265e+19
1.310722282e+20
9.458876315e+19
1.016979766e+20
1.906881674e+20
)
;
    }
}


// ************************************************************************* //
