/*--------------------------------*- C++ -*----------------------------------*\
| =========                 |                                                 |
| \\      /  F ield         | OpenFOAM: The Open Source CFD Toolbox           |
|  \\    /   O peration     | Version:  2406                                  |
|   \\  /    A nd           | Website:  www.openfoam.com                      |
|    \\/     M anipulation  |                                                 |
\*---------------------------------------------------------------------------*/
FoamFile
{
    version     2.0;
    format      ascii;
    arch        "LSB;label=32;scalar=64";
    class       volScalarField;
    location    "0.001";
    object      rhoNMean;
}
// * * * * * * * * * * * * * * * * * * * * * * * * * * * * * * * * * * * * * //

dimensions      [0 -3 0 0 0 0 0];

internalField   nonuniform List<scalar> 
546
(
2.982811625e+20
2.985626572e+20
2.833890968e+20
2.777139368e+20
2.791407473e+20
2.723222608e+20
2.83702616e+20
2.73952704e+20
2.789693638e+20
2.786125987e+20
2.816635599e+20
2.798829088e+20
2.54361741e+20
2.671594631e+20
2.591169028e+20
2.549998992e+20
2.534576202e+20
2.5519542e+20
2.543006794e+20
2.542247364e+20
2.390321805e+20
2.516825334e+20
2.609431491e+20
2.625960179e+20
2.475363082e+20
2.396773354e+20
2.333112599e+20
2.257660126e+20
2.151177622e+20
1.732459747e+20
2.691170899e+20
2.649797257e+20
2.628982004e+20
2.520001082e+20
2.426245707e+20
2.444240167e+20
2.477294059e+20
2.554606009e+20
2.504194494e+20
2.495264039e+20
2.450606117e+20
2.403528031e+20
2.424811953e+20
2.397343314e+20
2.406174807e+20
2.334999572e+20
2.339902045e+20
2.326691319e+20
2.315324984e+20
2.230004969e+20
2.213144099e+20
2.274741314e+20
2.293550129e+20
2.252249241e+20
2.194696708e+20
2.298990717e+20
2.186219078e+20
2.0104139e+20
1.980686704e+20
1.602831531e+20
2.436994786e+20
2.469000856e+20
2.373984183e+20
2.317226555e+20
2.29104341e+20
2.379501335e+20
2.291913522e+20
2.319789406e+20
2.407677674e+20
2.385500285e+20
2.425187401e+20
2.320075586e+20
2.354709356e+20
2.310802891e+20
2.269679075e+20
2.260644555e+20
2.257559451e+20
2.203937146e+20
2.169825715e+20
2.139042868e+20
2.111411495e+20
2.079058938e+20
2.186294898e+20
2.162666547e+20
2.073283321e+20
2.045469994e+20
2.090876864e+20
2.001743499e+20
1.874553285e+20
1.65354323e+20
2.130996362e+20
2.255209109e+20
2.364421764e+20
2.276396391e+20
2.252447196e+20
2.314063883e+20
2.292148183e+20
2.313641136e+20
2.309730971e+20
2.250517284e+20
2.235394338e+20
2.263708581e+20
2.234674031e+20
2.346014182e+20
2.176181996e+20
2.196623626e+20
2.186907472e+20
2.245453171e+20
2.245805794e+20
2.185696782e+20
2.053053262e+20
1.988642016e+20
1.99665909e+20
2.064179547e+20
2.092611461e+20
1.995205323e+20
1.954238174e+20
1.905530038e+20
1.822051117e+20
1.69228924e+20
2.166441927e+20
2.176110684e+20
2.256958395e+20
2.299793449e+20
2.311381532e+20
2.277968494e+20
2.258826618e+20
2.23347716e+20
2.262544969e+20
2.253399482e+20
2.244351409e+20
2.241259389e+20
2.241807279e+20
2.217071431e+20
2.130183434e+20
2.206957713e+20
2.211813567e+20
2.266723731e+20
2.131835675e+20
2.156505505e+20
2.041486762e+20
1.987581404e+20
1.973389252e+20
2.046101114e+20
2.032176998e+20
1.960322187e+20
2.017430096e+20
1.845116936e+20
1.809913518e+20
1.650409364e+20
1.953095521e+20
2.030343588e+20
2.13264696e+20
2.15344713e+20
2.165779057e+20
2.237914253e+20
2.172941459e+20
2.216924126e+20
2.294717243e+20
2.252678932e+20
2.187703987e+20
2.184160344e+20
2.178100003e+20
2.201697484e+20
2.214430799e+20
2.160076244e+20
2.148023469e+20
2.20598732e+20
2.118655457e+20
2.137218415e+20
2.117720497e+20
2.036899733e+20
2.028220491e+20
1.988897707e+20
2.020743432e+20
1.993557301e+20
1.968096062e+20
1.892104904e+20
1.850278083e+20
1.694283515e+20
1.771380911e+20
1.89949219e+20
1.936617382e+20
2.046784056e+20
2.062932862e+20
2.18365473e+20
2.178103955e+20
2.131321296e+20
2.178658743e+20
2.181104318e+20
2.177536505e+20
2.154390762e+20
2.17711611e+20
2.211120227e+20
2.14018312e+20
2.076143292e+20
2.075846628e+20
2.110141681e+20
2.122273563e+20
2.073101877e+20
2.086964143e+20
2.043528546e+20
2.015381953e+20
2.065258873e+20
2.064027617e+20
2.034483199e+20
1.966155959e+20
1.936855352e+20
1.852536258e+20
1.75553644e+20
1.674915132e+20
1.708525993e+20
1.801149792e+20
1.882316484e+20
1.927268332e+20
1.971274104e+20
2.076027331e+20
2.109329409e+20
2.121701903e+20
2.136670412e+20
2.177052336e+20
2.145118264e+20
2.168752992e+20
2.164006529e+20
2.226680424e+20
2.203176954e+20
2.159205793e+20
2.148582435e+20
2.114520476e+20
2.125750403e+20
2.122977978e+20
2.049361861e+20
2.096960103e+20
2.076591605e+20
2.030815847e+20
2.055083438e+20
2.030179327e+20
1.966502507e+20
1.968266831e+20
1.866931204e+20
1.482432253e+20
1.578126588e+20
1.674106232e+20
1.704315314e+20
1.826502176e+20
1.877891836e+20
1.889473502e+20
1.98423577e+20
2.051637838e+20
2.090074855e+20
2.073682895e+20
2.093875538e+20
2.08167819e+20
2.142929352e+20
2.144932975e+20
2.15982418e+20
2.165051101e+20
2.152426529e+20
2.200062684e+20
2.154681043e+20
2.060150886e+20
2.057316464e+20
2.042128893e+20
2.040164907e+20
2.074372219e+20
1.989437246e+20
2.023804738e+20
2.015728018e+20
1.953024265e+20
1.896560528e+20
1.320459478e+20
1.370888712e+20
1.474206155e+20
1.570814437e+20
1.645539097e+20
1.732113029e+20
1.812505378e+20
1.84873737e+20
1.963700287e+20
2.001447221e+20
2.023813812e+20
2.027015973e+20
2.076512724e+20
2.142681381e+20
2.11343395e+20
2.164865215e+20
2.146244476e+20
2.141406843e+20
2.110902385e+20
2.144776878e+20
2.150579864e+20
2.131028777e+20
2.144569675e+20
2.080369189e+20
2.080089011e+20
2.110292194e+20
2.034891024e+20
1.979088588e+20
1.869472425e+20
1.845279019e+20
1.254728145e+20
1.327497573e+20
1.365149045e+20
1.395336478e+20
1.464576019e+20
1.540923896e+20
1.651294721e+20
1.753675669e+20
1.827861801e+20
1.949327453e+20
2.004689237e+20
2.024819856e+20
2.013543389e+20
2.040767014e+20
2.108684116e+20
2.065557159e+20
2.085504072e+20
2.08963993e+20
2.111936128e+20
2.156766134e+20
2.234699844e+20
2.18644562e+20
2.120764898e+20
2.126239845e+20
1.995698522e+20
2.0259684e+20
2.075910366e+20
2.12816352e+20
2.074682538e+20
1.990861513e+20
1.214795804e+20
1.249303139e+20
1.312100404e+20
1.356341383e+20
1.400557151e+20
1.442185527e+20
1.545932854e+20
1.605171286e+20
1.661757528e+20
1.706982543e+20
1.77761542e+20
1.87011563e+20
1.977877155e+20
1.921742936e+20
1.971188396e+20
2.063540752e+20
2.054244417e+20
2.133206147e+20
2.187140902e+20
2.165627771e+20
2.107468357e+20
2.100271096e+20
2.100169718e+20
2.148635519e+20
2.160396092e+20
2.181981171e+20
2.147694182e+20
2.067750414e+20
2.046737816e+20
2.032741361e+20
1.144353343e+20
1.16116488e+20
1.2078245e+20
1.249219545e+20
1.30880448e+20
1.372090616e+20
1.422032974e+20
1.456430481e+20
1.484929189e+20
1.567195864e+20
1.655847649e+20
1.726391946e+20
1.817748049e+20
1.890499115e+20
1.961688693e+20
1.978851632e+20
2.040012347e+20
2.041717128e+20
2.048619394e+20
2.100208054e+20
2.147688258e+20
2.160991002e+20
2.175061187e+20
2.159968269e+20
2.106222816e+20
2.091614592e+20
2.063992571e+20
1.991674652e+20
2.030366171e+20
2.004821438e+20
1.087371232e+20
1.107603954e+20
1.122218089e+20
1.192791331e+20
1.218438499e+20
1.227941915e+20
1.276544433e+20
1.331336831e+20
1.430593793e+20
1.499223998e+20
1.567003192e+20
1.650015892e+20
1.715914802e+20
1.808918013e+20
1.82769288e+20
1.900463817e+20
1.923614483e+20
2.003276347e+20
1.974965234e+20
1.984224843e+20
2.038332249e+20
2.054930076e+20
2.079842079e+20
2.103304517e+20
2.064299808e+20
2.0259684e+20
2.081730657e+20
2.077259866e+20
2.008349132e+20
2.033311174e+20
1.102850633e+20
1.127717562e+20
1.140432227e+20
1.145767835e+20
1.176606685e+20
1.241448587e+20
1.282176256e+20
1.340086302e+20
1.378403214e+20
1.422845716e+20
1.457581692e+20
1.467250168e+20
1.54028936e+20
1.638316848e+20
1.736445746e+20
1.796870895e+20
1.850421066e+20
1.846694317e+20
1.957391626e+20
2.018368227e+20
2.052001762e+20
2.076937732e+20
2.105786611e+20
2.076321778e+20
2.150051434e+20
2.118257652e+20
2.116652532e+20
2.160607595e+20
2.13621734e+20
2.074051471e+20
1.056188108e+20
1.065116792e+20
1.079187206e+20
1.093697905e+20
1.148410641e+20
1.156216889e+20
1.204973485e+20
1.23201864e+20
1.264251229e+20
1.294347675e+20
1.347918086e+20
1.419423598e+20
1.456166231e+20
1.501439158e+20
1.578700662e+20
1.646396505e+20
1.717503869e+20
1.790058258e+20
1.798712121e+20
1.901603123e+20
1.957892551e+20
2.007202685e+20
2.031965056e+20
2.137572596e+20
2.134262231e+20
2.167698275e+20
2.110555046e+20
2.155013789e+20
2.138193208e+20
1.064488652e+20
1.073704629e+20
1.084423777e+20
1.111589775e+20
1.110738889e+20
1.135025393e+20
1.165550772e+20
1.189690151e+20
1.209200874e+20
1.270329347e+20
1.289818189e+20
1.320110329e+20
1.355562865e+20
1.412667033e+20
1.487453514e+20
1.530453077e+20
1.621183352e+20
1.680117672e+20
1.764081744e+20
1.747827637e+20
1.798064558e+20
1.897959918e+20
1.948247116e+20
1.987278756e+20
2.015298925e+20
1.057758489e+20
1.059466913e+20
1.088977293e+20
1.065483794e+20
1.08508512e+20
1.101258745e+20
1.102427543e+20
1.111654439e+20
1.15891681e+20
1.187466108e+20
1.204362873e+20
1.236901886e+20
1.290133774e+20
1.319679471e+20
1.372707111e+20
1.453829626e+20
1.510884939e+20
1.616049718e+20
1.647785701e+20
1.053944726e+20
1.05404302e+20
1.058240965e+20
1.070988993e+20
1.066364801e+20
1.077971387e+20
1.120026944e+20
1.13388279e+20
1.136753688e+20
1.09595628e+20
1.154251703e+20
1.199323885e+20
1.222244933e+20
1.288931584e+20
1.056636786e+20
1.056076972e+20
1.043441976e+20
1.062272441e+20
1.062435854e+20
1.050725197e+20
1.049394623e+20
1.063177698e+20
9.971869532e+19
)
;

boundaryField
{
    flow
    {
        type            calculated;
        value           nonuniform List<scalar> 
15
(
1.732459747e+20
1.602831531e+20
1.65354323e+20
1.69228924e+20
1.650409364e+20
1.694283515e+20
1.75553644e+20
1.866931204e+20
1.896560528e+20
1.845279019e+20
1.990861513e+20
2.032741361e+20
2.004821438e+20
2.033311174e+20
2.074051471e+20
)
;
    }
    obstacle
    {
        type            calculated;
        value           nonuniform List<scalar> 
30
(
133.7753586
137.5821826
125.1884857
127.0847235
128.4476604
120.2060722
126.0598636
120.3555017
124.729056
122.5166651
124.1145886
123.0892835
113.5228724
130.0806807
135.6116452
113.8258898
116.4257696
111.1765965
107.0254192
121.2457953
103.3736765
105.1482662
123.3480695
109.6617824
108.8063971
98.34587904
96.41675748
103.5162774
86.43571945
83.34450428
)
;
    }
    frontAndBack
    {
        type            empty;
    }
    procBoundary1to0
    {
        type            processor;
        value           nonuniform List<scalar> 
21
(
3.054644371e+20
2.592528079e+20
2.435742599e+20
2.20056438e+20
2.122617055e+20
1.839111493e+20
1.698806304e+20
1.54959285e+20
1.423095475e+20
1.292366673e+20
1.193930335e+20
1.15807457e+20
1.134244954e+20
1.064315059e+20
1.063201533e+20
1.071218972e+20
1.046053121e+20
1.064315066e+20
1.02600953e+20
1.060529053e+20
9.954987124e+19
)
;
    }
    procBoundary1to3
    {
        type            processor;
        value           nonuniform List<scalar> 
36
(
2.097697937e+20
2.058104848e+20
2.103348967e+20
2.089845948e+20
2.097697937e+20
2.126902419e+20
1.721503361e+20
1.766782455e+20
1.82318701e+20
1.90464962e+20
1.955978761e+20
2.058104848e+20
2.017748935e+20
1.32695853e+20
1.389304572e+20
1.419393168e+20
1.467155837e+20
1.721503361e+20
1.552681382e+20
1.094572262e+20
1.133665054e+20
1.141179213e+20
1.175654624e+20
1.187316631e+20
1.32695853e+20
1.208094398e+20
1.008165941e+20
1.012477962e+20
1.004926703e+20
1.019448448e+20
1.043506119e+20
1.023347492e+20
1.094572262e+20
1.059867091e+20
1.008165941e+20
9.868673511e+19
)
;
    }
}


// ************************************************************************* //
