/*--------------------------------*- C++ -*----------------------------------*\
| =========                 |                                                 |
| \\      /  F ield         | OpenFOAM: The Open Source CFD Toolbox           |
|  \\    /   O peration     | Version:  2406                                  |
|   \\  /    A nd           | Website:  www.openfoam.com                      |
|    \\/     M anipulation  |                                                 |
\*---------------------------------------------------------------------------*/
FoamFile
{
    version     2.0;
    format      ascii;
    arch        "LSB;label=32;scalar=64";
    class       volScalarField;
    location    "0.001";
    object      translationalT;
}
// * * * * * * * * * * * * * * * * * * * * * * * * * * * * * * * * * * * * * //

dimensions      [1 2 -2 0 0 0 0];

internalField   nonuniform List<scalar> 
546
(
959.5973732
947.9510652
933.4844093
917.5138793
893.5414855
913.0299376
906.028548
894.5921642
872.2109313
877.1366722
885.3306284
864.8867581
889.4680903
860.5999266
866.7134004
855.8060653
838.5817308
845.8352191
848.2293601
860.4655125
891.4492973
868.9668271
876.0754858
863.334723
844.2717971
846.7710985
830.1706909
833.8830938
846.6251653
830.5778167
1026.375378
1029.412467
1012.608469
991.4500735
999.2711174
1006.100508
992.8307605
962.5161129
974.3032797
995.2832919
988.6215438
971.4823136
976.1240787
970.7969765
961.3562798
938.4975687
947.1981962
961.4420354
962.6214254
973.0522764
971.5352517
981.4249949
950.2933778
954.207345
920.5934979
907.1973078
919.4863681
912.7612891
899.2690238
823.1751504
1014.50863
1038.234046
1021.503655
1043.107895
1042.90127
1025.87552
1015.717268
1021.999352
999.3414027
998.91258
998.7740741
994.0337421
1012.121942
988.8302992
983.8715991
988.7191998
981.7463787
992.106563
985.5767761
979.3553141
992.9847321
986.4467935
975.059935
973.0152581
949.6619618
948.111377
953.153177
937.1811512
897.3210239
830.6315614
1007.665918
1019.436659
1023.535016
987.2155849
1002.673234
1010.292918
998.5863446
1022.716758
1010.650542
1018.745437
1001.838624
973.1469616
998.2329312
975.6352402
990.0772212
981.3372186
962.932959
978.8032791
965.0618312
956.3691523
998.6490125
977.607094
1014.562113
1023.958043
980.4062664
953.1826951
924.6769485
897.5766267
879.866553
816.9155449
972.0114035
978.7191442
1003.316201
963.4274103
963.4334228
976.3624807
961.4448711
944.5612525
962.5313334
967.929555
963.7817334
952.0043046
948.3946496
963.1966746
931.1133393
939.396238
963.5201655
955.7172555
951.1891386
969.3571776
958.2748961
961.7362382
973.4686975
983.6699161
949.0737374
934.3852078
924.7477257
898.8847603
879.6881497
808.125881
974.0137278
968.7858874
950.771585
941.7182323
910.3515589
924.3502676
901.8223477
912.0063985
951.0063483
935.2794337
919.331743
938.1782161
925.4226477
897.6918435
906.4544919
902.7944421
927.6711263
951.3566746
918.956082
936.9545124
928.5627238
906.0650231
928.9248899
934.2067289
942.6825735
915.6705654
914.6870734
887.8515571
875.0349475
800.7122351
924.615804
945.5483664
925.2970763
928.1882182
887.4793473
912.7199382
890.086595
878.4628149
921.2302222
917.9014757
913.5592819
890.2847817
896.6143801
907.1753378
915.8745298
906.7375437
915.0203734
918.8102037
921.3981537
894.9877319
904.7658375
880.5742276
886.6975396
906.8586838
918.5502817
896.6915748
897.07679
888.7131462
851.528437
805.9094866
887.5943859
872.9081723
872.8571094
891.9093031
878.3695018
890.9096116
880.7474633
855.1040814
886.2770738
887.8430393
891.9112523
859.7248094
865.9774346
881.4548834
900.1166949
881.5456408
892.0395396
885.6174615
922.0289868
910.4285999
887.8865126
864.2232238
853.0887971
874.1434812
896.7968076
880.4878775
833.8788159
830.3335839
827.0064605
795.1749932
827.6299599
851.5070617
869.9756179
848.7739361
862.7899225
873.8793788
845.5316721
850.2567928
882.9421739
868.1255778
856.0399985
849.817542
856.2736819
868.2190319
861.8832373
853.3656618
841.6641753
859.4670096
846.5330947
867.1274512
845.5327876
839.345616
872.5122272
855.0155935
858.2958347
867.01862
871.8033973
849.5454494
836.523019
797.6062754
768.550677
779.3781151
833.5218628
832.9036701
826.2772487
828.3215083
807.3266585
814.0280489
839.2370834
844.7990658
851.0560475
831.1291445
824.1331798
839.8182534
824.4518893
844.4898993
824.2048999
827.1688768
820.7336938
826.7561881
830.3797541
822.0972137
833.139126
836.7052306
836.4232478
835.0537712
835.061268
839.7632168
817.6379576
802.5664167
685.5123211
716.513231
760.9534416
756.0152399
775.7705171
794.3741883
823.5933557
817.228845
807.044627
817.2788377
803.4423187
807.4776791
812.8924929
813.4826374
812.8161609
812.787088
802.3211448
817.9575513
817.5812409
817.4483606
837.4775946
813.6963532
833.5802402
852.403474
811.057276
846.551263
853.9758402
826.2133623
795.8213677
777.944749
617.3623952
633.8071932
682.113344
697.4962799
724.1624759
723.2015668
785.1284327
780.0304061
791.9373805
783.5240686
788.9796974
804.3191523
800.038734
783.8451817
802.3696424
800.5095927
781.7188814
793.2755597
796.8946062
813.4941698
805.8132432
789.1775075
784.684109
799.4018797
797.3991119
798.5851029
806.6212551
794.8426807
780.0038463
761.6898123
553.805758
557.6157612
613.3735627
623.937682
659.6189956
676.9923329
705.5351232
726.5707028
736.5338511
777.2327603
784.9421966
779.2722741
791.4605166
770.6038549
783.0436916
783.8918828
791.5561305
782.334775
787.774901
794.2531481
808.4281168
802.725618
815.5302939
800.3726818
797.905659
788.631431
780.103887
768.1032071
780.5206424
758.4824324
523.7206831
534.6594475
542.5760089
598.3309421
631.0318675
658.2290406
674.1563691
662.5213998
702.2540147
724.5212658
730.4098341
722.6423367
743.5100323
775.28627
766.5516152
779.6731008
778.2378343
780.2763189
774.5570085
765.693797
777.3378549
782.7672231
784.9186213
799.5859199
771.9914095
781.7647424
779.4911002
786.5308363
759.4867904
757.3663107
450.4869867
488.1256632
487.0299789
494.9062053
537.3911346
576.4760664
587.6455664
627.4569169
646.6618286
672.9239394
677.0937216
678.3342268
706.5747399
727.6072727
734.1530323
741.882325
746.1584942
735.54263
747.632249
740.6251394
748.9373099
752.3038273
754.7296067
760.8716846
759.1408809
750.7512217
743.1487538
759.1807112
760.1962336
746.3093914
425.6468622
448.6389429
464.8140513
465.9435598
488.7284594
508.4959483
567.3517208
574.7813811
607.3287527
604.104412
630.2726382
644.3030758
658.1658463
682.705037
717.4938044
708.6411898
735.0755255
725.993562
727.2385927
738.5455639
716.2948456
730.0754598
743.2500757
740.1313403
730.9068891
737.5883224
715.9465888
755.3300944
736.9467115
381.8412281
392.7600564
403.4153136
435.8091465
442.6176607
465.729815
487.4631993
516.9432996
566.4921597
566.9495701
596.5145446
614.7717423
616.990765
643.5634493
671.4285063
681.9978986
687.2574697
713.7880857
725.6142516
720.2862719
702.2945183
723.0188052
725.3199516
734.4246724
734.8164787
352.2213986
367.5156428
387.7794286
399.6781466
412.360056
414.7074697
451.2412593
467.5247886
479.9844646
523.0975047
536.25951
558.9095045
586.5856869
601.352313
620.7006437
642.8579133
623.475861
671.1273323
658.5482222
362.1932459
353.6336686
363.9909718
372.9175249
376.9190025
393.2785422
417.0497466
447.3382979
458.4084495
464.3425974
503.2759887
531.0307059
529.7070344
532.0092571
346.8260647
345.5369674
336.2761885
344.2619226
373.0039953
374.9907778
377.7080725
397.3372206
340.5329321
)
;

boundaryField
{
    flow
    {
        type            calculated;
        value           nonuniform List<scalar> 
15
(
830.5778167
823.1751504
830.6315614
816.9155449
808.125881
800.7122351
805.9094866
795.1749932
797.6062754
802.5664167
777.944749
761.6898123
758.4824324
757.3663107
746.3093914
)
;
    }
    obstacle
    {
        type            calculated;
        value           nonuniform List<scalar> 
30
(
853.1406859
849.4589318
799.7793767
822.2526951
763.7969117
767.6779835
806.4312256
826.0963628
738.2073292
738.6149106
877.1827688
783.8367993
760.544344
772.1864979
693.7748456
722.2176891
754.0743884
696.154381
748.3652299
700.0552086
725.8360005
779.5320982
694.3756698
815.158627
727.5355019
807.3433986
801.8983931
837.1185156
791.0596853
757.4344583
)
;
    }
    frontAndBack
    {
        type            empty;
    }
    procBoundary1to0
    {
        type            processor;
        value           nonuniform List<scalar> 
21
(
970.6084466
1075.122829
1045.938821
1057.840978
1003.545935
974.3386309
932.4609467
830.9958382
807.3597978
769.6311928
633.7019104
568.9150451
536.9341866
469.6589701
431.0291552
410.2294812
389.363946
339.9636122
337.1564264
319.4320109
322.3955417
)
;
    }
    procBoundary1to3
    {
        type            processor;
        value           nonuniform List<scalar> 
36
(
724.4669795
746.6323754
733.2041738
722.801289
724.4669795
730.8137605
688.8507146
691.2120497
705.7606489
687.4504152
704.6277438
746.6323754
715.9446017
553.8557947
609.1411079
609.3624459
625.9175299
688.8507146
646.8484963
438.3823412
423.0332848
440.5520855
487.215977
492.6752658
553.8557947
515.2662721
334.3878162
333.9330959
336.749569
350.5204612
363.5034044
365.9899296
438.3823412
395.8019967
334.3878162
330.6571382
)
;
    }
}


// ************************************************************************* //
