/*--------------------------------*- C++ -*----------------------------------*\
| =========                 |                                                 |
| \\      /  F ield         | OpenFOAM: The Open Source CFD Toolbox           |
|  \\    /   O peration     | Version:  2406                                  |
|   \\  /    A nd           | Website:  www.openfoam.com                      |
|    \\/     M anipulation  |                                                 |
\*---------------------------------------------------------------------------*/
FoamFile
{
    version     2.0;
    format      ascii;
    arch        "LSB;label=32;scalar=64";
    class       volVectorField;
    location    "0.001";
    object      UMean;
}
// * * * * * * * * * * * * * * * * * * * * * * * * * * * * * * * * * * * * * //

dimensions      [0 1 -1 0 0 0 0];

internalField   nonuniform List<vector> 
546
(
(396.2454135 106.5475597 13.81011161)
(371.2500798 105.736229 3.674946988)
(374.961014 110.1891523 -7.815811344)
(367.8828091 92.6182916 -5.530523933)
(372.5381232 96.78154999 -1.227801793)
(379.0965207 105.6345234 -8.614591065)
(351.950164 91.49078104 -8.241078336)
(349.6657394 97.22630699 -0.8587050946)
(339.808864 85.37676837 13.57655358)
(317.3645692 94.04945477 0.772437637)
(299.7036325 83.00387236 3.047353588)
(303.5297478 71.33613396 -1.298345802)
(335.6921949 84.4697767 -15.7333812)
(319.7128835 88.1054492 6.11883737)
(322.069957 83.81242265 -13.12250387)
(316.8594138 84.65512719 -10.1662156)
(311.8411271 85.65759535 -1.330521554)
(308.444446 83.65344618 -2.009638606)
(292.5489389 81.3552403 7.361313083)
(293.0898042 78.07568039 -23.38363436)
(319.017801 81.42007565 -20.2852271)
(312.3679946 78.26942326 -8.13248265)
(300.4806037 77.28817558 -23.95169204)
(310.8722671 80.320732 11.47324997)
(320.4705519 80.40509262 -9.612526627)
(327.1610093 89.01517287 -9.724283398)
(326.2319694 89.50440562 -14.23016684)
(336.3048688 82.02841007 2.886793885)
(359.0621763 98.84124572 25.23360213)
(466.5729817 89.19425921 2.213463967)
(668.1082645 202.867526 10.94592814)
(661.1194821 198.7012954 9.876858727)
(638.9630491 186.3417695 6.713859449)
(655.0302913 173.6233535 1.756150129)
(635.256339 167.105792 -6.314414162)
(616.5980673 169.3999458 -6.53780389)
(588.6057889 164.8748072 -4.375556499)
(578.3000731 152.9471696 -2.382816144)
(557.4350103 173.1338291 6.700167833)
(564.7695181 158.0673314 -7.544345089)
(555.9386005 149.5155913 -0.09220000463)
(557.7396637 140.9924718 0.6831782355)
(531.4260067 152.2910335 -10.98816064)
(523.5546269 138.3506493 17.11724642)
(505.5270344 136.2735362 13.40208756)
(514.2316699 139.7178226 -3.268365304)
(503.163038 138.1854665 -6.061771729)
(504.4462318 130.6819621 -6.73989702)
(501.7158559 135.1943823 -7.064706106)
(504.8249382 135.0411953 -2.932188415)
(524.7654562 113.2632793 -22.71594688)
(514.232486 129.1240873 -10.25355834)
(506.3491593 130.8171116 -36.28708608)
(491.6040312 128.9786623 -16.57448342)
(500.8424312 135.8923544 -33.38283459)
(481.3987363 132.4482996 -28.48340119)
(495.5419544 135.6303011 -4.005978668)
(528.3955747 123.7864858 -17.9449147)
(548.5248421 134.54846 -1.394738863)
(718.6795628 104.8117135 6.31148906)
(875.2236793 269.5499786 -2.884725297)
(841.3782369 269.0939356 -12.97694809)
(839.5432488 269.0759391 -15.56231959)
(829.1875559 235.1402229 -7.62504342)
(824.8046706 230.1164892 -14.74559713)
(770.4356748 230.3588512 14.81209186)
(780.5732242 216.5593161 -15.71799062)
(761.3379364 204.9055642 -4.790905642)
(724.0925001 204.6500775 -6.602943502)
(737.6091683 202.7368458 -21.46657299)
(725.2986516 206.0506172 -7.803997997)
(713.0520346 199.6875932 0.4968688039)
(679.1807239 190.8734814 -10.24697111)
(672.2575365 188.7166916 -5.629893275)
(691.5571837 178.6044848 -7.735385534)
(695.0833125 192.7561862 -13.12093106)
(691.600625 181.2895697 -10.36976797)
(671.5996923 188.5563201 -8.780965809)
(668.5649675 187.1119727 -5.462544574)
(686.06727 170.2212438 3.767137299)
(674.3655619 159.11657 -20.03389833)
(682.1082498 148.22954 -0.7579612197)
(646.5815666 167.6817734 -28.384613)
(641.5427887 178.4451554 -7.503639654)
(633.9387168 177.201232 -13.72530242)
(636.3812604 168.6573554 6.050606603)
(644.6763955 164.1591938 -4.040700846)
(687.2409815 162.7058704 -4.606885951)
(732.7201399 165.9618453 -15.73442516)
(822.6433245 132.8255593 -21.94991296)
(1043.553982 309.2278544 -1.84012859)
(1004.788444 316.0157762 -9.518721928)
(975.7086724 309.7976668 -10.41052499)
(993.5173 297.3125016 -3.41199983)
(983.8991746 288.7785408 -4.863597073)
(939.6084862 274.553934 -4.06219932)
(947.3671545 266.0976654 4.685332691)
(919.1073269 257.5158957 -2.070794093)
(899.4223948 256.4519213 -9.454373912)
(875.9211493 260.6632009 -13.13748887)
(857.4155752 248.5118819 -17.48061038)
(840.6276864 252.1519923 -22.46667879)
(855.4485459 232.4139065 -14.65514616)
(832.0127413 232.1201035 -19.5633595)
(855.9776175 230.0253168 -7.818047874)
(827.1495975 223.8377082 -6.028642788)
(818.1108715 226.5157339 -5.485222923)
(794.3008508 218.3568196 -17.53883793)
(785.9812266 214.5617746 -25.77004849)
(780.5544966 207.5726087 -0.8967664313)
(817.6365916 188.1156935 -5.2632586)
(814.8332778 208.7245873 -12.5439443)
(776.1789727 206.8409016 -21.67066503)
(749.0880955 213.2683997 2.29182427)
(768.3273555 205.7243843 -7.688159037)
(792.5041288 195.398558 -7.766192874)
(771.8772322 187.9605173 -21.74525959)
(818.2697966 191.9566649 4.323976259)
(830.766165 184.7791473 7.266620326)
(913.659968 173.8712757 4.305308401)
(1160.931859 337.2154946 2.30783658)
(1133.914827 319.6861582 11.21495857)
(1104.76194 343.3780372 -6.192351845)
(1097.778278 335.6905873 3.687450499)
(1088.733221 309.7092006 3.300022561)
(1061.522157 322.2047655 -3.172856315)
(1055.733166 305.2365928 2.180321541)
(1038.772514 298.9731414 -9.368974334)
(1008.580116 308.251009 -28.69211366)
(1007.744759 293.9798758 -16.32414265)
(1013.881709 284.5684099 -14.5889655)
(1011.874739 287.4068105 0.4495491146)
(987.7955083 281.134115 -10.50936608)
(953.3280218 278.2025729 7.93349269)
(970.2117449 261.4273947 -6.033022147)
(945.6814812 258.5182295 -5.443251371)
(922.3533094 253.8797537 -10.68451778)
(897.3943255 254.7201728 4.496381899)
(920.9943943 244.2107416 0.9437715144)
(882.2015893 250.3606308 -0.07036093184)
(886.3313853 239.9235167 -4.068386703)
(887.7370879 231.6714832 -12.97708858)
(896.2513537 231.2087961 -28.2701569)
(875.4566529 228.9632721 -9.97646059)
(871.9509612 235.4116432 -0.5437754175)
(866.5342264 235.2910376 -15.48202271)
(859.0889121 218.2126565 -33.94824243)
(902.8416747 208.1240122 -10.35566503)
(920.6261807 213.7075014 5.718840717)
(971.5444474 182.0026587 -18.75216661)
(1232.213769 335.2191557 -18.50832593)
(1205.944095 352.0231927 -19.49054451)
(1181.600368 335.8008044 -4.692334221)
(1172.953566 346.3780282 -4.920919672)
(1163.801841 345.3040126 5.152304644)
(1135.469082 362.5375066 -2.884873777)
(1157.755741 334.3017144 0.1431985102)
(1132.478535 319.7076247 11.35184071)
(1101.028181 318.5058102 7.680698418)
(1104.711106 331.9311633 -3.573771224)
(1105.952752 323.6161327 -10.68842795)
(1091.863132 302.7514023 2.986324721)
(1073.87486 324.9823109 3.679874756)
(1071.614126 314.9242822 -3.359372784)
(1056.602108 298.1488489 -7.290832209)
(1056.969447 283.7767781 -9.69631373)
(1036.640411 295.7187668 -19.70090414)
(991.3606643 291.5297878 -1.438258108)
(1014.592473 294.2013068 -1.139148215)
(986.112567 279.2971289 -12.72438029)
(990.9076123 280.2323251 -15.54594516)
(1007.548263 256.2487908 10.80558269)
(986.6547958 264.8506159 -16.27746007)
(962.0479514 259.2959552 0.05778051931)
(941.1819915 265.6571185 3.551377082)
(955.6960762 241.4126885 -14.65057313)
(948.2347026 239.9877695 11.0171678)
(965.9535861 233.7427953 -14.90110337)
(987.0938407 238.9454037 -6.829352826)
(1070.78982 211.2220734 -19.06336515)
(1311.657306 321.3562555 0.4337556543)
(1284.266519 328.2544321 0.9551216599)
(1281.253845 334.0511429 -22.74991106)
(1248.768391 348.8755611 -13.83164382)
(1256.638853 353.216754 -13.47910272)
(1223.552426 371.29632 -9.838185365)
(1223.005169 361.2070121 -10.95155175)
(1227.969813 355.1972793 -2.177630908)
(1189.367474 361.0108457 5.5442623)
(1183.452199 336.1973522 13.66536532)
(1163.123115 349.3832374 9.676541771)
(1158.419303 334.5399825 -3.502891203)
(1149.848745 332.1559263 1.189250049)
(1124.990835 335.5888198 -1.503420201)
(1116.483841 338.4379026 -11.95958921)
(1123.028308 323.5489351 -9.143885356)
(1109.196651 315.06041 -6.738832249)
(1083.255099 321.577655 -17.53464224)
(1078.365917 303.2762959 -0.07309848044)
(1062.509281 311.776625 -3.360313107)
(1060.053831 299.5310456 -10.16403522)
(1058.117825 298.0446394 -1.681888093)
(1049.345851 287.0084324 -16.64477402)
(1029.445898 276.5559289 -13.57980892)
(1027.085867 272.1181875 -16.45733619)
(1031.392514 280.0983488 -3.63027462)
(1055.946264 269.2428888 5.9759879)
(1055.522817 263.5465124 -16.99120368)
(1090.911734 260.3428778 -21.16631758)
(1123.291532 239.0005708 4.79927627)
(1372.30881 279.0218878 -11.70671434)
(1369.702805 316.3848585 -9.072651401)
(1345.500059 316.205087 7.345383001)
(1323.720859 344.4705893 5.223556775)
(1316.370915 348.4981914 0.7434124839)
(1291.942693 357.3042568 0.2744103429)
(1278.852688 373.0201788 3.226688134)
(1274.078321 370.9836213 -1.515037347)
(1231.866004 368.5290665 -6.505208864)
(1233.005237 359.9615985 -19.44065804)
(1212.076998 358.9169986 -20.2008304)
(1225.118746 351.6291436 1.818504433)
(1209.942069 354.6908899 -3.470418227)
(1195.512543 359.7879225 1.98908818)
(1177.653126 359.1604345 -9.636468948)
(1179.068367 338.38235 -9.641452695)
(1171.943413 340.4962239 -7.654589218)
(1164.359795 342.5169521 -2.608997752)
(1139.586643 341.7841622 4.8352335)
(1144.346375 321.7586919 -10.96615583)
(1127.615366 324.8200694 3.749237571)
(1140.011174 315.9116432 -4.600356992)
(1127.859631 296.4721632 -9.915716609)
(1121.179485 299.966872 -5.294498334)
(1107.33011 311.1539227 -17.29636551)
(1093.67955 288.3536767 -7.785001009)
(1095.000892 287.6303572 -7.013315153)
(1130.448372 284.1147432 10.01647819)
(1114.575653 276.9628494 8.757367653)
(1153.900835 253.5609999 -0.1503156595)
(1456.790518 256.0291777 -5.440202009)
(1428.30889 278.7466581 -4.112119419)
(1392.35989 297.5676712 -6.75764448)
(1382.180261 315.1383232 -16.2767763)
(1349.688053 339.4495728 0.6534861372)
(1339.386785 354.059446 2.705156636)
(1332.241327 358.9867826 0.1826786636)
(1315.667457 365.3792667 -7.048137999)
(1277.435436 378.2281407 -3.380090179)
(1273.794243 377.0227294 1.821290937)
(1275.750666 366.4397365 -14.41081394)
(1273.976513 367.6668507 3.216596822)
(1257.40007 360.2807816 4.631157211)
(1229.259413 360.1604568 -5.516361435)
(1222.056497 366.5177072 -0.2037189014)
(1211.810608 362.9860203 -5.945287404)
(1212.402421 357.5294512 -13.62071361)
(1214.366381 344.9682327 2.823381995)
(1201.562679 344.750724 -5.283938841)
(1169.741273 352.5819122 7.275541601)
(1192.325403 357.9915836 1.128639312)
(1195.854265 339.9554363 7.496324825)
(1164.788106 318.1422635 -7.549281353)
(1167.496374 317.1437486 -1.480395554)
(1158.280074 316.6550692 -0.3937994509)
(1167.913593 304.3287522 -16.84945614)
(1147.977104 302.7812399 -14.0597795)
(1158.105875 294.8283984 -5.000435022)
(1180.25693 295.1655709 6.641559217)
(1202.428422 278.0377175 5.701997037)
(1502.825899 215.8651918 6.990191013)
(1473.635912 245.2258332 -2.890703128)
(1444.317918 270.5369148 1.139899743)
(1429.128698 275.4321872 3.786394685)
(1403.347926 301.0279134 -0.6727704351)
(1377.665627 337.5480878 -8.81571653)
(1371.886157 354.7199202 -3.857749571)
(1358.4252 346.536802 -0.8274372943)
(1338.643441 359.5380231 1.912879885)
(1328.487871 374.2508938 -5.582483762)
(1322.438557 370.9840395 8.616669884)
(1315.588684 377.7529694 -2.743343332)
(1295.781101 365.5079978 -0.8841672306)
(1273.602939 381.2462415 -2.468441352)
(1286.891294 367.1347121 -6.371781402)
(1266.597021 364.7632732 -7.693466714)
(1262.743128 357.0232099 -2.146788908)
(1247.765835 367.7844053 -11.05405018)
(1241.781755 372.1701919 -7.738456783)
(1231.633139 378.0670095 -14.70914696)
(1219.609268 353.7491466 -19.83312259)
(1233.71333 342.331519 -16.52760363)
(1226.615125 339.0335357 -9.246880377)
(1219.430472 324.9313921 -7.69857561)
(1222.789774 333.1084722 7.064015687)
(1206.593162 334.6103291 -3.380544321)
(1195.011105 317.7030115 -9.229313627)
(1205.817554 309.2256547 1.912167359)
(1223.48324 316.7062978 -9.381257178)
(1244.363372 305.2831007 -4.378813198)
(1531.279587 185.7474604 -18.93559768)
(1514.345979 191.0665123 -17.79610798)
(1494.448894 211.6870061 -20.52155375)
(1485.859579 249.4727779 -6.117940913)
(1468.247831 264.7833316 -0.7405543444)
(1456.953489 286.9895195 10.41286609)
(1422.41223 317.1001168 -5.472886138)
(1409.074082 328.5331066 0.03829926712)
(1391.420895 336.7731082 -2.730475945)
(1364.903744 350.2561897 -6.266951191)
(1362.709405 371.3570292 -16.33620364)
(1362.612495 380.1640598 -12.78620297)
(1361.984676 367.2609047 -15.30873752)
(1360.038033 367.2982602 -1.876418797)
(1319.983244 386.1889934 4.548128184)
(1326.196333 375.8863021 1.155029955)
(1321.354104 389.6895419 -4.989170331)
(1308.668716 388.4334134 -4.975394884)
(1298.745648 382.3575538 -0.1285893701)
(1300.783789 365.2642102 -6.878007045)
(1269.534042 359.0260638 -3.783155634)
(1288.338238 356.3364485 -3.420877908)
(1271.062741 362.7461722 0.7839665031)
(1246.31841 364.2080343 11.63279884)
(1272.25817 345.8418493 3.428371549)
(1253.813023 349.8316162 9.930072834)
(1237.77213 321.59901 -1.204264911)
(1235.129157 332.4443712 -13.07965539)
(1255.269158 317.7498093 0.5248445061)
(1265.064382 308.7292029 -2.179356048)
(1582.428943 135.0546731 6.17474414)
(1571.27151 160.877518 8.824055933)
(1546.642678 192.065221 -0.4347612003)
(1532.224197 203.3313069 -5.564361766)
(1515.154097 230.487821 -9.482616095)
(1492.891033 243.5344411 -6.258139427)
(1451.377933 273.8936717 11.7528779)
(1450.568531 267.2290847 -2.361456944)
(1446.377193 308.2512093 8.585916056)
(1430.354822 339.7735353 -1.903477702)
(1414.401118 354.7231128 -0.9461745058)
(1395.094757 358.4068156 3.692188528)
(1369.357008 382.7443463 7.298811864)
(1389.351755 369.9590657 2.501252703)
(1368.273442 378.9173728 0.6072991674)
(1350.174373 389.99498 5.019007398)
(1366.953301 379.8786557 -0.497134102)
(1340.461092 364.615648 -4.294301998)
(1339.971624 373.6620006 -3.374323542)
(1321.614688 383.3239456 -4.149632832)
(1326.661574 382.9787334 3.322322752)
(1313.535055 375.1167039 10.69902883)
(1309.412887 381.5938622 -11.9414311)
(1310.551313 364.7296501 -14.73820744)
(1301.87072 349.2781306 -6.546793137)
(1300.38533 341.4316436 2.984605348)
(1289.384253 346.8586147 7.282272013)
(1298.880763 331.8381343 1.787546713)
(1284.420572 342.4717234 -2.57382424)
(1290.329258 340.9958618 -2.224335094)
(1632.239617 102.3804965 -8.246332488)
(1629.567138 117.35852 -7.617418768)
(1595.672899 148.9597677 -0.5017126638)
(1578.893355 174.4622012 -2.545109316)
(1562.874124 197.3452677 0.09759858135)
(1561.751246 214.7265915 4.041422776)
(1529.38988 239.8898091 -1.124565703)
(1513.07631 272.9687901 -2.295739078)
(1502.897281 294.9248078 1.604091008)
(1482.267411 304.9712896 13.92804409)
(1463.185342 317.39073 5.123247601)
(1452.279219 344.0083377 0.7441863789)
(1430.065932 353.1287972 -5.897148727)
(1421.207465 365.6731168 13.07847656)
(1406.687893 364.2153822 17.48436497)
(1404.903817 370.5931408 14.71250954)
(1389.57675 371.5546084 5.562633445)
(1394.623717 377.4487343 4.910410359)
(1376.989845 374.1898678 -2.522612551)
(1370.98571 386.3357384 6.380920165)
(1357.07899 389.1402635 -1.988765812)
(1354.267839 391.0956457 3.124689134)
(1347.17571 366.3222267 -8.177325168)
(1328.526051 373.307253 0.06757815903)
(1330.652205 370.364505 -6.21350506)
(1324.089407 363.1930089 -15.63806294)
(1315.181862 375.9124351 -13.39132915)
(1323.805261 367.1192832 -11.5056979)
(1323.896822 353.8891641 -10.03507903)
(1336.897362 350.6907885 -4.152956369)
(1638.319555 91.04635085 7.452824747)
(1638.67992 99.26232175 -3.030380149)
(1632.797646 108.7532256 13.50785867)
(1605.784473 128.9707048 5.852262744)
(1603.284641 157.2537792 0.2221337761)
(1582.266115 176.7199632 3.259450952)
(1565.106972 201.5146134 2.317566134)
(1550.389756 229.6871259 -2.86492331)
(1524.485271 241.4407454 7.069570502)
(1508.029878 255.8844777 14.07956872)
(1495.983932 271.9133176 3.66425504)
(1488.791123 294.6369559 6.770112066)
(1468.129808 315.3030083 10.48793093)
(1438.457568 343.914147 8.737765074)
(1435.07499 357.779571 -0.6957512998)
(1426.085142 354.002447 4.667579438)
(1421.370403 363.3671567 5.895125543)
(1402.317801 371.1496704 -1.645206968)
(1406.046537 379.904229 2.204161659)
(1404.390449 380.2667829 1.806976945)
(1399.401152 383.4795428 -1.896128746)
(1388.169259 390.7193606 -0.628648411)
(1371.4618 391.6375901 -0.6777918822)
(1358.092696 393.3185649 -2.509420955)
(1366.332829 387.7544719 -5.294090743)
(1371.371045 385.8039346 -2.624629305)
(1370.812291 381.9294965 -3.887127692)
(1354.617153 372.3674048 0.6010510868)
(1364.168012 361.4979255 -7.236110711)
(1361.283588 342.313583 -15.63569145)
(1677.297079 64.7173458 11.25685761)
(1659.784262 73.18694154 11.27048398)
(1660.925362 76.69317469 1.998417234)
(1650.444097 104.8037422 -3.596380139)
(1627.779247 135.2525758 -7.833645159)
(1609.83482 158.0243833 -8.887006403)
(1601.462356 158.8702524 -2.231250101)
(1582.335407 178.9437065 -5.485604167)
(1570.911794 196.6411549 -11.78175618)
(1553.130547 223.8724018 -8.549651997)
(1542.617232 249.6953405 4.287496626)
(1528.935886 259.8457782 -1.469281245)
(1499.540873 293.7052745 -14.50861519)
(1485.104381 307.5522441 -1.541980976)
(1482.567738 322.7889009 -4.056278325)
(1464.267994 337.4546539 4.220252902)
(1443.091208 355.7511317 8.059570507)
(1457.136192 364.766409 14.38741145)
(1435.415929 374.4029693 7.467178528)
(1428.967957 366.2699516 13.56318629)
(1410.557773 370.6460341 2.62326111)
(1419.110853 383.3877018 -6.552302902)
(1408.621362 393.7240501 2.137172862)
(1403.203413 399.6936948 0.9695336071)
(1392.777327 380.4808677 -2.075060285)
(1385.824767 377.845549 0.3204930063)
(1390.901509 375.9808513 -2.388089472)
(1359.441715 373.1502611 11.86776499)
(1382.919795 362.5870577 4.075362421)
(1391.234153 356.3146258 -8.082641359)
(1680.211513 45.7184177 -11.51170565)
(1672.022729 64.77051994 -8.212931151)
(1669.177106 81.21817931 0.1219952233)
(1655.330386 82.30999114 2.065103928)
(1659.648315 91.01796515 -10.89870068)
(1639.132967 107.824081 -5.83004148)
(1609.494876 132.0334164 -12.45002386)
(1601.895465 149.3243292 -6.897179622)
(1583.085459 165.6409651 -7.028690527)
(1580.324263 191.8006315 0.9396327536)
(1563.435913 221.9925452 0.6963071611)
(1559.615144 232.0568048 3.48578854)
(1552.057577 245.4814378 -1.002889922)
(1524.862941 262.4076652 12.71529873)
(1499.045142 288.8194032 5.253744565)
(1492.913648 309.0100585 5.648574332)
(1469.235356 336.1104256 4.408296934)
(1463.806505 344.8802893 2.374145267)
(1453.179458 337.2233169 3.751233325)
(1441.962541 355.5397661 -0.8505395716)
(1452.947503 368.0266314 7.936118715)
(1425.590914 377.1615177 16.87427087)
(1423.945077 369.8871308 2.740774222)
(1415.838065 383.3782958 1.23525312)
(1417.792267 384.3314251 1.919957555)
(1410.398901 382.2303951 -5.609290323)
(1417.775099 378.144835 -4.389092461)
(1404.119969 379.8489104 -1.944685971)
(1387.430955 369.4935066 2.824241449)
(1707.688309 40.88686558 9.1702758)
(1701.494769 48.23906271 7.154092268)
(1695.67263 47.32243978 0.312379307)
(1682.348534 61.68363301 4.451786529)
(1670.301814 71.48637391 11.54689832)
(1667.346273 78.42244864 -3.555382998)
(1657.491686 106.1852669 -0.545634462)
(1645.521026 118.4098981 -4.685874968)
(1629.652347 155.994224 1.61409322)
(1619.542899 154.4150425 -2.77626673)
(1607.623993 175.6721468 2.463665042)
(1598.993429 198.7714806 -1.540019033)
(1584.1838 219.903094 9.476204751)
(1561.976711 237.1013719 3.703105452)
(1536.028523 261.5726977 12.40612014)
(1519.880902 275.4151502 3.377997373)
(1498.223306 294.0722332 -0.3175186373)
(1488.945703 313.6045413 8.595260357)
(1486.721617 321.7114914 1.526578089)
(1481.368196 337.2351433 4.339561469)
(1475.165879 343.4755678 -0.0955014306)
(1461.774012 358.4023113 0.5070677428)
(1450.626765 366.3219888 -0.3975826495)
(1439.854362 369.6246104 -4.993515887)
(1447.060169 377.0935016 -3.671248927)
(1718.956673 29.7924517 -10.52265171)
(1707.227447 35.54951978 -14.20329252)
(1692.10669 44.10574059 -12.87479912)
(1689.808554 47.08516718 -11.96043131)
(1683.802521 62.46774764 -9.988235077)
(1688.660475 74.60918428 -0.7537765611)
(1679.23262 77.41555883 3.554197278)
(1667.619157 101.6287893 5.707163709)
(1657.042829 104.690668 1.772158176)
(1636.938557 130.7188989 7.62687587)
(1629.636809 142.3791494 8.231382127)
(1614.896573 163.5391088 7.343637299)
(1599.492569 179.3716192 -8.056208995)
(1590.190684 202.2710313 -18.06945577)
(1576.335155 225.1081868 -11.07127303)
(1558.413943 243.9910942 -0.3081889341)
(1566.550592 244.3679555 -1.243301405)
(1525.807344 281.1759846 2.161053165)
(1506.605066 305.5882487 18.31031134)
(1703.660051 37.74726808 1.255050936)
(1706.311447 29.31549643 8.397655035)
(1713.018554 32.12005629 8.70617714)
(1706.464247 41.85570059 6.975396148)
(1696.586416 43.02131342 7.776074987)
(1686.911474 47.09516224 10.5505548)
(1675.249798 66.58280805 1.195383491)
(1666.656633 79.35382847 -0.7771058846)
(1664.613129 93.19249081 -2.721348455)
(1655.648711 103.087634 -1.220245988)
(1638.165194 128.157509 -5.167588258)
(1620.185871 137.3664984 -5.948842231)
(1618.051568 146.5381454 7.786846218)
(1613.511715 154.5670299 18.31571978)
(1724.53219 21.17979215 -0.2768852304)
(1722.441857 29.68632978 -0.1710391981)
(1724.885324 35.58112259 5.144472131)
(1710.041016 33.27689551 2.056901296)
(1702.359337 46.16258386 6.837925129)
(1702.556641 50.29269061 10.71775369)
(1695.205216 57.92457797 8.86030405)
(1679.352778 71.32265614 8.885910166)
(1720.216937 15.5169711 9.365666232)
)
;

boundaryField
{
    flow
    {
        type            calculated;
        value           nonuniform List<vector> 
15
(
(466.5729817 89.19425921 2.213463967)
(718.6795628 104.8117135 6.31148906)
(822.6433245 132.8255593 -21.94991296)
(913.659968 173.8712757 4.305308401)
(971.5444474 182.0026587 -18.75216661)
(1070.78982 211.2220734 -19.06336515)
(1123.291532 239.0005708 4.79927627)
(1153.900835 253.5609999 -0.1503156595)
(1202.428422 278.0377175 5.701997037)
(1244.363372 305.2831007 -4.378813198)
(1265.064382 308.7292029 -2.179356048)
(1290.329258 340.9958618 -2.224335094)
(1336.897362 350.6907885 -4.152956369)
(1361.283588 342.313583 -15.63569145)
(1391.234153 356.3146258 -8.082641359)
)
;
    }
    obstacle
    {
        type            calculated;
        value           nonuniform List<vector> 
30
(
(171.3430832 45.91124086 20.92635844)
(210.9402516 56.52127018 -10.45427958)
(185.4206677 49.68331802 -3.126213502)
(208.1367592 55.77007664 7.190712578)
(183.150943 49.07514711 11.89485244)
(205.7475019 55.12987709 20.45218146)
(167.9485435 45.00167669 -5.936069453)
(190.6991176 51.09767439 -22.72653269)
(194.6810367 52.16462666 33.09902772)
(177.4503756 47.54768492 -8.654208461)
(245.6828471 65.83052026 -2.61129326)
(136.9880675 36.70584213 22.9711807)
(220.1279739 58.98311294 12.62513224)
(233.3558798 62.52751935 -2.143762705)
(70.06478355 18.7738022 99.80170044)
(196.0400976 52.52878567 6.161339171)
(176.6647988 47.33719025 17.75840189)
(221.921812 59.46377042 5.004351648)
(193.7978207 51.92796939 -3.5874031)
(173.2580899 46.42436535 10.28188477)
(167.9740458 45.00850999 -29.5960657)
(189.8561094 50.87179103 -3.021038029)
(188.4594359 50.49755375 -16.86829979)
(176.417925 47.27104062 13.3004163)
(157.4843148 42.19779485 48.09243132)
(206.262799 55.26795053 -10.37535265)
(206.2237033 55.25747458 22.45727947)
(234.3945948 62.80584249 -59.47526979)
(262.592495 70.36144709 17.09999953)
(267.6320405 71.7117889 38.08922094)
)
;
    }
    frontAndBack
    {
        type            empty;
    }
    procBoundary1to0
    {
        type            processor;
        value           nonuniform List<vector> 
21
(
(401.6039561 118.1005427 1.979550829)
(715.9151247 200.9669306 -4.809632801)
(875.2085889 266.9438922 -8.576561333)
(1033.957066 323.4099333 2.212122596)
(1147.826527 342.4928546 13.42674301)
(1255.064538 319.1677189 -10.76067957)
(1332.13557 297.396887 -8.764993727)
(1424.956339 261.2576691 9.045039884)
(1466.942952 213.2956334 -12.56455885)
(1526.61006 191.2242977 3.669422954)
(1562.716714 160.5589702 2.001879375)
(1607.992162 115.0593143 -6.599570956)
(1639.855914 92.35880073 -4.918766302)
(1660.156146 59.11618889 3.890277804)
(1696.9369 59.55439094 15.47082555)
(1679.379385 35.73129706 -12.22876367)
(1707.861002 38.42216056 3.383716781)
(1717.353135 23.44072932 -16.58759463)
(1720.203142 29.96700316 -4.328060327)
(1729.664737 12.47829489 8.92029838)
(1726.437634 13.63777686 5.85940827)
)
;
    }
    procBoundary1to3
    {
        type            processor;
        value           nonuniform List<vector> 
36
(
(1383.053212 369.6362073 1.344255051)
(1429.202447 390.2401505 0.2025530968)
(1425.028668 379.0760618 1.333557904)
(1425.290076 373.0658224 -0.1540480416)
(1383.053212 369.6362073 1.344255051)
(1421.599684 390.123634 3.532510242)
(1501.449245 313.7977299 13.11501962)
(1498.581879 317.9818142 14.95970747)
(1478.153633 326.6279541 8.517796147)
(1473.865067 342.635708 9.333476987)
(1459.056437 360.9055128 17.71277795)
(1429.202447 390.2401505 0.2025530968)
(1434.632912 351.9033486 2.13276605)
(1606.976173 174.8976943 7.218007872)
(1586.927384 196.060089 4.203282457)
(1576.986014 220.0109794 2.273756796)
(1570.416852 233.5107836 -4.565305855)
(1501.449245 313.7977299 13.11501962)
(1552.183492 257.3599464 0.03570730171)
(1665.062938 87.83510417 3.02006144)
(1676.66168 80.29891107 3.026975996)
(1665.267795 85.52537132 2.772807907)
(1652.357113 99.19828234 8.015336336)
(1650.808357 109.6943461 -1.6164974)
(1606.976173 174.8976943 7.218007872)
(1639.124773 124.7879672 -13.61268184)
(1719.432521 8.92763722 9.224031162)
(1719.466669 14.9834657 6.581810532)
(1718.640306 19.7787813 5.709159053)
(1711.551748 28.73215456 4.159904485)
(1709.726119 38.60952925 0.5127554781)
(1707.878562 46.18880017 -3.145182992)
(1665.062938 87.83510417 3.02006144)
(1696.987656 53.53332382 6.781206284)
(1719.432521 8.92763722 9.224031162)
(1715.289625 11.94453906 -12.11407622)
)
;
    }
}


// ************************************************************************* //
