/*--------------------------------*- C++ -*----------------------------------*\
| =========                 |                                                 |
| \\      /  F ield         | OpenFOAM: The Open Source CFD Toolbox           |
|  \\    /   O peration     | Version:  2406                                  |
|   \\  /    A nd           | Website:  www.openfoam.com                      |
|    \\/     M anipulation  |                                                 |
\*---------------------------------------------------------------------------*/
FoamFile
{
    version     2.0;
    format      ascii;
    arch        "LSB;label=32;scalar=64";
    class       Cloud<dsmcParcel>;
    location    "0.009/lagrangian/dsmc";
    object      coordinates;
}
// * * * * * * * * * * * * * * * * * * * * * * * * * * * * * * * * * * * * * //

6236
(
(0.4450318512 0.2774840744 0.042449775 0.2350342994) 323 633 1
(0.6291803455 0.17374673 0.1854098272 0.01166309724) 439 859 1
(0.7505693088 0.1247153456 0.07228015625 0.05243518934) 321 630 1
(0.1641112775 0.0918114634 0.3261328978 0.4179443612) 141 275 1
(0.6723252732 0.01131730916 0.1525200543 0.1638373634) 201 393 1
(0.2088242026 0.3955878987 0.2110338794 0.1845540193) 292 514 1
(0.3524418409 0.3237790795 0.003269329906 0.3205097496) 382 749 2
(0.3161322965 0.3419338517 0.08475251365 0.2571813381) 113 220 1
(0.07432131707 0.09667265711 0.4628393415 0.3661666844) 32 61 2
(0.6244587077 0.1877706462 0.03068957257 0.1570810736) 111 214 2
(0.4385062641 0.1808196747 0.280746868 0.09992719321) 473 926 1
(0.1401129075 0.1151336203 0.314809926 0.4299435462) 442 867 1
(0.05292190405 0.473539048 0.1159884292 0.3575506188) 139 269 2
(0.001291991255 0.4993540044 0.3866821486 0.1126718558) 231 394 1
(0.509420275 0.08034742909 0.2452898625 0.1649424334) 170 330 1
(0.7842482602 0.06227932356 0.1078758699 0.04559654632) 353 692 2
(0.1969532073 0.02251431599 0.4015233964 0.3790090804) 199 390 2
(0.3426941248 0.3286529376 0.3247128171 0.003940120502) 293 574 1
(0.5155696608 0.06380436028 0.1784108093 0.2422151696) 194 379 1
(0.4729410412 0.08878357674 0.1747459027 0.2635294794) 563 1274 1
(0.5402233059 0.229888347 0.1868693763 0.04301897077) 291 570 2
(0.3970527249 0.2981375746 0.003336062957 0.3014736375) 173 1261 1
(0.1223692694 0.4388153653 0.25165493 0.1871604353) 353 692 1
(0.6170493849 0.1914753076 0.1626529349 0.02882237263) 202 395 2
(0.6482719177 0.1758640411 0.05834785885 0.1175161823) 32 30 1
(0.764468564 0.0479060262 0.0698596918 0.117765718) 233 1263 1
(0.8398780382 0.04216992725 0.08006098089 0.03789105364) 233 454 1
(0.4052705222 0.2973647389 0.02085879444 0.2765059445) 232 455 1
(0.4179360478 0.2910319761 0.1688979256 0.1221340505) 143 277 2
(0.8397666336 0.03159528477 0.04852139843 0.0801166832) 323 574 2
(0.08240921148 0.4587953943 0.1069499023 0.3518454919) 293 572 2
(0.05846126775 0.138595813 0.3321735531 0.4707693661) 83 1258 1
(0.4551952292 0.2724023854 0.08325237467 0.1891500107) 172 334 2
(0.6140173927 0.1929913037 0.01227847547 0.1807128282) 203 1262 2
(0.1342533628 0.4328733186 0.3770769136 0.05579640495) 351 630 1
(0.5736390677 0.05431317358 0.2131804662 0.1588672926) 352 691 2
(0.2640950254 0.3679524873 0.1317702965 0.2361821908) 322 632 1
(0.2647401275 0.004281215285 0.363348721 0.3676299362) 412 808 1
(0.6870646542 0.09955482778 0.1564676729 0.05691284509) 292 570 1
(0.06426463008 0.194818065 0.27304962 0.467867685) 623 1164 2
(0.234462889 0.2396337937 0.3827685555 0.1431347618) 140 271 1
(0.6986546683 0.1506726658 0.02734659422 0.1233260716) 110 156 1
(0.2775635571 0.3612182215 0.09866158739 0.2625566341) 291 512 1
(0.2699174739 0.04479980578 0.3202414573 0.365041263) 293 515 2
(0.8685922096 0.0657038952 0.04628090272 0.01942299248) 263 513 2
(0.2671789394 0.1041549263 0.262255604 0.3664105303) 31 59 1
(0.4192732779 0.09074652397 0.1996168371 0.2903633611) 30 57 1
(0.200265872 0.399867064 0.3308370594 0.06903000462) 233 1263 2
(0.6356238706 0.07149318331 0.1821880647 0.1106948814) 533 1046 2
(0.9695193068 0.01524034662 0.00733559245 0.007904754165) 203 1262 2
(0.7466138142 0.1197165337 0.1266930929 0.006976559236) 413 810 2
(0.6100058751 0.1949970625 0.1279937103 0.06700335213) 622 1219 2
(0.7009535814 0.03588682046 0.1136363888 0.1495232093) 80 155 1
(0.3232627858 0.3383686071 0.0435817429 0.2947868642) 653 1223 1
(0.7761907565 0.1119046218 0.10088487 0.01101975182) 263 515 1
(0.1981527615 0.04014172289 0.3607818964 0.4009236192) 48 50 2
(0.2785484527 0.3607257736 0.2595276893 0.1011980844) 503 985 2
(0.2459082249 0.01364195219 0.3634039354 0.3770458875) 503 1272 1
(0.4845906739 0.2153638007 0.257704663 0.04234086231) 322 632 2
(0.3967820135 0.2905649071 0.3016089932 0.01104408614) 230 451 2
(0.3578753224 0.3210623388 0.1478225982 0.1732397406) 319 625 2
(0.3506180236 0.2171003475 0.1075906406 0.3246909882) 383 1268 1
(0.6146016048 0.1926991976 0.05909246574 0.1336067319) 561 1101 2
(0.1589414789 0.4205292605 0.4169086304 0.003620630094) 292 570 2
(0.05449855424 0.4727507229 0.4357098647 0.03704085822) 440 863 2
(0.3574515392 0.3212742304 0.1994355484 0.121838682) 497 976 1
(0.02058597678 0.07597515387 0.4897070116 0.4137318577) 442 868 2
(0.4836938642 0.2581530679 0.09253443766 0.1656186302) 381 747 2
(0.6247128875 0.146323531 0.04132002523 0.1876435562) 471 866 2
(0.4076885247 0.2961557377 0.2753505197 0.020805218) 199 331 1
(0.2655278337 0.00259498048 0.3672360832 0.3646411027) 619 1213 1
(0.1889393823 0.3984967486 0.007033560303 0.4055303089) 261 511 1
(0.3023007152 0.3488496424 0.2835885854 0.06526105699) 291 570 2
(0.3347237952 0.1000476497 0.3326381024 0.2325904527) 139 272 2
(0.09615846535 0.3357359268 0.4519207673 0.1161848405) 229 446 1
(0.35909461 0.02438815726 0.2960645377 0.320452695) 263 1264 1
(0.1746806055 0.3375618205 0.4126596972 0.0750978767) 322 632 2
(0.4107936912 0.2946031544 0.1692621198 0.1253410347) 54 1257 2
(0.3605225722 0.3197387139 0.3190309156 0.0007077983193) 4 2621 2
(0.1439432198 0.1759656878 0.4280283901 0.2520627023) 110 215 2
(0.614614842 0.192692579 0.0001087065882 0.1925838724) 563 1105 1
(0.2616873514 0.3691563243 0.1851402726 0.1840160517) 233 456 1
(0.7438291902 0.1280854049 0.01660687903 0.1114785259) 31 29 1
(0.3873789935 0.3063105033 0.1940868715 0.1122236318) 620 1218 1
(0.4328144767 0.2835927617 0.01283156596 0.2707611957) 47 90 2
(0.4609227791 0.2695386104 0.02202569648 0.247512914) 232 396 1
(0.5568733525 0.2215633238 0.07178652779 0.149776796) 589 1154 2
(0.8416388407 0.009660239147 0.07918057967 0.06952034053) 563 1103 1
(0.0373615103 0.4813192448 0.3691463829 0.112172862) 558 1037 1
(0.6613868176 0.1113616873 0.1693065912 0.05794490386) 31 57 1
(0.2142850367 0.156504296 0.3928574817 0.2363531857) 142 278 2
(0.1924564851 0.2664076263 0.4037717574 0.1373641311) 533 1046 2
(0.6380365015 0.1809817492 0.1265527263 0.05442902299) 443 867 2
(0.1597155094 0.1479671575 0.2721750878 0.4201422453) 352 690 1
(0.192993434 0.3950922824 0.403503283 0.008411000583) 408 798 1
(0.2986168064 0.2747681929 0.3506915968 0.0759234039) 28 54 2
(0.5077519449 0.02868142318 0.2461240276 0.2174426044) 232 455 2
(0.2336710265 0.3831644867 0.06350242921 0.3196620575) 469 918 2
(0.2639893318 0.03707987398 0.3680053341 0.3309254601) 290 569 2
(0.549420625 0.08076023318 0.2252896875 0.1445294543) 199 390 2
(0.5416242688 0.2291878656 0.2026915742 0.02649629143) 109 212 2
(0.3410318649 0.1692166486 0.3294840676 0.160267419) 593 1164 2
(0.09451502622 0.4527424869 0.2348034462 0.2179390407) 81 157 2
(0.6392004635 0.0256833187 0.1803997682 0.1547164495) 291 568 1
(0.3108495969 0.3252246857 0.3445752016 0.01935051582) 353 692 2
(0.7047100106 0.1427317548 0.1476449947 0.004913239962) 351 686 1
(0.3039709399 0.07810469468 0.3480145301 0.2699098354) 200 392 2
(0.09477289648 0.4264853001 0.4526135518 0.02612825163) 291 571 2
(0.06175531597 0.469122342 0.383172275 0.085950067) 503 985 2
(0.4261703769 0.2869148115 0.0862901741 0.2006246374) 170 330 2
(0.203125103 0.32070286 0.3984374485 0.07773458847) 141 276 2
(0.245893282 0.377053359 0.1986891305 0.1783642285) 15 26 2
(0.1009391145 0.4495304427 0.102725892 0.3468045507) 321 629 2
(0.4403366545 0.2405763766 0.0392552962 0.2798316728) 142 219 2
(0.1884034198 0.02429075824 0.3815075319 0.4057982901) 172 278 2
(0.5431815444 0.2135626948 0.2284092278 0.014846533) 13 25 2
(0.7289386756 0.1001272608 0.03540340136 0.1355306622) 15 8 2
(0.0339824978 0.4830087511 0.006075012562 0.4769337385) 262 455 1
(0.1231672018 0.4384163991 0.4293068037 0.009109595426) 316 619 2
(0.1427040943 0.07282426846 0.4286479528 0.3558236844) 402 789 2
(0.2772702433 0.03139621011 0.3299686683 0.3613648784) 112 218 1
(0.8304826795 0.08475866027 0.08125607853 0.003502581742) 54 102 2
(0.7658091645 0.0321070956 0.08498832217 0.1170954178) 408 800 1
(0.6704612492 0.1114189119 0.05335046349 0.1647693754) 198 329 2
(0.2664278645 0.2058332188 0.1609528489 0.3667860678) 443 1270 1
(0.2787842969 0.3606078516 0.2745723076 0.08603554392) 561 1101 2
(0.3200064138 0.2293370135 0.3399967931 0.1106597796) 562 1101 1
(0.5170384528 0.005726017482 0.2414807736 0.2357547561) 111 217 2
(0.01965144372 0.3758169869 0.1143572913 0.4901742781) 560 1099 1
(0.3160238219 0.3419880891 0.1994887245 0.1424993645) 530 982 1
(0.3210299122 0.1669958231 0.1724892209 0.3394850439) 499 921 2
(0.08350404018 0.4582479799 0.1580043999 0.30024358) 83 1258 2
(0.254751411 0.3697910518 0.002833242753 0.3726242945) 232 396 2
(0.1679323599 0.4160338201 0.2726817573 0.1433520627) 81 158 1
(0.5918275992 0.2040862004 0.1304242737 0.07366192667) 233 1263 2
(0.3103586334 0.01761335768 0.3272073256 0.3448206833) 473 869 2
(0.5258512044 0.192024768 0.2370743978 0.04504962982) 293 574 2
(0.3424136511 0.3287931745 0.317268878 0.01152429649) 199 331 1
(0.136577714 0.431711143 0.3936557417 0.03805540132) 293 574 1
(0.5466598139 0.226670093 0.1246046768 0.1020654163) 140 274 1
(0.1494097171 0.4252951415 0.04265278358 0.3826423579) 201 394 1
(0.3249708553 0.3375145723 0.1447621181 0.1927524543) 293 572 2
(0.1081306212 0.2492839808 0.1966507086 0.4459346894) 143 1260 1
(0.08147467077 0.4490500455 0.01021261911 0.4592626646) 560 1099 1
(0.6641373667 0.1146771854 0.05325413124 0.1679313166) 50 54 2
(0.009902480107 0.1708821738 0.4950487599 0.3241665861) 623 1221 1
(0.5163965622 0.08711528088 0.2418017189 0.154686438) 112 216 1
(0.01556073111 0.3854537459 0.1067658886 0.4922196344) 15 28 1
(0.1546494492 0.2031497322 0.2195255432 0.4226752754) 593 1275 1
(0.7558846472 0.0778673533 0.1220576764 0.04419032312) 256 499 1
(0.7154252944 0.1422873528 0.005680078048 0.1366072747) 201 394 1
(0.2937013173 0.3531493414 0.1194277521 0.2337215893) 501 981 2
(0.3038013551 0.3480993225 0.09117249145 0.256926831) 52 101 1
(0.2087715393 0.1059144913 0.2896997391 0.3956142304) 139 271 1
(0.09310319755 0.1981708199 0.2552775813 0.4534484012) 256 443 2
(0.493627873 0.2531860635 0.2162736006 0.03691246286) 381 748 1
(0.2661604429 0.009376856025 0.3575429225 0.3669197786) 195 381 1
(0.6469389959 0.02993903041 0.1465914717 0.1765305021) 79 97 2
(0.0369699712 0.3587221946 0.1227928198 0.4815150144) 233 1263 1
(0.3222592282 0.3388703859 0.1414713224 0.1973990635) 412 750 1
(0.7703202725 0.07855449265 0.1148398638 0.03628537112) 141 276 2
(0.1067262697 0.4466368652 0.1424771768 0.3041596883) 411 804 2
(0.1908598697 0.3687962437 0.03577382144 0.4045700651) 169 330 1
(0.3201959874 0.2628954036 0.3399020063 0.0770066027) 442 868 2
(0.5779607786 0.2110196107 0.1443137825 0.06670582814) 438 857 2
(0.5648417762 0.01622983129 0.2175791119 0.2013492806) 79 154 2
(0.6177587722 0.0763722268 0.1911206139 0.1147483871) 113 218 1
(0.6247436859 0.1175446079 0.07008354916 0.1876281571) 383 692 2
(0.8848264383 0.05758678083 0.0506704337 0.006916347129) 172 334 2
(0.1405843874 0.3884053369 0.4297078063 0.04130246935) 4 5 1
(0.348922551 0.2064235404 0.3255387245 0.119115184) 81 155 1
(0.8140597674 0.09297011629 0.08218357977 0.01078653652) 503 928 1
(0.1659285087 0.2089849636 0.4170357457 0.2080507821) 621 1217 1
(0.198460936 0.1314947277 0.2692748043 0.400769532) 143 220 2
(0.2360644232 0.3819677884 0.05620564561 0.3257621428) 292 570 2
(0.1265895481 0.43066913 0.006036095988 0.4367052259) 443 810 2
(0.2175719308 0.3912140346 0.1901494892 0.2010645454) 321 571 1
(0.3014921745 0.3111037151 0.03815019772 0.3492539128) 501 925 2
(0.1093964641 0.2854260314 0.1598757365 0.4453017679) 12 2 2
(0.1087694519 0.1318294764 0.3137857977 0.4456152741) 291 512 2
(0.3280414029 0.3359792986 0.1541906639 0.1817886347) 233 397 1
(0.6409931299 0.1042904572 0.179503435 0.07521297787) 167 324 1
(0.06195425721 0.08082442856 0.3881984428 0.4690228714) 383 1268 1
(0.04464986966 0.4776750652 0.1232245855 0.3544504797) 263 513 2
(0.3343851336 0.3328074332 0.0001484811586 0.332658952) 169 330 2
(0.3141893112 0.3429053444 0.07540192676 0.2675034176) 350 684 2
(0.2880379753 0.3559810124 0.02149757064 0.3344834417) 170 330 2
(0.1169026358 0.4415486821 0.4125939753 0.02895470675) 322 632 1
(0.4006576325 0.2996711838 0.2942053599 0.005465823831) 50 96 2
(0.06154988925 0.4692250554 0.2509460166 0.2182790388) 470 920 2
(0.05036343328 0.4748182834 0.1869484548 0.2878698286) 352 632 1
(0.4905866282 0.2547066859 0.1203107715 0.1343959144) 411 748 1
(0.6323619871 0.1838190065 0.01081725803 0.1730017484) 137 265 2
(0.6678966276 0.1660516862 0.06540137352 0.1006503127) 320 569 1
(0.1778454343 0.3336486873 0.4110772828 0.07742859559) 54 104 2
(0.09302169093 0.4534891545 0.03353461875 0.4199545358) 441 865 2
(0.08754945178 0.04391653271 0.4123087414 0.4562252741) 233 397 2
(0.7758516773 0.1120741614 0.1006002121 0.01147394927) 109 213 1
(0.5098303557 0.2450848221 0.2360814406 0.009003381565) 440 864 1
(0.122898946 0.05726355537 0.438550527 0.3812869716) 343 673 2
(0.5216941159 0.2391529421 0.1889234076 0.05022953445) 443 1270 2
(0.350809751 0.3148399685 0.3245951245 0.009755156014) 397 779 2
(0.3504668036 0.3247665982 0.2595491626 0.06521743563) 620 1159 1
(0.2135763808 0.2713759099 0.1218358998 0.3932118096) 593 1275 1
(0.3015399352 0.3492300324 0.02249016126 0.3267398711) 27 49 2
(0.07244301522 0.1265891361 0.4637784924 0.3371893562) 31 60 2
(0.3856798023 0.3071600988 0.259530812 0.0476292868) 472 868 1
(0.7375100468 0.04492576253 0.08631921409 0.1312449766) 105 204 1
(0.1624424296 0.4187787852 0.3468978316 0.07188095361) 141 273 2
(0.04892879676 0.4755356016 0.1193395995 0.3561960021) 200 391 2
(0.0320472393 0.4839763803 0.2505085946 0.2334677857) 30 58 1
(0.7310645019 0.1344677491 0.1051415193 0.02932622976) 442 809 1
(0.3331869508 0.1299667962 0.3334065246 0.2034397284) 170 330 1
(0.9093878841 0.04530605797 0.03655643855 0.008749619417) 290 569 1
(0.1597033509 0.4201483245 0.2899155239 0.1302328006) 557 1094 1
(0.3045604235 0.1772662713 0.1704535169 0.3477197882) 323 574 2
(0.4692971955 0.2653514022 0.1943292022 0.07102220007) 140 215 1
(0.4841050724 0.2579474638 0.04254607649 0.2154013873) 140 273 2
(0.3677246339 0.01312142111 0.3030162619 0.316137683) 231 452 1
(0.2177388585 0.3911305708 0.1315226552 0.2596079156) 112 160 1
(0.3166898803 0.3416550598 0.1539229782 0.1877320817) 411 807 1
(0.6007166022 0.1996416989 0.04279172132 0.1568499776) 346 678 2
(0.4977640141 0.2511179929 0.004674132879 0.2464438601) 442 809 1
(0.7561343691 0.1219328154 0.05335446661 0.06857834884) 413 1269 2
(0.09605555982 0.03022309153 0.4519722201 0.4217491286) 263 513 1
(0.1263511358 0.4368244321 0.007659976066 0.429164456) 412 750 1
(0.2245597972 0.1755113424 0.3877201014 0.212208759) 81 158 2
(0.2851140957 0.296420762 0.06102219012 0.3574429521) 259 449 2
(0.8756707601 0.01092409525 0.05124052468 0.06216461994) 471 866 2
(0.4031462332 0.2984268834 0.2932093394 0.005217544001) 623 1276 2
(0.1909451821 0.044155691 0.360371718 0.404527409) 168 328 1
(0.3386027903 0.1658052954 0.1648933094 0.3306986048) 233 1263 1
(0.1755680018 0.1755089079 0.2367070912 0.4122159991) 111 216 1
(0.2700481486 0.02528404953 0.3396918762 0.3649759257) 171 276 2
(0.1985061072 0.1789699794 0.4007469464 0.221776967) 620 1218 2
(0.2304941589 0.2436751781 0.1410777425 0.3847529206) 532 986 2
(0.6744595702 0.1627702149 0.05180679443 0.1109634205) 286 558 2
(0.3306396023 0.3346801988 0.2896747724 0.04500542642) 262 514 1
(0.2349040977 0.2718732864 0.1106746647 0.3825479512) 140 273 1
(0.566527458 0.1674727514 0.04926351966 0.216736271) 434 793 2
(0.1465653982 0.2899747111 0.1367425898 0.4267173009) 471 924 1
(0.03328805221 0.4833559739 0.3119322834 0.1714236905) 381 745 2
(0.3888587137 0.1976362912 0.3055706431 0.1079343519) 108 208 1
(0.4680219228 0.1671897563 0.2659890386 0.09879928231) 201 391 1
(0.07894259657 0.4605287017 0.1240359298 0.3364927719) 74 87 1
(0.1011275365 0.1442663856 0.3051698462 0.4494362318) 30 57 1
(0.1504320911 0.2086532421 0.4247839545 0.2161307124) 263 513 1
(0.4452413016 0.1520759131 0.2773793492 0.1253034361) 232 452 1
(0.3618691858 0.2826048198 0.03646058733 0.3190654071) 82 103 2
(0.04715717317 0.1224141197 0.4764214134 0.3540072937) 233 456 2
(0.04082299685 0.4795885016 0.4458551303 0.0337333713) 232 454 2
(0.01776218026 0.4858873699 0.005231539976 0.4911189099) 229 390 2
(0.1661216145 0.2200791746 0.1968600181 0.4169391927) 15 8 2
(0.1544330966 0.1258364521 0.4227834517 0.2969469996) 0 0 2
(0.131907008 0.434046496 0.4049510584 0.02909543758) 292 570 2
(0.08302836002 0.2500791145 0.45848582 0.2084067055) 323 631 1
(0.4599788694 0.2700105653 0.260877837 0.009132728284) 195 382 1
(0.4807906042 0.1495503718 0.1100543261 0.2596046979) 382 691 2
(0.3540346512 0.3229826744 0.3168856098 0.006097064553) 76 91 1
(0.3069209303 0.322386353 0.02415318184 0.3465395349) 263 456 2
(0.04014525613 0.4799273719 0.4404359127 0.03949145927) 231 450 2
(0.04260180674 0.06723792762 0.4786990966 0.411461169) 473 926 1
(0.2699482326 0.3650258837 0.1339361688 0.2310897149) 284 556 2
(0.6096762014 0.1951618993 0.1544865755 0.04067532377) 202 395 2
(0.4845358841 0.2306146436 0.02711741428 0.2577320579) 319 567 2
(0.2716494012 0.001580926618 0.3625943728 0.3641752994) 2 3 1
(0.8689822875 0.005893272689 0.05961558354 0.06550885623) 502 927 2
(0.3633107955 0.2587481092 0.05959649305 0.3183446023) 167 268 2
(0.8532108254 0.02068917675 0.07339458732 0.05270541057) 112 219 2
(0.7844902943 0.1077548529 0.09894520461 0.008809648258) 83 104 1
(0.3706710097 0.3146644951 0.03352675953 0.2811377356) 290 568 2
(0.8866439738 0.05667801312 0.05130214149 0.005375871638) 503 987 1
(0.1900867103 0.4049566448 0.1104633321 0.2944933127) 346 679 1
(0.609567764 0.195216118 0.01139391604 0.183822202) 202 393 2
(0.07638454274 0.4618077286 0.3751240322 0.08668369648) 229 448 2
(0.1576652308 0.3540972805 0.06707010408 0.4211673846) 257 445 2
(0.5389205277 0.2305397362 0.03811915036 0.1924205858) 469 921 1
(0.2131914214 0.3934042893 0.3574270705 0.0359772188) 621 1217 2
(0.4319757144 0.06500122058 0.2190109222 0.2840121428) 408 742 2
(0.07395932104 0.4630203395 0.1997836412 0.2632366982) 164 321 1
(0.6420685542 0.1789657229 0.1211010604 0.05786466252) 320 627 2
(0.0387905583 0.4806047208 0.07043510645 0.4101696144) 412 750 1
(0.2065459056 0.3967270472 0.1418932376 0.2548338096) 173 338 1
(0.02012220422 0.2360678934 0.4899388979 0.2538710045) 467 914 1
(0.1707292198 0.4146353901 0.3372513079 0.0773840822) 469 918 2
(0.5080705183 0.001229078227 0.2447356626 0.2459647409) 50 54 2
(0.394502271 0.1804983917 0.1222504728 0.3027488645) 502 927 2
(0.2664583717 0.1293383174 0.2374324968 0.3667708141) 351 688 1
(0.3989747581 0.3005126209 0.2095172317 0.09099538924) 377 740 1
(0.03728813578 0.4735070459 0.4813559321 0.007848886179) 291 571 2
(0.04704753583 0.3196011191 0.156875113 0.4764762321) 653 1223 2
(0.06854727489 0.2793545289 0.1863718337 0.4657263626) 226 384 2
(0.402744525 0.1750832874 0.2986277375 0.1235444501) 262 514 2
(0.8787184141 0.03155038318 0.02909040979 0.06064079297) 293 1265 1
(0.5217183706 0.2391408147 0.03745100293 0.2016898118) 263 456 1
(0.7895647187 0.08645760193 0.01876003871 0.1052176406) 262 513 1
(0.1709255596 0.2338790459 0.4145372202 0.1806581743) 199 390 2
(0.4913183274 0.1882503344 0.2543408363 0.06609050188) 171 332 1
(0.1135115859 0.211734945 0.443244207 0.231509262) 202 396 2
(0.658969507 0.06082073102 0.1096945155 0.1705152465) 533 1273 1
(0.319043134 0.340478433 0.3350195702 0.005458862759) 352 691 1
(0.01879412587 0.4906029371 0.4101557503 0.08044718679) 411 807 1
(0.3871617468 0.3064191266 0.04748308529 0.2589360413) 110 215 1
(0.8858410046 0.05707949768 0.04311359441 0.01396590327) 442 867 2
(0.1672064533 0.4163967734 0.08985719151 0.3265395818) 202 337 1
(0.006449027244 0.4217967803 0.4967754864 0.07497870603) 263 513 1
(0.1188752304 0.02391056642 0.4166518184 0.4405623848) 501 983 1
(0.0772519607 0.2185290569 0.4613740197 0.2428449627) 290 569 2
(0.0726136621 0.1915482484 0.2721449206 0.4636931689) 558 1095 1
(0.6271043856 0.1864478072 0.1488219103 0.03762589685) 593 1162 2
(0.3348685544 0.3325657228 0.06282871247 0.2697370103) 563 1274 2
(0.7384431539 0.130778423 0.05354760341 0.07723081964) 533 1044 2
(0.4385319449 0.196666162 0.2807340275 0.08406786559) 233 456 2
(0.5060211798 0.1932156391 0.2469894101 0.05377377097) 16 30 2
(0.4279039228 0.02265406034 0.2633939783 0.2860480386) 620 1159 2
(0.1164862066 0.1759234301 0.2658334666 0.4417568967) 472 868 2
(0.3059966578 0.07699790502 0.2700037661 0.3470016711) 260 509 1
(0.2437074352 0.3428909183 0.3781462824 0.03525536411) 13 22 1
(0.183075919 0.06232008702 0.4084620405 0.3461419535) 532 1042 1
(0.08232470346 0.4588376483 0.3335442625 0.1252933858) 200 333 1
(0.2117590701 0.2040909729 0.3941204649 0.190029492) 320 628 2
(0.5433265592 0.2283367204 0.2157224756 0.01261424484) 233 454 2
(0.6483871356 0.1758064322 0.07142024729 0.1043861849) 499 979 2
(0.1327408571 0.2096261729 0.4336295715 0.2240033986) 49 95 2
(0.7173997233 0.1413001383 0.1203613659 0.02093877246) 52 101 1
(0.1013024167 0.4068224807 0.04252631092 0.4493487916) 141 217 2
(0.8272791504 0.08636042478 0.05059840085 0.03576202393) 171 334 2
(0.8826516561 0.01011564505 0.04855852689 0.05867417194) 319 625 1
(0.3302586764 0.3348706618 0.1562445461 0.1786261157) 288 565 1
(0.3036935397 0.3481532301 0.3100568442 0.03809638592) 322 629 2
(0.4741715447 0.1531822921 0.1097319355 0.2629142277) 346 620 2
(0.6377759952 0.1811120024 0.07860992574 0.1025020767) 622 1222 1
(0.7085585374 0.1457207313 0.08929272689 0.05642800441) 110 156 1
(0.128392178 0.08563544082 0.3501684702 0.435803911) 292 572 1
(0.9172419397 0.01710001119 0.04137903015 0.02427901896) 322 632 2
(0.4823201981 0.07454059619 0.2588399009 0.1842993047) 529 1039 2
(0.5272982951 0.04862719863 0.1877236538 0.2363508524) 410 804 1
(0.4328429551 0.2835785225 0.180407826 0.1031706965) 199 389 2
(0.07723912367 0.4021346273 0.4613804382 0.05924581085) 11 18 1
(0.09824807232 0.3413159545 0.1095600093 0.4508759638) 556 1033 2
(0.03608682513 0.4819565874 0.3453416851 0.1366149023) 289 567 1
(0.1838030766 0.2465297683 0.4080984617 0.1615686934) 468 916 1
(0.4563846929 0.0396157093 0.2718076536 0.2321919443) 16 28 1
(0.7478319605 0.02272748504 0.1260840197 0.1033565347) 353 692 2
(0.106568526 0.446715737 0.3113993861 0.1353163509) 81 157 2
(0.3126005563 0.2771754758 0.3436997219 0.06652424604) 323 633 2
(0.2191594106 0.1413086801 0.2491116147 0.3904202947) 169 330 1
(0.09006205356 0.1227303339 0.4549689732 0.3322386393) 383 749 1
(0.5816830135 0.1657797883 0.2091584933 0.04337870496) 443 869 2
(0.7885127337 0.0576569208 0.04808671234 0.1057436331) 383 1268 1
(0.7081834078 0.1425340949 0.1459082961 0.003374201133) 319 626 2
(0.1648780244 0.1850599307 0.4175609878 0.232501057) 411 804 1
(0.05751833156 0.1167031683 0.354537666 0.4712408342) 533 1273 1
(0.3610518274 0.2993178944 0.3194740863 0.02015619193) 383 749 1
(0.05210582691 0.1546411765 0.4739470865 0.31930591) 315 615 1
(0.7304664298 0.1347667851 0.0721152503 0.06265153481) 173 279 1
(0.03290715644 0.4835464218 0.1987107119 0.2848357099) 443 869 1
(0.6377529996 0.04073116045 0.1811235002 0.1403923398) 380 743 1
(0.5553213365 0.07196095998 0.2223393318 0.1503783718) 439 862 2
(0.5221853619 0.02574625629 0.2131610628 0.238907319) 12 22 1
(0.1968760216 0.253970502 0.4015619892 0.1475914872) 440 864 2
(0.282001546 0.2764407705 0.08255845647 0.358999227) 498 977 1
(0.07240252917 0.4637987354 0.2023572569 0.2614414785) 558 1093 2
(0.2707601774 0.3198830993 0.3646199113 0.04473681206) 230 448 1
(0.02182001153 0.2013973569 0.4890899942 0.2876926374) 54 102 1
(0.4160654805 0.02073637567 0.2712308841 0.2919672598) 378 683 2
(0.4160082007 0.2919958997 0.2190021154 0.07299378425) 623 1223 1
(0.4062523606 0.2968738197 0.2252848206 0.07158899911) 561 1102 1
(0.08401647558 0.4486412269 0.4579917622 0.009350535312) 168 329 2
(0.2832684626 0.3583657687 0.03660577676 0.321759992) 203 1262 2
(0.5995042987 0.2002478506 0.08739542848 0.1128524222) 503 985 2
(0.5839481012 0.1622069871 0.04581896236 0.2080259494) 230 392 2
(0.1189111704 0.4405444148 0.1998777804 0.2406666344) 263 515 1
(0.6790673027 0.1604663486 0.1068106589 0.05365568971) 228 388 1
(0.2735234864 0.2592255745 0.3632382568 0.1040126823) 166 322 1
(0.3393768489 0.3303115755 0.1541972174 0.1761143582) 108 208 2
(0.5799500143 0.2100249928 0.06046513525 0.1495598576) 347 678 2
(0.04458404081 0.2195048628 0.2582031168 0.4777079796) 202 395 1
(0.04288146394 0.478559268 0.3335410045 0.1450182636) 173 1261 2
(0.5609760008 0.04591763447 0.1735943651 0.2195119996) 260 509 1
(0.3234021521 0.3382989239 0.2443637495 0.0939351744) 347 622 1
(0.6149935633 0.006870259113 0.1856329592 0.1925032183) 530 1040 1
(0.7726362859 0.0652174272 0.04846442987 0.1136818571) 290 568 1
(0.1205160765 0.07682958959 0.3629123722 0.4397419618) 292 572 1
(0.1056421432 0.03076651957 0.4164124088 0.4471789284) 83 1258 1
(0.4256148836 0.2871925582 0.085690152 0.2015024062) 552 1025 1
(0.6124468828 0.1937765586 0.1002667998 0.09350975875) 468 919 1
(0.07745878095 0.4612706095 0.4394175752 0.02185303429) 502 985 2
(0.1457226257 0.4271386871 0.06403950245 0.3630991847) 379 743 2
(0.1949431516 0.4025284242 0.08396758235 0.3185608418) 561 1101 2
(0.144367068 0.427816466 0.1472404845 0.2805759815) 142 219 1
(0.3329665507 0.3335167246 0.1184004516 0.2151162731) 138 269 2
(0.9548794346 0.01957360423 0.02256028272 0.002986678482) 293 574 2
(0.4175284238 0.2912357881 0.2242216615 0.06701412656) 503 985 2
(0.1222338876 0.4388830562 0.01653465205 0.4223484042) 435 853 2
(0.7628748023 0.1109770917 0.007585507176 0.1185625988) 498 919 2
(0.6562751156 0.1718624422 0.1516282443 0.02023419784) 113 218 2
(0.2998182095 0.3500908953 0.1464723295 0.2036185657) 141 276 1
(0.5748116793 2.411747352e-05 0.2125700429 0.2125941604) 262 455 2
(0.007981995702 0.4960090021 0.1639689872 0.3320400149) 468 916 2
(0.2900244319 0.354987784 0.003578543222 0.3514092408) 79 153 2
(0.2127699038 0.3936150481 0.01176616766 0.3818488805) 263 515 1
(0.177105673 0.3239578573 0.08748930617 0.4114471635) 170 332 1
(0.1714707017 0.4142646492 0.2024441818 0.2118204674) 82 160 1
(0.05506132119 0.4724693394 0.3002769601 0.1721923793) 28 54 1
(0.3244287054 0.01775082468 0.3200348226 0.3377856473) 199 389 1
(0.1630692272 0.03482757518 0.3836378112 0.4184653864) 439 861 1
(0.337826915 0.3310865425 0.3228612777 0.008225264797) 292 572 2
(0.223616989 0.3720687558 0.01612274973 0.3881915055) 443 1270 1
(0.002349123417 0.4988254383 0.419216823 0.07960861528) 382 749 2
(0.1277976002 0.4361011999 0.2513900704 0.1847111295) 54 104 1
(0.05227957291 0.4738602135 0.0540283953 0.4198318182) 498 975 2
(0.2807155276 0.3596422362 0.2169952494 0.1426469868) 230 392 1
(0.9017611533 0.04911942337 0.03859572918 0.01052369419) 202 396 1
(0.5040585876 0.2479707062 0.1830886277 0.06488207845) 531 984 1
(0.7570503794 0.1214748103 0.02196772261 0.09950708768) 230 448 2
(0.04170211964 0.04788558308 0.4791489402 0.4312633571) 111 217 2
(0.1500331104 0.3959526115 0.02903083331 0.4249834448) 51 56 2
(0.1481879554 0.4259060223 0.00622625483 0.4196797675) 50 96 2
(0.3656682406 0.2217249877 0.3171658797 0.09544089206) 593 1162 1
(0.6584886663 0.008682038887 0.1707556668 0.1620736279) 142 275 1
(0.319813265 0.3400933675 0.1906634846 0.1494298829) 170 330 2
(0.1723255686 0.06985327973 0.3439839359 0.4138372157) 198 329 2
(0.4833267574 0.1374258645 0.2583366213 0.1209107568) 290 569 2
(0.9374539953 0.03127300233 0.01172816928 0.01954483306) 167 327 1
(0.780043513 0.1068728608 0.1099782435 0.003105382724) 378 742 2
(0.4515046607 0.2742476696 0.07307622024 0.2011714494) 411 807 1
(0.4247241024 0.0441285542 0.2876379488 0.2435093946) 405 795 2
(0.594285418 0.202857291 0.03259131437 0.1702659766) 348 624 1
(0.00513444909 0.4974327755 0.4969846697 0.0004481057789) 80 155 2
(0.3435559845 0.244465379 0.08375662873 0.3282220077) 438 859 1
(0.2040273929 0.02758248468 0.3979863035 0.3704038188) 469 918 1
(0.7849685899 0.107515705 0.1008917091 0.006623995907) 441 866 1
(0.0886435604 0.4556782198 0.2793157391 0.1763624807) 321 571 1
(0.5143522781 0.1714585374 0.2428238609 0.07136532356) 256 502 2
(0.09269789705 0.2254323607 0.2282186908 0.4536510515) 470 864 2
(0.5088415975 0.2455792012 0.06034514927 0.185234052) 440 861 2
(0.01429455923 0.4928527204 0.3340792554 0.158773465) 79 153 2
(0.1882183712 0.4058908144 0.3076232461 0.09826756829) 351 686 2
(0.3467898888 0.2560187857 0.3266050556 0.07058626988) 377 737 1
(0.7658641645 0.06713667562 0.04993124215 0.1170679178) 260 509 1
(0.04568912608 0.3023834186 0.477155437 0.1747720184) 256 502 2
(0.3337792252 0.1675394034 0.165570984 0.3331103874) 322 631 1
(0.03842386972 0.4807880651 0.4604234815 0.02036458363) 229 449 1
(0.5413575144 0.2293212428 0.1679297334 0.06139150938) 470 864 1
(0.8896431395 0.05517843025 0.03565766671 0.01952076354) 383 749 2
(0.4328776722 0.2835611639 0.007150545694 0.2764106182) 260 510 1
(0.1028338912 0.06379977602 0.4485830544 0.3847832784) 383 749 1
(0.2877622155 0.1898868854 0.1662320068 0.3561188923) 377 739 1
(0.7768561938 0.02461095769 0.08696094542 0.1115719031) 31 59 1