/*--------------------------------*- C++ -*----------------------------------*\
| =========                 |                                                 |
| \\      /  F ield         | OpenFOAM: The Open Source CFD Toolbox           |
|  \\    /   O peration     | Version:  2406                                  |
|   \\  /    A nd           | Website:  www.openfoam.com                      |
|    \\/     M anipulation  |                                                 |
\*---------------------------------------------------------------------------*/
FoamFile
{
    version     2.0;
    format      ascii;
    arch        "LSB;label=32;scalar=64";
    class       scalarField;
    location    "0.009/lagrangian/dsmc";
    object      Ei;
}
// * * * * * * * * * * * * * * * * * * * * * * * * * * * * * * * * * * * * * //


6236
(
2.171621816e-20
9.910530422e-21
2.81174636e-22
5.175092339e-21
4.276666927e-21
1.759111566e-20
4.183707758e-21
5.262042762e-21
5.064009646e-21
3.439652584e-22
4.052402817e-21
4.138954783e-21
1.346348217e-21
1.295135367e-20
4.915289389e-21
1.457704437e-20
2.668183548e-21
4.26503554e-22
4.959401868e-22
9.822443491e-22
2.475352964e-20
3.160350408e-20
7.960594436e-21
2.200681638e-21
2.009748769e-20
1.267985992e-21
1.289367451e-20
6.968457949e-21
3.829391371e-21
2.314058562e-21
2.004587496e-21
3.452752561e-21
7.939590189e-21
3.443937617e-21
4.465747827e-21
6.712971537e-21
1.505869311e-21
4.431362881e-20
3.164540713e-22
2.224416937e-21
1.144752679e-20
1.36007118e-20
9.733814918e-22
8.477027275e-21
9.892185559e-21
2.581717836e-20
1.683920352e-20
1.596945055e-21
2.399249858e-21
1.859673291e-20
5.268449767e-21
4.222328613e-21
3.685434373e-21
3.036037819e-21
4.377553401e-21
6.826596814e-22
1.81292438e-21
7.452038602e-24
1.249413504e-20
7.802851894e-21
1.080352313e-21
3.397644918e-21
1.550668023e-21
1.258365853e-21
1.292888249e-20
5.564640909e-21
1.177603211e-20
1.025143336e-20
5.163387262e-21
1.903660029e-21
3.137116972e-22
2.194636105e-21
2.792943699e-20
7.852334343e-21
1.296790948e-21
6.263128102e-21
3.521806131e-21
9.943943878e-21
8.948677917e-21
8.293182776e-22
1.237571645e-21
2.379510156e-21
2.19003109e-21
1.556571137e-21
4.701535774e-21
3.583219025e-21
1.326273736e-20
2.920651087e-21
1.217461454e-22
9.739167053e-21
2.163619669e-21
3.463459193e-21
4.33427421e-22
1.116916399e-20
4.582899894e-22
9.263122314e-22
1.205139411e-20
3.62180677e-21
2.222577898e-20
5.389751217e-21
2.744360449e-21
3.595272121e-21
4.923135456e-21
7.439556663e-21
3.660268589e-22
3.518524084e-21
1.892852726e-21
8.563231189e-21
2.197394262e-21
1.393667225e-21
5.573865848e-21
1.046662323e-20
2.144184048e-22
6.527870155e-21
5.669427439e-22
3.121867965e-21
7.097722477e-21
4.238610392e-21
7.739929723e-22
1.949204193e-21
1.267238274e-21
7.802588179e-22
2.739866259e-21
3.771907777e-21
1.472213305e-22
3.832333214e-23
1.054138968e-21
8.095997322e-21
1.925435634e-20
8.94163192e-21
3.088345245e-21
1.056533249e-20
2.547574571e-21
2.636003581e-20
1.207238039e-20
9.63735453e-22
3.559659239e-21
1.158108369e-21
3.678500073e-21
8.385727963e-21
6.851170212e-22
6.844959907e-21
3.280809255e-21
6.560969016e-21
4.489991726e-21
4.401779047e-21
1.984754181e-21
2.852899654e-21
1.927062949e-22
6.659275942e-21
5.435343275e-22
1.006980433e-20
1.73405218e-20
5.3427749e-22
1.459855057e-20
5.462495927e-22
4.739977077e-21
1.087896275e-21
7.214920492e-21
2.7127477e-21
2.979579354e-20
2.120985621e-21
4.766785313e-22
6.122801401e-21
3.656378775e-21
3.344654017e-20
6.211210012e-21
1.40191597e-20
2.447775428e-20
4.419021234e-21
7.654732176e-21
3.12013137e-21
1.638395966e-21
3.52535491e-21
9.295915576e-21
1.148414452e-20
3.466938584e-21
1.116427831e-20
4.668297509e-21
8.020310145e-21
4.203929819e-21
1.257973996e-20
3.293419785e-21
4.276801329e-21
7.474750156e-21
1.860587984e-20
1.836190159e-20
5.268371427e-21
3.859843924e-20
1.768057842e-21
4.645328561e-21
1.923726744e-20
1.716658954e-21
4.328152897e-21
2.196053765e-20
3.252472025e-21
6.273518501e-21
5.046316296e-21
5.089505053e-21
1.338080001e-20
1.569679267e-21
2.718760105e-21
3.738340541e-21
1.164009831e-21
3.274665207e-20
6.745463039e-21
2.501104143e-22
4.822439661e-21
3.164292957e-22
1.425235653e-20
7.351473244e-21
4.281374024e-21
3.460412147e-21
4.869685688e-22
2.111679015e-22
1.860785887e-20
1.572005629e-21
1.335667738e-20
5.85116017e-21
3.182418765e-20
4.10675035e-21
1.358547011e-21
2.490222028e-21
3.821363858e-21
1.162764116e-20
3.570548297e-21
6.303801497e-21
1.231489005e-21
3.605920998e-21
9.79539734e-21
1.65025249e-20
1.607533504e-20
1.923599179e-20
1.393446391e-21
2.543316381e-21
3.928867159e-21
1.372781319e-20
8.935596632e-22
3.144135297e-21
1.469091874e-21
8.323704639e-21
1.709496736e-21
1.039933675e-20
9.922463024e-21
2.863923198e-21
1.603349717e-20
3.200578265e-21
1.895299513e-23
3.793793288e-21
1.421146469e-21
4.198754729e-21
6.759011411e-21
5.338533424e-22
1.703187914e-21
1.784359941e-21
4.943512461e-22
2.496475044e-21
3.749277706e-21
9.225792129e-21
1.213177255e-21
5.008136134e-21
6.693065612e-21
9.72010735e-21
5.584965802e-21
1.426833239e-20
2.424756623e-21
2.475387874e-21
6.909991199e-21
5.282247003e-21
3.164690543e-21
5.700046787e-22
4.81100943e-21
1.015602376e-20
2.449778638e-21
6.6283748e-21
4.209380198e-21
1.409608237e-20
8.210625144e-22
3.101892801e-21
6.222089331e-22
2.144704771e-21
1.814058824e-21
3.04630433e-21
3.006780686e-22
1.319032176e-21
6.384930872e-21
6.480444635e-22
1.112572085e-20
9.645806006e-22
1.47278331e-20
1.114449057e-20
4.205106489e-21
2.340010267e-21
6.942652179e-21
2.319780009e-22
4.256358281e-21
3.149729431e-21
9.656799637e-22
1.298347136e-20
2.106909032e-21
1.284957024e-20
2.827378435e-21
1.564702648e-21
4.884596179e-21
6.255406336e-22
1.586313178e-20
7.61366791e-21
3.464107185e-21
9.342114558e-22
3.784300004e-21
5.728247017e-21
1.335798588e-20
3.666554332e-21
4.831392966e-21
2.047570156e-21
5.389287014e-21
5.3867828e-21
6.005380303e-21
2.371979678e-21
1.067036888e-21
2.885049316e-21
9.338355087e-21
1.352211125e-20
2.900168468e-21
6.029576288e-21
8.964319918e-21
9.376385134e-21
5.895166301e-22
4.035673996e-21
1.854482293e-21
7.547928798e-21
3.186694537e-22
1.720222107e-20
7.861761932e-21
3.596006175e-21
9.01874976e-22
1.261717707e-21
9.413583797e-21
1.721574722e-21
2.310221477e-21
7.297880441e-22
2.024455439e-21
5.327212934e-21
4.084797151e-21
4.208310163e-21
3.003901313e-21
2.055552916e-21
7.366179019e-22
9.169298892e-21
3.608606089e-21
2.763841744e-22
9.19254565e-22
2.527069859e-21
2.811701685e-21
9.476895138e-21
5.65877827e-22
1.039282386e-21
5.775657575e-22
7.980885132e-21
1.234604636e-21
1.205492268e-21
7.873173207e-22
8.362183474e-22
5.014400168e-21
2.984389276e-21
1.94606701e-21
2.464842352e-21
2.276479406e-22
3.616586146e-20
5.965144509e-21
2.302366194e-21
6.909139808e-21
3.835479691e-21
2.879741714e-21
7.000285067e-21
1.241146173e-21
5.615046366e-22
3.646926434e-21
1.276690162e-20
3.594277335e-21
2.254209362e-21
4.126279655e-21
1.167562033e-20
5.931437885e-23
1.460372461e-21
3.191711285e-21
8.257334393e-21
8.850639102e-21
1.209916966e-20
1.407291594e-21
3.950484915e-21
3.207439557e-21
1.669511984e-21
4.401473721e-21
2.647578005e-21
1.797883761e-21
4.983614409e-22
2.235927053e-22
3.66713273e-21
2.018574285e-21
2.430141407e-21
5.703593235e-21
2.479544117e-22
2.436772614e-22
5.333132492e-21
6.470049542e-21
4.287227337e-21
3.701401946e-21
5.036577391e-21
2.197668406e-21
3.246015128e-20
4.059027617e-22
1.237807971e-20
9.918243006e-21
2.536817929e-22
4.751343018e-21
2.580863364e-21
2.613208348e-21
1.872452133e-21
1.532734283e-21
3.392984581e-21
8.312484447e-21
5.155463917e-21
3.657051633e-21
4.827116913e-21
6.022697572e-22
7.070349251e-22
5.710987706e-22
9.43521825e-22
1.575401563e-21
2.657967958e-21
1.114336442e-21
1.366345458e-21
1.408193568e-21
3.551250221e-21
9.47880945e-22
4.186605617e-21
8.553073974e-22
1.088244546e-21
6.113976997e-21
1.732374926e-20
4.951252538e-21
1.004446236e-21
1.143518673e-21
7.086995684e-21
9.488580809e-21
6.831395622e-21
9.530796424e-22
7.880721981e-22
1.198004033e-20
3.334728056e-21
3.058837929e-21
9.45731108e-21
7.060598543e-21
9.451748402e-21
7.462296803e-22
7.707414824e-21
5.865872516e-21
8.158682555e-22
1.355504724e-21
1.926759617e-22
3.366285278e-21
1.300822536e-21
8.122645275e-21
2.591145483e-23
1.814950987e-21
6.637512609e-21
5.782715086e-21
5.725156088e-21
4.924756051e-22
6.588205227e-21
3.471237329e-21
1.959267477e-21
7.03789453e-21
1.310389197e-20
6.063050629e-21
3.773678386e-21
4.965729813e-21
2.044161052e-21
4.792054268e-21
2.872343884e-22
2.759796588e-21
1.645416284e-21
6.292705923e-21
2.156632858e-21
2.235987442e-21
1.387485929e-21
2.111018825e-21
1.171340726e-20
1.111589433e-22
5.084664205e-22
7.736675122e-21
5.084601399e-21
1.164607949e-21
6.458716527e-21
3.82278683e-21
9.265469836e-21
1.817276369e-21
3.109315898e-21
1.125012852e-21
4.63064145e-21
9.343681004e-23
2.209148521e-21
1.059534233e-20
2.017519661e-21
9.472497508e-21
7.436430741e-21
6.517720716e-21
6.879925121e-21
4.083419225e-21
2.333912242e-22
1.235093667e-21
2.562705647e-22
1.256811377e-21
2.063271649e-21
2.344319498e-21
1.527274437e-21
4.566086477e-21
1.058846998e-20
1.012893896e-20
3.92782478e-21
3.263659769e-21
9.754850208e-22
2.711516253e-21
1.782940379e-20
2.573301626e-21
2.558324467e-21
2.341199972e-21
5.052545654e-21
2.731812517e-21
6.982697295e-21
5.739314489e-21
1.377530381e-21
8.274729022e-21
2.22189363e-21
1.978098604e-21
3.580747351e-21
1.34716553e-21
1.642631678e-20
3.185218072e-21
3.967857206e-21
2.206210463e-21
1.68678405e-21
8.960194499e-23
2.273592911e-20
1.493809617e-20
1.494710551e-21
7.346229436e-21
7.463492504e-21
2.248809218e-21
2.450537398e-21
4.09457427e-21
1.293306207e-21
7.81256292e-21
5.480788036e-21
1.959277272e-22
3.428786632e-21
2.585996659e-21
6.718638805e-22
3.044541025e-21
2.754811218e-20
3.991051192e-21
5.154770727e-21
1.555012986e-20
2.531154618e-21
3.860146161e-21
4.842551024e-22
6.158013406e-22
2.393371808e-21
2.098717595e-21
5.265816933e-21
3.368688458e-21
4.201886832e-21
7.170361382e-21
4.587087571e-22
1.910549422e-20
3.659605962e-21
7.856678781e-21
1.711544842e-21
8.360704392e-22
1.020832309e-20
3.553007768e-21
4.530187763e-21
6.713722207e-22
1.22583821e-20
4.070362665e-21
2.700689426e-21
1.387493074e-20
7.397818475e-21
6.493152703e-21
9.87939951e-22
4.582490976e-21
2.287883477e-21
7.691540335e-21
4.980602821e-21
1.22975134e-21
2.949639222e-21
1.756887394e-21
6.697140259e-24
1.751470876e-22
1.960415555e-21
6.045309891e-21
2.087685048e-21
7.426182765e-21
3.132617556e-21
2.414789119e-21
1.414723221e-21
1.479840921e-20
1.172584392e-20
1.53901922e-21
1.037768344e-21
4.693728246e-21
5.922916304e-21
3.19866487e-21
3.772075558e-21
2.75615511e-21
1.68014336e-21
2.430739603e-21
1.204011313e-20
6.282727443e-21
1.304067223e-20
7.165878795e-21
3.114356373e-21
2.041986093e-22
9.079974598e-21
3.316337189e-21
1.32081621e-21
6.899277983e-21
2.555355465e-21
6.077470599e-21
4.587459535e-21
3.831013364e-21
1.191966654e-21
3.590881095e-21
2.72152772e-21
5.618979319e-22
4.460487877e-22
4.433273193e-23
6.976166242e-22
9.679488711e-21
3.829632846e-23
5.032735152e-21
8.031753856e-21
2.200188294e-21
7.996544258e-21
4.270209326e-21
3.877202619e-21
1.024762502e-20
2.498533891e-22
4.257027554e-22
9.330993825e-21
2.261461827e-21
7.639012619e-21
2.562310579e-20
5.014583961e-21
6.187932281e-21
6.11952262e-22
9.710027702e-21
6.990982099e-21
5.284367573e-22
4.058191854e-21
6.940769081e-21
3.742206636e-21
3.286364602e-21
2.43882909e-21
9.751320588e-22
5.158903536e-21
2.778185319e-20
7.879130252e-21
3.815873108e-21
2.231918336e-21
1.162158581e-22
6.108287776e-21
2.047331443e-22
1.122006499e-20
2.824299296e-20
3.919306635e-21
6.12918514e-22
4.698439239e-21
4.312260223e-23
1.451263276e-20
3.468241904e-22
1.205210172e-21
2.30373514e-21
1.88482595e-21
2.307901517e-21
5.750687775e-21
1.033352982e-20
2.060722856e-20
1.778820759e-20
1.442949714e-21
2.170655938e-21
8.542648726e-21
6.624820623e-21
5.459937838e-23
1.711324214e-20
1.812172957e-20
1.490810419e-21
2.139895177e-21
3.600268423e-21
7.140844287e-21
2.703884383e-23
1.783178668e-22
1.012700397e-21
1.443660673e-20
4.495188311e-21
4.261096084e-21
3.201661569e-21
1.091587222e-21
3.130267808e-22
4.245672224e-21
9.597202261e-21
8.300250939e-22
4.37195226e-21
7.47750418e-22
6.163144192e-22
3.003147286e-21
8.738336955e-22
1.643967e-20
2.232746196e-20
2.869654102e-21
1.068917354e-20
8.946911054e-23
8.639678949e-21
3.350867531e-21
1.205433383e-20
1.382197675e-21
9.361508427e-21
1.492892142e-21
4.142766038e-20
6.506770086e-22
6.433417111e-21
2.055140566e-23
1.283257913e-21
7.238703634e-21
9.837137788e-21
8.58512978e-21
2.004854981e-21
9.360660419e-22
3.350857418e-21
6.417846653e-21
8.632240293e-21
4.753140949e-21
1.461817328e-21
2.733172387e-21
1.434201372e-20
3.03171788e-22
1.692762988e-20
6.299226612e-21
2.229243347e-21
8.419951582e-22
3.318777124e-21
1.132291095e-20
2.811117277e-20
7.378836891e-21
1.674143249e-21
9.247929569e-21
6.205986334e-21
7.931908343e-21
2.058090332e-21
1.21470383e-20
1.894357045e-20
2.847878931e-21
2.710691383e-21
6.089796927e-21
3.169512786e-21
8.11674989e-21
1.275842347e-21
3.674283213e-21
9.470645707e-21
1.194468101e-21
2.696260598e-21
4.372090999e-22
4.565359348e-21
1.53439322e-21
1.057287777e-21
5.547475736e-21
1.02245968e-20
4.362538386e-21
5.23720477e-21
7.390405291e-22
4.071864539e-22
1.335622117e-20
6.837257541e-21
3.165427056e-21
5.615587339e-20
2.906266901e-21
1.505053775e-21
3.937681373e-21
1.27207796e-20
7.758884133e-21
1.277487169e-20
1.539541324e-21
1.52322523e-21
5.992812133e-21
8.759359423e-21
1.395155883e-20
1.176327281e-20
1.076576978e-21
1.913313514e-20
5.958851934e-21
5.727060288e-21
2.457579741e-22
8.72609915e-21
6.146561678e-22
1.483934946e-23
1.176599578e-20
1.516557998e-21
1.11678192e-21
1.992397798e-22
1.157401891e-21
1.106524519e-21
8.636774444e-21
4.255706903e-21
6.3807319e-22
2.59478e-22
8.960307864e-21
3.512802593e-21
2.098421969e-21
6.377584463e-21
2.06945209e-20
1.329790483e-21
1.412721025e-20
1.353840016e-20
6.540439268e-21
1.731963646e-21
4.246862604e-21
1.132704207e-21
3.530772167e-21
6.713253337e-21
1.212219892e-21
1.69574865e-20
3.006913859e-21
5.695849587e-21
7.28866137e-22
3.869883866e-21
3.864460013e-23
3.768831234e-21
8.668493389e-22
1.410962163e-20
6.757679611e-22
3.389693637e-22
6.850244903e-21
1.195979466e-20
7.783862097e-22
4.899612976e-22
9.303264904e-21
8.405628879e-21
6.0521201e-21
1.355570925e-21
4.277717663e-21
5.504048847e-21
2.009257775e-21
1.599593362e-21
1.11119361e-21
3.443641217e-22
7.89829279e-21
4.207269253e-21
8.509704192e-21
2.485224819e-22
1.032421923e-21
3.699834043e-21
9.359418772e-22
5.13796036e-21
1.508705063e-21
3.104314939e-22
1.833328388e-20
1.745008363e-20
8.594656355e-22
2.95161582e-21
8.29541372e-21
1.313872836e-21
8.656703374e-21
1.658449483e-20
1.170013959e-20
3.66185765e-21
2.315349678e-21
5.090882205e-21
7.985886791e-21
2.434023219e-21
8.936604576e-21
3.009659497e-21
9.599467909e-21
7.48462825e-21
4.710947118e-21
8.518159442e-21
6.506656711e-21
6.280699947e-22
2.84829428e-22
2.093644584e-21
3.379576127e-22
1.482611159e-21
2.370670078e-21
2.615087122e-21
3.880582684e-21
4.076466419e-21
7.443241801e-21
5.240960639e-21
1.145835441e-22
3.19597409e-21
7.840559958e-21
4.145595366e-21
5.446117344e-21
2.212737525e-21
9.8149605e-22
5.300742905e-21
2.790207142e-21
2.409183587e-21
9.250090998e-21
8.14080307e-22
1.984623309e-20
4.199390277e-21
1.575701765e-21
5.803188985e-21
1.369309906e-20
1.275405258e-22
1.523327745e-21
3.051299534e-21
5.855037296e-21
8.79650091e-22
2.311032023e-20
1.94838797e-20
3.415815796e-22
2.95060886e-21
7.397385596e-21
1.54823e-20
6.871104863e-21
5.308154596e-21
5.344707843e-21
5.006672831e-21
3.963006255e-21
7.919541033e-21
1.978879104e-22
3.010863034e-23
1.224183715e-20
8.730686477e-21
1.788518263e-21
8.112207233e-21
4.99308907e-21
5.821217865e-22
4.100014246e-22
2.172316624e-21
4.9338928e-21
4.60861755e-22
7.006632808e-22
2.08698832e-23
1.842277565e-22
2.627859607e-21
1.38058048e-21
2.210760022e-21
1.202409119e-22
1.633734263e-20
4.72154333e-22
3.134845817e-21
7.055863673e-21
1.131606389e-20
5.904064273e-22
2.535507601e-21
1.134386893e-20
1.314056952e-20
4.591430505e-21
6.208638002e-21
6.077142346e-21
7.703480657e-21
5.697014114e-21
4.335222826e-21
4.665856616e-21
4.982032899e-21
2.673727913e-21
4.041049817e-21
2.115903523e-21
9.929698099e-22
2.309225963e-22
3.538892717e-21
2.250078175e-21
1.843593067e-21
1.102516823e-21
4.95477363e-21
1.17260071e-20
1.12993626e-20
4.666355707e-23
1.457135467e-20
5.808272724e-21
3.025316162e-21
4.586779048e-22
5.949183139e-21
9.258183521e-22
5.221297997e-22
3.189749785e-21
2.153830935e-21
3.896466826e-22
6.220881352e-21
7.944490708e-21
3.960542359e-21
2.044041782e-20
8.927469142e-22
1.373095e-21
3.853367257e-21
4.719890578e-21
1.236965064e-21
1.154030052e-20
2.928789364e-21
7.710051929e-22
2.476231065e-21
2.843152649e-21
4.687095926e-21
1.54576297e-21
7.602570901e-21
4.843166958e-22
1.27943253e-21
5.939684376e-21
6.563319041e-21
1.91230355e-21
7.001434695e-21
2.76504635e-21
1.521852374e-21
1.115592186e-20
5.162095783e-21
5.131817754e-21
1.833944345e-20
3.545664001e-21
5.58960991e-21
7.580108141e-22
2.829151165e-21
8.791527516e-21
1.501233817e-21
5.449909499e-22
1.354169715e-20
3.401608164e-22
3.964751091e-21
4.931331928e-21
7.912859977e-22
3.24105948e-22
1.801377205e-21
8.129220878e-22
2.268667796e-20
2.811034407e-21
1.83087886e-22
1.963340526e-21
6.680234857e-21
1.274315043e-21
3.334116858e-22
1.355973678e-21
1.962072364e-20
1.486284595e-21
8.000999558e-22
1.749076402e-20
7.318102363e-22
9.549681385e-21
9.484753891e-22
1.689636648e-21
6.895530593e-21
6.763195136e-22
2.837447634e-21
4.943360053e-21
2.753046128e-21
1.401642775e-20
4.802480749e-23
9.326231646e-21
6.554306935e-21
1.065360765e-20
8.094842272e-21
1.20809024e-20
6.01830627e-21
6.525894647e-21
2.450890465e-21
3.395471373e-21
1.41005701e-21
7.172685333e-21
1.49910087e-21
2.765421039e-21
1.140786243e-21
1.691949042e-21
4.089829073e-21
2.924493317e-22
3.743354706e-21
8.818015714e-21
1.936892425e-21
6.35498889e-23
6.48373343e-21
5.227788999e-22
1.848933018e-21
6.644164544e-21
1.033176973e-20
1.125666479e-21
3.939745862e-21
8.798114886e-21
6.737960417e-21
3.095989869e-21
6.479536477e-21
5.391745655e-22
6.703504086e-21
1.913895798e-21
8.149098315e-21
3.783383664e-21
1.133724821e-21
1.717013588e-22
4.736357689e-22
1.775968206e-20
2.324731831e-21
6.585454421e-21
1.45477306e-20
4.889326332e-21
2.211993338e-20
5.040106718e-22
1.236274788e-20
3.315428527e-21
3.262147568e-24
1.157136787e-20
2.650562769e-22
7.44444958e-21
1.148304986e-21
1.135922167e-21
5.596349365e-21
6.755749643e-22
6.846763682e-21
5.065114321e-22
8.124003188e-22
7.935531532e-21
2.683088938e-21
5.945383401e-23
1.443870646e-23
1.079859406e-21
5.613111663e-21
1.814047846e-21
1.926805657e-21
2.278576587e-20
3.153531464e-21
1.557069218e-20
9.040060063e-21
1.580433397e-21
2.559463524e-21
7.354245388e-21
5.641635514e-22
5.504526484e-22
7.698686235e-22
4.473026696e-21
3.993571518e-21
9.323278575e-22
2.916274585e-21
1.819519029e-21
8.953849054e-22
4.726872969e-21
1.129755009e-20
8.780006044e-22
2.830445575e-21
7.274822626e-21
2.242755552e-21
1.50225345e-21
9.911188825e-21
1.356277507e-21
6.408394576e-21
1.556943827e-21
8.552214063e-21
3.52727639e-21
1.735762581e-21
6.393372749e-22
1.208081003e-20
4.593060841e-21
1.422139142e-21
3.077609691e-21
2.732781244e-21
1.262177968e-20
6.764097019e-21
7.834690234e-21
2.617583429e-21
3.792178241e-21
6.096369374e-21
5.003902723e-21
8.193270226e-22
4.174079339e-21
1.819995386e-21
2.497098011e-21
2.724524123e-21
1.215158025e-20
2.924568641e-22
2.082904736e-22
1.817005679e-21
1.596732416e-22
7.976709988e-21
2.650245473e-21
2.539032801e-22
2.892156579e-20
1.953188948e-21
1.786669417e-21
3.753226176e-21
7.018190271e-23
5.141667603e-21
5.068702514e-21
5.538545495e-21
4.055989677e-21
5.909338916e-21
4.242982052e-21
4.508941442e-21
1.46921273e-22
2.778526288e-21
4.674191433e-22
6.912961964e-21
9.450870427e-22
1.562085252e-21
8.594172563e-21
5.782018674e-21
3.941845734e-22
1.857253289e-21
5.255278537e-21
1.264521164e-21
3.03042962e-21
2.48360228e-21
1.191322465e-20
4.539110219e-21
2.279167926e-21
1.786731648e-20
4.698309663e-21
5.701506158e-21
6.846857004e-21
7.016221173e-22
7.317980518e-21
6.770225449e-21
3.22300283e-21
1.039362823e-21
1.479539885e-21
1.004234882e-20
4.879580883e-22
5.914902833e-22
4.991189784e-21
6.34611133e-21
1.905437407e-21
1.885893449e-21
3.95589381e-21
7.64501345e-22
4.817487146e-22
5.405035169e-22
8.8997284e-22
9.344961053e-21
7.422678725e-21
2.824310868e-22
1.500511397e-21
4.390030881e-21
9.34581806e-21
1.981602496e-21
2.208147667e-22
8.00699279e-21
1.288428126e-21
2.347695125e-21
2.809428727e-22
4.310527559e-22
2.09289394e-21
1.328452718e-21
6.258023124e-23
6.059473415e-21
2.698050277e-20
3.184404139e-21
1.069753163e-21
1.608203496e-21
1.218801507e-21
5.852007991e-23
1.92832116e-23
1.6510692e-22
6.487639586e-21
8.344745697e-21
1.726776159e-21
1.098985768e-20
6.37676136e-22
8.789145617e-21
5.671808169e-21
2.735795255e-21
8.027349085e-21
7.403070715e-21
9.254132528e-21
1.986834105e-20
4.649355542e-22
3.792108197e-21
7.086264866e-22
6.391033494e-21
1.577646566e-22
4.88481958e-21
9.102189092e-21
5.294193956e-21
1.051423571e-21
3.038000344e-21
1.403465776e-22
3.935628879e-22
3.741950196e-21
2.366576066e-22
2.438576098e-22
4.20380942e-21
5.472929379e-21
7.462707547e-22
1.974508136e-21
6.040838805e-22
6.327047017e-21
2.371259649e-21
1.117229838e-21
8.52044337e-22
4.969871078e-22
5.446590741e-22
2.43608959e-22
3.905244939e-21
2.817573737e-21
5.58732544e-22
8.616000582e-21
5.505393828e-21
1.000688314e-20
2.475503513e-21
2.446067926e-21
5.525083433e-21
1.13309193e-20
3.490134728e-21
8.106377611e-21
2.519534444e-22
1.841648889e-21
1.48483797e-22
5.614546896e-21
2.929312936e-21
4.649119227e-21
3.822616859e-22
1.775504099e-21
4.072088965e-21
9.722408365e-21
6.145186333e-22
1.023121376e-20
1.773588603e-21
3.0725594e-21
1.90893863e-21
6.259883261e-22
1.943307819e-21
1.780746731e-21
9.23362986e-21
9.956409302e-21
4.861495455e-21
6.705524489e-21
7.795690911e-21
1.684305437e-21
4.701334226e-21
2.618289692e-22
6.787959532e-22
6.476569824e-22
1.481210156e-21
7.152268908e-22
6.234734765e-22
5.414057001e-21
6.282131797e-22
2.691064749e-20
1.117058277e-20
1.542718169e-20
1.936291586e-21
8.362459644e-21
1.343565357e-20
1.390987889e-22
7.306453234e-22
1.781882859e-21
2.143572814e-21
9.251652642e-21
1.158422283e-21
1.052387225e-20
6.275770734e-21
4.847003028e-21
2.749756232e-21
1.628847849e-21
4.438446077e-21
1.121468525e-21
1.190404349e-20
1.691835635e-22
8.250100727e-21
5.002322795e-21
9.956478594e-22
1.946466028e-21
2.084947998e-21
2.425687031e-21
1.540588783e-21
4.152492408e-21
1.789619018e-21
7.815032047e-21
2.436473392e-21
3.314551772e-21
2.275717172e-23
2.268966966e-21
1.596285143e-21
4.57241289e-21
1.047629751e-20
1.193200936e-21
7.684264506e-21
2.321777107e-21
4.466333084e-21
1.075767039e-21
1.559077542e-21
2.207029928e-20
8.061819188e-21
7.929057267e-21
5.650846785e-23
2.9044451e-21
1.060972088e-20
1.497879245e-22
1.042773717e-20
1.240227385e-20
5.898306666e-22
3.242763649e-21
7.711563124e-21
5.047150544e-21
4.02675897e-21
2.945474946e-21
3.763417421e-21
4.951100987e-22
2.169845667e-21
1.8320513e-21
3.530713437e-21
1.627460763e-20
5.143828932e-21
5.910401727e-21
1.905002494e-20
1.967146311e-21
5.556915949e-21
1.498431234e-21
9.309238833e-21
2.082803644e-21
6.345757827e-23
1.346697017e-22
1.879409967e-21
1.008140693e-21
1.079692032e-20
5.136350148e-23
1.56593122e-20
5.695088676e-22
8.859450269e-21
4.27397262e-21
2.411190954e-21
5.622842565e-22
5.116666259e-21
9.80823497e-21
9.750502468e-22
1.469131784e-20
3.815737422e-21
4.917574457e-21
7.031324591e-21
1.73211656e-21
2.234389069e-22
1.11018191e-21
3.031477532e-21
1.198105689e-21
4.793518317e-22
3.927609555e-21
7.654315129e-21
9.72245784e-21
2.728518356e-21
6.350655412e-21
9.257538326e-21
7.711478506e-22
1.105026549e-21
2.216478253e-21
7.767126129e-21
1.080773657e-21
2.764666256e-21
1.228704013e-20
9.681250638e-21
5.270835607e-21
3.977321348e-21
1.426047843e-20
6.438855942e-22
3.61826616e-21
7.159493547e-21
1.518087581e-22
3.201770961e-22
2.921760197e-21
4.986763221e-22
5.232733952e-21
4.762698777e-22
7.009521314e-21
4.229360165e-21
1.892261439e-22
1.49900778e-21
3.052813865e-22
3.508804474e-21
3.126736254e-21
3.292353058e-21
2.599782995e-21
4.567803342e-21
8.621140837e-21
1.385717765e-20
5.163210069e-21
1.138350111e-21
5.891763987e-21
1.410352747e-21
2.988575165e-22
3.279132721e-21
1.056389099e-20
1.69392535e-20
6.966627091e-21
9.413317835e-21
3.047530427e-21
1.970860195e-21
6.190588987e-21
1.243961964e-20
2.364437382e-20
1.498393512e-20
9.133261361e-21
1.8679877e-21
2.392410871e-20
3.248434504e-21
6.627552806e-21
1.179786677e-20
2.228393257e-21
1.080956552e-20
3.88669312e-21
5.716804911e-21
2.37412659e-20
1.278924434e-20
1.507487791e-21
5.319668612e-21
1.030339846e-20
9.335112249e-21
3.952583046e-22
3.001739657e-24
3.455636193e-21
9.296541006e-21
3.927645974e-21
1.255766268e-21
1.348387118e-21
2.776441027e-22
2.262750237e-21
1.127376091e-21
8.91494802e-21
2.515535884e-22
3.305336976e-21
6.745679456e-21
1.176781422e-21
9.584915704e-23
1.928255146e-21
1.542873478e-20
4.464627249e-21
1.067028727e-21
2.715129676e-20
6.569714713e-21
1.40891536e-20
2.027191518e-21
7.75762271e-21
4.376347697e-21
3.811343124e-21
3.40077891e-21
1.153801578e-20
2.042664351e-21
1.105764906e-21
1.094177953e-21
2.171827907e-21
5.854351206e-21
2.945469984e-21
2.013764836e-21
6.730965592e-21
2.748574378e-21
3.18979156e-21
8.54968977e-21
2.719010461e-21
1.47667054e-21
5.60626075e-21
8.91317329e-22
7.103564781e-21
3.730941288e-21
1.782329969e-21
3.77244461e-22
3.157781296e-21
9.647110012e-21
5.014438915e-21
1.011851804e-21
1.124885734e-23
1.019928886e-20
9.163636694e-22
1.034535296e-21
5.214529428e-21
5.04183221e-21
4.66545413e-21
4.033190134e-22
1.912460125e-22
1.468591188e-20
2.806989837e-21
4.734494294e-22
2.24225714e-21
9.717773327e-21
4.999941037e-21
2.889920918e-22
1.758146577e-21
8.379292301e-21
3.660209059e-21
7.676868604e-21
2.48492695e-21
1.821360274e-21
1.607337116e-20
2.378573472e-21
5.143301813e-21
2.625514344e-22
4.164168462e-22
1.104165884e-20
1.022094838e-21
9.235514229e-21
5.328955754e-21
2.320977712e-21
3.496995707e-22
1.556002387e-20
4.164957376e-22
9.562700018e-21
7.777059637e-21
9.165925393e-22
6.779978086e-22
2.925727686e-21
1.550485536e-20
3.592854188e-22
2.543200022e-21
2.275790704e-21
6.87329299e-21
2.390327027e-21
7.521724479e-21
1.249927323e-20
1.49038897e-21
2.661876865e-21
1.840628558e-21
2.441463289e-21
3.573746559e-21
1.475636249e-20
1.401277059e-21
1.230648004e-20
2.056669408e-21
2.523466399e-21
1.788860346e-21
5.31849499e-23
8.264689753e-22
4.042914787e-21
2.514384596e-21
6.636825937e-22
5.057369695e-21
6.197989069e-22
4.143050882e-21
1.279840107e-20
2.201338664e-21
2.680562739e-21
3.049553016e-22
5.342924449e-21
2.61642697e-21
1.565096574e-21
2.970667563e-21
1.948115441e-21
1.480733891e-21
5.521241802e-21
1.099730408e-20
8.412280737e-21
1.706762643e-22
2.461870866e-21
5.23484641e-21
9.294142205e-21
1.396654994e-21
7.994227944e-21
2.003865356e-22
4.031557323e-21
6.036053678e-21
2.008373157e-21
8.868625524e-21
6.600298287e-21
7.836479075e-22
2.992712549e-22
1.934283338e-21
4.267770226e-21
4.940856737e-21
9.863076572e-21
5.710342888e-21
8.957630546e-21
5.885879335e-21
7.389781834e-21
3.197086474e-20
1.202315796e-20
3.703151843e-21
1.888609578e-20
1.561636088e-21
3.089274501e-21
7.274810098e-21
1.154816045e-21
2.838416824e-21
3.524421408e-21
1.144569309e-20
6.366416694e-21
4.897759543e-21
3.179206527e-21
7.459432665e-22
3.215865849e-21
6.104817435e-22
1.117035182e-21
6.054129075e-22
8.015371148e-21
4.983854016e-21
4.53422621e-21
1.401481057e-21
2.714727391e-21
6.2189337e-21
6.330933769e-21
4.862420914e-22
1.576171623e-21
1.209210378e-22
5.970373931e-21
1.42198325e-21
7.102307514e-21
5.815494086e-21
2.175872606e-21
6.432594124e-22
1.667495553e-20
7.974444101e-22
5.951260052e-21
1.10341146e-21
2.567515888e-21
3.692374929e-21
1.294258718e-22
3.102403684e-21
1.269309457e-21
4.459528073e-21
5.360046669e-21
4.743692714e-21
5.252008653e-22
6.14748217e-21
3.090815832e-21
1.241122689e-21
4.061440161e-21
3.17952219e-22
1.461486478e-20
1.186712969e-20
3.485570583e-21
2.388151722e-21
4.07331189e-22
1.066993111e-20
7.142902533e-21
7.818229974e-21
6.665777998e-22
3.634305127e-22
6.34417989e-21
1.090807629e-21
3.670644339e-22
3.838810074e-21
5.431973148e-21
1.356077673e-20
5.246848519e-21
3.044712992e-20
9.614033242e-22
4.14388202e-21
2.870741041e-21
8.888176179e-21
7.410275964e-21
5.372433607e-21
3.526461507e-22
2.426609296e-21
4.079028186e-21
3.98809045e-21
6.608373976e-23
1.099713442e-21
4.751265631e-21
1.431311367e-20
3.3327593e-21
4.200042078e-22
1.500517617e-21
2.624500137e-22
4.30526471e-21
1.083737869e-21
6.436803478e-21
1.021241038e-22
5.361134881e-23
1.102728017e-21
2.280977943e-21
1.013527914e-21
3.157985193e-21
5.83402036e-21
8.998458773e-21
6.615164028e-21
8.528323754e-21
2.955801928e-21
8.391419176e-21
5.524839542e-21
3.237685291e-20
3.922818894e-21
8.250580783e-21
3.674786265e-21
1.33075935e-20
2.473592034e-21
3.281515773e-21
3.355099409e-20
2.051403661e-21
3.277214038e-21
6.986418728e-22
4.905167649e-21
4.93961954e-21
6.880894086e-21
1.784465553e-21
3.477732018e-21
4.321247324e-21
2.066965485e-21
1.139292102e-21
2.400012838e-21
8.867862969e-21
6.343133577e-21
1.37513343e-21
7.840230748e-21
1.189705313e-21
6.407889059e-21
1.007292354e-21
1.386987335e-20
2.511298487e-21
2.170321901e-21
2.28926938e-21
1.981664403e-21
2.209999307e-21
4.183293188e-21
2.063149782e-22
3.378895539e-21
1.92947913e-21
1.857158958e-21
2.813258144e-20
1.243872961e-20
3.265910827e-21
8.716165095e-21
4.959544749e-21
1.577118356e-20
7.019956516e-22
2.688559583e-21
7.004074769e-21
2.439917832e-21
3.505564467e-22
4.81591214e-21
1.267225667e-21
3.961668252e-21
5.982209621e-22
9.282274352e-21
1.809645136e-21
5.859919397e-22
2.450248817e-21
1.386843216e-21
3.399630292e-21
3.551131986e-21
2.712751487e-21
1.619225826e-20
4.232268844e-21
3.189487015e-22
4.45696536e-22
4.523465083e-21
2.660489283e-21