/*--------------------------------*- C++ -*----------------------------------*\
| =========                 |                                                 |
| \\      /  F ield         | OpenFOAM: The Open Source CFD Toolbox           |
|  \\    /   O peration     | Version:  2406                                  |
|   \\  /    A nd           | Website:  www.openfoam.com                      |
|    \\/     M anipulation  |                                                 |
\*---------------------------------------------------------------------------*/
FoamFile
{
    version     2.0;
    format      ascii;
    arch        "LSB;label=32;scalar=64";
    class       labelField;
    location    "0.009/lagrangian/dsmc";
    object      origId;
}
// * * * * * * * * * * * * * * * * * * * * * * * * * * * * * * * * * * * * * //


6236
(
383189
385484
384703
390553
450363
448383
385838
385742
450973
386905
386957
386894
386965
387481
386874
387273
387507
450889
386752
386921
389054
450757
386879
386886
386910
388429
386531
387956
388363
386740
386818
387164
387280
387522
387788
387961
387690
387708
387772
387791
388057
451892
389234
387865
388289
386873
386933
386989
387055
387314
387521
387705
387745
388166
388244
451589
390550
392049
386373
386626
386819
387263
387377
387438
387583
387866
388072
388310
388319
388378
388627
387288
387359
387406
387518
387963
388070
388278
388386
388390
388480
388589
388714
391503
451980
450103
386125
386487
386658
387142
387242
387425
387477
387515
388387
388468
388469
388511
388585
386527
386530
386979
387135
387259
387312
387325
387347
387673
388041
388186
388210
388555
388642
452186
387440
387489
387525
387761
387766
387794
387890
388015
388141
388478
388489
388754
388757
450878
388961
389012
389101
452919
390281
451992
388458
386464
386916
387336
387671
387763
387769
387901
388031
388082
388153
388232
388567
388584
388730
453749
452410
393976
452415
453318
385304
385483
387147
387334
387415
387482
387502
387632
387696
387816
387819
387966
388024
388113
388114
388134
388170
388342
388423
388479
388573
388836
387300
389377
451899
391690
452006
452819
386292
386708
386850
387343
387387
387394
387495
387498
387523
387532
387689
387879
387958
388043
388068
388123
388130
388213
388226
388227
388424
388577
388617
388747
388756
389162
389623
451995
453626
392389
453213
387437
387810
387990
388110
388119
388235
388268
388428
388473
388655
388703
388736
389177
389340
389457
389475
389839
452716
453425
452907
452527
393364
446428
451160
386844
387140
387165
387513
387517
387677
387797
387867
387946
387954
387962
388042
388124
388129
388169
388324
388487
388506
388619
388653
388656
388885
389035
389086
389137
452520
452215
386692
451991
392737
451477
454754
385990
387189
387433
387534
387682
387765
387782
387798
387825
388118
388138
388193
388279
388287
388404
388416
452419
388504
388509
388612
388658
388670
388712
388719
388722
388728
388792
388809
388822
388844
388856
388936
388989
389000
389067
389073
389105
389265
389274
389279
389367
389544
389562
389647
453331
391687
392046
454027
452803
393089
387844
387348
387407
387536
387947
388036
388211
388274
388294
388311
388474
388491
388508
388709
388710
388734
388762
388769
388819
388894
388953
389001
389004
389011
389013
389075
389077
389192
389203
389220
389369
389439
389473
389482
389489
389882
389884
389909
390459
391246
454047
393187
45160
45162
387091
387316
387318
387611
387783
387959
452216
388084
388229
388238
388306
388452
388493
388561
388614
388644
388657
388733
388735
388805
388860
388901
388912
388917
388981
388999
389041
389061
389084
389097
389104
389109
453123
389247
389254
389272
389297
389341
389365
453634
389426
389446
389522
389667
389708
389712
389727
453844
391159
452921
453002
393275
452911
453025
453742
389074
45171
450226
450783
387141
387778
387932
388055
388078
388144
388297
388389
388397
388490
388496
388525
388533
388583
388592
388625
388645
388650
388697
388834
388838
388840
388921
388922
388923
389036
389051
389072
389117
389129
389158
389202
389277
389288
389394
389511
389572
389628
389685
389728
389739
389830
452109
390027
390302
390581
392825
393274
387496
393453
393889
45187
387576
387707
387780
387858
388128
388132
388202
388392
388514
388548
388621
388686
388690
388705
388717
388726
388833
388841
388906
388907
388909
388950
389100
389119
389121
389169
389179
389258
389282
389323
389355
389423
389455
389471
453848
389643
389764
389887
390178
453013
390892
453423
452808
453210
388185
389853
386802
387818
387826
387837
388045
388155
388291
388327
388338
388347
388370
388462
388463
388556
388613
388630
388659
388814
388817
388837
388855
388881
388900
388958
388978
389040
389044
389071
389089
389095
389122
389200
389227
389260
389281
389370
389375
389386
389418
389440
389449
389474
389711
389726
389805
389872
390045
390061
390135
390460
390547
453209
392303
453734
45205
450308
451652
388058
388403
388414
388464
388578
388794
388800
388859
388863
388915
388920
388924
388986
388994
388998
389037
389091
389118
389120
389184
389190
389207
389224
389252
389280
389361
389381
389388
389456
389458
389514
389624
389631
389639
389674
389719
389748
389783
389801
389879
453748
390058
390059
390074
390113
390172
453218
391863
392569
393273
389255
454946
45213
454555
387980
388012
388040
388108
388308
388331
388364
388551
388560
388574
388647
388864
388910
388987
389023
389030
389039
389106
389116
389196
389205
389259
389290
389293
389350
389460
389520
389547
389570
389595
389606
389637
389710
389716
389721
389741
389752
389767
389861
390154
390220
390229
390409
390457
390478
453835
454860
454751
453627
392568
393086
394587
394679
394936
395029
45223
449217
451125
450918
455154
387668
387731
387736
388217
388475
388648
388678
388818
388897
388977
389014
389123
389174
389209
389275
389294
389321
389349
389387
389438
389464
389517
389551
389612
389619
389622
389634
389686
389695
389725
389758
389785
389828
389829
389856
389894
389895
389912
389957
389974
389980
390011
390041
390081
390133
390145
390197
390274
390315
390320
390367
390386
390470
390636
390709
392386
389675
393705
452617
454149
454349
394233
446684
452482
390109
387488
387792
387882
387964
388350
388455
388571
388594
388629
388749
388797
388857
388905
389031
389094
389115
389163
389173
389176
389262
389310
389342
389359
389362
389363
389416
389432
389496
389516
389531
389538
389553
389559
389600
454051
389776
389816
389875
389881
389896
389897
389906
389921
389947
389949
389973
389976
390020
390054
390056
390067
390139
390165
390296
390392
390482
390656
391688
392646
389507
455686
393974
448679
389518
387752
388524
388663
388741
388804
388827
388891
388932
388938
388995
389124
389175
389180
389219
389291
389304
389332
389357
389371
389384
389396
389436
389453
389476
389529
389532
389537
389678
389697
389731
389737
389876
389924
390033
390049
390063
390090
390162
390200
390228
390252
390260
390301
390322
390350
390404
390408
390479
390506
390529
390543
390595
390914
454351
391111
389070
393271
389151
454650
394494
395028
387597
452182
452707
389521
389425
389170
387931
388023
388200
388207
388313
388398
388433
388570
388649
388708
388750
388755
388831
388848
388911
388992
389157
389264
389266
389309
389318
389429
389448
389467
389534
389555
389578
389611
389613
389635
389640
389644
389646
389694
389749
389789
389873
389880
389883
389943
389954
389964
389968
389981
389982
390001
390037
390057
390064
390217
390337
390391
390398
390416
390428
390466
390512
390545
390594
390715
391052
454343
392645
393270
389150
394493
45251
45253
450876
452915
452414
390473
388192
388365
388412
388737
388839
388913
388919
388930
388945
389069
389112
389181
389189
389194
389210
389283
389284
389298
389301
389313
453849
389454
389470
389545
389557
389616
389699
389715
389733
389765
389788
389800
389806
389823
389864
389922
389958
389965
390009
390038
390052
390070
390087
390111
390132
390255
390266
390305
390311
390316
390325
390379
390440
390476
390570
390578
390615
390755
390874
390875
455382
391057
391124
454862
393182
393362
393888
394232
454248
454852
394851
45261
45265
447059
450243
454237
454964
388103
388553
388586
388660
388666
388951
389218
389257
389269
389302
389303
389307
389372
389376
389380
389393
389422
389463
389468
389513
389536
389626
389636
389653
389698
389700
389706
389778
389799
389802
389822
389890
389979
390042
390048
390051
390092
390123
390128
390129
390157
390308
390334
390341
390344
390354
390410
390447
390477
390494
390515
390596
390704
390872
390877
390921
390939
390951
391587
391953
392734
454142
390563
394678
45267
45268
450403
452303
450870
452901
453941
455250
455672
454857
387228
387840
388209
388276
388399
388673
388742
388746
388890
388937
388985
389171
389276
389442
389452
389485
389524
389558
389580
389683
389732
389786
389796
389803
389809
389814
389821
454355
389966
390068
390076
390082
390086
390096
390122
390136
390140
390152
390218
390235
390269
390271
390309
390330
390345
390346
390356
390368
390425
390429
390432
390452
390484
390491
390504
390613
390639
390696
454452
390842
391000
391026
391211
391376
455268
388791
454549
454553
455062
389773
395463
45272
450497
451151
453410
453010
454644
387929
388422
388724
388916
388943
389198
389248
389286
389335
389421
389546
389552
389598
389609
389625
389630
389632
389650
389670
389696
389722
389784
389787
389794
389826
389827
389891
389893
389899
389904
389910
389913
389999
390060
390069
390233
390246
390401
390417
390444
454049
390486
390489
390505
390582
390583
390590
390601
390617
390668
390744
390768
390796
390825
391112
391280
391298
455781
455261
390997
393000
393087
393272
453530
394231
454538
395544
395717
45284
45285
45286
450337
449338
451678
454359
387691
387896
388611
388967
389019
389103
389113
389178
389368
389385
389535
389540
389614
389703
389717
389734
389738
389811
389812
389813
389854
389918
389953
389978
389989
389993
389996
390053
390072
390137
390141
390151
390222
390231
390289
390313
390333
390360
390388
390422
390469
390474
390502
390511
390530
453315
390592
390597
390626
390698
390706
390708
390717
454252
454556
454856
390866
455588
391024
391225
391325
391328
391423
391683
391685
455056
393452
454550
393973
454140
394584
394585
394850
395026
45296
45297
45300
45301
447666
448898
450844
449438
451172
453019
453430
454746
389062
388376
388739
388807
388908
388973
389204
389206
389379
389437
389450
389484
389573
389681
389688
389780
389791
389866
389867
389917
389946
390026
390032
390044
390120
390168
390221
390239
390250
390263
390319
390336
390426
390481
390587
390606
390618
390625
390642
390679
390699
390718
390720
390766
390780
390881
390908
391031
391032
391039
391045
391077
391202
391329
392567
390204
393536
455990
456900
45312
45313
388453
388713
389963
388369
389188
389222
389270
389401
389431
389620
389666
389779
389804
389810
389831
389833
389888
389916
389942
389945
389969
389986
390018
390023
390062
390073
390089
390095
390126
390138
390146
390158
390219
390223
390242
390247
390265
390292
390298
390300
390328
390339
390397
390402
390430
390434
390443
390464
390522
390526
390593
390687
390695
390702
390711
390805
390835
390845
390855
390867
390935
390938
390952
390961
391018
391050
391147
391185
391191
391409
454760
392041
455376
456002
393451
394060
394403
456497
395027
454514
45318
447850
451552
386866
454043
453415
389677
445154
454439
455463
388061
388640
388643
389009
389016
389633
389648
389771
389775
389790
389797
389865
389961
390004
390019
390025
390029
390036
390055
390104
390134
390142
390211
390225
390236
390237
390245
390248
390256
390286
390340
390353
390413
390442
390518
390525
390528
390584
390591
390602
390603
390612
390676
390678
390703
390723
390748
390770
390810
390849
391049
391055
391067
391132
391173
391178
391212
391219
391327
391664
391682
393178
394404
453936
455479
395543
395819
395911
45322
45324
45325
45326
451575
454011
452495
384670
388829
388997
389197
389199
389354
389542
389561
389564
389571
389596
389665
389692
389724
389730
389859
389907
389915
389944
389987
389997
390034
390196
390208
390232
390261
390297
390326
390418
390435
390438
390439
390441
390456
390468
390475
390485
390507
390521
390534
390614
390669
390681
390707
390765
390774
390778
390840
390891
390931
391010
391019
391021
391042
391129
391142
391241
391291
391395
391579
391652
391771
455271
392132
392219
390659
455176
455482
393181
456083
454955
394139
455880
394768
454145
455167
395119
455368
395462
455680
45333
45334
45335
45336
45337
450225
450976
387681
452899
389064
454662
388540
453945
386964
388976
389079
389344
389374
389430
389443
389793
389877
389898
389955
389983
390043
390127
390131
390149
390150
390210
390257
390276
390314
390321
390385
390498
390520
390532
390567
390574
390605
390608
390634
454455
390666
390675
390779
390782
390783
390788
390837
390861
390868
390909
390918
390924
390960
391100
391114
391122
391198
391204
391260
391309
391373
391383
391386
391408
391436
391540
392042
392302
392566
390483
455469
390743
395910
45351
450544
450983
388704
390012
456270
387993
389191
389533
389729
389782
389819
389892
390050
390148
390161
390227
390234
390327
390329
390332
390335
390427
390480
454150
390579
390609
390621
390628
390688
390692
390694
390712
390750
390760
390764
390776
390792
390794
390828
390856
390937
390942
390943
390950
390954
390979
391017
391036
391058
391086
391099
391134
391177
391187
391217
391283
391397
391462
391533
391568
391770
455270
392032
455174
392220
390285
393177
393179
454957
394676
456904
395542
45358
45359
447756
452307
453305
452623
389263
454648
389940
387486
388968
388996
389020
389549
389601
389629
389691
389911
389962
389988
454357
390118
390119
454148
390198
390214
390240
390241
390244
390262
390264
390331
390384
390395
390399
390411
390423
390449
390508
390604
390620
390630
390684
390721
390757
390759
390767
390773
390886
390890
390927
390966
390974
391025
391034
391075
391130
391183
391221
391363
391406
391461
391489
391546
391554
391640
391663
391733
391763
391859
391932
390106
392452
390663
392822
393180
455677
394583
394767
390816
455998
390114
395461
396087
389591
456259
45365
45366
45367
451956
452008
451896
387856
452288
453933
453619
389346
454249
455571
389050
389403
389526
389655
389815
389868
389885
389984
389990
389995
390110
390147
390164
390347
390349
390403
390414
390471
390496
390510
390561
390580
390585
390631
390700
390710
390713
390714
390752
390785
390838
390864
390870
390940
391016
391028
391033
391084
391108
391118
391138
391199
391201
391267
391269
391285
391299
391390
391451
391465
391523
391549
391551
391565
391586
391627
391629
391648
391827
391831
391842
456093
393972
454539
456292
456277
456380
395818
395994
45373
45374
45375
446711
448151
450533
386795
451426
448992
389253
453414
454941
455563
389099
389723
389900
390000
390022
390039
390065
390075
390116
390143
390167
390207
390251
390390
390405
390490
390527
454353
390564
390577
390610
390680
390716
390732
390763
390793
390807
390813
390847
455266
390905
390911
390926
390945
390953
390956
391014
391043
391066
391092
391126
391143
391226
391264
391271
391289
391290
391312
391356
391357
391377
391411
391548
391593
391659
391718
391766
391787
392013
392179
392385
455168
456500
455775
454745
455974
394582
394674
454446
389855
455584
391510
456481
45382
451967
451767
451756
452089
455767
389527
388982
389541
389772
389901
389975
389985
390016
390071
390338
390343
390376
390407
390421
390424
390433
390565
390576
390607
390623
390691
390701
390844
390917
390928
390930
390933
390958
390977
390999
391002
391136
391176
391182
391195
391200
391214
391234
391268
391358
391370
391374
391385
454752
455381
391499
391525
391544
391556
391561
391564
391575
455780
391631
391642
391651
391661
391732
391924
392078
392130
392201
392216
455996
392246
392643
456000
393176
456091
393971
394317
394402
391266
391341
390742
391604
455679
396176
396526
45386
450242
385633
451332
389164
452524
451517
452382
455477
386273
453254
456492
388652
389465
389663
389889
390014
390083
390299
390497
390670
390725
390747
390772
390790
390800
390831
390850
390859
390860
390903
390919
390925
390932
390936
390948
391022
391040
391051
391106
391109
391123
391153
391170
391265
391292
391307
391324
391348
391362
391367
391387
391400
391449
391480
391515
391535
391545
391558
391574
453517
391597
391626
391717
391788
391887
391914
391925
391944
455572
392109
392189
392384
392475
454454
393361
390902
456185
395118
456592
390558
456163
456585
455967
45389
45390
45391
45392
448968
451866
452603
453506
387869
455178
455768
388544
390658
456395
391258
455888
456082
456084
452314
389818
389972
390040
390226
390291
390293
390487
390524
390575
390586
390611
390677
390686
390754
390784
390798
390803
454661
390913
391007
391008
391053
391095
391103
391105
391110
391119
391188
391192
391196
391206
391262
391281
391286
391347
391350
391352
391364
391368
391371
391394
391403
391404
391416
391636
391660
391680
391721
391789
391806
391835
391847
391934
392009
392028
392229
392416
392687
392703
392997
455578
393884
394059
456281
457004
395117
395375
395541
395815
396086
45398
45399
45400
45401
448194
449523
448237
449216
451557
452996
387940
451465
452523
387309
388636
457003
389682
389795
390359
390396
390420
390431
390571
390622
454664
390734
390739
390762
390824
390836
390858
390863
390934
391012
391013
391029
391037
391047
455783
391091
391093
391131
391184
453222
391353
391380
391454
391463
391481
391578
391598
391609
391615
391650
391679
391702
391735
391794
391820
391896
391970
391992
392018
392062
392079
392083
392196
392251
392267
392293
392329
392418
392549
392594
455991
457214
394675
45410
45411
447024
449752
450125
449821
387935
454050
391780
455779
457000
389720
389807
390303
390436
390446
390488
390513
390599
390616
390806
390833
390853
390876
390947
390964
391001
391141
391148
391205
391229
391232
391233
391259
391277
391278
391391
391456
391474
391476
391487
391522
391536
391538
391560
391563
391608
391624
391635
391638
391646
391738
391784
391818
391822
391824
391885
391895
391907
391927
391938
391986
391998
392020
392031
392157
392209
392288
392312
392487
392493
392509
392564
456494
391428
393624
393885
394315
394316
456594
395115
395376
455166
396175
396604
452433
396867
396953
45418
45419
45420
45421
451560
451569
451455
452581
451027
452489
453846
451978
452197
453612
388980
455582
454153
389149
453221
451456
390287
390389
390569
390657
390689
390775
390789
390826
390834
390851
390852
390971
391004
391023
391054
391096
391120
391125
391193
391207
391213
391272
391293
391302
391361
391365
391398
391401
391402
391407
391445
391458
391479
391519
391528
391531
391543
391552
391619
391741
391756
391898
391902
391920
392030
391699
392067
392177
392184
392354
392368
392409
392432
392676
392834
456600
455689
454432
455691
394492
455171
395715
395716
396778
45430
45431
45432
45433
451049
448817
449655
451583
451368
450841
452239
386534
451987
452112
453188
389250
454945
390112
390288
453635
387848
388107
390046
390171
390215
390400
390406
390683
390738
390791
390818
390843
390879
390915
391027
391030
391044
391090
391098
391121
391127
391194
391227
391275
391295
391296
391297
391300
391342
391435
391437
391442
391472
391473
391491
391517
391550
391569
391622
391628
391630
391632
391641
391656
391698
391711
391715
391796
391836
391843
391890
391891
391893
391900
391904
391912
391929
391973
391984
392061
392086
392230
392257
392344
457530
457215
395200
395373
454548
45439
45440
45441
45443
45444
45445
447944
449817
449883
451116
451879
451976
454435
452252
449623
385205
389273
455776
386796
454758
390024
389967
390163
390206
390500
390538
390588
390745
390777
390829
390839
390846
390884
391035
391056
391074
391107
391140
391145
391168
391306
391360
391372
391425
391430
391482
391488
391555
391566
391610
391618
391655
391737
391740
391749
391750
391807
391808
391817
392038
455252
392077
392093
392117
392118
392160
392162
392228
392247
392289
392323
392332
392375
392401
392560
392894
392983
393623
456682
389871
457322
395813
456596
457213
456397
455486
453416
45453
45454
45455
45456
45457
45458
45459
45460
45462
443770
447950
449631
452504
453020
453433
448941
454109
388035
388221
456661
456688
389261
388517
389777
389863
389994
390324
390519
390568
390685
390735
390736
390758
390848
390871
390941
390996
391009
391048
391104
391254
391378
391384
391443
391450
391453
391567
391576
391623
391625
391644
391657
391662
456696
391700
391716
391727
391736
391748
455784
391800
391802
391813
391819
391841
391860
391889
391894
391936
391950
392025
392052
392065
392094
392103
392142
392151
392158
392161
392176
392188
392197
392236
392268
392274
392364
392412
392415
392428
392435
392465
392523
392633
392816
456695
392933
391873
457525
395374
396085
456477
389960
45467
45468
45469
446902
448981
449290
386788
449585
452203
448436
453599
452988
452180
454154
453021
388456
388806
454038
390557
456182
457621
389857
389977
390028
390310
390501
390726
390769
390873
390962
391020
391062
391102
391117
391146
391216
391345
391351
391494
391537
391617
391637
391665
391667
391673
391677
391714
391722
391723
391742
391832
391858
391884
391892
391917
391939
391976
391999
392003
392034
392074
392092
392101
392108
392113
392146
392166
392180
392186
392187
392244
392281
392294
455374
392349
392352
392371
392417
392473
392516
392536
392579
392591
392598
392662
392715
392974
393360
456491
457926
392305
456782
394672
394765
395025
395811
455889
392917
397312
45472
45473
45475
45476
45477
449223
447852
451648
451424
386258
452681
451159
451984
452299
453312
453224
453321
389515
388887
456792
387672
390209
390216
390254
390415
390499
390746
390822
390854
391070
391181
391379
391388
391415
391468
391469
391471
391725
391728
391828
391851
391855
391857
391897
391905
391908
391995
392029
456195
392073
392082
392090
392107
392191
392199
392250
392285
392314
392327
392330
392392
392419
392436
392551
392588
392599
392620
392770
392778
392964
393449
393534
393882
394228
394397
457008
457620
394766
395460
395906
455986
396603
397313
397476
45482
45484
45485
45487
45488
45489
45490
448538
452110
451128
452269
452722
451695
452805
453512
389063
453526
456488
453428
454761
452918
456495
454036
386561
390213
390224
390258
390363
390965
391065
391088
391150
391253
391263
391318
391359
391366
391389
391447
391470
391475
391501
391521
391532
391599
391601
391649
391653
391730
391739
391758
391833
391911
391913
391941
391952
391966
391989
391994
392001
392081
392097
392115
392170
392185
392259
392261
392282
392313
392351
392382
392411
392421
392459
392463
392513
392519
392533
392580
392641
392655
392692
392700
392707
392787
392867
392902
392905
392998
393122
393297
455891
394580
394671
394934
457205
395114
457531
456484
392058
397311
397574
45494
45495
45496
444248
447574
450003
450707
452381
452107
387572
387934
451762
452517
451482
452618
451155
451877
388535
452695
454323
452402
454311
389417
454227
456470
454519
455339
391161
455043
453943
457307
388830
389886
390323
390352
390624
390862
390949
391133
391189
391215
391238
391257
391466
391518
391557
391582
391603
391713
391720
391729
391734
391769
391783
391811
391816
391882
391883
391928
391946
392004
392012
392035
392087
392167
392192
392198
392204
392315
392321
392324
392343
392414
392438
392448
392455
392514
392554
392581
392586
392619
392630
392635
456393
392664
392761
392780
392812
392862
392884
455485
393076
393085
393105
393129
458755
393703
458240
457726
457330
395908
396084
396524
457118
396866
397039
391512
391876
45504
445793
449923
449525
449067
387400
452111
451473
450085
453505
453830
454232
453216
453911
390130
455765
454640
456386
453926
456995
456288
390693
390887
391003
391101
391144
391208
391255
391393
391426
391444
391477
391514
391547
391611
391614
391616
391621
391639
391726
391731
391743
391747
391785
391814
391821
391825
391826
391921
391923
391935
391975
391981
392007
392060
392140
392152
392207
392277
456906
392307
392337
392338
392347
392350
392355
392444
392518
392522
392524
392537
392587
392744
392792
392819
392912
392954
392988
457831
393480
393532
391781
456595
456193
394225
394230
457017
455473
395713
396523
396602
456088
456786
457829
397212
397572
45508
45509
45510
444532
449586
450302
451265
452516
451269
452384
388631
452404
452791
454045
386694
455560
455481
453607
457298
454551
389510
390562
390633
391041
391273
391276
391284
391308
391434
391455
391541
391606
391654
391724
391755
391778
391844
391877
391909
391977
392006
392057
392088
392099
392116
392169
392175
392200
392235
392262
392290
392295
392322
392359
392425
392449
392462
392469
392471
392521
392584
392595
392608
392613
392673
392680
392699
392702
392711
392746
392767
392818
392821
392931
393039
393287
393427
393513
393622
393749
393883
395024
457005
395371
396265
457813
396777
45515
45516
45517
45518
45519
45520
447984
447243
384939
450117
451531
452593
452622
452205
453833
387388
453283
453290
446301
452725
453927
452909
453325
453401
453916
388273
455246
455113
455334
455066
455750
456681
391511
453622
457915
455254
457126
389970
454557
390761
390771
391038
391068
391179
391457
391464
391527
391529
391530
391571
391634
391668
391719
391793
391803
391849
391978
391997
392022
392053
392055
392063
392091
392100
392159
392174
392202
392211
392253
392265
392269
392275
392325
392333
392365
392403
392450
392451
392494
392517
392548
392603
392652
392683
457420
392757
392795
392814
392857
392874
392879
392898
392939
393032
393043
393119
393134
393139
393140
393370
393447
394229
457117
455766
395714
454934
458539
396264
391881
458021
397573
397756
397924
45528
45529
45530
45532
447673
452077
451666
388190
452185
453721
386247
389006
453190
453223
454119
455173
455318
389604
390671
390492
454612
454885
455864
455684
387074
457124
457622
389459
390230
390929
390963
391113
391448
391478
391498
391534
391607
391744
391834
391840
391888
391915
391990
391991
391993
392019
392069
392084
392102
392110
392154
392183
392213
392245
392252
392264
392270
392280
392311
392328
392346
392427
392446
392453
392457
392498
392505
392556
392601
392610
392659
392677
392748
392750
392763
392771
392783
392790
392794
392797
392829
392832
392860
392877
392889
392940
392946
392971
393007
393028
393261
393324
457729
393520
393607
393676
457209
457626
457516
394933
393091
395370
392483
457517
457719
397211
397399
457323
45535
45536
450697
451156
450834
450002
452711
388011
388798
455483
453003
454715
455874
456078
387151
453217
455583
386533
454247
390472
390598
390857
391174
391369
391483
391484
391605
391620
391757
391815
391846
391872
391910
391947
391948
391987
392023
392056
392066
392080
392168
392171
392203
392271
392291
392298
392363
392408
392420
392422
392445
392507
392508
392528
392544
392593
392600
392609
392616
392637
392681
392686
392698
392760
392798
392871
392876
392886
392897
392910
392937
392943
392945
392957
393029
393038
393050
393096
393121
393138
393159
393219
393253
393854
394138
458657
395459
395712
395810
395812
396863
397570
45538
45539
45540
446685
448989
449432
450034
452164
450341
451941
448449
387123
388189
452396
452669
454320
446694
453744
454246
454037
454508
453843
454431
454029
389673
454442
389256
455859
455685
385992
457329
453617
456800
391197
391287
391559
391706
391795
391801
391804
455782
391875
391919
391922
391933
391943
392075
392098
392172
392193
392287
392296
392379
392404
392437
392506
392527
392534
392540
392557
392574
392614
392632
392701
392709
392713
392755
392779
392796
392853
392858
392869
392890
392893
392930
392938
392965
393025
393034
393044
393125
393303
393584
393609
393093
456498
396520
457016
397038
456992
457418
457210
393098
392395
397398
397755
397923
398015
45542
45544
45545
45546
45547
45548
45549
45550
45551
449709
450680
450670
451846
448872
386633
451764
453790
452049
388381
452208
454386
453834
454325
454491
454236
390394
456154
388835
458214
385977
390981
391005
391203
391429
391509
391708
391777
391812
391916
391926
392005
392021
392068
392096
392190
392195
392238
392279
392340
392353
392402
392431
392447
392503
392525
392531
392532
392553
457427
392596
392636
392657
392668
392669
392697
392724
392788
392791
392840
392845
392863
392875
392899
392900
392904
392980
392989
393011
393106
393155
393174
393222
393256
393295
393304
393319
393367
393374
393421
393680
393969
394226
457515
394491
394932
395022
393462
457907
393092
395992
457120
458019
397210
457921
397571
45553
45554
45555
45557
45558
433107
446509
449522
448074
451570
387846
452508
452904
450972
449304
452914
454333
455159
454631
388395
454927
389333
388801
455445
458036
390306
390823
390865
390883
390923
391279
391427
391446
391524
391633
391669
391810
391878
391971
392008
392260
392283
392284
392341
392348
392360
392362
392410
392433
392472
392495
392502
392512
392605
392623
392634
392672
392689
392741
392766
392773
392777
392806
392855
392865
392873
392888
392936
392951
392973
393026
393045
393052
393054
393066
393068
393083
393104
393141
393221
393263
393292
393294
393299
393356
458133
393458
393479
393521
393600
393823
393829
457524
394400
458235
395633
458227
456085
459144
398445
45564
45565
45566
45567
45568
45569
434839
450436
451053
452284
387585
451162
451873
453219
453535
451972
453511
454336
388528
451219
389083
455361
456667
456468
389676
457925
453766
390509
391220
391349
391797
391839
391906
391937
392000
392002
392181
392255
392336
392413
392456
392504
392535
392541
392612
392617
392658
392671
392706
392729
392759
392784
392785
392872
392927
392928
392962
393053
393059
393067
393109
393127
393154
393163
393204
393216
393217
393229
393241
393320
393331
393377
393446
393448
393485
393563
393574
393579
393586
393621
393690
393933
393996
458959
394579
395023
395903
396263
457186
456966
458125
398268
45573
45574
45575
45576
45577
45578
45580
45581
45582
45583
447211
449397
449632
450513
451174
450264
452004
451431
453225
451483
451940
453818
454566
454255
388966
452848
388187
455378
455055
446216
456669
389956
455994
388471
451252
390307
458137
388729
451692
389615
391282
391526
391980
391982
391983
456001
392194
392233
392317
392335
392439
392440
392520
392539
392543
392597
392625
392674