/*--------------------------------*- C++ -*----------------------------------*\
| =========                 |                                                 |
| \\      /  F ield         | OpenFOAM: The Open Source CFD Toolbox           |
|  \\    /   O peration     | Version:  2406                                  |
|   \\  /    A nd           | Website:  www.openfoam.com                      |
|    \\/     M anipulation  |                                                 |
\*---------------------------------------------------------------------------*/
FoamFile
{
    version     2.0;
    format      ascii;
    arch        "LSB;label=32;scalar=64";
    class       Cloud<dsmcParcel>;
    location    "0.009/lagrangian/dsmc";
    object      positions;
}
// * * * * * * * * * * * * * * * * * * * * * * * * * * * * * * * * * * * * * //

6236
(
(0.3006639022 0.2384344983 0) 323
(0.2690935917 0.257336026 -7.453889936e-20) 439
(0.2851948699 0.2364185833 -1.355252716e-19) 321
(0.2889337837 0.2044344656 -4.33680869e-19) 141
(0.2869945394 0.2143967923 0) 201
(0.2919624754 0.2285030141 0) 292
(0.2958351326 0.2458105612 -2.168404345e-19) 382
(0.3003423173 0.2003476152 4.33680869e-19) 113
(0.3037797508 0.1850299267 0) 32
(0.2843155641 0.196312023 -2.168404345e-19) 111
(0.298848117 0.2648128942 0) 473
(0.2966453493 0.2603879762 0) 442
(0.2669013309 0.1993755543 -2.168404345e-19) 139
(0.284891433 0.2161297695 -2.168404345e-19) 231
(0.276257962 0.2077184986 -2.168404345e-19) 170
(0.3013328102 0.2430351449 0) 353
(0.2733969268 0.2144110507 0) 199
(0.2985136628 0.2330563173 3.625301014e-19) 293
(0.2342528677 0.2091283168 -2.168404345e-19) 194
(0.3029952992 0.2818076956 0) 563
(0.2874986144 0.2300842452 -2.439454888e-19) 291
(0.3032848822 0.2097899964 0) 173
(0.2990716661 0.2446984793 0) 353
(0.2948254282 0.214203026 -2.710505431e-20) 202
(0.3000906949 0.1810024758 0) 32
(0.3018828562 0.2209536695 3.252606517e-19) 233
(0.300374971 0.2206346483 -1.084202172e-19) 233
(0.2932086826 0.2213762081 0) 232
(0.298769866 0.2028436211 1.084202172e-19) 143
(0.3013547694 0.2365268816 0) 323
(0.297493492 0.2305711405 2.168404345e-19) 293
(0.304576917 0.195348509 -4.33680869e-19) 83
(0.2912916281 0.2079832751 3.252606517e-19) 172
(0.3024569644 0.2141678293 2.168404345e-19) 203
(0.2853240524 0.2388993574 1.897353802e-19) 351
(0.2945772094 0.2431454332 -1.084202172e-19) 352
(0.2923643637 0.2383123077 0) 322
(0.2961697897 0.2551154586 0) 412
(0.2921736927 0.2310313612 8.131516294e-20) 292
(0.3030702583 0.2892365784 0) 623
(0.2752119554 0.2018229712 0) 140
(0.2771862379 0.1947482491 1.084202172e-19) 110
(0.2837477078 0.2279849579 -2.168404345e-19) 291
(0.3034286445 0.2296637098 0) 293
(0.3004842023 0.2256686695 4.065758147e-20) 263
(0.2961604836 0.1828486671 -2.168404345e-19) 31
(0.2879601359 0.1813327263 2.168404345e-19) 30
(0.3040358033 0.2204046972 5.421010862e-20) 233
(0.301829738 0.2763446899 -1.626303259e-19) 533
(0.3011004008 0.2149702026 -8.131516294e-20) 203
(0.3010387483 0.2540854816 1.897353802e-19) 413
(0.29188055 0.290971158 -1.084202172e-19) 622
(0.2792653362 0.1908667539 1.084202172e-19) 80
(0.2987418134 0.2953875431 0) 653
(0.3002166694 0.2265156814 -3.523657061e-19) 263
(0.2580180488 0.1793699146 2.168404345e-19) 48
(0.2982396232 0.2683082381 2.710505431e-19) 503
(0.3038616362 0.2719287197 -4.33680869e-19) 503
(0.2936897995 0.2377997706 2.710505431e-19) 322
(0.2782118744 0.2199730121 -4.33680869e-19) 230
(0.2729544556 0.2337962002 0) 319
(0.3034620729 0.2486489533 0) 383
(0.2872148015 0.2797410146 3.252606517e-19) 561
(0.2901646362 0.2282285376 -1.406074692e-19) 292
(0.2817320471 0.2576965019 -1.084202172e-19) 440
(0.2537483001 0.2699641249 -2.168404345e-19) 497
(0.2965225162 0.2613472996 2.168404345e-19) 442
(0.2877143196 0.2461386527 1.084202172e-19) 381
(0.2860612335 0.262658513 0) 471
(0.270349141 0.2101353926 -1.219727444e-19) 199
(0.2677101479 0.2935233351 0) 619
(0.2888390446 0.2249096476 2.168404345e-19) 261
(0.2884064801 0.2300365915 2.168404345e-19) 291
(0.2722804318 0.2025549132 0) 139
(0.2670658158 0.2178543414 5.421010862e-20) 229
(0.303429727 0.2278060032 2.168404345e-19) 263
(0.2939412228 0.2386759472 1.084202172e-19) 322
(0.3032324479 0.1872069411 1.084202172e-19) 54
(0.2933624953 0.1681614623 3.303428494e-20) 4
(0.2800498901 0.1983619156 -2.168404345e-19) 110
(0.3009855388 0.2818634534 0) 563
(0.2995776843 0.2223775404 1.084202172e-19) 233
(0.2925161776 0.1801671956 5.421010862e-20) 31
(0.2766488305 0.2932613834 0) 620
(0.2498085751 0.1789800812 -2.168404345e-19) 47
(0.2914812523 0.2180638776 -4.33680869e-19) 232
(0.2688185141 0.2853417078 -2.168404345e-19) 589
(0.3003816692 0.2811756212 -3.252606517e-19) 563
(0.2620350318 0.2771284166 2.710505431e-19) 558
(0.2920760105 0.181137765 1.084202172e-19) 31
(0.2951697564 0.2055204456 4.33680869e-19) 142
(0.3020355771 0.2775653235 -5.421010862e-19) 533
(0.2996071478 0.2581051917 1.626303259e-19) 443
(0.2965705486 0.2436092692 0) 352
(0.259814215 0.2510920996 -1.355252716e-20) 408
(0.2710868346 0.1797854258 -1.626303259e-19) 28
(0.2950239391 0.2212628381 -1.084202172e-19) 232
(0.267588955 0.2625384718 -2.168404345e-19) 469
(0.280650134 0.2318159496 0) 290
(0.2716081835 0.2132289049 0) 199
(0.272253325 0.1948393694 -4.065758147e-20) 109
(0.302209222 0.2881137625 0) 593
(0.2891993493 0.190314922 -2.168404345e-19) 81
(0.2843716446 0.2309297799 3.252606517e-19) 291
(0.3011356136 0.2443199444 -1.490777987e-19) 353
(0.2846208559 0.2412968512 -5.048316366e-19) 351
(0.2801849651 0.2147965206 0) 200
(0.2859485473 0.2327212098 -2.846030703e-19) 291
(0.2974149227 0.2675966621 -1.084202172e-19) 503
(0.2759412586 0.206260913 -1.084202172e-19) 170
(0.2863411589 0.2045407591 -4.33680869e-19) 141
(0.2904954134 0.1739291071 -1.084202172e-19) 15
(0.2891748363 0.2340983542 0) 321
(0.2936665466 0.2016280662 -4.33680869e-19) 142
(0.2962759841 0.2067608277 -2.168404345e-19) 172
(0.2782400072 0.1744738662 2.57498016e-19) 13
(0.2936355051 0.1747579299 -2.168404345e-19) 15
(0.2897355659 0.2222660876 0) 262
(0.2509900495 0.2330321399 -7.453889936e-20) 316
(0.2198806113 0.2513520238 8.67361738e-19) 402
(0.2961219766 0.1997652476 0) 112
(0.3003392302 0.187046111 -3.04931861e-20) 54
(0.2637779419 0.2517548823 0) 408
(0.2632927438 0.2101435227 0) 198
(0.303783335 0.2598907358 2.168404345e-19) 443
(0.2884962141 0.2800355689 -1.084202172e-19) 561
(0.2907773504 0.2811827395 5.421010862e-20) 562
(0.287543451 0.1982271094 -4.33680869e-19) 111
(0.281865015 0.2810001814 0) 560
(0.2770423376 0.2726698594 0) 530
(0.2718225384 0.2668381979 0) 499
(0.304481356 0.1918841499 -4.33680869e-19) 83
(0.2933900974 0.2176851182 -4.33680869e-19) 232
(0.2836711905 0.1931354718 1.084202172e-19) 81
(0.3025416387 0.2202342845 -3.252606517e-19) 233
(0.3034814854 0.2625815539 -2.168404345e-19) 473
(0.30133017 0.2327805242 -2.710505431e-20) 293
(0.2704202336 0.2099573717 -6.776263578e-21) 199
(0.297989536 0.233579335 2.168404345e-19) 293
(0.277177369 0.2025237781 -5.421010862e-20) 140
(0.2854241188 0.2157623937 -2.168404345e-19) 201
(0.2984162181 0.2304400864 -2.168404345e-19) 293
(0.3043873832 0.2055060189 0) 143
(0.281629113 0.2804102573 0) 560
(0.2709120118 0.1824988887 0) 50
(0.2972176699 0.293522393 -2.168404345e-19) 623
(0.2915244468 0.1982377103 -1.084202172e-19) 112
(0.2971206225 0.1766206447 0) 15
(0.3042098715 0.2875427696 2.168404345e-19) 593
(0.246715726 0.221320453 -1.626303259e-19) 256
(0.2857025664 0.2142095257 -2.168404345e-19) 201
(0.2830572977 0.2685085318 -2.168404345e-19) 501
(0.2850535027 0.1873414295 -2.168404345e-19) 52
(0.2735233907 0.2024549346 0) 139
(0.2495946985 0.2186794567 4.33680869e-19) 256
(0.2840991308 0.2482492576 -3.523657061e-19) 381
(0.2428244645 0.2110600947 0) 195
(0.2716233404 0.1882305104 -1.084202172e-19) 79
(0.3046589259 0.2215122346 0) 233
(0.2918639319 0.250987884 0) 412
(0.2860220246 0.2029202754 -2.710505431e-20) 141
(0.2823460078 0.251527066 0) 411
(0.2735917363 0.2066923983 2.168404345e-19) 169
(0.2939549152 0.2603977562 4.33680869e-19) 442
(0.2612787663 0.2560448732 -5.421010862e-20) 438
(0.2720410627 0.1905178619 0) 79
(0.2995300095 0.1990018862 1.626303259e-19) 113
(0.3015203439 0.2469110144 0) 383
(0.292926007 0.2083450873 3.04931861e-19) 172
(0.2900948032 0.1696464224 -1.626303259e-19) 4
(0.2832673702 0.191420264 2.168404345e-19) 81
(0.3009029949 0.2693260731 8.131516294e-20) 503
(0.2825712248 0.2927567503 0) 621
(0.303040701 0.2020839389 -2.168404345e-19) 143
(0.290458023 0.2302587266 -2.168404345e-19) 292
(0.3010352468 0.2564795254 0) 443
(0.2842166257 0.2334543496 1.084202172e-19) 321
(0.286038955 0.2673386351 2.168404345e-19) 501
(0.2717276297 0.169676411 -4.33680869e-19) 12
(0.2881404166 0.2278960588 2.168404345e-19) 291
(0.2996028316 0.2185038312 -1.084202172e-19) 233
(0.2538985955 0.2047505724 -5.421010862e-20) 167
(0.3045635881 0.2502506725 0) 383
(0.2973498521 0.2249613176 0) 263
(0.2730440871 0.2045456518 0) 169
(0.2755152546 0.2402018674 -4.33680869e-19) 350
(0.2754157684 0.206569713 0) 170
(0.2902253493 0.2385620349 1.76182853e-19) 322
(0.2727912112 0.18367982 4.031876829e-19) 50
(0.2745541512 0.2617836086 2.168404345e-19) 470
(0.291176137 0.2390949895 -2.168404345e-19) 352
(0.2847230564 0.2510357236 -1.084202172e-19) 411
(0.2538657591 0.1984472091 -2.168404345e-19) 137
(0.2773592041 0.2341778926 -1.084202172e-19) 320
(0.3015789547 0.1899162853 -1.626303259e-19) 54
(0.2892050476 0.2559447187 2.168404345e-19) 441
(0.3041312751 0.2182994499 2.168404345e-19) 233
(0.2697390051 0.1953178484 1.897353802e-19) 109
(0.2763281278 0.2590203956 -1.965116438e-19) 440
(0.2276947422 0.2398843133 0) 343
(0.3028092618 0.2586891165 -8.131516294e-20) 443
(0.1791425295 0.2484950821 2.371692252e-19) 397
(0.2776310279 0.2897073273 -1.626303259e-19) 620
(0.3039850116 0.2870057917 4.33680869e-19) 593
(0.2602271641 0.176098972 0) 27
(0.2959389586 0.1839302376 0) 31
(0.2930048062 0.2623066568 4.065758147e-19) 472
(0.2410260296 0.1916259114 0) 105
(0.282557963 0.1999270717 -5.421010862e-20) 141
(0.2817532999 0.211005789 2.168404345e-19) 200
(0.2838409385 0.1823393429 0) 30
(0.2931422528 0.2577326059 -5.421010862e-20) 442
(0.2755875264 0.2078623833 0) 170
(0.2778462108 0.2297715266 1.219727444e-19) 290
(0.2530599497 0.2821231953 0) 557
(0.3022870556 0.2351343443 -2.168404345e-19) 323
(0.2775861123 0.1997932341 1.626303259e-19) 140
(0.280092776 0.2003759572 1.084202172e-19) 140
(0.2881568353 0.2209239955 0) 231
(0.2913905126 0.1951895541 -6.505213035e-19) 112
(0.2845752692 0.2543658474 1.084202172e-19) 411
(0.2491679363 0.2378634743 3.252606517e-19) 346
(0.2914891828 0.2569983785 4.33680869e-19) 442
(0.3019146587 0.2530664639 -2.710505431e-19) 413
(0.2975454039 0.22798141 0) 263
(0.2900990269 0.2503393212 -2.168404345e-19) 412
(0.2873657277 0.1934475403 0) 81
(0.2709733643 0.2212233424 0) 259
(0.2861353715 0.2633628993 -1.084202172e-19) 471
(0.30326163 0.291768723 -3.997995511e-19) 623
(0.2659714204 0.2077065316 4.33680869e-19) 168
(0.303507922 0.2216302298 0) 233
(0.2888900671 0.1983673015 -2.168404345e-19) 111
(0.2883368851 0.206089573 4.33680869e-19) 171
(0.279818799 0.2938149489 1.084202172e-19) 620
(0.2944436626 0.272999866 2.168404345e-19) 532
(0.2464059483 0.2265786571 3.794707604e-19) 286
(0.2911607419 0.2269402754 0) 262
(0.2810436646 0.2023171579 0) 140
(0.2327822983 0.2541582544 0) 434
(0.2890007354 0.2645939279 2.168404345e-19) 471
(0.2820666343 0.2449497732 0) 381
(0.2605593555 0.1941623962 2.710505431e-19) 108
(0.2837204477 0.213763181 5.421010862e-20) 201
(0.2298454945 0.1810280425 2.168404345e-19) 74
(0.2891741173 0.1820944752 0) 30
(0.2977522571 0.2268673087 -1.084202172e-19) 263
(0.2912537619 0.2202366654 2.168404345e-19) 232
(0.2936457105 0.1903425082 0) 82
(0.3036872568 0.2233511643 4.33680869e-19) 233
(0.2970242253 0.2199145867 -4.878909776e-19) 232
(0.2705497631 0.2147356118 0) 229
(0.2948691005 0.1733904417 4.33680869e-19) 15
(0.3032518233 0.1683302094 6.505213035e-19) 0
(0.2900617932 0.228286414 8.131516294e-20) 292
(0.2974958473 0.2378158786 0) 323
(0.2380395805 0.2100633124 1.829591166e-19) 195
(0.2942057983 0.2460385993 -2.168404345e-19) 382
(0.2476015758 0.1842062965 6.91178885e-19) 76
(0.3011722331 0.2240861446 0) 263
(0.2820927205 0.2161786677 -5.421010862e-20) 231
(0.2973420611 0.2664636432 0) 473
(0.235190025 0.2245759279 -2.168404345e-19) 284
(0.2948535633 0.2141406461 -1.355252716e-19) 202
(0.2707138735 0.2331392806 2.168404345e-19) 319
(0.2809034537 0.1700045116 2.168404345e-19) 2
(0.2938191818 0.2692141277 -2.710505431e-19) 502
(0.2557220914 0.2026730187 2.168404345e-19) 167
(0.2937666186 0.1980603481 1.897353802e-19) 112
(0.3009182335 0.1924663884 6.776263578e-20) 83
(0.280525612 0.2281620009 -2.168404345e-19) 290
(0.3005938369 0.2701369003 -1.965116438e-19) 503
(0.2468072146 0.240977791 2.168404345e-19) 346
(0.2918788834 0.2139925218 0) 202
(0.2740285396 0.2173759875 -3.794707604e-19) 229
(0.2557801916 0.2194440785 -2.168404345e-19) 257
(0.270216461 0.2643279619 1.084202172e-19) 469
(0.2827510222 0.2895854571 3.252606517e-19) 621
(0.2645564235 0.2496892842 4.33680869e-19) 408
(0.2308872453 0.2045266434 2.168404345e-19) 164
(0.2794900268 0.2349559245 2.439454888e-19) 320
(0.2902442804 0.2501057617 -4.33680869e-19) 412
(0.2999075527 0.2115776675 0) 173
(0.251536553 0.2636787365 0) 467
(0.2673495054 0.2609639956 -1.084202172e-19) 469
(0.2723719905 0.1822604174 0) 50
(0.2942992383 0.2679203386 0) 502
(0.2885432474 0.2428653688 2.168404345e-19) 351
(0.2536712452 0.2466384338 -1.084202172e-19) 377
(0.2858095921 0.2328705913 -6.776263578e-20) 291
(0.3021851103 0.2946532557 0) 653
(0.249069773 0.2127269624 4.33680869e-19) 226
(0.2943090501 0.2270148967 1.084202172e-19) 262
(0.3014468889 0.2316501728 0) 293
(0.2994500399 0.2245135854 1.084202172e-19) 263
(0.2941671345 0.2254557272 0) 262
(0.2718856413 0.2143332175 3.252606517e-19) 199
(0.2838090718 0.2079900024 -5.421010862e-20) 171
(0.2951334358 0.2168411534 1.084202172e-19) 202
(0.3022854312 0.2759609155 3.252606517e-19) 533
(0.2908152825 0.2435980048 8.470329473e-20) 352
(0.2826245041 0.2550933107 -2.168404345e-19) 411
(0.2777659526 0.1974010232 0) 110
(0.2937997581 0.258433697 3.184843882e-19) 442
(0.2908807892 0.2116392389 2.168404345e-19) 202
(0.2972045327 0.2260401317 1.084202172e-19) 263
(0.2891063956 0.2717182666 4.33680869e-19) 501
(0.2799800344 0.2322883956 0) 290
(0.2664229318 0.2815513194 -2.168404345e-19) 558
(0.299565561 0.2854468716 2.981555974e-19) 593
(0.3035221715 0.2793939597 -2.168404345e-19) 563
(0.2999891037 0.2749979485 -1.626303259e-19) 533
(0.3016280051 0.2220849348 -2.710505431e-19) 233
(0.3013967652 0.1780300043 -3.523657061e-19) 16
(0.2801346016 0.2899591223 2.168404345e-19) 620
(0.2953949688 0.2616737634 -2.168404345e-19) 472
(0.2807723932 0.2256561368 -2.168404345e-19) 260
(0.275247124 0.1729352677 -2.981555974e-19) 13
(0.2902564471 0.2769242314 0) 532
(0.277174791 0.2099395335 2.168404345e-19) 200
(0.2795768071 0.2375040699 3.252606517e-19) 320
(0.2992468627 0.2191278476 1.355252716e-20) 233
(0.2718459501 0.2681745473 2.710505431e-19) 499
(0.2645961562 0.1850682627 -2.168404345e-19) 49
(0.2848286835 0.1861561546 -6.776263578e-20) 52
(0.2860734627 0.1997768504 -2.168404345e-19) 141
(0.286403266 0.2077070304 -2.710505431e-20) 171
(0.2709520673 0.234897857 -2.710505431e-19) 319
(0.2616975513 0.2300888155 -1.084202172e-19) 288
(0.2907152939 0.2344213529 -2.168404345e-19) 322
(0.2484835261 0.237194605 -2.168404345e-19) 346
(0.2927672574 0.292696177 1.084202172e-19) 622
(0.2776959443 0.1948410361 3.523657061e-19) 110
(0.2966900739 0.2330222562 4.33680869e-19) 292
(0.2935496345 0.2365921161 1.355252716e-20) 322
(0.2719116122 0.2759141395 -5.421010862e-19) 529
(0.2799279614 0.2532422602 0) 410
(0.2726684017 0.211477051 -1.084202172e-19) 199
(0.2593738448 0.1706847164 0) 11
(0.2484843021 0.2769450551 0) 556
(0.2678782907 0.2314307012 -1.084202172e-19) 289
(0.2597792516 0.2634926032 0) 468
(0.2989161281 0.177582272 1.084202172e-19) 16
(0.3017731565 0.2431644921 -5.421010862e-20) 353
(0.2891533555 0.1907683223 1.084202172e-19) 81
(0.301495067 0.2388588562 5.421010862e-20) 323
(0.2734837537 0.207888468 -2.168404345e-19) 169
(0.2975226041 0.2495141164 0) 383
(0.3013171075 0.2600341798 -2.168404345e-19) 443
(0.3017911058 0.2482178304 -1.626303259e-19) 383
(0.2705316758 0.2354203435 -9.486769009e-20) 319
(0.2825672285 0.2536438001 0) 411
(0.3045805152 0.2773665087 0) 533
(0.2985534734 0.2478603719 -1.626303259e-19) 383
(0.2364182366 0.2338521047 0) 315
(0.3005082777 0.2087242657 -3.252606517e-19) 173
(0.2994756299 0.2614525164 0) 443
(0.2767461717 0.2471565126 0) 380
(0.2716527186 0.258658773 0) 439
(0.2723274981 0.1735025916 0) 12
(0.2792535151 0.2600396197 2.168404345e-19) 440
(0.2656239814 0.2690080815 0) 498
(0.2593554447 0.2786642452 0) 558
(0.2753500394 0.2182485029 2.981555974e-19) 230
(0.2972630053 0.1886563102 -2.168404345e-19) 54
(0.2649544294 0.2439424831 2.168404345e-19) 378
(0.299318745 0.2933644048 -5.421010862e-20) 623
(0.2840309723 0.2820733024 5.421010862e-20) 561
(0.2629607766 0.2079429654 -1.355252716e-20) 168
(0.3037190728 0.213529007 0) 203
(0.2994605679 0.2693015448 -4.33680869e-19) 503
(0.2784757827 0.217127345 -2.168404345e-19) 230
(0.2994662285 0.2282525217 4.33680869e-19) 263
(0.2624773083 0.2158225552 0) 228
(0.2448806067 0.2039266177 -1.626303259e-19) 166
(0.260371109 0.1926280118 1.084202172e-19) 108
(0.2536663629 0.2387404082 1.084202172e-19) 347
(0.2970098737 0.216011139 0) 202
(0.3046363682 0.2091296233 1.084202172e-19) 173
(0.2797994557 0.2250271634 2.168404345e-19) 260
(0.2545524035 0.2371932133 -1.626303259e-19) 347
(0.2795933382 0.2757197944 -3.252606517e-19) 530
(0.2789918129 0.229883086 1.626303259e-19) 290
(0.296720128 0.2330949824 4.33680869e-19) 292
(0.304396879 0.1957847863 -2.168404345e-19) 83
(0.2156322696 0.2770643283 -2.168404345e-19) 552
(0.2621225079 0.2637779081 0) 468
(0.2968844284 0.2695677229 -1.355252716e-20) 502
(0.2737639664 0.2441157586 0) 379
(0.2888161354 0.2787501555 0) 561
(0.2912311656 0.2005153439 0) 142
(0.2654295169 0.198636655 0) 138
(0.3010071144 0.2315782053 2.524158183e-19) 293
(0.2987683154 0.2685222272 0) 503
(0.2433736165 0.2534994643 0) 435
(0.2629434929 0.2677573971 2.168404345e-19) 498
(0.2996765291 0.1975525027 4.201283418e-19) 113
(0.2846321411 0.204076081 -1.084202172e-19) 141
(0.2949864175 0.2242552236 4.33680869e-19) 262
(0.2591103663 0.2615869191 2.168404345e-19) 468
(0.2732133542 0.1874487363 -2.168404345e-19) 79
(0.3008990842 0.228119949 2.168404345e-19) 263
(0.281264209 0.2078287975 2.168404345e-19) 170
(0.2918263712 0.1941679234 0) 82
(0.2682215758 0.1800750278 -1.084202172e-19) 28
(0.2730820778 0.2139163639 0) 199
(0.273697777 0.2596730184 4.33680869e-19) 439
(0.2958909011 0.2309808498 3.388131789e-20) 292
(0.3039466975 0.2591084277 2.168404345e-19) 443
(0.2971710361 0.2472227651 -5.421010862e-20) 382
(0.2990736523 0.1897178643 2.168404345e-19) 54
(0.2592788899 0.2679911694 4.33680869e-19) 498
(0.2770414158 0.2161285694 1.084202172e-19) 230
(0.2930706196 0.2144524648 1.76182853e-19) 202
(0.2852526736 0.2734619575 1.084202172e-19) 531
(0.2772000088 0.2180504853 2.710505431e-19) 230
(0.2890359848 0.19973466 2.168404345e-19) 111
(0.2783503522 0.1820793322 0) 51
(0.2737545594 0.1814666639 6.505213035e-19) 50
(0.2985710346 0.2867759265 2.168404345e-19) 593
(0.2920649855 0.203889308 2.168404345e-19) 142
(0.2755366495 0.2056251881 1.084202172e-19) 170
(0.2655101843 0.2089517847 0) 198
(0.2790485607 0.2310690136 3.252606517e-19) 290
(0.2551753834 0.2046356611 1.490777987e-19) 167
(0.2629092574 0.2461120845 7.792703115e-20) 378
(0.2851905392 0.2540222902 -3.252606517e-19) 411
(0.2418832051 0.2517112148 2.168404345e-19) 405
(0.2615892168 0.2384807749 0) 348
(0.2819204082 0.1905734041 7.369186641e-20) 80
(0.2653891113 0.2575618138 0) 438
(0.2674761817 0.2650126626 0) 469
(0.2849766502 0.2586705022 -1.423015351e-19) 441
(0.2844056035 0.2331094515 -3.252606517e-19) 321
(0.2481909495 0.2226111428 1.084202172e-19) 256
(0.2798684934 0.2608846093 2.168404345e-19) 470
(0.2762557606 0.2572875216 -2.168404345e-19) 440
(0.2742654563 0.1886769491 2.168404345e-19) 79
(0.2826560198 0.2394048964 -2.168404345e-19) 351
(0.2527793281 0.2452468511 2.710505431e-19) 377
(0.2790176537 0.2242625445 -3.252606517e-19) 260
(0.2489815092 0.2240487409 -4.33680869e-19) 256
(0.2959063465 0.2374574371 0) 322
(0.2670013541 0.2199307022 -1.76182853e-19) 229
(0.2776590838 0.262045537 -5.421010862e-20) 470
(0.3005642819 0.2476808419 -8.131516294e-20) 383
(0.2780730237 0.2254955201 2.168404345e-19) 260
(0.2975711893 0.249806691 0) 383
(0.257982015 0.2461256855 -4.33680869e-19) 377
(0.2942156284 0.181602818 -1.084202172e-19) 31
(0.297613516 0.2925757214 1.084202172e-19) 623
(0.2475240486 0.2974377054 8.131516294e-20) 646
(0.2810873428 0.2186284038 4.33680869e-19) 230
(0.2443483947 0.2455117281 -1.084202172e-19) 376
(0.267023497 0.2069788392 0) 169
(0.3020849987 0.2777974797 -1.084202172e-19) 533
(0.265279095 0.2805594893 -4.33680869e-19) 558
(0.2788123446 0.1900677716 -1.084202172e-19) 80
(0.2973667891 0.2249213225 -2.168404345e-19) 263
(0.2891744761 0.2999339118 -2.168404345e-19) 651
(0.2832934803 0.258160592 2.439454888e-19) 441
(0.2951008812 0.273555152 -2.168404345e-19) 532
(0.2891256519 0.2863804102 2.168404345e-19) 591
(0.2839287958 0.2194792714 1.626303259e-19) 231
(0.2935433675 0.2408467724 1.084202172e-19) 352
(0.299438945 0.19900171 0) 113
(0.2704149726 0.2079441928 0) 169
(0.2893639935 0.1997255284 -4.33680869e-19) 111
(0.2691755647 0.2665274901 3.252606517e-19) 499
(0.2694496251 0.2826808442 4.33680869e-19) 559
(0.260403339 0.202652177 0) 168
(0.2910009468 0.2942578874 -3.252606517e-19) 622
(0.2754058345 0.2709291616 -1.43995601e-19) 500
(0.2818749681 0.2715170107 0) 500
(0.2950024949 0.2430104196 5.421010862e-19) 352
(0.294287451 0.2470994372 0) 382
(0.278622746 0.2086304668 -1.626303259e-19) 170
(0.2969013799 0.2024497936 2.168404345e-19) 142
(0.2654816661 0.2469569563 -2.168404345e-19) 378
(0.2708621903 0.2796664781 -7.047314121e-19) 559
(0.2191878523 0.1978103777 -2.168404345e-19) 162
(0.2393845211 0.2862292812 -1.626303259e-19) 585
(0.2410093511 0.2099842233 1.084202172e-19) 195
(0.2866031869 0.2736214421 2.168404345e-19) 531
(0.2266297514 0.1765003997 -1.084202172e-19) 44
(0.2677298919 0.2674275596 2.168404345e-19) 499
(0.3020526932 0.2864160953 2.168404345e-19) 593
(0.2996728311 0.2739487739 0) 533
(0.2780333858 0.2244740818 5.421010862e-20) 260
(0.2813712066 0.2283892482 -2.168404345e-19) 290
(0.2925329958 0.2790760551 0) 562
(0.2854358033 0.2865509744 5.421010862e-20) 591
(0.2751180721 0.272531705 -4.607859233e-19) 530
(0.254313683 0.217299233 -1.626303259e-19) 227
(0.2468548153 0.1896920982 5.421010862e-20) 106
(0.3024623728 0.2423340805 8.131516294e-20) 353
(0.2805872299 0.2743303151 -1.084202172e-19) 530
(0.239183577 0.2430544163 1.084202172e-19) 375
(0.3006989382 0.2905245272 -2.981555974e-19) 623
(0.2729646614 0.2468470482 0) 379
(0.254557623 0.2120958123 -4.33680869e-19) 197
(0.2714236075 0.2101705397 -4.33680869e-19) 199
(0.2752499591 0.2032043558 -6.776263578e-20) 140
(0.2832275019 0.1891494462 -1.626303259e-19) 81
(0.2892066778 0.2473730901 2.168404345e-19) 381
(0.3019412608 0.2570166263 0) 443
(0.2796615041 0.2399836447 1.084202172e-19) 350
(0.2777734644 0.2692073204 2.710505431e-20) 500
(0.2742521525 0.2107806945 0) 199
(0.2431018358 0.1950050175 4.33680869e-19) 135
(0.2618285448 0.2029543733 0) 168
(0.2848148723 0.2591053208 -4.33680869e-19) 441
(0.2937090088 0.294828982 -2.168404345e-19) 652
(0.2757403681 0.2367058011 2.168404345e-19) 320
(0.2861429391 0.2761977503 -2.981555974e-19) 531
(0.2928071915 0.2100676365 -1.084202172e-19) 172
(0.3015060457 0.2402949731 -2.168404345e-19) 353
(0.2950657525 0.227456588 5.421010862e-19) 262
(0.2940079434 0.2228584804 0) 262
(0.2710845893 0.1887821769 -1.626303259e-19) 79
(0.2852036449 0.2392510756 2.710505431e-19) 351
(0.2784226652 0.2108763925 4.33680869e-19) 200
(0.271612861 0.264339144 1.084202172e-19) 469
(0.2671251173 0.2590582926 2.168404345e-19) 439
(0.2490094351 0.2991973968 3.252606517e-19) 646
(0.2990651986 0.2617786469 0) 473
(0.2712372415 0.2193598213 0) 229
(0.2992061882 0.2854689443 -3.252606517e-19) 593
(0.2650503946 0.2995051997 -2.168404345e-19) 648
(0.2998332508 0.2966243743 -2.710505431e-20) 653
(0.2698298342 0.2511039229 -4.878909776e-19) 409
(0.2321644855 0.2004980723 -2.439454888e-19) 164
(0.2924615579 0.2409283344 2.168404345e-19) 352
(0.2740403961 0.2583186826 2.168404345e-19) 439
(0.2997342399 0.2264950388 5.421010862e-20) 263
(0.2681126947 0.2178444803 5.421010862e-20) 229
(0.2994280137 0.2480294215 -1.355252716e-19) 383
(0.2857132461 0.2054529547 2.541098842e-19) 171
(0.266543603 0.2176768516 0) 228
(0.2647715515 0.2271347529 4.33680869e-19) 288
(0.2724491124 0.273896126 -4.33680869e-19) 529
(0.2977375923 0.2311217585 2.168404345e-19) 293
(0.2379368874 0.1881557405 0) 105
(0.2788422482 0.2899600719 2.168404345e-19) 620
(0.2922930124 0.2255768849 2.168404345e-19) 262
(0.2392566733 0.241838769 1.084202172e-19) 375
(0.2606854949 0.2905719475 2.168404345e-19) 618
(0.243455681 0.2199000522 -3.252606517e-19) 255
(0.2971753384 0.251273762 -2.168404345e-19) 412
(0.2976014221 0.2645710816 2.710505431e-19) 473
(0.2481817414 0.2810599526 2.168404345e-19) 556
(0.2598223295 0.1850146781 2.168404345e-19) 78
(0.2882115332 0.2602630391 0) 441
(0.2852449084 0.2111628018 -1.084202172e-19) 201
(0.2968397284 0.1998481095 2.168404345e-19) 112
(0.2744831377 0.2760974957 -4.33680869e-19) 530
(0.2931347677 0.2362898503 2.710505431e-19) 322
(0.2971866636 0.2513371182 2.168404345e-19) 413
(0.283202183 0.2180443115 0) 231
(0.2996959539 0.2049219094 -1.084202172e-19) 143
(0.2773049395 0.2516928585 -5.421010862e-20) 410
(0.2584062628 0.2484014693 -4.33680869e-19) 407
(0.2733449785 0.1839234297 2.168404345e-19) 50
(0.2852449811 0.2890375445 2.710505431e-19) 621
(0.2845674159 0.223902324 -5.421010862e-20) 261
(0.289201585 0.2348634168 4.33680869e-19) 321
(0.2620563122 0.2321906234 -1.626303259e-19) 318
(0.2632828749 0.2838716298 2.168404345e-19) 588
(0.2845770548 0.2562743585 -2.168404345e-19) 441
(0.2575686685 0.2652682185 4.33680869e-19) 467
(0.2743003102 0.2845432632 2.168404345e-19) 589
(0.2534612917 0.2174491144 5.421010862e-20) 227
(0.2016458119 0.2254091905 0) 280
(0.258160143 0.2259491699 -2.168404345e-19) 287
(0.2836063879 0.272561535 2.168404345e-19) 531
(0.2934211682 0.193683931 6.776263578e-21) 82
(0.2126955222 0.2490053195 2.168404345e-19) 401
(0.2353937835 0.2526761246 -4.33680869e-19) 434
(0.3036170448 0.2470664385 0) 383
(0.2723547065 0.2589373011 -2.168404345e-19) 439
(0.2690725187 0.2157337671 0) 229
(0.2402797972 0.2321647504 1.490777987e-19) 315
(0.258243362 0.2083813387 2.168404345e-19) 197
(0.2918807276 0.2439665776 1.084202172e-19) 352
(0.2610575214 0.2988153049 8.131516294e-20) 648
(0.2635243969 0.2982247044 -2.168404345e-19) 648
(0.2861144977 0.2636074763 1.084202172e-19) 471
(0.2236760077 0.2327966104 4.33680869e-19) 313
(0.2818491953 0.2502742995 0) 410
(0.298759491 0.2104734878 -1.084202172e-19) 173
(0.2682834096 0.2472288259 0) 379
(0.2537168742 0.1986488988 1.76182853e-19) 137
(0.2940488187 0.2840466296 -4.33680869e-19) 592
(0.2856342029 0.2300087808 3.184843882e-19) 291
(0.2940417385 0.2738904694 -1.084202172e-19) 532
(0.2782654087 0.292307291 -4.743384505e-19) 620
(0.2706925991 0.2190616757 -1.084202172e-19) 229
(0.2743937342 0.2243774938 0) 260
(0.2640975393 0.2254539054 1.084202172e-19) 258
(0.2841894006 0.2940158332 4.33680869e-19) 621
(0.2583314241 0.2080284779 0) 197
(0.2862694256 0.236101015 5.421010862e-20) 321
(0.2699156305 0.2384228496 3.794707604e-19) 349
(0.2644893579 0.1875920009 -1.084202172e-19) 78
(0.2628468475 0.2133229859 0) 198
(0.2638840958 0.2446103581 6.505213035e-19) 378
(0.2932625498 0.2627027726 1.084202172e-19) 472
(0.2450871796 0.2372323575 0) 346
(0.2959687762 0.2021708652 0) 142
(0.28954697 0.2061597843 4.33680869e-19) 171
(0.2302353514 0.2730253828 0) 524
(0.2722170793 0.1923620877 -2.168404345e-19) 109
(0.3010122205 0.2380879832 2.659683454e-19) 323
(0.2766578499 0.2565936268 1.524659305e-19) 440
(0.2593259294 0.1957725154 -2.168404345e-19) 108
(0.2546956564 0.2199918942 4.878909776e-19) 257
(0.2908936897 0.2257872784 -2.168404345e-19) 262
(0.2913148236 0.2342223455 0) 322
(0.2528334778 0.2571357017 1.084202172e-19) 437
(0.2737671492 0.2065594717 2.168404345e-19) 169
(0.2495057605 0.2871971116 2.168404345e-19) 586
(0.2715025141 0.1710203683 0) 12
(0.3035124469 0.2416711898 -3.252606517e-19) 353
(0.285194688 0.2008077952 0) 141
(0.261756865 0.2417904101 0) 348
(0.2870618735 0.2580864717 6.776263578e-20) 441
(0.3027771362 0.2797307505 -3.252606517e-19) 563
(0.274539956 0.1978774436 -2.168404345e-19) 110
(0.2860390359 0.184247838 5.421010862e-19) 52
(0.2814641568 0.2651662418 -2.168404345e-19) 470
(0.2887579408 0.2835027307 2.168404345e-19) 591
(0.2493727689 0.1998292263 8.67361738e-19) 136
(0.2776663735 0.2400051419 -3.252606517e-19) 350
(0.2858522359 0.2704610265 4.201283418e-19) 501
(0.2900459679 0.2056876717 0) 172
(0.2567449536 0.2537310235 1.084202172e-19) 407
(0.275894965 0.2591869945 -2.168404345e-19) 440
(0.2534721919 0.2439052186 -2.168404345e-19) 377
(0.2970479017 0.2352125088 0) 322
(0.2676605451 0.2142209845 -1.084202172e-19) 199
(0.2751846486 0.2537469073 0) 410
(0.2410893734 0.2510665788 -1.084202172e-19) 405
(0.2701042627 0.2196977791 2.168404345e-19) 229
(0.3025605417 0.2057451168 -1.084202172e-19) 143
(0.2935267321 0.2315120387 -3.930232875e-19) 292
(0.2912964175 0.2964809385 0) 652
(0.2531086756 0.2428877525 -2.168404345e-19) 377
(0.2458359627 0.2402800858 1.626303259e-19) 346
(0.2678520249 0.2205713533 0) 259
(0.2483455192 0.2813671764 -1.084202172e-19) 556
(0.2884142116 0.2519506701 -1.084202172e-19) 411
(0.2468234057 0.2141126892 -2.168404345e-19) 226
(0.2405970552 0.1728642095 -5.421010862e-20) 24
(0.2166794608 0.2879874862 2.168404345e-19) 612
(0.2996788629 0.2315588946 -5.421010862e-20) 293