/*--------------------------------*- C++ -*----------------------------------*\
| =========                 |                                                 |
| \\      /  F ield         | OpenFOAM: The Open Source CFD Toolbox           |
|  \\    /   O peration     | Version:  2406                                  |
|   \\  /    A nd           | Website:  www.openfoam.com                      |
|    \\/     M anipulation  |                                                 |
\*---------------------------------------------------------------------------*/
FoamFile
{
    version     2.0;
    format      ascii;
    arch        "LSB;label=32;scalar=64";
    class       vectorField;
    location    "0.009/lagrangian/dsmc";
    object      U;
}
// * * * * * * * * * * * * * * * * * * * * * * * * * * * * * * * * * * * * * //


6236
(
(1402.522367 576.6231687 862.3825774)
(223.0067325 694.5461154 23.80087047)
(1605.697037 468.4147369 591.3506703)
(1509.772536 447.2753776 820.6213448)
(1011.188212 366.0805512 -331.6488049)
(841.5815436 850.4638958 283.2241374)
(1337.721527 537.693431 -936.8270166)
(2628.966575 608.131542 -545.1024806)
(1465.033526 -776.5824124 -208.675823)
(727.1355422 41.48517042 -343.9010883)
(388.9390881 1242.718829 926.5025987)
(1246.958801 455.3643593 -604.8592522)
(1247.8238 819.9255235 -150.968234)
(1130.972577 158.2469376 -247.666114)
(951.0360136 458.9670712 85.96882849)
(1421.616816 -88.33935115 267.649935)
(640.5100578 491.406944 -816.0098139)
(847.4720471 594.7625301 372.7600543)
(707.1927566 315.9499024 -273.6911862)
(1429.857792 660.2796805 -289.4720487)
(1784.982259 212.8896166 220.1766216)
(1913.642038 -237.8332112 1011.899562)
(1368.297719 -29.78647937 -467.4509347)
(1827.829505 248.2133115 -36.55278693)
(1296.510983 10.22242584 -17.22028356)
(1301.459929 -428.9968618 -151.989851)
(883.7519868 792.5134174 -2.867650515)
(922.0456055 943.8370174 306.802698)
(2101.427987 1003.208686 248.353761)
(1334.271176 -494.7366407 -75.16630898)
(2003.387307 356.0711424 -611.1322652)
(1582.08125 600.5216517 128.9178042)
(960.2951162 364.6274054 -537.0154713)
(1005.575497 216.2497391 -150.883841)
(1022.594412 -72.90345687 135.4948749)
(1048.079341 306.1360385 -484.90011)
(1508.596158 355.2061132 368.1567877)
(1124.045072 1009.64677 563.628575)
(1324.020218 1023.589626 -482.2343095)
(1365.299258 67.83436326 -370.152361)
(1538.678409 461.7833707 -355.968471)
(1673.343147 1227.029104 -14.79600923)
(1120.1258 -86.10212182 -231.0491008)
(768.9637598 427.7374174 -757.5527866)
(1284.803411 245.554484 205.8094729)
(1027.538077 -607.1641288 155.1121118)
(964.9402765 316.0391417 456.2875679)
(1358.791044 1183.450409 46.41269253)
(1831.045801 891.0890623 -585.6997483)
(2305.382036 386.1839486 90.95723523)
(1450.688894 -193.0011468 -554.9466387)
(1631.130233 328.2656087 260.8640212)
(1984.122618 1084.000935 918.5115119)
(1785.056515 198.3554301 -469.0151636)
(1110.908147 96.81097343 -446.0859448)
(784.3222072 261.9443796 162.5591614)
(1568.40483 -158.4767199 198.8993464)
(1562.469404 409.1321826 -137.3249149)
(1672.558803 832.5944998 -558.8053315)
(1235.877072 -93.34627649 457.1957667)
(1306.47542 -115.5376502 122.00575)
(1442.265923 176.6982199 52.68231205)
(1698.960043 255.9625473 113.8624367)
(1100.770873 130.6408113 337.0140446)
(1662.670986 -104.2349576 -193.9203057)
(1148.944434 58.04075949 -394.2067389)
(994.1610203 -66.40675096 -100.3060899)
(867.0476254 431.3068333 -427.2461689)
(1656.580615 299.3481962 -58.86384713)
(316.3515242 -71.35679242 -231.1061764)
(954.7307866 266.7301819 -447.8003087)
(1689.627758 134.3304412 -149.9849929)
(1286.922183 -136.357618 200.2150683)
(1298.092571 -213.6938307 -13.31546891)
(1437.450586 -498.4836194 63.62951024)
(660.3673304 -82.07128216 15.26331515)
(1701.081718 -373.662325 -18.5619554)
(1392.302975 824.9942459 421.9680285)
(1521.8944 94.15700795 264.6959304)
(2150.058182 -82.01687645 -398.4327379)
(1274.83212 59.58287948 152.0894472)
(491.5280354 -659.9024403 -270.6052872)
(1214.664998 -220.652739 -615.5615873)
(1070.605623 -72.97838268 -148.1431675)
(1391.470333 -786.0104869 -203.0705004)
(1290.168797 42.77823885 -399.196442)
(1368.541565 175.6015346 -66.06307598)
(1888.639693 334.4176146 136.2791706)
(1492.888254 -165.3051221 -217.8011676)
(1742.483915 111.1190795 180.212044)
(1463.853854 48.54789467 -26.88123136)
(1568.247641 -7.674668985 -280.3287893)
(1522.051331 979.3195608 -553.2017381)
(1112.179667 381.9382212 -297.7237584)
(1103.186425 939.7960449 -342.1530557)
(1149.571433 599.2343624 546.9085931)
(1838.912464 719.4450883 192.4716072)
(1458.200515 26.33800528 -609.3370226)
(1088.704034 -117.215743 -409.3990804)
(925.13989 647.7058773 205.3441031)
(2117.013021 -271.5295652 507.9147652)
(1708.082008 175.1136042 219.3547899)
(1989.621843 779.1672423 29.91870742)
(1988.864136 641.068585 -817.4863368)
(1611.74794 311.9770646 122.2155157)
(1455.351502 104.6839973 -107.3077936)
(1386.843084 -232.7270913 272.5915965)
(1511.632067 -335.4134633 -29.31336482)
(2388.767349 421.6563094 -513.9303731)
(590.8915975 819.3920669 -809.7592339)
(522.5256896 431.8579317 -313.5005729)
(443.3008036 996.2535689 352.9616489)
(1943.676515 461.979901 -108.2920816)
(2015.63875 337.2807384 326.0345853)
(1583.804402 393.4986101 -873.8962697)
(2477.506597 495.9003431 -896.5890083)
(1152.97572 0.001824734267 16.57536214)
(1559.336944 761.5989887 -259.5956913)
(1638.758065 14.97175563 -854.3277457)
(1080.901034 910.7441465 -1062.772072)
(414.0738231 -270.1620268 -576.8894161)
(927.0232082 563.5593779 -339.2859402)
(1304.852875 283.8858946 -644.2074479)
(1203.323503 45.4948852 -91.44871038)
(1591.440563 -219.745316 5.472761497)
(1222.410884 -517.9443651 107.0157358)
(1330.049441 136.9294578 290.9394736)
(1246.407962 -150.5965754 19.56408116)
(1662.11558 -134.9841303 -153.2342393)
(1335.329397 93.23345356 -194.346693)
(2015.848126 -78.53670841 -410.203668)
(1649.593056 216.1582459 -663.389474)
(835.897395 -322.4538357 70.80419703)
(295.1695804 899.7330635 -694.6784568)
(1847.5346 506.6874333 665.1716766)
(2193.97982 10.64518075 233.8429126)
(1532.010743 140.3733913 -201.7062968)
(1326.437691 -185.8731432 489.1817144)
(1353.670215 873.662888 197.7756199)
(1794.275516 -456.5416614 107.5133552)
(1303.037399 -240.3118567 -104.5453397)
(1165.762674 70.72042245 -46.88047814)
(1519.070832 571.7366396 -643.7568952)
(1691.090378 605.1044917 560.3310756)
(48.34110189 708.7107606 -701.085185)
(1588.977425 397.5019305 -242.1779263)
(1146.999173 16.55241878 -235.5319766)
(1898.23167 -383.7055513 412.8616833)
(1705.861641 286.8031885 74.61331971)
(894.7779984 169.1823391 -507.5927494)
(1306.496248 539.7867623 120.7279023)
(1793.189848 -396.3198489 131.7290464)
(1545.336726 252.1726594 -287.2319585)
(1386.542058 977.8036041 -303.1224756)
(1610.649232 -151.7449475 732.8212761)
(1455.862163 -24.36058501 -129.1802644)
(1575.408816 -8.342862082 -201.1543562)
(1221.538124 570.1153516 -394.1467932)
(1865.207132 687.1908971 -365.4931785)
(1440.011569 -124.5396387 -319.9362275)
(1030.980101 154.0962457 179.3874226)
(1689.346749 204.4935736 120.2982868)
(1064.491367 672.0705058 -90.78711479)
(1794.163225 -43.7832525 166.2178004)
(1593.706111 -12.93243606 -151.2209494)
(1502.751077 264.6608224 -269.4858864)
(1179.174934 139.1728785 -72.89334726)
(1352.085288 449.0065501 -343.8584549)
(1519.408684 -155.0370145 212.2628543)
(1511.076436 -488.4664931 -379.556973)
(1557.653007 450.0412449 -253.5282729)
(1413.418374 226.2987731 164.2269224)
(1236.087121 25.15123552 -121.4843754)
(1275.625738 716.9599748 406.2237805)
(1086.185173 1410.122351 4.658510338)
(1915.380593 127.1784634 -119.9877523)
(1674.852303 213.1086032 11.6663059)
(849.1650277 -165.6648078 136.8167994)
(991.8033927 -125.3695627 -118.7623091)
(2057.015654 413.6111571 401.8058554)
(1778.051697 209.9488865 75.49353941)
(1160.713765 -175.7475691 901.1298065)
(1659.211285 -220.0315763 283.1709653)
(2068.339585 113.2230103 49.15129296)
(1015.997483 -49.27680329 187.5459574)
(1543.959592 -689.2698345 -241.5391641)
(1846.706378 1086.879164 -156.7830617)
(1679.431684 168.194203 -188.464175)
(1061.673907 14.72347429 388.7214315)
(1472.924099 231.5746827 185.7008773)
(1434.237042 207.8187908 357.6838258)
(1796.186291 -130.3310438 336.9621875)
(1187.77663 -96.63943164 -184.7654991)
(1857.639177 -5.801791844 189.6001304)
(1515.166816 -256.4288207 -122.8580071)
(2653.047963 262.2906038 3.270115492)
(1033.523466 474.7744333 216.2455158)
(1187.538968 -272.1223942 167.0052206)
(1290.082217 290.3829808 -83.2904031)
(983.6198538 224.0513967 -92.46269861)
(1597.239824 213.4255578 272.3633563)
(312.7807939 -17.70515121 -600.5409434)
(1209.112179 137.8241296 26.97611721)
(1844.36862 523.6932749 142.2851076)
(979.7655356 238.5029657 357.8761665)
(1488.669399 62.1139705 -507.0038821)
(1918.281735 34.50611001 -184.1283369)
(1085.89201 201.6611204 222.1380141)
(1240.879211 139.9100204 -284.8167135)
(1547.264509 203.3596511 46.90411939)
(1538.247164 -335.7545071 -605.5891309)
(382.5807363 -298.435376 -54.16670913)
(1549.422231 634.6920533 7.546191441)
(1700.002478 233.7969839 146.6651424)
(1505.007446 -50.98647423 -158.1156362)
(2051.514402 216.4904916 -241.0104314)
(1294.92811 -725.6421406 262.0639286)
(1312.908501 1007.857879 217.9018356)
(1652.365419 -84.79532924 168.2704172)
(1557.645809 338.5736001 590.5284879)
(1746.594852 219.5096617 -30.24787393)
(1633.299813 -178.4245095 -71.79612769)
(1623.237443 149.5605316 -40.53850938)
(1555.732196 817.5394293 364.5110636)
(2354.609113 311.6201755 488.8345025)
(1061.426142 423.7857582 -461.7957526)
(1711.299754 288.436643 113.0496385)
(1657.40873 156.3189231 -161.9038368)
(1314.589281 -348.0706951 -153.2952302)
(2343.343575 186.1221336 208.9104863)
(1076.241159 1104.900796 125.0144895)
(1739.354952 -376.6735376 9.540053387)
(2004.926357 -62.2299989 -218.9240099)
(1620.954782 -26.7441076 193.294163)
(1355.517573 15.24057816 -73.81151751)
(2133.143013 1066.36234 365.2861461)
(1898.428194 445.1220915 585.4377434)
(1742.877486 728.9227582 67.28464499)
(1405.280313 559.0859526 -694.8441434)
(959.4427687 184.9594123 213.2114808)
(1799.111804 -526.3085569 -45.5920506)
(2126.225896 118.1790134 -22.97752109)
(841.4207408 1085.265427 -196.009082)
(2476.128038 608.6145806 -147.7160575)
(1392.23956 77.69659913 -159.7000238)
(1063.229459 538.4337406 -390.5736169)
(1603.20711 -112.5104744 44.22899997)
(1746.468942 256.4886178 -58.62383941)
(766.0023013 297.4617678 -201.2332277)
(1260.405628 -1.974575956 -362.2711681)
(984.8932015 -320.6684947 198.1966438)
(1128.776316 244.3326775 762.1081267)
(565.6424056 82.52285647 113.3126127)
(2194.07002 -207.0064001 54.82662475)
(1639.598483 50.05554287 734.9074528)
(1562.942817 838.5496769 6.455836484)
(1270.586089 -538.8550886 349.2500044)
(1597.521524 251.4493748 -609.2963461)
(2178.959292 18.06499895 114.4131071)
(917.0887428 -333.2912555 138.4662173)
(1418.077666 -323.2943293 -191.2172325)
(2089.614681 770.9795786 399.5681595)
(1335.276821 1077.835539 -1136.815888)
(1099.210449 -380.7836351 348.6386523)
(1484.116515 185.7146981 -263.5308035)
(1984.764745 -297.2245182 29.96026665)
(1917.293765 -16.48849962 249.9426794)
(1377.175702 244.1589511 -58.5332544)
(1936.67779 -460.1174684 -370.3121955)
(1401.434786 -466.1813847 293.4572236)
(1751.560807 -807.4372554 -39.51678261)
(1780.370806 54.49597807 58.39856017)
(1851.557854 58.15437185 156.4989922)
(1830.669269 -212.8112375 6.421018292)
(1010.364274 33.64051009 261.4262264)
(1521.266213 64.42922778 533.5077931)
(1634.940491 -123.2256447 -261.8894522)
(1989.17733 -101.9579052 -506.0863237)
(1564.760083 -58.30019893 -438.0803377)
(552.5278356 -290.0984499 -541.0344719)
(2026.410325 -593.0999226 92.61901323)
(1815.991733 251.6364976 -629.9718845)
(2304.210615 693.973527 -535.2298548)
(1196.34749 -48.67595632 -372.6222742)
(1362.57183 550.4896381 -117.7937395)
(1941.331256 -835.14439 173.1377124)
(1044.754158 -284.1559298 -370.3840661)
(1830.758234 198.8514902 -215.3075545)
(1164.450753 498.5454004 495.7698362)
(1165.759563 945.6021216 166.3347413)
(1906.03985 181.1173317 -103.6313005)
(1758.738741 -21.78069594 -346.4610529)
(1291.023332 -316.9687248 -24.80281431)
(1197.497903 1427.150028 -205.9097222)
(1357.467475 82.72622238 -110.6568728)
(1195.503065 536.3591504 -252.2290918)
(1558.044436 1149.720349 68.34638287)
(845.932308 334.2243619 -767.8743846)
(1474.603354 451.2111903 -588.2690449)
(1675.856564 98.30247912 290.162435)
(1333.667743 811.3608245 -70.39292671)
(1664.004665 169.6353726 -41.69481596)
(1574.280046 -14.60173908 333.0316508)
(2011.191959 98.66408213 5.354426906)
(2274.170056 79.2121592 23.53484704)
(1578.270813 -77.19528797 -197.240081)
(798.3327448 916.7270589 283.8975484)
(2207.164746 -471.6342613 154.6699241)
(1613.542954 -183.7686027 58.1964575)
(1626.914445 -1.815664226 -186.5580191)
(1577.139086 437.9909911 644.5747738)
(1893.974452 315.9491003 63.55982488)
(1459.557047 262.9872906 -311.9848513)
(1012.133304 401.9166974 373.3292673)
(1619.80282 331.8336209 163.3883463)
(1506.623389 24.38263848 674.608195)
(1027.696634 -117.2046339 -92.67082179)
(1719.187308 83.75902244 202.0185197)
(2236.794196 492.5601831 -252.2903686)
(1380.902508 192.3664896 -560.7457693)
(1476.324677 6.961825099 648.4819051)
(1058.267216 916.7193043 -520.9699162)
(2140.059574 -149.7120735 525.7797853)
(1381.527036 360.7495126 -176.9233093)
(1273.795877 -285.6778228 202.6618089)
(1598.929316 386.3204136 -1305.303247)
(1067.000864 118.7276832 284.1363098)
(1345.560181 740.9022832 376.2666108)
(1384.071549 -123.8130111 150.2445698)
(1826.927533 947.5203615 289.3769514)
(770.6609749 -362.2275475 -394.2998085)
(1674.370274 124.5645496 40.70877737)
(1789.097914 -246.8434376 574.768313)
(1840.47273 278.8883002 300.7669888)
(1769.349735 345.9581762 742.4539581)
(1666.721905 56.82724355 -55.42774448)
(1554.695226 -264.1348492 102.1354543)
(1900.21847 138.3975317 18.23648434)
(866.0095712 -82.56283989 169.8402016)
(1256.873059 -284.6086757 -143.6141061)
(1579.331504 -14.80550459 -140.9566735)
(1533.884388 186.5579872 489.1317448)
(818.6684365 -351.4995283 447.3008183)
(2282.448919 586.7861219 -1008.491957)
(1788.615869 116.0668035 -389.8039782)
(1806.71448 399.6328451 156.1186469)
(1408.120804 800.4161347 -126.1239758)
(1059.927726 -398.1792837 208.0867294)
(1772.567811 -21.70264032 -112.1654435)
(2122.604953 60.72987755 314.1662564)
(828.2961293 929.2764677 429.1179674)
(1638.253739 -196.0848558 -143.9182718)
(2001.864054 265.1462798 -159.8681794)
(1912.210949 49.56770653 295.0215344)
(1437.42089 -139.3547853 -78.13461118)
(1759.593765 18.35649778 -4.75172678)
(1961.465387 -149.3641655 -369.4601306)
(1697.860087 701.1361517 223.2819871)
(2150.631636 -207.4446174 -188.8394753)
(1104.33614 40.58686183 527.2103377)
(2059.053897 -765.2910724 -288.6161556)
(2029.834221 198.0956543 -177.5588897)
(904.3414947 -47.27864658 76.35575682)
(1755.915827 712.3730844 48.91499455)
(1278.379629 472.6829806 130.8695096)
(1757.772784 70.9828561 65.68312567)
(1686.107862 374.4553186 73.58540574)
(1281.563023 128.4429624 -647.3534001)
(1577.270077 39.37338925 217.9678966)
(2001.304165 -44.93143382 16.67717109)
(1889.280424 213.0068165 -204.2493997)
(1853.585028 -42.48159583 -319.7738618)
(1422.700817 -208.6716573 -146.8372966)
(1932.778639 358.7056338 52.85833766)
(1003.447449 509.3622088 469.8643249)
(2262.601032 34.33866944 -465.2673817)
(1371.533456 -65.2744199 -351.1313085)
(1032.477958 768.7861389 -194.909716)
(1503.535492 -173.6736575 -86.9550784)
(1693.450315 393.0020893 96.63468316)
(1892.943388 -123.1512053 -597.0105924)
(1819.198307 262.727708 -269.285095)
(1709.730252 -114.0846184 289.6289092)
(1600.383676 -331.5088474 123.2410171)
(2196.279127 -617.9218297 -281.2061123)
(841.5131602 316.6361635 -508.6117807)
(1338.904284 -260.9984369 365.8876931)
(1379.33194 -34.67135145 -138.318255)
(1237.250353 -68.53286621 -268.3701212)
(1549.022278 -141.3329388 117.6048719)
(1670.293938 914.697361 160.9543459)
(1679.702097 -405.6349616 -234.0552751)
(1672.075184 52.16906308 113.971488)
(1716.795878 -211.9063025 32.93613109)
(1166.571527 -314.1212503 122.2976264)
(1834.285329 27.33807085 415.2610199)
(1791.006761 -192.2672109 262.1197812)
(1954.000019 716.2726276 72.31639775)
(2122.2058 -595.6439215 -217.3086181)
(1335.177269 222.4777192 -406.2590643)
(1189.234666 167.9474841 -688.8044624)
(1801.57286 16.06979322 -318.4593817)
(1624.934624 613.1876953 97.42712793)
(989.8175361 21.31637403 -278.8227457)
(1472.49558 -79.29082236 -76.65965203)
(833.3726092 90.90299424 345.015294)
(1586.730336 -228.382414 -513.742312)
(1276.070016 -154.9172032 -57.60620827)
(1950.635592 77.06821468 91.59847562)
(1609.99965 624.8827667 -325.4958938)
(2226.025659 347.3542106 186.3458641)
(2153.746884 -765.0049097 -139.7609047)
(1448.015741 364.7461021 -141.3284687)
(1489.538614 -130.8647521 171.2676321)
(1806.73505 3.130054335 -427.5145369)
(883.2979811 862.1106798 74.29132146)
(1309.496358 234.5484514 -27.84344493)
(1199.069447 -310.9124139 -228.4403928)
(740.6266634 -247.8555968 225.6781782)
(2209.912263 309.0177373 71.16041475)
(2290.921838 64.1202792 -585.5836886)
(987.929005 -421.2232107 327.3011445)
(1692.303309 1056.9374 354.6444017)
(2030.785753 133.5335903 -145.0572272)
(1476.977459 53.59433358 -2.846115406)
(1386.573063 -55.87010057 374.9260468)
(1581.208096 -464.1364548 192.106644)
(1314.453562 114.8690913 -793.6987068)
(1702.114393 -138.3655813 -293.1726863)
(1755.354157 247.0327986 973.4661977)
(1501.139877 435.4836487 154.1600982)
(1500.56431 -312.1223764 138.0556402)
(1982.587211 -203.0712774 32.00686097)
(1253.322332 674.0610209 612.0689058)
(1389.887337 332.9237704 218.2098494)
(2231.686368 -311.829925 -92.16352477)
(1367.984853 -334.6329786 181.2142984)
(1621.204935 -439.1223992 -47.1518669)
(2037.710883 30.3929324 -5.827126213)
(1287.079509 329.8356913 323.5307531)
(1725.155855 707.7614613 -365.6595546)
(1258.449214 333.5494484 -178.5687327)
(1787.28594 20.13484582 -240.2258268)
(1483.469623 -357.4779811 -248.1135028)
(1591.205778 -92.34196224 -203.8255209)
(1473.561149 507.7832143 -148.2951583)
(1368.139562 242.0090794 -331.3292035)
(2138.419922 -77.99557452 245.035941)
(1271.639958 -578.2364008 138.7281941)
(1462.377959 -447.9982083 99.64172403)
(2019.065029 323.4395413 227.8407527)
(1923.691653 460.0255455 -612.0493585)
(1542.456071 -362.8393216 -223.517279)
(1348.460323 -591.6200735 62.35439931)
(1409.790404 45.1501455 447.6597765)
(1671.87774 79.86415759 -133.3744798)
(1363.340256 -110.4268712 88.49171687)
(1605.407258 -213.5303917 -73.93205605)
(1947.322524 718.2784116 110.2231699)
(1957.785642 249.7468631 254.8409548)
(1714.485654 582.6929964 317.1745518)
(1661.626417 137.1554991 -768.8410232)
(1584.333777 -73.8052995 -10.64332483)
(2033.171366 -12.62232795 117.1066593)
(699.4115376 628.7789257 48.82196732)
(1569.042835 396.6472064 36.19231062)
(1627.240659 287.9528802 484.6903264)
(1591.028191 247.4142678 901.2663936)
(1224.419311 -45.07141477 -361.2582024)
(1548.104184 -73.52047897 -135.3646379)
(1334.670115 1063.820203 866.323739)
(1598.95435 -99.52958597 -20.85094402)
(1919.365733 -76.88864181 351.7500798)
(1761.091093 -375.7015557 -302.1426715)
(1829.177547 -14.05915675 -225.0250493)
(823.047021 771.2586117 469.5501992)
(1397.163557 974.1321389 263.6296883)
(1668.76989 257.2986704 551.8076271)
(1349.998349 265.9155938 489.9379508)
(2250.428669 -154.872068 411.4462244)
(1332.481824 177.8646125 -800.7603626)
(1289.663622 77.68391394 -455.7313393)
(1058.327225 335.8347373 52.49400364)
(1541.565177 42.29832882 551.729527)
(2007.104542 1092.042635 85.77846418)
(1747.895867 330.1975559 -65.56853142)
(1976.614955 -207.0080064 -577.9015162)
(2041.363924 21.84564123 48.04179715)
(1462.226752 393.4326863 371.9977969)
(689.8549601 229.1785235 580.9770464)
(1941.870298 403.4541778 -224.0059438)
(1722.565588 241.0427437 155.8963673)
(1210.985697 162.9920952 -28.49155275)
(1531.774063 -572.9272527 817.8410458)
(935.6491842 58.30711806 347.591544)
(1468.845204 -67.06377423 140.1003813)
(1592.524834 259.9822235 37.54828284)
(1674.291634 -188.469914 285.394492)
(1868.673928 113.1292034 -247.9926489)
(1597.773109 691.791084 -42.7518799)
(1702.270243 198.5254719 29.31379169)
(831.4520766 532.339892 -500.8952287)
(1067.694466 567.1264095 -650.0612317)
(881.5345779 549.0316426 188.4535827)
(1266.650754 291.3865272 -639.6369961)
(1824.541021 441.9108554 -72.79767499)
(2360.557983 132.4606906 350.2437558)
(1452.731057 -311.998403 -116.4053125)
(1590.74356 952.4739761 441.1054621)
(1869.685772 687.9946332 498.7256907)
(1405.309145 53.19835996 263.0508685)
(1670.882486 52.8221929 99.24306422)
(1080.389576 371.3213871 -252.2576521)
(1366.803658 75.77748585 42.64032892)
(1827.960587 -136.6041503 114.103413)
(1517.390001 -86.62613273 289.1886193)
(1640.857483 188.4877935 126.0421302)
(2003.726894 315.8057734 -367.1500911)
(1515.402737 225.9812542 159.7525266)
(1003.033466 849.7409973 315.3290883)
(1659.296297 -126.2417282 -473.9780237)
(1498.013586 -502.8105236 -672.3426281)
(1701.503631 67.6809202 60.89894809)
(1599.82882 264.3862768 121.3693283)
(1406.631099 27.23300716 226.5780593)
(2126.006051 -72.46090017 49.06216923)
(1200.061315 -242.2149261 -72.62773477)
(1960.159896 45.85284489 -381.7474867)
(1963.990332 88.83403474 -207.425694)
(2121.933573 155.4201052 307.6679358)
(1542.937087 -130.3069491 111.6438985)
(1570.55744 -265.3325448 248.0386002)
(2266.715826 381.6275716 140.7394528)
(1252.031946 860.6241967 -973.715106)
(1641.825477 -186.0135176 705.5717521)
(1826.194577 453.7804859 -397.9300781)
(2035.277959 72.37794864 -99.52138802)
(1877.374342 -209.0761151 -66.06677765)
(1337.709137 596.4518791 -441.5740322)
(1143.196025 214.781078 76.7442089)
(1690.54906 -49.69014459 -230.5641421)
(1532.389266 161.8318929 -785.9592411)
(2007.902233 533.1517705 -306.3086442)
(1767.974957 -128.3588162 354.4218654)
(1334.967552 828.916672 266.249328)
(1926.295008 27.49762616 -277.6276151)
(840.36614 -279.433932 -70.07098136)
(1335.884972 1236.882143 -9.202256639)
(2106.438163 195.0959015 282.1153081)
(1279.139121 -30.32822546 -151.4554312)
(1418.374887 366.3169649 519.1028024)
(1631.266322 212.8226604 655.0710095)
(1477.752434 745.1009999 -591.0382286)
(1282.304028 758.1958796 -343.1019296)
(1903.204781 56.99294906 130.9705416)
(2030.162742 -13.40772541 110.3166595)
(1770.070461 71.62406641 -58.88885675)
(1557.384298 -4.049908082 -89.54076898)
(1953.224448 425.2876883 -251.9193227)
(1942.578751 674.4654276 208.5557626)
(1348.406109 566.9907421 979.9429017)
(1412.8354 -11.30219059 354.180259)
(947.168821 579.9866547 -535.7336471)
(1879.807286 130.459828 -68.54482371)
(1208.960206 -909.8703656 648.9452464)
(1672.411154 -81.38674492 120.4819938)
(1227.691482 -261.7454775 -444.389373)
(1688.252162 -146.9876596 -634.2359011)
(1802.61595 464.1890972 -623.1323486)
(1350.167686 314.2455859 485.4515082)
(1677.594167 -63.74754509 193.8520803)
(1259.268475 39.22248076 350.6364258)
(1087.704719 -153.3980402 423.7332493)
(1448.66525 544.540549 -171.4918633)
(1492.489146 140.0955965 -286.1281304)
(1342.909623 495.9054972 337.9726369)
(1333.275121 15.63471883 -78.50258336)
(1315.677562 360.6426226 -414.2614746)
(1800.936765 -122.7767455 -205.1870596)
(1663.520412 369.5102377 -12.46256335)
(1772.930653 284.1229794 -3.015741578)
(1581.206953 93.5229092 103.0169679)
(774.8324904 1036.651006 -293.7845381)
(2012.365131 372.5563684 -183.4404626)
(1977.151841 611.5167228 -588.7383961)
(1737.735333 -110.9162279 -85.65875671)
(1305.518715 574.9826329 -259.2001843)
(1147.842345 -268.7780725 -228.6764796)
(1857.702935 -132.4037895 -197.6396172)
(537.8441993 763.000049 -742.6986087)
(1418.970765 -615.4343665 -110.5225947)
(1526.550903 -138.2674331 464.8896098)
(1817.57341 -401.2854818 65.41072325)
(1446.229772 233.2668198 -198.2539737)
(1956.346656 165.8546545 392.7338263)
(1742.507745 356.6569393 349.6694823)
(1673.696095 -11.30428578 81.32145527)
(1633.123407 -227.3630496 219.7278456)
(1723.554162 -280.163942 -384.261331)
(1723.458268 56.39764894 100.7745901)
(1408.660734 -42.63268619 -472.1914026)
(1670.852516 26.15131957 516.526493)
(1321.961409 -244.6101963 369.842773)
(1627.652352 260.0466306 157.6121081)
(919.2175539 611.5172731 231.6115801)
(1974.858562 -471.6897267 -492.9689512)
(1979.044902 123.6260196 -221.5913123)
(1600.564609 29.09411836 -269.707512)
(1804.966194 418.6815078 -30.48550487)
(1754.098958 -114.1595514 50.14549342)
(1215.851642 89.50577258 -224.2271824)
(1199.34592 625.2570401 56.84611499)
(1959.95096 958.0057667 -407.28431)
(1678.97133 -5.082201185 -55.24661696)
(1664.162787 681.2043948 -280.6979092)
(1874.988504 52.85208327 537.4813648)
(1670.546474 -0.04388245622 297.8014676)
(1548.380337 -458.6830579 -120.6159672)
(1023.479694 246.2321601 -239.1821655)
(1492.067369 -170.3295859 -325.2280799)
(1199.886679 217.4539184 -109.3990327)
(957.0724569 -98.67455226 -389.1725336)
(1353.131319 649.2487137 306.8583842)
(1563.104636 1365.42349 -61.29087424)
(1784.747547 222.7319198 -235.1442924)
(1346.498148 28.51834514 -530.2837708)
(1797.593487 -570.2824431 75.82521895)
(1492.712359 373.8679635 99.70850693)
(1227.752216 662.5911761 422.057497)
(1175.723478 -411.2934944 -217.1558814)
(1986.487054 645.8216956 -288.6439466)
(2099.986466 297.1627638 -343.838825)
(1563.622672 -404.4059646 95.52064413)
(1833.207301 263.6148255 804.2746299)
(2245.553461 -235.4395056 309.6599456)
(1742.611257 -605.9076297 -232.447572)
(1280.517282 109.2237107 -350.436867)
(1693.224507 153.9146912 -50.81187128)
(1638.409598 1068.447935 486.1944206)
(1772.011135 289.4698488 -170.9486492)
(1757.855454 -88.15044214 -269.1988714)
(1386.821476 469.4965597 181.2519364)
(1765.115809 -192.1259029 439.2020131)
(1716.18469 -65.67003009 -41.14236232)
(1812.511197 189.8583978 -39.60396033)
(1554.795857 572.0327381 381.2619012)
(1439.275281 -515.4195386 315.6174471)
(1327.740205 -176.2671077 -428.8557478)
(2317.586047 -164.0948354 67.26953404)
(1468.617218 -48.71323837 -111.648571)
(1911.67173 246.2663743 -191.2058664)
(1253.100921 -454.1801559 -296.5757472)
(1129.869793 -140.0532405 59.7363288)
(1626.744573 -304.6529232 757.7776879)
(1779.236343 -23.67724502 52.86044674)
(1406.582645 410.437387 362.3033347)
(1599.276592 226.3513189 -160.2849622)
(2108.344747 -11.80891124 -423.8949682)
(1533.9662 848.065598 868.8119608)
(1632.71695 -300.2039139 -79.24774058)
(1657.318577 241.2360809 -338.7525164)
(979.9873004 805.5753464 -231.6550008)
(1517.164155 277.6853306 595.2342413)
(1526.608215 347.3335223 160.3091627)
(1754.915974 115.0551826 -64.64121319)
(1595.335592 -31.54706985 -60.37644083)
(2065.896582 108.8759545 -69.02591034)
(2071.255412 -438.2963161 318.1620024)
(1204.116327 23.64473997 -320.6600444)
(1405.463422 -97.2481707 66.97837539)
(1854.486727 533.8599365 -14.13956817)
(2192.79086 355.4129842 31.2930157)
(1243.024891 140.5992426 -302.6320235)
(1746.139381 68.09111454 -103.3443999)
(1478.458528 353.0497603 -427.2097787)
(1181.518673 -353.9417598 -404.4157032)
(1543.700899 729.6071333 -183.863026)
(1742.754219 646.9780044 -50.55943396)
(1464.92906 322.0517824 -740.0914847)
(1681.827465 -7.701285277 397.7932143)
(2091.752732 -283.2001885 -191.0213248)
(1827.607448 108.876452 -159.2085572)
(1689.030204 -256.5465525 317.3301842)
(1316.704823 -220.99496 101.192207)
(1665.218362 198.5268111 280.3357302)
(1340.459817 -140.0953021 50.26942114)
(1727.129408 -36.7401783 -505.087238)
(1441.553768 787.1096207 -333.0564224)
(1926.798774 74.90314057 -17.16862306)
(1614.999438 613.0185268 -11.22290196)
(2095.656643 118.4451536 474.7418347)
(1933.34468 -93.92815113 633.8735085)
(1817.197854 -178.4291192 23.11299572)
(1382.984687 58.5469958 328.7100103)
(1502.512321 1108.146394 737.4393)
(1742.602735 7.873990604 -409.7915362)
(1443.794389 -68.435783 -181.676259)
(1868.446 -150.1902743 -104.0216674)
(1783.91639 223.6754393 -116.6762673)
(1097.062009 399.4245437 -281.038845)
(2165.808019 -520.557748 -572.2382142)
(1692.63326 -202.403593 507.3718054)
(1872.60053 -194.6225298 -71.74331063)
(1955.676963 160.6432688 698.23458)
(2249.259959 556.6717661 -1167.829288)
(1879.427531 146.1283086 103.2532737)
(1680.96202 -223.4379366 147.5889426)
(1802.281326 -30.84658037 181.4631599)
(1751.595077 231.370424 225.3712991)
(1939.432725 531.954137 -327.2762907)
(1851.405886 69.24561148 209.2156679)
(1545.74937 375.425051 147.9255115)
(1890.663161 174.3143566 200.0059658)
(1399.101018 -617.5334446 -468.5755851)
(1932.129394 -97.45287952 -43.45154438)
(1798.602742 -343.6856814 377.4418444)
(1943.480415 -76.65911063 -81.44079138)
(1928.840745 14.09547388 -323.6779017)
(1663.2319 302.6754002 616.0457119)
(1290.321671 -510.5613331 -384.279561)
(1010.204572 284.979525 -170.3195157)
(1806.117248 644.8815761 -52.53695427)
(1631.295407 117.3315192 971.0661936)
(2160.231086 581.2346445 -1003.472275)
(1538.940089 -205.4579274 -148.8840129)
(1631.882926 520.4895352 -71.69965769)
(1636.115699 506.6265031 -96.39159871)
(1815.443526 -382.135876 -314.2581707)
(1972.360182 -112.6065542 -136.7797909)
(1154.976545 187.1505595 82.92049466)
(1368.943238 502.5916458 -195.5808343)
(2173.653358 -534.3369257 309.8185696)
(1773.824031 475.1515233 16.31211946)
(1585.450925 322.5089298 149.6311477)
(1699.24508 623.1895409 14.23153037)
(2167.649435 -408.9217926 576.0628278)
(1744.211018 -346.4320657 -229.0309181)
(1267.516191 127.3583708 -559.2953221)
(1319.100156 -8.592749233 55.11804174)
(1883.769185 48.1735658 183.2747965)
(1654.537082 -239.4535477 209.568674)
(1631.281089 167.2031775 707.0102066)
(1203.539587 657.5469509 123.6607356)
(1987.83899 261.0139752 -745.8635922)
(2004.861041 -297.3923803 70.91591469)
(1467.542554 -130.4880087 49.97536287)
(1604.801142 -454.5831112 -151.113894)
(1840.432963 960.3947044 -168.9770895)
(1406.356933 -30.33357917 87.85843584)
(1576.812452 -10.93132508 -265.1044249)
(996.135343 659.5379641 -619.0702495)
(1565.990206 377.649029 78.92126131)
(1738.988952 302.9024376 283.8370515)
(2559.070654 513.5812363 -565.6911489)
(785.1613298 -16.50824868 -262.6536338)
(926.0460461 -440.2998971 768.3548064)