/*--------------------------------*- C++ -*----------------------------------*\
| =========                 |                                                 |
| \\      /  F ield         | OpenFOAM: The Open Source CFD Toolbox           |
|  \\    /   O peration     | Version:  2406                                  |
|   \\  /    A nd           | Website:  www.openfoam.com                      |
|    \\/     M anipulation  |                                                 |
\*---------------------------------------------------------------------------*/
FoamFile
{
    version     2.0;
    format      ascii;
    arch        "LSB;label=32;scalar=64";
    class       Cloud<dsmcParcel>;
    location    "0.012/lagrangian/dsmc";
    object      coordinates;
}
// * * * * * * * * * * * * * * * * * * * * * * * * * * * * * * * * * * * * * //

9503
(
(0.1502008047 0.109938917 0.4248995977 0.3149606807) 176 348 2
(0.2228778771 0.3885610615 0.150076887 0.2384841745) 148 290 2
(0.10583719 0.447081405 0.2443869808 0.2026944242) 261 514 2
(0.4926940167 0.2536529916 0.2398846401 0.01376835158) 87 170 2
(0.4224391487 0.1923224274 0.09645799823 0.2887804256) 209 1047 1
(0.456024864 0.05385946667 0.271987568 0.2181281013) 115 228 2
(0.2604076781 0.3697961609 0.08562376326 0.2841723977) 117 173 1
(0.5367017069 0.2316491466 0.02414718417 0.2075019624) 29 56 2
(0.417916998 0.2778430434 0.01319845761 0.291041501) 29 1041 1
(0.4059239636 0.2970380182 0.209134229 0.0879037892) 87 170 2
(0.3070096195 0.1330654134 0.3464951902 0.2134297768) 16 33 2
(0.1671890238 0.4164054881 0.3152303652 0.1011751229) 85 168 2
(0.6882762523 0.1558618738 0.1355769767 0.02028489712) 54 108 1
(0.520949058 0.239525471 0.03785650783 0.2016689632) 87 172 2
(0.4529420675 0.1811468137 0.2735289662 0.09238215252) 57 111 1
(0.1698337369 0.4150831316 0.1442302956 0.270852836) 389 766 1
(0.01160589485 0.4941970526 0.1188435992 0.3753534534) 73 86 1
(0.009562615939 0.495218692 0.2527747623 0.2424439298) 83 165 1
(0.6040771261 0.1979614369 0.0518000853 0.1461613516) 56 109 2
(0.01334222478 0.4933288876 0.2224495433 0.2708793443) 178 349 2
(0.4458486036 0.2770756982 0.2464726578 0.03060304039) 109 157 1
(0.6987019245 0.1142873147 0.1506490377 0.03636172304) 168 329 1
(0.7135929285 0.06991487498 0.1432035357 0.07328866075) 119 235 2
(0.735492217 0.1322538915 0.05875982694 0.07349406456) 144 285 1
(0.288307575 0.3558462125 0.09832054807 0.2575256644) 167 271 1
(0.4118241627 0.2863434356 0.2940879186 0.007744483092) 236 466 2
(0.3544039151 0.3227980425 0.1309210255 0.1918770169) 236 407 1
(0.053679908 0.1565838481 0.473160046 0.3165761979) 86 168 1
(0.243467906 0.2764715892 0.1017944578 0.378266047) 265 464 2
(0.4426168753 0.1142730265 0.2786915624 0.1644185358) 84 167 2
(0.7885110533 0.1057444733 0.09110537783 0.01463909551) 25 48 2
(0.3559230019 0.1371035126 0.1849349865 0.3220384991) 24 48 1
(0.6571847606 0.1714076197 0.08434759317 0.08706002651) 146 230 1
(0.3701130507 0.04882939633 0.2661140783 0.3149434747) 77 152 1
(0.7875456157 0.07190576084 0.1062271922 0.03432143131) 268 526 1
(0.2552902187 0.196633773 0.3723548907 0.1757211177) 54 108 2
(0.1278627805 0.2684321569 0.4360686098 0.1676364529) 57 114 2
(0.03292564035 0.04807105627 0.4835371798 0.4354661236) 87 173 2
(0.4962413462 0.1445396307 0.1073396962 0.2518793269) 193 322 2
(0.6133475497 0.006515594939 0.1933262251 0.1868106302) 478 936 1
(0.583042393 0.1436105791 0.06486822437 0.2084788035) 355 641 2
(0.238433405 0.06916742479 0.3116158727 0.3807832975) 209 1047 1
(0.3874569321 0.3062715339 0.02352472131 0.2827468126) 25 50 2
(0.1677860831 0.1084846846 0.3076222738 0.4161069585) 266 466 2
(0.4486378778 0.2756810611 0.1461516833 0.1295293778) 52 45 1
(0.6580865632 0.1709567184 0.1509354243 0.02002129414) 178 352 1
(0.08958407144 0.2054803047 0.2497276596 0.4552079643) 23 1079 1
(0.2976064808 0.2493819122 0.3511967596 0.1018148474) 20 41 2
(0.129156702 0.435421649 0.2077034818 0.2277181672) 171 338 1
(0.2187006489 0.3906496756 0.1157848889 0.2748647867) 55 51 1
(0.4436758035 0.2781620983 0.127729939 0.1504321593) 178 349 2
(0.4375023039 0.2699695358 0.281248848 0.01127931228) 58 113 1
(0.04521544942 0.4773922753 0.3336994963 0.143692779) 173 341 2
(0.5298437795 0.2350781103 0.1236262941 0.1114518162) 174 341 2
(0.02260349745 0.4119617187 0.4886982513 0.07673653253) 148 293 2
(0.6286129376 0.1856935312 0.0383487054 0.1473448258) 388 764 2
(0.8895425514 0.03851878067 0.01670994363 0.0552287243) 80 100 2
(0.01205696816 0.3356303717 0.4939715159 0.1583411442) 21 43 2
(0.2466618487 0.3766690757 0.1877774444 0.1888916313) 268 529 1
(0.3177945209 0.3411027395 0.176346088 0.1647566515) 170 336 1
(0.1111326546 0.05452331258 0.3899103601 0.4444336727) 177 291 2
(0.506072009 0.2469639955 0.1443143725 0.1026496229) 57 111 2
(0.2355700552 0.3822149724 0.01370837556 0.3685065968) 176 348 1
(0.4481868712 0.2759065644 0.1526854948 0.1232210696) 116 229 2
(0.08635266581 0.4568236671 0.1536330063 0.3031906608) 50 99 2
(0.2975696274 0.30247038 0.04874480632 0.3512151863) 22 44 1
(0.07381317225 0.4630934139 0.4533216295 0.009771784349) 81 160 2
(0.6599321148 0.1700339426 0.1566874926 0.01334645) 207 406 2
(0.5920266355 0.007862106866 0.1961245754 0.2039866823) 23 1079 1
(0.3450805777 0.3274597112 0.02839969582 0.2990600154) 176 347 2
(0.1576222962 0.4211888519 0.1910152537 0.2301735982) 204 400 2
(0.3916167713 0.2968759722 0.007315642141 0.3041916143) 134 206 2
(0.07425127888 0.4628743606 0.19923925 0.2636351106) 179 351 2
(0.1146223115 0.4426888442 0.3163692682 0.126319576) 147 290 2
(0.1944800836 0.4027599582 0.2289902676 0.1737696907) 238 470 1
(0.3356718721 0.3259287819 0.3321640639 0.006235281986) 148 290 1
(0.06035447898 0.4698227605 0.3125186505 0.15730411) 177 349 2
(0.5677563768 0.1412153439 0.2161218116 0.07490646768) 205 402 1
(0.05320435838 0.4733978208 0.2787331704 0.1946646504) 147 290 2
(0.3713589332 0.3143205334 0.1330997172 0.1812208162) 358 647 1
(0.07961691637 0.360087202 0.4601915418 0.1001043398) 209 410 1
(0.5325857975 0.2337071012 0.2079163159 0.02579078535) 89 174 2
(0.08250844712 0.4219755907 0.4587457764 0.03677018572) 23 44 1
(0.05864930731 0.4706753463 0.1269416002 0.3437337462) 55 110 1
(0.2702813691 0.0690121185 0.3648593155 0.295847197) 87 170 1
(0.2888301784 0.1558375894 0.3555849108 0.1997473214) 209 410 1
(0.3262162778 0.2893318245 0.04756003661 0.3368918611) 21 42 1
(0.1215704577 0.4392147711 0.1582118814 0.2810028897) 88 116 1
(0.1610176057 0.4194911971 0.06043520556 0.3590559916) 19 36 2
(0.7097415773 0.1451292114 0.06383472393 0.08129448742) 142 278 2
(0.1114574116 0.1756949395 0.2685763547 0.4442712942) 115 169 2
(0.2999376159 0.3500311921 0.1257599847 0.2242712074) 296 525 1
(0.03959441368 0.4802027932 0.002210159495 0.4779926337) 299 1050 2
(0.146390946 0.426804527 0.09756799252 0.3292365345) 292 576 1
(0.006653369218 0.4966733154 0.1715126465 0.3251606689) 235 405 1
(0.2187984373 0.3906007813 0.2792090522 0.1113917291) 114 223 2
(0.07761317862 0.4611934107 0.01867128922 0.4425221215) 114 226 1
(0.07969172428 0.4601541379 0.3874168827 0.07273725519) 19 1075 2
(0.1995871623 0.04666069688 0.353545722 0.4002064189) 384 698 2
(0.05841170839 0.4707941458 0.415928594 0.05486555176) 231 455 2
(0.4623536864 0.2688231568 0.2311563819 0.03766677496) 57 114 1
(0.2988798997 0.3505600502 0.2475736278 0.1029864223) 114 167 1
(0.08963806595 0.1244317302 0.3307492369 0.455180967) 294 579 1
(0.7422535006 0.03733935073 0.1288732497 0.09153389895) 78 155 2
(0.1995515632 0.4002242184 0.08153468624 0.3186895322) 84 108 1
(0.3780155125 0.2989695499 0.01202269388 0.3109922437) 51 101 1
(0.4494059948 0.2752970026 0.09826086351 0.1770361391) 51 101 2
(0.3392819958 0.07243651709 0.257922485 0.3303590021) 108 213 1
(0.02551651496 0.4872417425 0.0179919839 0.4692497586) 114 223 2
(0.8333707514 0.06294326001 0.08331462432 0.02037136431) 149 292 1
(0.1508155281 0.317086904 0.424592236 0.107505332) 112 222 2
(0.08849947882 0.1083132536 0.347437007 0.4557502606) 267 526 1
(0.2256354775 0.3871822613 0.304823634 0.08235862728) 202 396 2
(0.4950755309 0.02924512852 0.223217106 0.2524622346) 54 49 2
(0.05154753713 0.4742262314 0.3731726204 0.1010536111) 85 110 1
(0.02175283848 0.01914484374 0.469978737 0.4891235808) 48 37 2
(0.01460481574 0.4926975921 0.3829074647 0.1097901274) 84 164 2
(0.5119425323 0.1762110809 0.06781765293 0.2440287339) 89 1043 1
(0.3583558721 0.3208220639 0.3156845759 0.005137488078) 137 270 2
(0.3141162391 0.1260929582 0.3429418805 0.2168489222) 21 40 1
(0.0102307322 0.3219289739 0.17295566 0.4948846339) 144 226 2
(0.7079967235 0.1202825001 0.02571913813 0.1460016382) 89 1043 1
(0.5157913353 0.1717727534 0.2421043324 0.07033157891) 267 524 1
(0.6291151791 0.1489130112 0.03652939922 0.1854424104) 146 288 1
(0.7892671654 0.038249002 0.06711741529 0.1053664173) 139 216 2
(0.01479545371 0.121393897 0.3712083762 0.4926022731) 28 56 1
(0.4778652731 0.211579865 0.2610673634 0.04948749841) 173 342 2
(0.04777687009 0.476111565 0.3653011574 0.1108104076) 24 48 2
(0.2493333874 0.3666297609 0.3753333063 0.008703545386) 84 164 1
(0.6285847262 0.134922965 0.1857076369 0.05078467187) 111 217 1
(0.05448408203 0.472757959 0.2315670761 0.2411908829) 209 353 1
(0.4278026906 0.09921324209 0.1868854126 0.2860986547) 79 156 1
(0.5667978977 0.2166010512 0.07876686921 0.1378341819) 119 176 1
(0.199603809 0.4001980955 0.3926419928 0.007556102734) 320 630 2
(0.1977466948 0.4011266526 0.2474412754 0.1536853772) 79 157 1
(0.8711269098 0.03054721522 0.03388932987 0.06443654509) 44 87 1
(0.18031797 0.2941415015 0.409841015 0.1156995135) 75 149 2
(0.5509848741 0.224507563 0.1150911033 0.1094164597) 86 170 2
(0.3502427467 0.07715087055 0.3248786267 0.2477277561) 205 402 1
(0.5117115488 0.2441442256 0.2282954755 0.01584875006) 88 174 2
(0.5359858412 0.2320070794 0.19498297 0.03702410946) 17 1073 2
(0.6897553052 0.1551223474 0.04049290748 0.1146294399) 113 224 1
(0.7115345315 0.07889167928 0.1442327343 0.06534105498) 470 925 2
(0.3080886622 0.3459556689 0.2495772872 0.09637838167) 89 1043 2
(0.4480886756 0.1409177097 0.1350379524 0.2759556622) 70 80 2
(0.2615610293 0.09517293033 0.3692194854 0.274046555) 85 169 2
(0.4281078922 0.05422464109 0.2859460539 0.2317214128) 29 58 2
(0.1674550043 0.2395756043 0.4162724978 0.1766968936) 29 56 1
(0.2452884381 0.1666900709 0.2106657101 0.377355781) 207 350 2
(0.02489155649 0.4875542218 0.3677498027 0.119804419) 146 289 1
(0.06943293574 0.2694604745 0.4652835321 0.1958230577) 101 200 2
(0.6634261081 0.1682869459 0.04252930207 0.1257576439) 115 169 1
(0.4561292055 0.1872557992 0.2719353973 0.08467959808) 55 107 1
(0.2821345018 0.3589327491 0.3382762976 0.02065645153) 28 56 2
(0.08291455021 0.1264639014 0.3320788235 0.4585427249) 57 55 2
(0.3561877221 0.321906139 0.01672301777 0.3051831212) 83 164 2
(0.6979519347 0.06869015706 0.1510240326 0.08233387556) 50 97 1
(0.08937886079 0.4093566694 0.4553105696 0.04595390019) 84 167 2
(0.4845970371 0.2577014815 0.01777989381 0.2399215877) 410 808 1
(0.4290535843 0.09549143215 0.1899817757 0.2854732079) 172 281 2
(0.4568113828 0.2715943086 0.2082131861 0.06338112251) 87 170 2
(0.2287773951 0.1291767158 0.2564345867 0.3856113024) 85 168 1
(0.5963723305 0.2018138347 0.03825788764 0.1635559471) 112 222 1
(0.6493931382 0.1753034309 0.1509555625 0.02434786843) 475 2200 1
(0.3253117 0.2293896621 0.1079544879 0.33734415) 82 162 1
(0.1873108339 0.005567909212 0.4063445831 0.4007766738) 26 53 2
(0.02836577176 0.4858171141 0.3465941358 0.1392229783) 114 225 2
(0.1530309911 0.4234845044 0.1802988756 0.2431856289) 22 1078 2
(0.2699816946 0.3650091527 0.3222832122 0.04272594054) 177 349 2
(0.1601687166 0.4199156417 0.2488462027 0.171069439) 174 285 1
(0.337208309 0.1247138629 0.3313958455 0.2066819826) 26 50 1
(0.1825108839 0.4087445581 0.07223021507 0.336514343) 476 934 2
(0.2494160129 0.1526030608 0.3752919936 0.2226889328) 85 169 2
(0.3895341313 0.255020394 0.05021254034 0.3052329344) 160 257 2
(0.7690023529 0.003985724687 0.1115130989 0.1154988236) 18 36 1
(0.2115443598 0.3942278201 0.1690257446 0.2252020755) 26 50 2
(0.670621786 0.164689107 0.01165110946 0.1530379976) 105 205 2
(0.8918830586 0.03231650666 0.0540584707 0.02174196404) 24 46 1
(0.1348023299 0.3282042055 0.4325988351 0.1043946295) 86 171 2
(0.2632658335 0.2700013138 0.09836576947 0.3683670833) 189 314 2
(0.1251112672 0.1803347472 0.2571096192 0.4374443664) 168 273 2
(0.1488935196 0.009296327614 0.4255532402 0.4162569126) 291 574 2
(0.3656961183 0.3171519409 0.1323694211 0.1847825198) 81 160 2
(0.3975730939 0.3012134531 0.09040046045 0.2108129926) 46 92 1
(0.4162119931 0.0198497182 0.2918940035 0.2720442853) 50 100 2
(0.4486284523 0.2756857738 0.001842091461 0.2738436824) 118 175 1
(0.0586261904 0.4190806547 0.4706869048 0.05160625011) 85 166 1
(0.4676059552 0.1401387068 0.1260583156 0.2661970224) 137 270 1
(0.5113908265 0.1303286362 0.1139759505 0.2443045868) 57 113 1
(0.4098689944 0.2950655028 0.1547477985 0.1403177043) 85 168 2
(0.2730308542 0.2205368009 0.3634845729 0.142947772) 109 213 1
(0.7339604907 0.08621447475 0.1330197547 0.04680527992) 20 38 1
(0.2605753618 0.3697123191 0.2178942666 0.1518180525) 81 160 2
(0.7494734168 0.05186365943 0.07339963216 0.1252632916) 144 284 1
(0.2401966058 0.3799016971 0.3051900785 0.07471161865) 179 351 2
(0.7110148007 0.1444925996 0.09778567765 0.04670692199) 418 765 1
(0.7875202795 0.01667884889 0.1062398603 0.08956101138) 110 218 2
(0.03390228516 0.4830488574 0.2122802872 0.2707685702) 268 470 1
(0.3374592638 0.3312703681 0.05422815029 0.2770422178) 87 170 2
(0.2874218063 0.1478282332 0.2084608637 0.3562890968) 112 163 2
(0.4852290863 0.2094089711 0.04797648574 0.2573854568) 73 144 1
(0.2692391653 0.291620304 0.07376011337 0.3653804174) 14 28 1
(0.4956348865 0.2497349159 0.2521825567 0.002447640843) 104 206 2
(0.2094766859 0.395261657 0.277820126 0.117441531) 175 343 2
(0.08867887149 0.3866783225 0.06898224179 0.4556605643) 82 104 2
(0.05971955387 0.1323351065 0.3378051166 0.4701402231) 56 53 2
(0.6040492614 0.04393848822 0.1979753693 0.1540368811) 299 587 1
(0.1508530602 0.4245734699 0.03742258592 0.387150884) 22 45 1
(0.2274385281 0.119061504 0.2672192319 0.3862807359) 323 578 2
(0.1846754778 0.05694854939 0.3507137117 0.4076622611) 85 168 1
(0.5519917311 0.2240041344 0.003615517619 0.2203886168) 208 410 2
(0.1747906471 0.2430560485 0.169548628 0.4126046764) 239 412 2
(0.0858454118 0.4570772941 0.03986475523 0.4172125389) 231 455 2
(0.07521150194 0.462394249 0.03331057216 0.4290836769) 76 150 2
(0.20408909 0.3200905956 0.0778648594 0.397955455) 55 109 1
(0.2153390295 0.3110258779 0.0813046074 0.3923304853) 209 353 2
(0.2052967698 0.1091455439 0.2882060712 0.3973516151) 144 226 2
(0.3459224722 0.2612506872 0.3270387639 0.0657880767) 324 639 2
(0.517879357 0.2335527513 0.007507570239 0.2410603215) 113 223 1
(0.1379779223 0.2267339253 0.2042771135 0.4310110389) 22 1078 1
(0.3780651234 0.3109674383 0.1785108321 0.1324566062) 144 282 2
(0.02469196625 0.03348061527 0.4541734016 0.4876540169) 114 167 2
(0.156425245 0.4217873775 0.1549510006 0.2668363769) 235 464 1
(0.04897535047 0.2889041652 0.1866081596 0.4755123248) 26 52 1
(0.7741896415 0.07090452198 0.1129051792 0.04200065726) 207 406 1
(0.4220584336 0.1100973352 0.2889707832 0.178873448) 52 101 1
(0.1779760956 0.3428520338 0.4110119522 0.06815991836) 329 646 1
(0.5015453449 0.1210705131 0.1281568144 0.2492273275) 263 460 2
(0.08647721683 0.3452936292 0.1114677624 0.4567613916) 176 347 1
(0.6956455295 0.08477617265 0.06740106259 0.1521772352) 142 222 2
(0.2504631308 0.3747684346 0.06213094577 0.3126374888) 238 470 1
(0.3581838468 0.3209080766 0.104435025 0.2164730516) 148 234 1
(0.05804929234 0.4709753538 0.4662559512 0.004719402642) 208 408 2
(0.09836534289 0.4508173286 0.3705652244 0.08025210419) 294 579 2
(0.1211368849 0.1861116114 0.2533199461 0.4394315575) 23 46 1
(0.2399066989 0.1324805811 0.3800466506 0.2475660695) 78 155 2
(0.4002708423 0.2998645789 0.1485455695 0.1513190094) 7 14 2
(0.1525050772 0.1231967661 0.4237474614 0.3005506954) 144 285 2
(0.370517934 0.314741033 0.1129174868 0.2018235462) 320 572 1
(0.4508879642 0.1428023293 0.2745560179 0.1317536886) 27 52 1
(0.1843497364 0.3760014661 0.4078251318 0.03182366566) 115 225 1
(0.506783834 0.246608083 0.1896773049 0.05693077808) 170 336 1
(0.3714312939 0.2046465918 0.314284353 0.1096377613) 358 703 1
(0.4187563789 0.2303995498 0.2906218106 0.06022226075) 149 292 1
(0.7531359284 0.1155824331 0.1234320358 0.007849602714) 58 116 2
(0.2897436089 0.1810217023 0.3551281955 0.1741064932) 237 465 1
(0.283864316 0.358067842 0.2551981454 0.1028696966) 448 824 1
(0.3740032976 0.3129983512 0.116945412 0.1960529392) 140 277 1
(0.6471694784 0.003136234866 0.1732790259 0.1764152608) 449 1055 1
(0.1553762183 0.4223118909 0.04681867314 0.3754932177) 382 753 1
(0.1369900562 0.2439585847 0.4315049719 0.1875463872) 29 58 2
(0.3976169539 0.04363979337 0.3011915231 0.2575517297) 262 517 2
(0.08396290342 0.4580185483 0.05051892239 0.4074996259) 27 52 2
(0.4705340492 0.1223743282 0.1423586472 0.2647329754) 298 587 1
(0.2885842267 0.3557078866 0.2629518483 0.09275603831) 22 44 2
(0.5652784631 0.2142583563 0.003102412154 0.2173607685) 109 215 1
(0.4466480384 0.035883032 0.2407929488 0.2766759808) 238 411 2
(0.1252400141 0.07549768771 0.4373799929 0.3618823052) 22 42 1
(0.2145157292 0.2067733587 0.3927421354 0.1859687768) 175 343 1
(0.1979446127 0.1172026858 0.2838250079 0.4010276937) 233 459 1
(0.2444302609 0.3600149192 0.3777848696 0.01776995033) 143 283 2
(0.6111057062 0.0111831707 0.1944471469 0.1832639762) 87 170 1
(0.07688221925 0.4615588904 0.05655045373 0.4050084366) 235 461 2
(0.05199187055 0.09408052692 0.4740040647 0.3799235378) 327 642 1
(0.6731688258 0.001446384779 0.1619692023 0.1634155871) 17 1073 1
(0.01338298814 0.4657499563 0.4933085059 0.02755854965) 149 292 1
(0.168421369 0.3250176218 0.09077169368 0.4157893155) 145 286 1
(0.8411826384 0.008110390718 0.07940868079 0.07129829007) 141 279 2
(0.6229507049 0.1819815621 0.1885246476 0.006543085482) 55 110 2
(0.3303537829 0.06309860581 0.3348231086 0.2717245028) 178 352 2
(0.2510972581 0.3007768791 0.07367449183 0.3744513709) 29 1041 1
(0.07606329622 0.4619683519 0.1095977942 0.3523705577) 326 584 1
(0.0001136531618 0.4950740578 0.4999431734 0.004869115656) 472 926 1
(0.5905647398 0.07940000305 0.1253176271 0.2047176301) 174 285 2
(0.6836110591 0.1581944704 0.05393881284 0.1042556576) 46 89 2
(0.420322527 0.2898387365 0.1958330264 0.09400571014) 322 634 2
(0.5875685476 0.2062157262 0.07379348471 0.1324222415) 26 50 2
(0.139766781 0.4301166095 0.2341954942 0.1959211153) 341 671 2
(0.6360297226 0.0500284325 0.1819851387 0.1319567062) 140 277 2
(0.4777474402 0.04675970755 0.2143665724 0.2611262799) 108 213 1
(0.3055092205 0.006210969 0.3410344208 0.3472453898) 107 153 2
(0.00932609899 0.4953369505 0.2685115459 0.2268254046) 172 340 1
(0.2123054835 0.3938472582 0.04119079437 0.3526564639) 112 221 2
(0.7174507608 0.1412746196 0.1063188274 0.03495579219) 177 347 2
(0.008192381283 0.215946608 0.4959038094 0.2799572013) 84 164 1
(0.0150198901 0.3835842624 0.4924900549 0.1089057926) 49 98 2
(0.5100849263 0.07799833125 0.2449575369 0.1669592056) 107 212 2
(0.639647164 0.01175361549 0.180176418 0.1684228025) 100 198 2
(0.4845550622 0.2030974381 0.05462503083 0.2577224689) 18 1074 1
(0.1039021049 0.4480489476 0.4379461129 0.01010283469) 115 225 2
(0.5850013517 0.2074993242 0.07377235841 0.1337269658) 113 224 1
(0.3679862858 0.3160068571 0.1825169744 0.1334898827) 389 707 1
(0.4103667883 0.09845186141 0.1963647444 0.2948166059) 205 404 1
(0.6239127977 0.1880436011 0.09097977827 0.09706382287) 142 222 1
(0.4446437409 0.2776781296 0.2491255861 0.02855254344) 261 456 1
(0.1815018519 0.03213168084 0.409249074 0.3771173932) 149 292 1
(0.7000483219 0.006342213824 0.1499758391 0.1436336252) 328 647 2
(0.5570783802 0.2214608099 0.16714938 0.05431142986) 73 142 2
(0.5981701945 0.1938413339 0.2009149027 0.007073568818) 142 278 1
(0.04606902453 0.4769654877 0.4521172171 0.02484827066) 141 220 1
(0.2957898329 0.3077810404 0.04432404315 0.3521050835) 28 1084 1
(0.08254316967 0.4209960572 0.03773235792 0.4587284152) 203 400 1
(0.3748340278 0.07037586906 0.3125829861 0.2422071171) 389 764 1
(0.236309688 0.381845156 0.2545737488 0.1272714072) 83 165 1
(0.535185223 0.2054240105 0.2324073885 0.02698337798) 237 465 1
(0.1484626964 0.3794844296 0.0462842222 0.4257686518) 112 163 2
(0.248113124 0.375943438 0.2816237599 0.09431967811) 110 215 2
(0.1106442782 0.4446778609 0.2096730423 0.2350048186) 79 157 1
(0.5180422652 0.2409788674 0.1363903418 0.1045885256) 47 93 2
(0.3175543497 0.01423079254 0.3412228252 0.3269920326) 58 116 2
(0.7989564354 0.04780545477 0.05271632754 0.1005217823) 202 398 1
(0.3950613277 0.05527552258 0.3024693361 0.2471938136) 81 158 1
(0.8073934345 0.09630328276 0.03751126256 0.0587920202) 386 760 2
(0.3852944255 0.2057991658 0.3073527873 0.1015536215) 205 402 1
(0.6608165396 0.084184593 0.1695917302 0.08540713721) 54 105 1
(0.0687770203 0.4094872178 0.4656114898 0.05612427208) 174 341 1
(0.07255782096 0.1332975297 0.4637210895 0.3304235598) 115 228 2
(0.0422724865 0.4788637568 0.4054024832 0.0734612735) 84 164 2
(0.1012482402 0.2550087533 0.1943671266 0.4493758799) 227 389 2
(0.183024569 0.1490181707 0.4084877155 0.2594695448) 109 213 1
(0.05115323141 0.4744233843 0.05422942596 0.4201939583) 111 161 1
(0.1452618447 0.4273690777 0.3798249099 0.04754416781) 265 523 1
(0.1213535626 0.4393232187 0.2277430795 0.2115801392) 25 50 2
(0.6703258491 0.1648370755 0.1239010422 0.04093603329) 239 1048 2
(0.161129916 0.4185977437 0.419435042 0.0008372982952) 178 352 2
(0.07653180014 0.05138908748 0.4103450125 0.4617340999) 80 100 2
(0.251366401 0.3743167995 0.3267122865 0.04760451301) 141 279 1
(0.1820175464 0.2107528767 0.4089912268 0.1982383501) 87 170 1
(0.2856418438 0.05979761302 0.2973814651 0.3571790781) 119 176 2
(0.5796047158 0.1925761238 0.2101976421 0.01762151824) 446 879 2
(0.5626580314 0.2186709843 0.1126218502 0.1060491341) 203 400 2
(0.3144318721 0.2006353624 0.1421487016 0.342784064) 50 41 2
(0.8070677813 0.09646610934 0.01552565493 0.08094045442) 26 1082 2
(0.005066999402 0.0116170943 0.4974665003 0.485849406) 108 214 2
(0.003626374107 0.1210843578 0.4981868129 0.3771024552) 89 174 1
(0.4044510454 0.1296474596 0.1681270177 0.2977744773) 207 350 2
(0.01640684336 0.4917965783 0.3198562051 0.1719403732) 172 339 2
(0.2345767484 0.3827116258 0.2835514953 0.09916013051) 148 290 2
(0.03689423104 0.4815528845 0.2369079255 0.244644959) 16 1072 2
(0.2787199353 0.3606400324 0.3302150369 0.03042499544) 268 529 1
(0.05582287883 0.1223311829 0.3497573777 0.4720885606) 24 48 1
(0.1067027787 0.4466486107 0.1418367168 0.3048118938) 109 213 2
(0.5929610572 0.136280542 0.06723892937 0.2035194714) 207 350 2
(0.7647440448 0.02217817926 0.09544979835 0.1176279776) 20 40 1
(0.3389749001 0.33051255 0.2689746013 0.06153794869) 141 220 1
(0.3653261226 0.3173369387 0.2990685651 0.01826837354) 236 466 1
(0.5681995225 0.1520517583 0.2159002388 0.06384848044) 13 24 1
(0.2254961605 0.3872519198 0.2013984499 0.1858534699) 55 51 1
(0.1457107075 0.4271446463 0.1158005031 0.3113441431) 26 1082 2
(0.396646059 0.3016769705 0.06282802038 0.2388489501) 115 169 1
(0.7732370238 0.05780792566 0.1133814881 0.05557356242) 26 53 2
(0.4318066783 0.02718431545 0.2840966608 0.2569123454) 148 293 2
(0.1098127798 0.4450936101 0.423850707 0.02124290314) 28 1084 2
(0.4657107683 0.2671446158 0.06700123235 0.2001433835) 8 14 2
(0.5465187623 0.2119822346 0.2267406188 0.01475838422) 268 526 1
(0.4013654155 0.2425478692 0.05676942308 0.2993172923) 204 344 2
(0.1649773972 0.1618353506 0.2556759508 0.4175113014) 119 176 2
(0.0374486802 0.3212825191 0.4812756599 0.1599931408) 80 159 2
(0.6849547194 0.01034885919 0.1471737811 0.1575226403) 104 147 2
(0.2768856222 0.1091398803 0.2524173087 0.3615571889) 345 679 1
(0.4310877429 0.2161699909 0.06828613765 0.2844561286) 53 47 2
(0.3172685756 0.3413657122 0.1098419773 0.2315237349) 50 99 2
(0.4502099048 0.2748950476 0.04594239187 0.2289526557) 53 105 2
(0.01326021412 0.4005267199 0.4933698929 0.09284317305) 44 85 1
(0.05375624562 0.4731218772 0.06665600096 0.4064658762) 54 107 2
(0.1213398297 0.2547318435 0.1845982417 0.4393300851) 328 646 1
(0.1598527389 0.4200736306 0.07977134722 0.3403022833) 85 168 2
(0.8600462516 0.0699768742 0.05395330855 0.01602356565) 119 1044 2
(0.623463128 0.08593733411 0.188268436 0.1023311019) 147 288 1
(0.2469121066 0.342306147 0.3765439467 0.03423779972) 134 265 2
(0.342293959 0.3288530205 0.02806090255 0.300792118) 100 197 2
(0.3365661088 0.3317169456 0.3024176737 0.02929927185) 51 102 1
(0.6338223635 0.1148287021 0.06826011618 0.1830888182) 20 40 1
(0.08990988475 0.09382017078 0.3612248868 0.4550450576) 57 113 1
(0.7562419548 0.004247007592 0.117632015 0.1218790226) 87 172 1
(0.1801500904 0.3565470846 0.05337787021 0.4099249548) 352 635 2
(0.1795627725 0.4102186137 0.146861659 0.2633569547) 113 221 2
(0.4536797253 0.2731601373 0.1694917348 0.1036684026) 85 166 2
(0.3244621031 0.04948990818 0.3377689485 0.2882790403) 140 274 1
(0.07316603413 0.4634169829 0.09703641026 0.3663805727) 207 406 2
(0.05971326952 0.3530651611 0.4701433652 0.1170782042) 45 90 2
(0.3134246482 0.2399146355 0.3432876759 0.1033730404) 147 288 1
(0.145090208 0.427454896 0.1319817811 0.2954731149) 143 224 1
(0.3833316835 0.1173696561 0.3083341583 0.1909645022) 29 58 2
(0.5487890029 0.2084771144 0.01712838417 0.2256054985) 173 341 1
(0.2337413898 0.3831293051 0.3804270942 0.002702210904) 230 453 2
(0.05363920087 0.4523921651 0.02078823445 0.4731803996) 475 934 1
(0.03911630777 0.4804418461 0.09557415901 0.3848676871) 51 99 2
(0.1027346371 0.01885280051 0.4486326815 0.429779881) 22 45 2
(0.01821795913 0.3751151005 0.1157759199 0.4908910204) 54 107 1
(0.5269517962 0.2365241019 0.1815472004 0.05497690157) 114 223 2
(0.2803369025 0.3598315488 0.1781455174 0.1816860314) 205 402 2
(0.2876954418 0.3561522791 0.1129983894 0.2431538897) 178 349 2
(0.1136504218 0.4431747891 0.2272621023 0.2159126868) 171 335 2
(0.1721466922 0.06647263733 0.4139266539 0.3474540166) 161 315 1
(0.4227070074 0.07969922423 0.2886464963 0.2089472721) 59 117 2
(0.3591683875 0.3204158063 0.006037610491 0.3143781958) 19 1075 2
(0.0882678739 0.1235003036 0.3323657594 0.4558660631) 80 100 2
(0.04349621395 0.478251893 0.2422562464 0.2359956467) 389 1053 2
(0.3554020583 0.3222989709 0.1994608272 0.1228381437) 381 748 2
(0.1013056347 0.4493471826 0.4282877727 0.02105940992) 268 526 2
(0.2549246234 0.3725376883 0.04494948851 0.3275881998) 88 172 2
(0.7504362233 0.1247818883 0.01147922518 0.1133026632) 118 175 1
(0.02245252671 0.277453301 0.2113204356 0.4887737366) 82 162 1
(0.3587403052 0.3206298474 0.0325532855 0.2880765619) 23 47 1
(0.1001248741 0.4499375629 0.02550996582 0.4244275971) 347 681 2
(0.094120422 0.1746140172 0.452939789 0.2783257718) 286 564 2
(0.04539550321 0.4773022484 0.2079106887 0.2693915596) 47 91 2
(0.3094671579 0.3452664211 0.1246722897 0.2205941314) 267 524 2
(0.6996787254 0.1432869043 0.006873733008 0.1501606373) 78 96 2
(0.2176385343 0.3911807328 0.03959225293 0.3515884799) 50 100 1
(0.516370882 0.2191678799 0.241814559 0.02264667913) 88 172 1
(0.2398914183 0.177878892 0.2021753988 0.3800542908) 322 634 1
(0.4120329371 0.2939835314 0.1649796154 0.1290039161) 237 465 2
(0.08321668565 0.4491775251 0.009214132042 0.4583916572) 203 400 1
(0.762926445 0.1185367775 0.06250407523 0.0560327023) 20 40 2
(0.2080361366 0.3959819317 0.0639688789 0.3320130528) 170 333 2
(0.440917817 0.2795410915 0.1909612535 0.08857983802) 19 38 2
(0.3292636778 0.1721705544 0.3353681611 0.1631976067) 46 92 2
(0.4046366504 0.2976816748 0.2017378637 0.09594381106) 207 350 1
(0.3370574028 0.1425234518 0.1889478468 0.3314712986) 56 111 1
(0.4451151099 0.02635595677 0.2510864883 0.277442445) 112 221 1
(0.08674820302 0.1459206111 0.4566258985 0.3107052874) 48 93 1
(0.1431408762 0.01279985338 0.4156297085 0.4284295619) 175 287 2
(0.001145785243 0.4994271074 0.1418800491 0.3575470583) 177 347 2
(0.4966112326 0.1038532395 0.2516943837 0.1478411442) 292 576 2
(0.2641608526 0.2129719394 0.3679195737 0.1549476343) 204 403 2
(0.1884323786 0.4057838107 0.2719524581 0.1338313526) 138 272 2
(0.235590817 0.3822045915 0.02310078303 0.3591038085) 206 404 2
(0.5750959718 0.03857606843 0.2124520141 0.1738759457) 81 158 1
(0.7368400078 0.0007246971406 0.1308552989 0.1315799961) 292 575 1
(0.2841776943 0.3010537757 0.3579111529 0.05685737719) 54 108 2
(0.2163424804 0.3918287598 0.3320840401 0.05974471963) 22 42 2
(0.3599288981 0.320035551 0.06109043192 0.2589451191) 110 217 2
(0.4355918431 0.05725895743 0.224945121 0.2822040784) 143 282 1
(0.2963917594 0.1688888008 0.1829153195 0.3518041203) 52 45 2
(0.1351711032 0.4324144484 0.3952434378 0.03717101064) 57 111 2
(0.7299255532 0.001701831238 0.1350372234 0.1333353922) 88 175 2
(0.06510595678 0.275476375 0.1919706466 0.4674470216) 80 100 2
(0.6385468644 0.1807265678 0.05938493907 0.1213416287) 258 508 2
(0.7330879693 0.1334560154 0.005273062714 0.1281829527) 28 56 2
(0.7156019701 0.1421990149 0.03938359673 0.1028154182) 170 277 1
(0.8859815245 0.05700923776 0.05076947094 0.006239766812) 24 46 2
(0.1613771393 0.4193114303 0.1203750032 0.2989364272) 269 530 1
(0.3211608576 0.1687606237 0.1706589476 0.3394195712) 316 622 1
(0.122271725 0.4388641375 0.004672447237 0.4341916903) 175 343 2
(0.1056109423 0.4471945288 0.4288085198 0.01838600899) 50 100 1
(0.2081582822 0.05607923137 0.3398416275 0.3959208589) 17 1073 1
(0.1184329437 0.3000855729 0.4407835281 0.1406979552) 80 159 2
(0.197537268 0.401231366 0.2761442346 0.1250871314) 353 637 1
(0.2267830383 0.3866084809 0.3842777094 0.002330771458) 117 229 2
(0.62634144 0.075337617 0.111491663 0.18682928) 83 106 2
(0.4279177591 0.2860411205 0.2238990141 0.06214210639) 55 110 1
(0.2769838431 0.3615080785 0.07863485794 0.2828732205) 22 42 2
(0.3530351555 0.3234824222 0.05880509506 0.2646773272) 329 646 2