/*--------------------------------*- C++ -*----------------------------------*\
| =========                 |                                                 |
| \\      /  F ield         | OpenFOAM: The Open Source CFD Toolbox           |
|  \\    /   O peration     | Version:  2406                                  |
|   \\  /    A nd           | Website:  www.openfoam.com                      |
|    \\/     M anipulation  |                                                 |
\*---------------------------------------------------------------------------*/
FoamFile
{
    version     2.0;
    format      ascii;
    arch        "LSB;label=32;scalar=64";
    class       scalarField;
    location    "0.012/lagrangian/dsmc";
    object      Ei;
}
// * * * * * * * * * * * * * * * * * * * * * * * * * * * * * * * * * * * * * //


9503
(
1.556917819e-20
9.923325337e-21
7.690698227e-21
1.582356171e-21
4.162465649e-22
8.508053501e-21
3.236810117e-20
5.873592636e-21
2.496527874e-21
1.641003628e-20
9.292649873e-21
2.725642945e-20
2.249093836e-22
1.066826922e-21
1.775459147e-20
1.768132032e-20
2.414050942e-21
4.256625718e-21
6.70442562e-21
2.581636039e-20
2.061384364e-21
2.035438536e-21
3.125045334e-21
1.680962663e-20
1.113364413e-21
3.204906858e-20
1.350142224e-20
5.671195629e-21
1.943663356e-21
1.021149007e-20
8.894052095e-22
1.254293292e-20
2.124733572e-20
6.850584502e-21
1.408773893e-20
1.134829656e-20
4.877669114e-22
1.060001689e-20
5.524956958e-22
5.43369681e-22
8.479651533e-21
3.315317255e-22
5.627792194e-21
7.5784374e-21
1.185945723e-20
4.240637392e-21
5.144384996e-22
1.039238344e-21
9.286079196e-21
3.392220582e-21
2.605350551e-20
1.214343921e-21
1.89091614e-20
3.218154606e-21
5.233224431e-22
1.712725299e-20
1.097822701e-20
2.334851242e-21
2.976745484e-20
4.554961925e-21
1.226736331e-20
6.168111574e-21
6.850322005e-21
3.269359803e-21
8.558580174e-21
1.941928559e-20
3.966494936e-21
1.822863557e-20
8.271791886e-21
1.14644448e-21
2.223565047e-20
1.093905412e-20
1.891343153e-20
2.326504762e-21
3.92564026e-21
1.503346212e-21
2.425687033e-20
5.240378846e-21
1.027259602e-20
4.363159247e-21
1.711141827e-20
5.530210221e-22
3.534707049e-21
1.012060574e-20
1.398425721e-22
1.633568886e-20
4.969221206e-20
5.229570421e-21
2.002746707e-20
2.018145739e-20
2.41261669e-20
1.932649411e-21
1.997134175e-20
7.705394013e-21
2.315230405e-20
5.018614566e-21
2.581355789e-21
2.182824982e-20
4.651207052e-21
1.245759843e-21
1.751179224e-20
2.444351342e-21
5.195035558e-22
1.928746542e-20
1.918316887e-20
2.309920749e-20
3.820985135e-21
2.456864737e-20
1.858896665e-20
2.145080495e-21
1.179994006e-20
1.180760657e-21
1.511774404e-20
3.648384417e-21
6.106942802e-21
5.651455931e-22
1.07242675e-20
6.467282991e-21
6.124976309e-21
1.089527308e-20
2.494483845e-21
4.925613731e-21
1.973476417e-21
2.483280198e-20
3.030941807e-21
1.280915683e-21
9.412888571e-21
7.01638142e-21
9.042663517e-21
4.752915186e-21
5.777872128e-21
5.195259289e-21
1.513971935e-20
4.598882171e-21
1.292564336e-20
1.431184634e-21
3.245365527e-21
2.565893125e-20
1.583296869e-20
1.109223346e-21
1.901839969e-21
2.893748609e-21
4.74165518e-20
1.303637946e-20
2.446396742e-21
5.787873302e-21
4.664253312e-21
1.158194029e-20
8.616864162e-21
1.488418034e-20
7.248045442e-23
8.020207598e-22
2.953059908e-20
3.224166556e-20
2.535434117e-20
3.417006965e-21
8.742969654e-21
2.321512631e-22
3.186125001e-21
3.65452528e-20
5.946276805e-21
4.272848033e-21
8.794620934e-21
5.305462495e-21
3.090748154e-20
8.560539565e-21
1.517965838e-21
1.510232302e-20
1.881743666e-20
5.957222537e-21
3.527452867e-21
2.659614094e-20
2.818417496e-20
9.508725697e-21
1.345688708e-20
1.157207165e-21
2.012271243e-21
5.238744677e-21
1.288485113e-20
9.326359995e-21
1.110299323e-20
3.605497168e-20
4.48866172e-21
7.56867129e-21
5.177805742e-20
6.076430438e-21
2.583951015e-21
1.192133665e-20
6.296714888e-21
1.487820135e-21
1.425079487e-20
5.849398326e-21
1.948827622e-22
4.143251055e-20
1.29620713e-20
3.321399071e-21
2.566414795e-20
1.156026459e-20
7.426395198e-21
1.623807292e-20
3.725746628e-21
5.269508735e-21
2.935455033e-21
5.675264197e-21
1.172691501e-20
1.891447663e-21
7.449097585e-21
2.099128069e-20
1.388774262e-20
5.775377519e-21
4.979395976e-21
1.907594142e-21
3.42227128e-20
1.45965643e-20
1.900667257e-20
6.948952346e-21
9.298444917e-21
1.475793483e-20
5.098728463e-21
9.507653011e-21
8.416513845e-22
3.32831338e-21
5.647563091e-21
1.134320194e-20
1.312961964e-21
3.674995539e-21
2.599654222e-20
1.379195828e-20
1.077947589e-20
4.079120551e-21
2.861673622e-21
1.63414393e-21
2.74553771e-21
2.572046422e-21
1.501882973e-20
8.416981203e-21
1.043007132e-22
2.140247232e-20
3.626099521e-21
8.144320881e-23
1.199630683e-20
2.150177041e-20
8.244094111e-21
3.487854244e-20
1.839560461e-20
3.464705855e-20
2.34314211e-21
6.288157342e-21
8.167030287e-21
1.589003514e-20
2.828087547e-20
6.213892702e-21
6.266322543e-21
3.785013503e-20
1.78446092e-20
2.925839997e-20
7.836507829e-21
1.300110221e-20
1.269931192e-20
2.438138692e-20
4.898812958e-21
9.073455575e-21
1.437078666e-20
2.900101438e-20
2.289560466e-21
4.767719462e-21
2.692951281e-21
1.849035765e-20
2.474434724e-20
1.347680138e-21
5.530865107e-21
5.860566665e-22
7.543644286e-21
1.285363526e-20
1.946425914e-20
4.098061701e-20
7.899686048e-23
7.429204179e-21
1.70404264e-20
1.695998445e-21
7.904075052e-21
1.001608688e-21
4.030936881e-20
1.479344812e-20
5.452062579e-21
1.202108983e-20
3.469240452e-20
9.333805981e-21
2.742702119e-21
1.168607738e-20
6.510507702e-21
1.408023428e-21
1.205592486e-20
1.838035256e-21
9.837309171e-21
8.886350126e-21
4.350711063e-20
2.556553398e-21
8.814268594e-22
1.083945934e-20
5.348475577e-21
9.813129654e-22
8.27073909e-21
2.09523388e-20
7.649259496e-21
4.35361635e-21
8.38740058e-21
2.027893895e-21
6.926523705e-21
3.89128583e-22
1.050521789e-20
1.651343777e-20
5.115893135e-21
1.361887144e-20
2.829218029e-21
7.366569136e-21
1.943721905e-21
8.877608055e-21
8.664086692e-21
9.054386765e-21
1.987853437e-20
1.101682106e-21
2.720072034e-21
3.263711263e-21
5.79451162e-21
4.04984012e-22
1.609525172e-20
9.365666823e-21
3.709945644e-22
7.817442009e-21
4.221026347e-21
6.900310248e-21
9.490961212e-21
1.035409001e-20
9.479510443e-21
1.569977142e-20
1.510736606e-20
4.8488132e-22
1.184486936e-20
2.046420646e-20
5.655936422e-21
5.709569262e-21
1.951889485e-20
1.31178825e-21
5.091420482e-21
3.789522159e-21
2.77729047e-21
5.862829784e-21
4.615064761e-21
1.469279756e-20
2.531476585e-21
1.207401396e-21
7.6077751e-21
1.232775674e-20
1.534624193e-21
1.237021915e-20
2.918646902e-21
1.751241447e-20
3.256473249e-20
8.78829692e-21
1.67391307e-20
1.168464335e-20
7.994561591e-21
1.31673043e-20
1.312643954e-20
3.405946922e-21
2.270719498e-21
2.6226061e-20
1.41782276e-20
8.356538843e-21
2.951196517e-20
1.427184119e-20
2.909972701e-20
2.317355144e-20
3.239882407e-21
1.6709973e-20
4.51524446e-21
3.016745041e-20
4.990070388e-20
3.364348353e-21
9.739652691e-21
1.92386011e-21
2.153528922e-21
1.19442969e-21
2.986456185e-20
1.224508231e-21
5.549947443e-20
2.056943247e-20
4.240427105e-21
6.188384424e-22
1.27654465e-20
3.952247555e-20
1.824852408e-21
4.636899819e-21
2.025358971e-21
1.203784284e-20
6.860396197e-21
3.225619775e-20
1.906665596e-20
3.276470939e-21
4.947251362e-22
1.499769678e-21
1.255795079e-20
1.62581371e-21
4.012321921e-20
2.291998715e-20
2.273103681e-20
6.434856642e-22
3.028078481e-20
8.817721394e-21
3.016854236e-20
5.909439495e-21
1.259739714e-20
7.989212718e-22
1.326601513e-21
1.015433279e-20
3.98859599e-21
1.26504329e-21
2.828108825e-20
8.537641659e-21
1.090947034e-20
5.743862563e-21
7.241740024e-22
5.343520108e-21
8.798135014e-21
2.135979495e-20
1.88010926e-20
8.698581734e-21
4.027056105e-21
1.148455695e-20
1.092405253e-22
2.284073947e-21
6.147627236e-21
2.323293692e-20
1.590755234e-20
5.183515142e-21
1.237480579e-20
6.789649871e-21
1.506283947e-20
6.64718102e-21
1.025572059e-20
4.264456859e-21
8.18909883e-22
6.369690978e-21
1.012114575e-20
9.658978806e-21
4.738503802e-22
6.157657593e-21
1.225909612e-20
1.100396843e-21
2.659096349e-20
7.044908253e-21
1.289668702e-21
7.269288239e-21
3.574096889e-20
8.519795652e-22
1.72705532e-20
1.122092854e-20
8.34450727e-21
2.595551113e-21
1.246157307e-21
7.114467516e-21
2.529667181e-20
1.541049446e-20
1.753843691e-20
1.799854526e-23
1.000439396e-20
1.55495428e-21
4.884320252e-20
1.148121068e-20
1.994103199e-21
1.071098941e-20
1.735671063e-20
3.164174635e-21
1.518222221e-20
3.428843831e-21
4.104086505e-20
1.138679221e-20
8.237780895e-22
9.41283593e-22
3.947808078e-21
2.205637394e-20
8.015119432e-21
1.212686007e-20
6.323034089e-21
1.286055401e-21
2.189655345e-20
2.721912165e-21
3.856163346e-22
1.669675446e-20
5.938631379e-21
1.633660914e-20
7.194160113e-21
3.079547377e-21
5.524008245e-21
9.753609362e-21
2.119099446e-21
7.496893302e-21
4.326359583e-21
2.871601384e-20
5.515361001e-21
1.820047553e-20
3.03806498e-20
1.059848828e-21
2.048133285e-21
1.825628918e-20
1.26038586e-20
5.160074898e-21
3.970104378e-21
3.52910774e-20
4.028786091e-20
4.100614684e-21
4.626964214e-21
2.156819236e-20
5.572827205e-21
5.770189218e-21
3.193246089e-21
1.783412606e-20
3.577360128e-21
1.063009516e-20
1.873011893e-20
1.36881114e-21
1.003670192e-20
2.466372441e-21
1.764950595e-20
4.201408052e-21
9.275861322e-21
1.877246538e-20
5.456232975e-21
2.099796558e-21
6.545205248e-21
1.025164457e-20
1.986704454e-20
6.445010632e-21
1.712190757e-20
2.764800429e-20
1.058883063e-20
1.398275539e-20
9.20649438e-21
8.140903242e-21
5.436560285e-21
3.07148106e-20
1.06798585e-21
4.863068896e-21
4.385496383e-22
2.172157057e-21
3.48411797e-21
9.001721192e-21
9.37445999e-21
2.427937279e-21
1.373485099e-21
1.718204609e-21
8.031574296e-21
1.579950477e-20
1.865730319e-20
3.954969071e-21
2.141915482e-20
5.937181607e-22
4.631451607e-20
5.348153398e-21
2.376203235e-21
2.359057726e-21
3.410988675e-21
6.59652858e-22
1.996812552e-20
2.800882952e-21
3.797395104e-21
5.522938829e-20
1.22310656e-21
4.184662843e-21
2.926238572e-21
1.125133688e-20
2.072388179e-20
3.03007302e-20
1.458962909e-20
9.998442283e-21
1.183057069e-20
8.368615456e-21
9.785156797e-21
9.225532767e-21
1.430736725e-20
3.341175764e-20
4.837589539e-21
2.568467338e-22
3.322985192e-21
5.733865417e-21
5.262950794e-21
8.115742127e-21
2.194531401e-20
2.027372396e-21
1.024198649e-20
1.19753041e-20
1.135778906e-22
1.882410464e-20
1.19046054e-20
5.129516033e-21
2.335445441e-21
2.230093465e-20
2.102006837e-21
3.993617165e-22
7.59244126e-21
7.316776101e-21
7.403741081e-20
6.896224558e-22
2.58212173e-20
5.496301833e-21
8.224684094e-21
7.885361256e-21
1.085662114e-20
3.855089091e-21
8.190522148e-22
1.530366534e-21
5.013312294e-21
7.853542803e-21
1.339618195e-20
6.408528871e-21
3.968460184e-21
2.452691408e-20
2.968359893e-20
8.819006497e-21
6.638164164e-22
1.20784851e-20
2.462105619e-20
2.108050265e-21
5.423890468e-21
2.360733573e-20
6.87092676e-21
2.306019201e-20
2.363453133e-20
1.141967715e-20
7.441432124e-21
2.866645475e-21
3.806416737e-21
1.436690011e-20
1.350238723e-20
1.291580956e-20
3.813342796e-21
6.317294344e-21
5.593053926e-21
5.971630348e-21
1.809244936e-20
4.01636616e-21
1.208929064e-20
1.359674939e-21
1.471475212e-20
1.530153138e-20
1.676479888e-21
2.661992284e-22
1.621226988e-21
3.064755498e-20
1.114677852e-21
9.741997909e-22
2.000648053e-20
5.816494407e-21
7.176835156e-21
5.306027113e-21
1.266835275e-20
1.857802508e-21
2.294385781e-20
2.428949348e-20
9.247457821e-21
1.569511227e-21
1.868808908e-20
2.220133459e-20
2.269512101e-21
6.902561617e-22
4.072487874e-20
1.078371797e-20
3.986864319e-21
1.942063914e-20
1.114235144e-20
3.054543956e-21
6.839930506e-21
8.792538584e-22
2.165691547e-20
4.066933098e-20
1.310019031e-20
1.521832157e-20
8.367541708e-22
3.180146713e-21
1.145279645e-21
1.708154083e-21
1.899849257e-21
1.674446684e-20
4.102261075e-21
1.126996096e-21
3.469544973e-21
2.672481763e-21
7.530284462e-21
2.050902884e-21
1.476041386e-20
7.814636887e-21
6.201294977e-23
9.898493487e-21
9.278502348e-21
4.71443494e-22
1.58138353e-20
2.795131493e-20
2.170705661e-20
3.705571727e-21
2.012118522e-20
1.273089945e-20
2.344160899e-20
7.402053104e-21
3.14874942e-21
3.652518571e-21
1.244556839e-20
2.153786987e-20
1.256073896e-20
9.05816327e-22
1.984458994e-20
7.260143112e-22
2.002386997e-21
1.579712785e-20
5.306614417e-21
2.525966003e-21
4.493543035e-21
1.15430792e-20
1.516190965e-21
7.184339321e-21
5.529561103e-21
1.921438897e-20
3.717533682e-22
6.064526547e-21
2.581311931e-21
5.015119594e-21
4.009615491e-21
2.836475824e-20
1.080375943e-20
1.759663022e-20
6.184833876e-22
2.166884096e-20
2.156475262e-21
3.074105145e-20
4.136074912e-21
2.025688112e-21
2.953783968e-22
1.073736162e-20
1.354178293e-21
2.18424897e-21
6.105032915e-21
6.970347442e-21
2.181451346e-21
6.798758837e-21
9.041076262e-22
2.087664183e-20
7.048294419e-21
9.451890386e-22
7.989094533e-21
2.072530812e-21
1.482823208e-20
1.519625635e-20
9.184780103e-21
1.06726621e-20
1.346358393e-20
1.949693005e-20
1.93344576e-20
6.877280677e-21
8.56433948e-22
6.699161589e-23
2.41245878e-20
8.162778854e-21
2.471414406e-21
6.157592984e-22
3.330910359e-21
3.673352399e-21
1.087927568e-20
4.390513446e-21
9.256336335e-21
6.014266738e-21
1.433524268e-21
1.426660789e-21
3.464938761e-22
1.401706486e-20
2.224720767e-20
4.303679073e-21
1.315827729e-21
4.517634085e-21
7.721659448e-21
5.841456407e-22
1.229585792e-20
7.794533903e-23
6.852789746e-21
2.321407383e-22
7.599469734e-21
1.271461204e-20
7.099679008e-22
7.625144413e-21
5.216277511e-22
4.008570828e-20
1.080340263e-20
2.009372912e-20
5.152376162e-21
1.218836711e-20
8.418440072e-21
4.471780112e-21
4.657467804e-21
6.634783056e-21
1.346434873e-21
2.727347567e-22
9.06862795e-21
3.877336098e-21
5.414854174e-21
1.269918214e-21
3.327581057e-21
1.44233437e-21
1.787687252e-20
4.536191362e-21
3.4422967e-20
2.080175505e-20
4.189844677e-21
5.016916293e-22
6.984741523e-22
2.659623856e-21
8.369067444e-21
9.537222461e-21
5.905446183e-21
2.79164431e-21
2.398558893e-20
4.925278767e-21
1.365154385e-21
9.080199587e-21
3.197812468e-21
9.144385068e-21
2.442389003e-23
3.998476056e-22
5.712739034e-21
9.94968951e-21
2.178115943e-20
7.206175211e-21
6.942193267e-21
1.703848065e-20
1.914450437e-21
1.839459946e-22
1.819489929e-20
7.826537139e-21
2.290621761e-20
5.227484901e-20
2.740682679e-22
5.34384565e-21
1.415246378e-21
1.35091437e-20
1.509529613e-20
2.820330778e-21
5.866085407e-21
1.295110671e-20
1.205707198e-21
5.358416936e-21
9.828889404e-21
8.301341338e-21
8.418501479e-21
4.199316805e-21
1.074205321e-21
5.915358489e-23
1.203733263e-20
6.673805192e-22
5.662380263e-21
1.450250336e-20
6.148999223e-21
4.633549986e-21
2.096481166e-20
6.297011719e-21
1.112225116e-20
7.652296693e-21
6.309077488e-21
3.698132751e-20
2.0506265e-20
1.892988872e-20
7.910094844e-21
1.562636631e-20
3.996052498e-21
4.929426322e-21
2.408288917e-21
1.006741102e-20
1.785165254e-20
3.571028151e-21
9.874566576e-21
2.735000687e-22
1.248678035e-20
1.736170024e-21
7.927560272e-21
9.462306516e-22
4.100038421e-21
8.524433434e-21
1.34139529e-20
1.534524178e-20
4.498996148e-21
1.413567917e-20
3.953706962e-21
8.808545491e-21
1.041106117e-20
1.439064601e-20
8.477087444e-22
1.404551192e-20
3.769988853e-21
1.214121909e-20
4.330304703e-21
1.523470099e-21
1.396162326e-20
1.701583778e-21
3.03425598e-22
7.498555009e-21
2.064288548e-20
5.77640487e-21
2.065540296e-20
3.770786607e-21
4.918311264e-22
1.151596667e-20
1.636241157e-20
1.633684762e-20
1.472666366e-20
1.787947973e-20
1.283584581e-22
7.806206755e-23
2.820253847e-22
3.212333177e-21
7.949608149e-21
5.299317647e-21
3.45220287e-20
3.529491773e-21
1.798999141e-20
1.793705449e-21
9.375634178e-22
2.937159854e-20
1.774103084e-20
3.579419786e-21
2.004607872e-20
4.854822823e-21
2.871462184e-20
2.304430882e-21
9.416102473e-21
1.847646914e-21
2.308837446e-22
6.8425338e-21
1.986452086e-21
3.446046725e-20
5.879634089e-22
8.375758042e-23
2.712332233e-20
1.036544601e-20
2.45596908e-21
5.015287215e-21
2.870234999e-21
1.537702582e-22
1.995310395e-21
2.310303117e-21
3.356399521e-20
1.038798007e-20
1.312411732e-20
8.930217139e-21
7.287800216e-21
9.280165109e-21
4.778044639e-21
3.583437793e-21
1.299381603e-20
1.611473551e-20
1.447378436e-20
3.431074468e-21
4.13031058e-21
8.660060013e-21
2.773278709e-20
2.000994351e-22
3.215077189e-21
1.095178786e-22
7.826250095e-21
8.018679236e-22
5.420820545e-21
1.728820935e-20
1.191258869e-21
3.909178368e-21
2.513617644e-20
1.625382378e-21
3.959988019e-22
5.337741275e-21
4.232337685e-21
1.282297701e-20
4.042949556e-22
5.729308712e-21
1.933822631e-20
1.350797046e-20
1.644532264e-20
2.98721003e-21
2.087744015e-21
8.841880527e-21
6.973963849e-21
1.015220004e-20
9.822742292e-21
1.610792111e-21
5.149026686e-21
9.636107968e-21
2.400656014e-21
9.20139899e-21
5.508372772e-21
3.442451096e-21
1.52818919e-20
1.215714085e-20
1.936258388e-20
5.049980896e-22
3.806568747e-21
2.181417809e-20
4.533845222e-21
2.059487526e-20
4.401731848e-21
4.637479225e-21
2.834547023e-21
5.921741172e-21
4.353504678e-21
7.461985396e-21
3.637096091e-21
3.501708858e-21
6.791253697e-21
7.111641247e-21
4.673291094e-22
1.504850157e-21
6.38076205e-21
3.558761139e-21
1.061995473e-20
1.511932616e-21
1.451858169e-21
6.899982382e-21
7.184142653e-21
1.996902752e-20
9.850527584e-21
1.355878499e-20
1.845465991e-21
1.025279959e-20
7.267895335e-22
2.194645643e-21
9.31975409e-21
2.191525552e-21
5.087499195e-21
1.029836265e-22
9.176949549e-21
6.858178072e-21
1.036204717e-20
1.372865664e-20
6.931414609e-22
8.100335858e-20
3.729971999e-21
1.576793641e-20
7.598936358e-22
4.334588982e-21
7.731735794e-21
1.47200461e-20
1.647467175e-20
5.976551715e-21
5.157591513e-22
1.605875609e-21
1.013289375e-20
7.416400003e-22
1.002862801e-20
1.172149892e-20
1.351632091e-21
5.893774192e-21
8.248454e-21
6.224277657e-21
4.760065564e-21
5.394896537e-21
1.180400121e-20
5.504285285e-21
1.179305315e-21
6.744458276e-21
3.520830442e-21
3.884518091e-20
1.932926656e-22
3.435066399e-20
2.212861477e-20
8.031801748e-21
2.330509258e-20
1.245313216e-20
8.629061067e-21
5.894357695e-20
7.27628742e-21
2.880983353e-20
5.605223532e-21
1.436745705e-20
1.735001322e-20
7.501566428e-21
1.398246132e-21
3.44012196e-20
1.14387192e-20
4.338611251e-21
9.814978569e-21
4.586371154e-21
1.172658919e-20
5.913408844e-21
5.69538686e-21
1.095605905e-20
5.609926745e-21
5.216182031e-21
1.226135462e-20
1.411750267e-20
2.023713443e-20
8.271503737e-21
4.117532604e-20
1.890439239e-21
6.457274241e-20
8.84225493e-21
1.851301309e-20
5.571231982e-21
4.736099433e-22
5.943532935e-21
1.166930085e-20
4.212261752e-20
7.363100477e-21
3.99071065e-21
5.529725836e-22
1.099080049e-20
8.433229332e-21
4.403731502e-22
2.211658405e-20
1.887183885e-20
3.019457146e-21
1.302256103e-21
1.146226669e-20
5.498750016e-21
2.946077925e-21
6.931649405e-21
2.044050359e-20
1.25831907e-20
2.725301357e-21
3.959439389e-21
2.080969796e-20
1.943084417e-20
2.588714734e-20
1.169234859e-20
4.842824727e-21
8.20639252e-21
2.306196372e-20
4.686373628e-21
3.177507758e-20
5.357074681e-21
3.198370964e-21
2.105704413e-20
1.896524339e-21
1.02379207e-20
3.281642368e-21
3.476320458e-22
3.912864869e-21
5.056838362e-21
3.759271498e-22
4.593818138e-21
1.382310468e-20
1.179626446e-20
1.029698369e-20
1.929305407e-21
5.187387768e-21
1.522537229e-20
1.524760668e-20
5.243335975e-21
6.000070336e-21
2.970640926e-21
6.609109978e-21
4.145582678e-20
1.753821868e-20
9.362486297e-21
2.320538316e-20
3.081335041e-21
3.080873396e-20
2.431013302e-21
2.032739913e-20
2.884837185e-20
1.301566612e-20
6.811800258e-21
1.590917531e-20
2.163594708e-21
5.056791467e-21
1.014017718e-20
1.187986578e-20
8.033550009e-21
5.596061449e-21
8.927722278e-22
2.248821829e-20
4.993043856e-22
1.22019739e-21
1.918918719e-20
5.391506613e-21
6.804289893e-21
1.049584477e-20
4.995659405e-21
1.226351403e-21
1.659760323e-20
4.840926881e-21
7.325807925e-21
1.339916076e-20
1.152378935e-20
5.844834971e-21
2.032260768e-20
5.244786391e-21
7.011237742e-21
2.135340138e-20
2.423350376e-20
1.053582426e-20
1.586598631e-22
4.980666155e-21
9.362173751e-21
3.419208882e-20
7.450180014e-21
6.430409921e-21
1.728260045e-21
2.013374603e-21
2.389684223e-20
7.498445336e-21
6.229342023e-21
6.919714477e-21
9.273291331e-21
9.60098934e-21
1.487036875e-20
5.949499516e-21
4.799385577e-21
1.608854944e-20
1.625864379e-20
3.402457787e-20
1.518163228e-20
8.246948452e-21
2.066277023e-20
7.021635368e-21
2.342047326e-20
1.459805022e-21
8.69811294e-21
1.00830477e-20
8.834692855e-21
1.634149187e-21
2.16287956e-21
1.814882529e-20
2.535076523e-20
1.099195116e-20
9.046882668e-21
2.940652007e-22
7.992707271e-22
3.803533545e-21
1.086936454e-20
2.004689153e-20
1.508137971e-20
5.251101658e-21
2.701119815e-20
1.737245415e-20
2.1115848e-20
2.422140859e-20
2.787285356e-22
8.350135017e-21
1.507610233e-21
5.948745528e-21
2.230225e-20
2.823691371e-20
8.495161715e-21
9.433379849e-21
1.655831495e-20
3.116048338e-21
1.931876021e-20
2.02459672e-20
1.04619384e-20
1.196536424e-20
9.250332031e-21
1.589789247e-20
1.981293641e-20
7.959575746e-22
3.140691281e-20
4.664558161e-21
1.540551499e-20
1.548813473e-20
2.39995679e-21
2.961917363e-22
7.382496065e-21
3.036787273e-20
7.163554329e-21
1.433318647e-20
2.725072957e-20
1.272398108e-20
1.103837276e-20
3.298266237e-21
4.249615053e-21
1.968062541e-20
1.99663952e-21
2.567375799e-21
1.517762311e-20
1.015131388e-20
1.203078473e-20
1.522025245e-21
1.775649775e-21
1.732450535e-21
5.471367496e-22
3.320622042e-21
5.670407388e-21
8.313313317e-21
1.551378944e-20
9.337489365e-22
7.745851156e-21
1.103058208e-20
5.558084541e-21
1.669058514e-21
1.091061329e-20
3.04177454e-20
4.085917923e-20
1.044711278e-20
1.041665861e-20
1.357337494e-20
1.430787304e-20
7.997370802e-21
3.616910749e-21
8.35483685e-21
2.181435016e-20
1.322572894e-20
3.200025889e-20
1.730447137e-20
2.795650472e-20
3.008123773e-20
3.458791416e-21
9.715257123e-21
6.397366917e-21
4.861176349e-21
2.068386814e-21
1.662573544e-20
2.575767303e-20
2.441067893e-20
9.065661472e-21
5.297648514e-22
3.513438959e-21
3.132042411e-21
1.752869414e-20
2.004887011e-20
1.170325863e-21
1.758663994e-20
1.756542291e-22
1.934706986e-20
2.794967836e-21
2.474617073e-21
2.863844575e-20
3.512083578e-21
8.48940519e-22
7.241524027e-21
2.346782441e-20
2.938151364e-21
2.831775344e-20
6.356356755e-21
7.74985653e-21
1.853804086e-20
2.349634676e-20
1.200724116e-21
2.334124136e-20
1.179466897e-20
1.491147825e-20
2.001814431e-20
8.821283921e-21
1.441214485e-20
3.940124764e-21
2.366454512e-20
2.548867018e-21
7.24626976e-21
1.041454789e-20
3.272081121e-20
5.370280166e-21
8.125549914e-21
3.431431669e-21
1.644842094e-20
1.091079392e-22
3.74390702e-20
1.353913057e-20
2.798915006e-21
1.623673835e-21
4.96334541e-21
2.997452825e-20
2.255353314e-20
4.394519219e-20
8.960495387e-21
2.850660229e-21
2.660169162e-20
1.800953191e-20
6.982407619e-21
2.177732925e-21
6.070020771e-21
4.121881688e-21
4.147515832e-20
8.182047342e-21
1.299464852e-20
6.435056272e-21
1.887723561e-20
3.741719834e-22
2.863189185e-20
2.944192677e-21
5.861936166e-21
5.341044277e-21
2.162581497e-20
2.732219523e-20
6.990557077e-21
3.433674782e-21
3.203595701e-21
9.708247001e-21
1.288109967e-20
1.493731835e-21
2.538155138e-20
1.320733224e-21
6.345223654e-21
5.776702555e-21
4.142091618e-22
9.468431252e-22
2.136059898e-22
2.251288271e-21
2.381363228e-20
2.054154324e-20
1.067238487e-20
5.627599394e-21
1.052434807e-20
1.37400478e-20
4.815277527e-21
1.888967017e-20
1.644615692e-20
1.025552636e-20
4.054488211e-21
2.252067736e-20
2.192856481e-20
4.883142818e-21
1.212898293e-20
5.766220635e-21
3.27427688e-21
2.150610059e-21
4.383652943e-21
3.752420588e-21
4.628107386e-20
2.995430324e-22
2.242636029e-21
3.526391544e-20
1.362649011e-20
2.293134337e-20
2.915950152e-20
6.346822827e-21
1.325981888e-20
1.472828248e-20
7.690574646e-21
7.38702393e-22
2.610313776e-21
1.189415052e-20
4.224529513e-21
9.755435287e-21
1.071806079e-21
1.730577168e-21
1.074969837e-20
1.316456906e-21
6.994541529e-21
1.517408079e-21
6.316628736e-22
1.645861387e-21
4.255773223e-21
8.692964252e-21
4.039135968e-21
1.672136546e-21
2.833149707e-21
1.099361614e-21
2.377402462e-20
2.404363241e-21
2.238548812e-20
2.254092327e-20
2.35764815e-21
2.379218179e-20
5.901176135e-22
6.603397721e-21
7.917781015e-21
1.31382228e-20
5.127339243e-21
7.413935619e-21
3.692713043e-21
1.011274429e-21
3.592978301e-20
3.660776847e-21
9.433843089e-21
2.174510759e-21
7.125985588e-22
2.202510677e-21
8.307217362e-21
3.597543907e-21
9.603471918e-21
5.676407816e-21
3.571609515e-21
2.069797013e-20
1.509086464e-22
1.042887665e-20
1.148234567e-21
9.848405928e-21
1.051902002e-21
2.63016231e-21
3.001673276e-20
1.832802959e-21
2.062831614e-20
7.64895372e-21
3.945611386e-21
4.826928829e-21
1.224702081e-20
1.391315946e-21
1.963471508e-21
7.471226843e-21
1.056060796e-20
2.293696985e-20
4.092439239e-21
5.902000201e-21
3.268898264e-21
1.313867729e-20
3.911056536e-21
2.684229209e-20
5.028043087e-21
2.592525024e-20
2.099928027e-21
1.876015587e-20
1.578795208e-21
1.067208959e-20
3.454608568e-20
4.567549965e-21
5.893290035e-21
1.227433911e-20
5.192786188e-21
2.164797069e-21
9.09939906e-21
1.605106878e-21
3.961419298e-21
1.33259564e-20
5.149851111e-21
5.406240632e-21
3.799338861e-22
5.704065186e-21
1.334611382e-20
8.429899385e-21
3.381970214e-21
4.811209063e-20
6.168148294e-21
1.008717921e-20
2.404696914e-21
4.445473344e-21
7.376823646e-21
3.40757042e-20
1.467059502e-21
2.994860766e-20
7.106232665e-21
3.505703673e-22
3.393344055e-20
1.231638572e-20
1.388363115e-20
2.251782829e-21
1.78293243e-20
5.920637963e-22
1.312200721e-20
1.546369408e-20
3.455618721e-21
6.241070549e-21
1.259488597e-20
2.094848696e-20
5.952098536e-21
1.020668037e-20
2.741392776e-21
8.94698543e-21
8.368775296e-21
2.553593636e-20
2.387064498e-22
1.311924026e-20
1.438704543e-21
2.054558008e-21
2.024958724e-20
6.663705619e-20
1.62189843e-20
5.75735616e-21
5.815958111e-21
6.120414296e-21
2.20112575e-21
4.205675145e-21
9.164014407e-21
2.844916465e-20
4.782180925e-20
2.450982172e-20
4.449253108e-20
5.03438062e-21
1.899170338e-21
7.326154142e-21
3.045757284e-21
2.075261792e-20
1.233930537e-20
1.313583823e-21
4.037953647e-21
1.681814246e-21
1.244726167e-21
3.344647395e-21
4.073325339e-22
3.075657259e-21
2.106160504e-20
1.095257589e-20
3.366681225e-21
6.335032144e-21
4.382507587e-21
4.474584876e-20
4.320281825e-21
4.954742624e-21
2.57216704e-21
1.241011014e-21
7.42840962e-22
1.613091667e-21
1.905326055e-22
3.615569219e-20
9.499866563e-21
9.432045498e-21
7.569856237e-21
3.092697068e-21
2.920210703e-20
5.847328037e-20
7.124485818e-21
1.679458608e-20
1.097026833e-20
2.851689411e-20
1.274194923e-20
3.52773782e-21
2.075089166e-20
1.796694621e-21
7.437060139e-21
1.718449691e-21
2.624114915e-21
1.063409571e-20
7.718797579e-21
2.326374755e-20
4.324334304e-21
2.142599095e-20
1.559837974e-20
1.17816986e-20
5.604314288e-21
4.433858161e-22
2.454964432e-21
3.70167495e-21
8.685372071e-21
1.413474007e-20
1.019560048e-20
1.144620237e-20
6.472333808e-21
2.163974283e-20
1.280600028e-20
1.011826931e-20
2.994403209e-21
7.883847921e-21
1.914418646e-20
3.552226588e-21
6.324267956e-21
7.483436924e-21
7.77852898e-21
1.464029195e-21
2.131949759e-20
6.700584558e-21
5.113210394e-22
4.110718789e-21
4.056570723e-20
1.143858267e-20
6.622843583e-21
1.053988921e-21
1.779742236e-20
5.370833738e-21
7.459387855e-21
6.155815824e-21
5.45188308e-21
2.771668398e-20
2.6633408e-21
7.213378851e-20
2.154047719e-21
2.56207744e-20
1.11130239e-20
4.053360573e-22
3.400621348e-22
1.613955573e-20
4.71577238e-21
8.766515379e-21
1.214790378e-20
2.587835884e-20
9.40061688e-21
1.592694919e-20
3.045542352e-21
1.035623329e-20
1.277279228e-21
8.026066261e-21
7.719470235e-21
1.416564207e-20
1.070714769e-20
2.764197268e-20
2.64599498e-20
1.096029018e-20
9.167559093e-21
1.52843096e-20
1.677990262e-20
4.442164541e-21
2.991696519e-21
1.881073634e-23
9.369062477e-21
1.312716163e-20
1.060600818e-21
1.191335886e-20
7.953245678e-21
2.891915937e-22
1.128993642e-20
1.021508502e-20
1.155288401e-20
1.215890895e-20
4.815248883e-21
1.082772873e-20
1.823447463e-20
1.986959529e-20
3.56807201e-21
9.543521744e-21
1.153704544e-20
5.138913318e-21
8.022976848e-21
6.91527684e-22
4.816361387e-21
4.754115936e-21
3.548003809e-21
1.128599673e-20
1.7761958e-20
2.493871213e-20
1.451153936e-22
1.069293259e-20
4.625499417e-21
2.391129554e-21
3.513147708e-21
8.146035704e-21
1.306013463e-20
4.500348681e-20
1.509782737e-20
1.995215776e-20
1.448217092e-21
3.81255925e-21
2.156433578e-20
1.197009023e-21
8.267698084e-21
6.813015709e-21
3.151092544e-21
9.154330858e-22
4.10471264e-21
1.81323282e-21
1.967280965e-20
2.777905043e-21
3.428367795e-20
7.788126533e-21
1.056882045e-20
3.923930878e-21
3.10034024e-21
3.614892556e-21
1.302988013e-20
1.439006507e-20
1.320894827e-21
2.143400458e-23
4.787131836e-21
1.765970508e-21
1.213636984e-20
6.781968153e-21
1.151566095e-20
4.611088141e-21
4.882677937e-22
3.773403944e-21
1.084422697e-21
5.933369458e-21
1.730964833e-21
1.445172259e-21
5.604890376e-21
1.978323035e-20
2.680105557e-20
1.843682411e-21
7.460231824e-22
3.19932735e-20
2.368991746e-20
2.488586156e-20
5.308462865e-20
1.52049463e-20
1.40801168e-20
3.754165992e-21
2.04816959e-20
3.813007083e-20
4.92524108e-21
3.28885849e-21
3.234786268e-21
6.208253192e-21
1.122223178e-20
1.740582855e-20
1.458577082e-20
2.87480336e-21
6.174948814e-21
5.970942723e-21
3.677231704e-20
5.994191196e-21
7.50208667e-21
1.474891982e-21
4.765218242e-22
1.049893844e-20
2.186323012e-20
1.051795302e-20
1.463850248e-20
4.116535759e-21
3.176839401e-20
9.582651878e-21
1.959493277e-21
1.309910959e-21
6.053956223e-21
4.025175041e-20
7.026866311e-21
5.687636874e-21
3.875214748e-20
1.582923199e-20
1.039910868e-21
6.625371231e-21
3.018680753e-20
1.321884466e-20
2.450716458e-20
4.248912825e-21
1.74333223e-20
1.085925996e-21
4.615560388e-21
6.617317773e-21
3.017617891e-20
2.954575538e-20
7.740833963e-21
2.501088257e-21
5.572129962e-21
1.880012342e-20
4.400085597e-21
5.587336579e-21
8.115137754e-21
3.43178456e-21
4.491979947e-21
6.185198629e-21
1.094181709e-21
2.282201931e-21
9.381622754e-21
9.797587254e-21
5.520654353e-21
7.775387424e-21
6.556370353e-21
4.598660122e-21
4.747811987e-21
1.00833582e-20
8.72876533e-21
5.800452907e-21
2.530653936e-21
4.999636603e-21
1.776234758e-20
1.843660322e-20