/*--------------------------------*- C++ -*----------------------------------*\
| =========                 |                                                 |
| \\      /  F ield         | OpenFOAM: The Open Source CFD Toolbox           |
|  \\    /   O peration     | Version:  2406                                  |
|   \\  /    A nd           | Website:  www.openfoam.com                      |
|    \\/     M anipulation  |                                                 |
\*---------------------------------------------------------------------------*/
FoamFile
{
    version     2.0;
    format      ascii;
    arch        "LSB;label=32;scalar=64";
    class       labelField;
    location    "0.012/lagrangian/dsmc";
    object      origId;
}
// * * * * * * * * * * * * * * * * * * * * * * * * * * * * * * * * * * * * * //


9503
(
563302
568484
573761
572810
575025
571253
573992
577170
577689
575973
576413
580781
575152
577905
580303
581315
579719
582312
585860
583123
581971
581977
582015
583129
578808
583103
583636
581368
580981
582560
584208
586227
583545
584059
580344
581582
582299
586633
580028
583729
581574
584125
583825
584765
585375
585160
585717
585969
584835
583228
585394
585397
584158
586815
584605
585998
584757
586206
586495
571252
585760
583318
584544
581207
586521
583411
586584
588353
584847
587672
583526
585989
588121
588357
583749
584751
585661
588234
588622
590465
584149
587021
587624
587816
588040
586205
587702
588044
590467
586108
584354
587708
587804
588024
589193
586497
588259
588435
588631
587296
587745
588256
588846
583322
588129
588978
584474
588228
589034
589143
590264
588450
588952
589329
584145
587525
587754
588308
589563
587345
588550
588852
589539
588661
588740
590199
579123
580453
588984
586589
589464
590877
583528
585887
588131
586280
586575
590461
591011
586376
588331
589549
589967
589975
586176
589877
590509
583950
589152
590695
590847
590920
585487
588429
590320
589477
590729
591200
588409
588666
589503
589557
589645
590253
590486
590598
590721
590832
591326
585668
589483
590164
590254
590793
589880
590069
591965
593841
587032
590592
590696
590925
591309
586587
589259
589976
588573
589559
590167
584661
585277
589541
589767
583932
588224
588313
590146
590700
591001
591625
591714
591750
592003
579752
590996
591302
592147
589648
590521
591345
587832
589244
589741
590704
591002
591422
591494
591687
588107
591093
590062
590783
592247
592716
591962
592139
592919
593838
585786
590080
591922
592830
591244
592834
590263
591514
591815
587191
589845
590988
593596
588662
592818
590915
591524
593041
593880
588640
586075
586271
590369
592015
592095
592942
593346
587002
588724
590363
590482
591203
593018
593141
586488
588942
591281
592019
592341
592413
592731
593168
587421
591718
592763
592773
593333
592435
592717
593419
589560
590986
591305
591679
592119
582199
590083
591006
591188
591584
593532
593851
585884
593454
593977
594239
594381
591515
592871
593751
591534
592541
592854
594366
594387
589672
586729
590268
592005
593167
593437
593796
590685
592630
592838
593282
594173
594190
594253
588855
592445
593445
593465
594080
594500
589344
592505
593771
593875
593973
594471
587213
592932
593130
593759
593846
594070
594086
594393
594691
595300
590874
592129
593255
593340
593433
594105
594674
595077
589147
589569
591030
591705
592639
593169
593322
593374
593474
594259
589861
590985
591485
593235
594075
594171
594383
594446
594578
594764
594983
586088
589138
592320
593565
593642
593855
593964
594276
594378
596494
591310
587106
591897
594165
594251
594271
593753
591434
591825
591841
593047
594079
594602
594787
594906
595219
592508
593579
594076
594390
594488
595799
596496
591821
591921
594269
595195
590372
591909
592533
593869
595217
595232
595512
592454
594656
594766
595208
595617
596056
591582
588518
591089
593248
593252
594184
595313
595703
598544
588959
590270
591308
593296
593547
593889
594288
594342
594379
595197
595474
595535
597010
592613
592729
593253
593367
594802
595403
595405
595518
593785
594373
595212
595375
593877
594152
594692
594987
595513
595592
596000
596949
593431
593651
594675
594747
595076
595087
595391
595698
595700
596113
596544
596741
597314
592619
592024
592624
593539
594665
595501
595594
595614
595682
595823
596188
599660
590681
592241
593271
594343
594646
595488
595699
596061
596726
596903
595296
595909
596317
597052
597113
588746
591398
593778
594050
594153
594567
595092
595097
595196
595500
596291
596845
597037
597238
597242
585555
591293
594051
594347
595834
596020
598030
596602
591190
591589
592126
593232
596103
596391
596440
596533
590474
591182
593032
594778
595393
595423
595533
595580
596105
596455
597075
597461
592328
593022
593935
594069
594763
595074
596096
596521
597321
598640
591919
593236
594266
594375
594958
595314
596215
596316
596625
597119
597156
597247
597823
591730
593034
593649
594580
595294
596100
596225
596956
597038
597453
599968
595891
596599
596731
596975
597051
597650
597940
598093
598639
587931
591405
591709
592824
593756
595068
595317
595603
596732
511838
596959
597744
597867
592026
593540
593564
595168
595268
595576
597215
597344
597483
597639
598047
599156
599862
594240
589957
592715
593024
593648
594071
594272
595176
595506
595596
595785
596036
596517
596768
596836
597061
597148
597251
597642
591824
592425
595720
595907
596185
596524
596736
596751
597045
597534
594249
596003
596495
597149
597233
597332
597343
597741
597954
599089
591703
594760
594866
594985
595063
596333
597033
597248
597261
597841
598461
593882
595301
596221
596406
596445
596638
596807
596847
597139
597565
597628
597837
598060
588021
593328
594767
595993
596612
596743
596800
596924
596945
597231
597463
597624
597645
592746
593450
594856
595304
595487
595989
596339
596664
596846
596917
597444
598055
598141
598174
598435
598911
598973
599155
592835
593945
595306
595807
596403
596713
597018
598638
600684
594354
595896
596192
596287
596767
597044
597131
597632
597636
597654
597751
598105
598694
599053
597009
597929
597948
598605
598761
598908
591811
594263
596309
596626
597448
597918
597947
598157
598779
594877
593262
594247
595788
595829
596407
596905
597530
597734
597761
597832
597839
597849
597975
598160
598165
598186
598938
598986
599192
592113
595483
595811
595839
597032
597244
597630
598139
598444
598775
598884
599154
599169
599179
599187
599806
594157
596826
596923
596929
597145
597341
597725
597853
598191
598368
598558
598793
599737
602522
603033
592620
594865
595836
596852
597016
597137
597324
597616
597733
597840
597919
598895
598903
599086
599202
599610
599880
513689
596954
597328
597567
597573
597820
597958
598096
598127
598187
598564
598693
598764
598784
598888
598984
599489
599648
599859
594986
595706
596084
596189
597229
597531
597640
597830
598196
598473
598568
598606
598659
598680
598691
598712
599029
599186
589689
596286
582692
597349
597421
597855
598284
598637
598771
599371
599684
595299
595328
595704
595992
596104
596203
596308
596419
597747
598262
598376
598455
598665
598778
599368
599497
593348
597249
597337
597671
597879
598028
598787
598871
598889
599668
599725
600135
601300
596907
595180
592611
595001
595511
595780
596614
596728
598255
598481
598682
598972
598999
599058
599096
599184
599259
599603
599691
599891
599910
599916
600299
600720
601607
601711
602121
588639
596833
597133
597732
597873
598143
598465
598885
598957
599075
599218
599797
599899
600092
600228
600433
600612
600992
594654
595175
595917
596617
597329
598358
598440
598905
598915
599061
599276
600475
595741
596082
596095
596405
596805
596820
597334
598083
598387
598547
598555
599072
599080
599212
599696
599905
600069
600237
594855
595183
595999
596201
596296
597035
597862
598089
598172
598917
599082
599299
599598
599624
599882
599991
600039
600327
600352
591581
593541
595687
596624
597441
597963
598051
598869
599092
599392
599495
599781
599782
599887
600010
600300
600520
601403
602018
594775
596091
597731
598453
598776
599183
599475
599567
599702
600223
594056
595897
596015
597431
597851
598556
598571
598572
599050
599094
599171
599264
599268
599298
599558
599578
599583
599964
600003
600105
600332
600751
594473
599763
587621
595905
595913
596704
597339
597644
598254
598594
599071
599279
599593
599885
600202
600308
600395
600412
600641
600716
602017
596824
598769
593972
594449
597737
598466
598554
598726
598987
599235
599798
599801
599884
599908
600416
600744
600895
600971
601191
592312
594595
596611
597124
597726
598438
598489
598697
598777
598909
598962
599084
599313
599480
599745
599823
600100
600176
600394
600812
596723
595386
595794
598057
598660
599083
599277
599477
599503
599971
600045
600525
600630
600702
600713
601121
593126
595898
596829
598339
598449
598695
599070
599369
599587
599761
599787
599911
599973
600191
600317
600387
600397
600398
600512
600530
600922
601185
601225
601243
601338
601355
601815
602020
589246
593351
594979
596716
598872
598974
599297
599364
599479
599612
600216
600280
600306
600315
600399
600602
600632
601190
601609
602066
602732
604990
596637
596952
597720
597750
597921
598906
598951
599458
599580
600104
600120
600192
600918
600926
600932
601507
601647
602273
596942
592318
595279
596511
597028
598360
598566
598782
599206
599459
599569
599665
599965
600001
600002
600081
600166
600380
600491
600606
600790
600840
600935
601038
601141
601278
601511
602427
598855
596195
597522
597524
597930
598332
599073
599294
599324
599362
599673
599822
599883
599982
600279
600500
601002
601219
601632
601831
598126
596430
593011
597637
598043
598657
599163
600098
600245
600285
600434
600603
600605
600715
600832
601030
601270
601713
601829
602094
602520
603147
598245
588350
597717
598774
599100
599484
599863
600210
600531
600594
600698
600723
600788
601037
601049
601268
601865
601876
602016
602077
602300
602568
598232
595579
597228
598852
598875
598981
599979
599990
600018
600249
600294
600613
600652
600912
600928
601107
601580
601850
601864
601970
602849
602853
598886
598897
599173
599488
599888
600181
600233
600235
600256
600511
600699
600718
600881
601099
601110
601236
601329
601340
601532
601540
601650
603027
597440
598058
598125
598760
600278
600303
600483
600616
600664
600829
600892
600914
600927
601023
601095
601339
601732
601968
601977
602125
602363
602519
602526
602629
603559
604778
598968
591727
594862
599467
599963
600199
600320
600622
600849
600917
600936
601036
601118
601200
601757
601813
602027
602178
602481
594270
595800
598666
599064
599670
599688
599873
600026
600207
600538
600746
600891
601130
601196
601294
601297
601406
601423
601430
601625
601654
602346
602400
593021
595695
595379
596092
597269
597854
598865
598870
598900
599195
599628
599655
599689
600322
600908
601444
601533
601712
601720
601740
601770
602142
603141
599895
595912
600095
600378
600516
600637
600814
600899
600994
601308
601398
601457
601510
601854
601867
602060
602173
602226
602296
602362
602550
602939
602956
603149
603195
603453
516692
595472
598442
598464
599693
599786
600544
601166
601188
601328
601332
601487
601614
601737
601872
602097
602678
602734
602942
602962
603458
603557
603759
600540
596190
596827
597548
599994
600524
600595
600696
600828
601221
601326
601411
601440
601445
601472
601610
601645
601646
601843
601904
602392
603231
604888
598663
598898
597331
597876
598647
598661
598683
599158
600607
600690
600805
600929
601320
601554
601750
601810
601875
602045
602049
602174
602190
602297
602471
602548
602574
602683
602877
602983
603071
591509
598953
594964
595398
596398
597327
598359
598643
598854
599663
599675
599795
600409
600700
600802
600816
600837
601177
601222
601234
601315
601341
601483
601630
602263
602378
602386
602398
602524
602545
602566
603860
603948
598131
598137
598560
598658
598960
599175
599374
599892
600000
600313
600407
601125
601246
601834
601847
601863
602047
602145
602169
602232
602534
602575
602743
602835
602940
602954
602995
603052
603068
604673
595684
598068
599494
601029
601216
601400
601543
601836
601939
601943
602267
602440
602507
602518
602543
602667
602975
603706
517554
601508
595312
596706
597723
597826
599280
599407
599555
600086
600383
600791
601210
601291
601763
601764
601869
601883
601958
602048
602065
602157
602653
602659
602760
602776
602937
603049
603058
591397
598463
598849
599174
600129
600484
600496
601007
601325
601624
601627
601760
601769
601901
602195
602352
602591
602644
602766
602796
603378
603595
594780
596620
597537
598450
599871
600014
600421
600502
600601
601019
601020
601052
601205
601525
601553
601717
601938
601942
601963
602011
602132
602470
602494
602528
602775
602868
602926
602952
603008
603203
603674
604036
604508
604777
592616
597736
597864
598049
598543
599057
599189
599679
599776
601639
601838
601874
601910
601966
602042
602058
602180
602246
602279
602339
602761
602773
602834
602848
602875
602970
603072
603077
603294
604912
601295
597523
598149
598542
598785
599559
599677
600615
600822
600831
601094
601104
601217
601433
601441
601824
601857
601950
602043
602147
602258
602380
602425
602428
602515
602777
602799
602885
603387
603597
603689
604172
604198
595073
596815
598861
599469
599686
599796
600203
600609
601111
601232
602075
602255
602426
602448
602649
602945
602982
603002
603022
603106
603159
603279
603300
603314
603315
603365
603400
603554
603615
603781
604395
606831
596514
597347
599974
600904
600910
601116
601120
601189
601197
601679
601835
601962
602037
602052
602158
602251
602266
602434
602466
602557
602655
602675
602702
602767
602840
602863
602896
602969
602973
602985
603268
603513
604675
604726
606209
518237
594151
599573
591814
598032
598348
599077
600305
601202
601495
602154
602340
602350
602486
602671
602747
602841
602861
602876
602887
602900
602951
603078
603457
603534
603613
603631
604121
604985
599680
600295
600497
600624
601139
601899
602056
602235
602237
602365
602465
602535
602579
602654
517011
603047
603082
603085
603181
603265
603280
603293
603380
603523
603564
603767
603800
603965
604388
604774
605085
596319
594655
598670
599987
601193
601505
601637
601871
601953
602025
602035
602084
602342
602411
602554
602878
602933
603031
603120
603493
603497
603576
603630
603692
603782
603798
603841
603903
603922
604088
604423
599254
599878
600695
600710
601100
601248
601425
601429
601853
601860
601935
601948
602033
602431
602648
602652
602770
602780
602901
603045
603062
603099
603186
603194
603196
603269
603288
603304
603370
603422
603504
603598
603606
603730
603788
603818
603832
603931
603990
604091
604103
604109
604131
604203
604294
604504
604570
604621
598860
599164
600996
601024
601211
601512
601743
601748
602054
602151
602221
602374
602529
602531
602562
602569
602670
602765
602947
602968
603023
603067
603074
603171
603179
603201
603262
603306
603494
603983
604018
604020
604419
604923
598979
598064
598955
599165
599182
599375
599774
600507
601018
601413
602148
602462
602482
602525
602536
602657
603054
603079
603084
603172
603261
603290
603375
603608
603623
604087
604189
604197
604262
604313
605491
517188
606415
597621
597114
599069
599103
599683
600197
600205
600563
601119
601334
602144
602240
602260
602345
602389
602538
602626
602658
602669
602959
603070
603144
603272
603305
603373
603396
603410
603671
603716
603733
603794
603796
603821
603913
604004
604098
604165
604212
604382
604400
604569
604928
605123
605503
595075
597866
598258
598873
599471
600066
601241
601428
601730
602055
602201
602288
602638
602656
602950
602979
603191
603206
603274
603319
603374
603383
603394
603479
603496
603699
603792
603806
603862
603887
603890
603930
603999
604067
604367
604402
604406
604497
604732
604754
604772
604795
604820
604926
605216
605331
605520
606111
597838
597959
598344
598446
599989
600809
601041
601752
601826
601855
602140
602238
602355
602447
602454
602464
602537
602594
602668
602707
602851
603164
603207
603310
603379
603390
603414
603500
603502
603639
516669
603772
603814
603828
604011
604114
604163
604201
604204
604261
604301
604414
604588
604833
604867
605016
605210
605224
606113
606413
594884
595718
598341
598562
599376
600599
601016
601345
601416
601980
516045
602150
602344
602354
602630
602689
602772
602836
602865
602966
602986
603048
603173
603271
603454
603476
603571
603589
603665
603680
603688
603813
603843
603882
603912
603980
604202
604318
604485
604491
604565
604596
604617
604674
518589
604706
604729
604733
604813
605056
605140
596411
605235
605724
605897
606521
604780
599785
599975
601015
601621
601722
601736
601945
602376
602560
602565
602844
603080
603273
603346
603718
603795
603858
603873
604199
604316
604440
604493
604639
604897
605042
605712
606062
595174
597935
603281
599773
600182
600492
600913
601208
601311
601852
602046
602131
602628
602717
602957
603039
603051
603267
603275
603277
603291
603475
603483
603525
603620
603685
603878
603884
604063
604123
604233
604393
604409
604487
604506
604515
604705
604814
605032
605135
605314
605626
606314
596925
596002
603484
598158
598956
599771
600107
601309
601856
602209
602262
602803
602958
603030
603063
603066
603178
603307
603349
603366
603611
603643
603766
603809
603881
603905
603906
603932
604061
604184
604207
604218
604315
604320
604466
604484
604615
604627
604649
604699
604709
604714
604728
604986
604993
605138
605215
605440
518680
601729
596001
601827
596211
597915
601105
602542
602680
602961
603069
603202
603376
603381
603398
603594
603690
603696
603825
603893
603900
604023
604102
604105
604288
604381
604467
604567
604591
604601
604610
604624
604654
604721
604743
604848
604961
605005
605113
605229
605243
605404
605510
605650
605767
606086
606517
594753
603036
602523
597230
598352
598847
599667
600391
601001
601418
601982
602023
602576
603053
603174
603471
603505
603522
603614
603681
603802
603901
603973
603985
604019
604038
604101
604206
604298
604304
604478
604496
604523
604576
604619
604623
604689
604711
604808
604839
604841
605119
605212
605213
605327
605341
605448
605693
606310
599306
596850
601619
596916
600377
600521
600611
601312
602530
602666
602746
602941
603200
603245
603259
603283
603464
603477
603485
603486
603488
603709
603789
603793
603897
604027
604078
604276
604278
604280
604310
604389
604441
604511
604533
604771
604801
604834
604856
604953
605025
605027
605153
605434
605447
605490
605538
605614
605736
605851
606114
606146
606264
606270
604878
516939
585770
597719
599359
600217
600509
600824
601828
602138
602245
602274
602455
602864
603170
603340
603770
603783
603801
603811
603909
604002
604092
604305
604314
604422
604537
604645
604707
604826
604832
604873
604905
604925
605008
605048
605065
605126
605145
605312
605336
605424
605429
605546
605695
605809
605939
605997
518952
606253
590905
607032
598452
596922
598959
599869
600393
601419
601941
601974
602022
602030
602446
602567
603055
603088
603155
603263
603367
603482
603659
603711
603722
603728
603777
603790
603908
604000
604021
604188
604209
604295
604343
604380
604398
604510
604514
604542
604608
604611
604622
604829
604853
604857
604911
604936
604937
604956
605034
605324
605329
605337
605345
605370
605422
605466
605509
605522
605566
605621
605734
605925
605926
605945
606025
606048
606057
519044
597861
518870
518862
598472
599367
599976
601207
602141
602234
602456
602459
603044
603244
603254
603324
603345
603575
603600
603675
603744
603762
603775
603803
603962
604024
604104
604335
604415
604420
604454
604577
604587
604628
604812
604816
604855
605054
605173
605234
605250
605257
605373
605411
605549
605553
605600
605623
605634
605857
605956
605993
606281
607031
607536
607745
597318
598549
595381
600586
601108
604885
594960
595411
597618
598561
601114
602334
602764
602953
602955
603364
603627
603769
603889
603911
604033
604426
604431
604526
604539
604735
604745
604809
604837
604909
604918
605011
605012
605030
605041
605073
605097
605110
605149
605155
605170
605223
605388
605427
605436
605441
605529
605557
605748
605795
606032
606107
606242
519472
600075
594351
600185
601858
601947
602769
602856
603192
603388
603668
603672
603701
603774
603778
603835
603898
603926
603987
603998
604003
604173
604187
604323
604428
604482
604495
604501
604536
604589
604625
604633
604637
604703
604716
604787
604810
604824
604903
604921
604927
604935
605010
605018
605022
605024
605058
605087
605141
605163
605165
605259
605316
605321
605333
605364
605439
605454
605519
605532
605536
605631
605702
605716
605745
605749
605814
605852
605899
606169
606181
606345
606477
518694
600626
599767
590686
598342
599162
600180
601956
602333
602552
602660
602662
602672
603142
603161
603289
603353
603509
603609
603964
603970
604017
604028
604152
604296
604562
604642
604702
604804
604821
605036
605084
605132
605148
605152
605219
605220
605256
605302
605403
605489
605525
605543
605639
605665
605666
605735
605806
605841
605877
605904
605924
605943
605944
605961
605972
606167
606414
606548
606654
606830
607641
599671
598877
599575
599678
600598
601519
601546
601937
602118
602444
603041
603059
603253
603351
603355
603563
603584
603612
603776
603875
603988
604016
604297
604299
604306
604327
604370
604486
604618
604731
604753
604859
604863
604864
604891
604999
605003
605014
605106
605130
605221
605231
605239
605332
605425
605500
605512
605539
605649
605667
605705
605738
605778
605797
605827
605832
605863
605864
605895
605954
606055
606061
606092
606131
606309
519643
606410
606516
606669
607435
607535
604656
595595
597554
598977
599185
600392
601949
602224
602663
603076
603698
603764
603817
603879
603907
603977
604074
604161
604191
604200
604394
604399
604612
604688
604693
604697
604719
604740
604823
604902
604913
605020
605059
518763
605117
605128
605158
605254
605286
605322
605428
605449
605455
605556
605644
605648
605720
605732
605744
605785
605796
605874
605914
605918
605931
605941
605959
606069
606082
606104
606243
606254
606334
606344
606478
606827
606828
606989
606993
519306
604982
519740
609381
602156
599860
599980
600389
600686
601529
601725
601924
602549
602636
602665
602751
602854
602988
603025
603075
603480
603519
603587
603593
603786
603891
604171
604238
604272
604403
604434
604586
604690
604727
604811
604830
604838
604919
605023
605063
605090
605118
605129
605218
605262
605319
605334
605338
605435
605637
605692
605731
605752
605769
605828
605885
605940
605951
606039
606040
606046
606089
606161
606163
606170
606179
606210
606441
606468
606577
606584
607020
607028
607225
607226
607391
607434
599303
519060
519063
520455
596615
599267
599988
600073
602134
603416
603682
604183
604260
604283
604374
604509
604638
604664
604712
604723
605061
605121
605214
605245
605264
605344
605355
605400
605479
605541
605542
605653
605853
605859
605929
606091
606103
606119
606149
606151
606159
606295
606331
606343
606353
606471
606472
606476
606554
606650
606666
606671
606680
606782
606789
609174
604080
520546
598441
601622
601726
602128
603297
603372
603691
603784
604064
604665
604698
605131
605258
605326
605432
605521
605528
605534
605636
605663
605669
605673
605714
605753
605822
605870
605927
606038
606044
606101
606133
606162
606366
606385
606440
606450
606480
606531
606765
606892
607426
607431
607844
518957
602061
519919
601617
594652
596812
601812
602329
603302
603771
603885
604411
604512
604613
604799
604845
604941
604946
605004
605098
605147
605217
605226
605238
605343
605397
605415
605469
605498
605511
605514
605535
605560
605576
605612
605642
605658
605659
605678
605718
605823
605958
606028
606053
606157
606183
606188
606238
606265
606323
606364
606370
606374
606437
606458
606483
606570
606659
606895
606963
607071
608155
608667
603746
520088
602228
601727
598356
602231
602674
603276
603395
603510
603582
603808
604070
604300
604535
604581
604602
604681
604908
604924
604947
605091
605136
605230
605236
605335
605353
605385
605437
605465
605494
605533
605540
605544
605756
605850
605867
605871
605916
605921
605930
605932
605955
605963
605964
605965
605968
605986
606077
606108
606248
606359
606403
606479
606533
606542
606572
606574
606591
606677
606694
606705
606810
607039
607050
607171
607398
607593
607644
519213
598346
600732
603577
597824
600896
601213
601598
602130
603472
603581
603870
603877
603972
604094
604096
604177
604180
604195
604215
604416
604490
604584
604807
605001
605013
605037
605086
605227
605328
605351
605352
605395
605414
605572
605674
605729
605760
605898
605911
606030
606036
606045
606075
606096
606121
606122
606145
606147
606220
606260
606277
606337
606351
606428
606447
606448
606484
606546
606600
606652
606673
606767
606847
606858
606859
606862
606871
607055
607072
607079
607275
607333
608260
520442
521052
599682
600810
598664
596508
596832
600284
600614
601103
601195
601820
602872
603040
603146
603561
604169
604286
604369
604401
604685
604715
604790
604995
605050
605211
605299
605309
605323
605416
605450
605562
605611
605699
605707
605813
605826
605834
605970
606014
606020
606058
606066
606160
606244
606267
606312
606329
606336
606368
606416
606491
606541
606585
606601
606610
606647
606792
606874
606880
606912
607058
607120
607148
607160
607178
607190
607254
607266
518166
607381
607403
607468
607497
607680
608768
608968
606100
601203
598753
599775
599865
600195
601220
603043
603702
603876
604193
604470
604566
604786
605122
605142
605190
605232
605358
605409
605421
605445
605446
605451
605550
605582
605643
518163
605751
605804
605805
605881
605884
605913
605953
605960
606024
606034
606043
606049
606088
606124
606137
606156
606172
606274
606354
606429
606439
606474
606549
606569
606575
606641
606668
606692
606697
606699
606702
606771
606778
606818
606857
606897
606906
607025
607102
607158
607163
607270
607409
607467
607508
599759
605988
604600
600813
601192
601396
602039
602635
602857
603175
603270
604598
604606
604708
604910
604991
605093
605222
605291
605317
605417
605426
605458
605545
605589
605595
605598
605617
605629
605651
605742
605843
605862
605908
605928
605985
606047
606257
606261
606282
606342
606349
606381
606408
606434
606459
606562
606581
606604
606682
606684
606688
606691
606726
606773
606786
606873
606974
606976
607042
607057
607065
607074
607103
607127
607174
607224
607251
607258
607469
609382
609689
603363
604489
518796
598689
602028
602124
602753
603360
603362
603465
603536
603763
604100
604162
604336
604391
604626
604722
604736
604881
604900
604917
604931
605021
605104
605349
605371
605405
605482
605518
605530
605609
605627
605711
605747
605833
605915
605942
606009
606035
606068
606090
606135
606144
606155
606178
606219
606255
606358
606365
606375
606443
606454
606463
606528
606535
606550
606563
606565
606583
606598
606687
606709
606710
606759
606770
606785
606798
606863
606868
606875
606922
606929
606944
607067
607112
607170
607191
607263
607278
607295
607366
607400
607448
607511
607549
607950
608048
520021
608517
519560
605755
598037
520619
602645
606235
603568
518170
600592
600597
601293
602041
602143
602639
517182
603321
603487
604302
604773
604788
604890
604979
605092
605096
605361
605375
605381
605433
605516
605585
605619
605625
605654
605992
606037
606074
606112
606182
606186
606246
606247
606276
606424
606488
606556
606588
606603
606683
606706
606784
606918
606961
607006
607083
607090
607169
607202
607322
607413
607476
608274
519644
520454
520972
603028
602931
604595
600707
601845
602646
602738
602756
602845
602852
603157
603256
603402
603495
603895
604068
604075
604086
604498
604792
604997
605115
605225
605237
605306
605307
605311
605616
605640
605741
605810
605815
605818
605901
605919
605937
606041
606126
606139
606327
606340
606356
606367
606445
606451
606460
606482
606532
606545
606557
606561
606762
606768
606776
606844
606846
606870
606933
606981
606988
607005
607075
607105
607109
607110
607117
607153
607184
607257
607475
607490
607493
607606
607632
607643
607777
607889
607900
607946
607963
608026
521313
598434
599284
602433
603585
603804
604079
604920
605116
605124
605412
605592
605730
605876
606067
606174
606189
606236
606239
606269
606283
606361
606455
606587
606593
606626
606657
606678
606690
606738
606742
606751
606766
606850
606876
606915
606972
606980
607026
607068
607135
607168
607268
607382
607507
607559
607601
607793
520789
608199
608343
608609
601925
604866
605049
599396
600082
602859
602932
603185
603318
603329
603455
603667
603992
604599
604609
605088
605101
605107
605111
605357
605628
605723
605840
605861
605883
605893
605910
605917
606002
606031
606164
606224
606249
606251
606268
606279
606341
606369
606452
606560
606636
606642
606763
606764
606774
606777
606902
606914
606916
606968
607004
607059
607063
607077
607088
607099
607172
607201
607207
607267
607281
607328
607444
607486
607506
607509
607603
607842
607906
607912
607913
607936
607939
607993
520272
520469
607932
519835
598252
601648
602650
602757
603166
603979
604303
605019
605206
605719
605737
605766
606087
606136
606180
606217
606348
606373
606418
606426
606464
606473
606502
606509
606590
606670
606675
606679
606803
607056
607062
607096
607104
607137
607176
607183
607248
607271
607306
607313
607320
607386
607450
607482
607484
520624
607613
607687
607708
607858
607893
607907
607928
607943
607985
608013
608095
608127
608205
609073
609588
609589
519662
604541
599784
602923
602927
603556
603779
603871
604181
604477
604682
604899
604945
605120
605204
605296
605750
605807
605934
605938
605974
606050
606158
606173
606184
606187
606245
606271
606272
606338
606378
606423
606435
606496
606555
606629
606722
606748
606791
606852
606869
606889
606904
606908
606913
606919
606969
606994
607033
607078
607084
607087
607095
520261
607167
607173
607185
607194
607199
607212
607218
607227
607247
607277
607284
607350
607410
607456
607498
607512
607580
607590
607594
607677
607683
607705
607711
607731
607797
607807
607817
607829
607857
607924
607931
607969
607988
608071
608211
608237
608262
608299
608322
520013
608413
608430
608487
521308
607427
609378
520986
606819
607732
519930
602632
600403
601414
602547
602924
602936
603397
604090
604186
604694
604798
604802
605233
605242
605418
605608
605774
605872
605967
606052
606389
606442
606648
606693
606788
606799
606807
606866
606883
606903
606966
606986
607007
607069
607107
520534
607180
607186
607261
607351
607363
607405
607425
607477
607478
607503
607676
607682
607730
607759
607766
520440