/*--------------------------------*- C++ -*----------------------------------*\
| =========                 |                                                 |
| \\      /  F ield         | OpenFOAM: The Open Source CFD Toolbox           |
|  \\    /   O peration     | Version:  2406                                  |
|   \\  /    A nd           | Website:  www.openfoam.com                      |
|    \\/     M anipulation  |                                                 |
\*---------------------------------------------------------------------------*/
FoamFile
{
    version     2.0;
    format      ascii;
    arch        "LSB;label=32;scalar=64";
    class       Cloud<dsmcParcel>;
    location    "0.012/lagrangian/dsmc";
    object      positions;
}
// * * * * * * * * * * * * * * * * * * * * * * * * * * * * * * * * * * * * * //

9503
(
(0.2805291367 0.1084690873 0) 176
(0.2904078595 0.1019759395 2.168404345e-19) 148
(0.2434361781 0.1139283419 0) 261
(0.2838143052 0.08869874642 -2.236166981e-19) 87
(0.3031880099 0.1173141374 0) 209
(0.2721695374 0.0943379203 0) 115
(0.2835830953 0.09351422437 0) 117
(0.2992216612 0.08279096655 -1.084202172e-19) 29
(0.303205266 0.08405010128 0) 29
(0.2834842148 0.08878837856 1.626303259e-19) 87
(0.2035547161 0.0597351143 -1.084202172e-19) 16
(0.2736820571 0.08692668632 5.421010862e-20) 85
(0.2618530161 0.07968012728 -4.201283418e-19) 54
(0.2875721612 0.0898674647 1.084202172e-19) 87
(0.283663081 0.08492540949 0) 57
(0.2998899613 0.1512741431 0) 389
(0.176209747 0.05989105786 0) 73
(0.2533438028 0.08526433828 0) 83
(0.2766180603 0.08229678836 -1.084202172e-19) 56
(0.2896107557 0.1069439453 0) 178
(0.2245543939 0.07949274013 -2.710505431e-20) 109
(0.2160183081 0.09139390891 2.710505431e-20) 168
(0.3015442417 0.100762086 -1.084202172e-19) 119
(0.2624380961 0.09691956829 5.421010862e-20) 144
(0.2075861215 0.08704852407 0) 167
(0.2781866449 0.1184711994 2.710505431e-20) 236
(0.2766658592 0.1146580981 1.084202172e-19) 236
(0.2745242118 0.08950371451 0) 86
(0.2712842863 0.1188447428 0) 265
(0.2641403694 0.08669789271 -1.084202172e-19) 84
(0.2696997337 0.07459197712 1.219727444e-19) 25
(0.2653419231 0.07501604367 0) 24
(0.2774628237 0.0987635948 2.168404345e-19) 146
(0.2119479014 0.07360732915 -4.33680869e-19) 77
(0.2925559367 0.125673063 -2.981555974e-19) 268
(0.2642275531 0.08152702509 -1.084202172e-19) 54
(0.2870266478 0.08770601769 -1.084202172e-19) 57
(0.2890680608 0.09405442766 -2.168404345e-19) 87
(0.1798853755 0.08753340249 0) 193
(0.2918932622 0.1651939215 -4.33680869e-19) 478
(0.2710009734 0.136803669 2.168404345e-19) 355
(0.3038901594 0.1186460855 0) 209
(0.2728415811 0.0743428085 2.168404345e-19) 25
(0.2804731169 0.1205949346 -2.168404345e-19) 266
(0.2466604966 0.07325043746 0) 52
(0.2922160181 0.1097329896 1.084202172e-19) 178
(0.2571724233 0.06916849138 2.168404345e-19) 23
(0.233184206 0.06753511656 -2.710505431e-19) 20
(0.238446589 0.09892733057 1.084202172e-19) 171
(0.268414284 0.07824533667 -2.168404345e-19) 55
(0.2912478065 0.1078489487 -4.33680869e-19) 178
(0.2912243217 0.08641978878 2.710505431e-19) 58
(0.258907476 0.1002568013 -5.421010862e-19) 173
(0.2610957123 0.1008781894 5.421010862e-20) 174
(0.2939546 0.1063567322 -5.421010862e-20) 148
(0.2947813034 0.1472413957 2.168404345e-19) 388
(0.2325324783 0.07683490315 -2.710505431e-20) 80
(0.2412364932 0.07048762477 0) 21
(0.2919376914 0.1274413471 -3.252606517e-19) 268
(0.2310645096 0.09668216066 0) 170
(0.2887204721 0.1055025018 -4.33680869e-19) 177
(0.2838651978 0.08364934619 1.626303259e-19) 57
(0.2780241876 0.1076579582 0) 176
(0.2802298309 0.09407577535 -1.084202172e-19) 116
(0.2358905254 0.07029225649 4.33680869e-19) 50
(0.2503246084 0.07026932547 -2.168404345e-19) 22
(0.2435583658 0.07987511123 -1.016439537e-19) 81
(0.2844505119 0.1117035837 -6.776263578e-20) 207
(0.256761155 0.07051287686 -1.084202172e-19) 23
(0.2806232587 0.1044256355 2.168404345e-19) 176
(0.2596796507 0.1059229418 1.084202172e-19) 204
(0.186743714 0.07625773912 0) 134
(0.2974624585 0.1088977489 0) 179
(0.2891226239 0.1018024023 -4.33680869e-19) 147
(0.2916239552 0.1219741152 3.252606517e-19) 238
(0.2908369441 0.1029471229 2.100641709e-19) 148
(0.2893296992 0.1072412205 -1.084202172e-19) 177
(0.2688599164 0.1095121421 -1.626303259e-19) 205
(0.2893569827 0.1014781138 2.168404345e-19) 147
(0.2919869226 0.1402500084 -3.252606517e-19) 358
(0.2974828699 0.1160588738 -1.626303259e-19) 209
(0.2992060039 0.09276578924 -5.421010862e-20) 89
(0.2517738953 0.07058316766 -2.168404345e-19) 23
(0.2695423708 0.08344567995 0) 55
(0.2829682036 0.09149238796 0) 87
(0.2982787358 0.1167864323 0) 209
(0.2425953214 0.06821969505 0) 21
(0.291228046 0.08946903984 4.33680869e-19) 88
(0.2215926064 0.06201956274 4.33680869e-19) 19
(0.2465401769 0.09200397254 2.168404345e-19) 142
(0.2725559167 0.09037078535 4.33680869e-19) 115
(0.2764193287 0.1257467726 3.252606517e-19) 296
(0.3046489113 0.1308842103 -4.33680869e-19) 299
(0.2469057195 0.1241910993 -2.168404345e-19) 292
(0.2680322378 0.1117696149 -4.33680869e-19) 235
(0.2599123863 0.08819002539 1.084202172e-19) 114
(0.2627472864 0.09313991954 -2.168404345e-19) 114
(0.2242353112 0.06032251576 -1.084202172e-19) 19
(0.2655828912 0.140386621 0) 384
(0.2436171301 0.1089657 -2.710505431e-19) 231
(0.2839859055 0.08599777896 -2.981555974e-19) 57
(0.2621035554 0.08832079049 1.084202172e-19) 114
(0.2663579727 0.1275596516 2.168404345e-19) 294
(0.2178635085 0.07425456239 -1.084202172e-19) 78
(0.2604604587 0.08187327518 0) 84
(0.2423976814 0.07383516023 0) 51
(0.2421252909 0.07265578134 2.168404345e-19) 51
(0.2196855164 0.08151652778 2.168404345e-19) 108
(0.2591770738 0.08951602279 0) 114
(0.3003502167 0.1052869871 -2.439454888e-19) 149
(0.2484683537 0.08947874121 7.047314121e-19) 112
(0.2892223034 0.1267106545 2.168404345e-19) 267
(0.2446984191 0.1018738751 0) 202
(0.2645881182 0.07804438969 0) 54
(0.2697396777 0.08380930266 -1.626303259e-19) 85
(0.2207511213 0.0652370835 0) 48
(0.2591355619 0.08163819932 5.421010862e-20) 84
(0.302846473 0.09519591528 0) 89
(0.2119927588 0.08413173011 -5.082197684e-19) 137
(0.2374150549 0.0678532134 1.084202172e-19) 21
(0.2642078643 0.09374421263 0) 144
(0.3020983477 0.09477820117 0) 89
(0.283902172 0.12405085 -1.084202172e-19) 267
(0.2795394536 0.1004308338 1.084202172e-19) 146
(0.2252971668 0.08669689848 5.421010862e-20) 139
(0.2971235427 0.08441392586 4.33680869e-19) 28
(0.2556444196 0.1018413259 -1.084202172e-19) 173
(0.2665177003 0.07363742794 -1.626303259e-19) 24
(0.260028552 0.08411995951 -2.032879073e-20) 84
(0.2386114499 0.08489189228 0) 111
(0.2991518034 0.1132832512 -2.168404345e-19) 209
(0.2269677584 0.07688029578 0) 79
(0.2999363533 0.0983942259 0) 119
(0.2354584209 0.1252348199 -1.76182853e-19) 320
(0.2229034282 0.07715461459 2.168404345e-19) 79
(0.1871764883 0.05973394533 -1.626303259e-19) 44
(0.1951906874 0.07031975613 4.33680869e-19) 75
(0.2798375794 0.08843188741 -1.084202172e-19) 86
(0.268032429 0.1103138534 0) 205
(0.2952273823 0.09282450243 -3.117081246e-19) 88
(0.2092650265 0.0577061646 1.084202172e-19) 17
(0.2549575827 0.08948725076 1.626303259e-19) 113
(0.2329040182 0.1553294756 1.084202172e-19) 470
(0.3036243612 0.09449510338 5.421010862e-20) 89
(0.1572367387 0.05647078244 2.168404345e-19) 70
(0.2725967442 0.0893200467 0) 85
(0.3027531867 0.08542058344 2.168404345e-19) 29
(0.2978170138 0.08352580164 0) 29
(0.2873538494 0.1111318726 2.168404345e-19) 207
(0.2753276034 0.101981927 2.168404345e-19) 146
(0.1653218202 0.0696457884 -4.33680869e-19) 101
(0.2695479462 0.09119504007 -1.084202172e-19) 115
(0.268435253 0.08096355895 0) 55
(0.2961034153 0.08198511062 -8.131516294e-20) 28
(0.2882799595 0.08304484802 2.168404345e-19) 57
(0.2577209308 0.08173088209 0) 83
(0.2312553903 0.07138244278 3.252606517e-19) 50
(0.2632396639 0.08748826818 2.439454888e-19) 84
(0.2322718743 0.1440140649 0) 410
(0.2490952802 0.09715484102 2.168404345e-19) 172
(0.2836778006 0.08884217607 0) 87
(0.2734470544 0.08889258391 0) 85
(0.2473551655 0.08790902092 1.084202172e-19) 112
(0.269356018 0.1614573739 0) 475
(0.2502187572 0.08223335766 2.168404345e-19) 82
(0.2811828412 0.08043121917 0) 26
(0.2665917662 0.09063721337 -1.084202172e-19) 114
(0.2457960763 0.06630779456 0) 22
(0.2885298031 0.1076934504 1.084202172e-19) 177
(0.2615855463 0.09928978622 -5.421010862e-19) 174
(0.2756028246 0.07784477685 0) 26
(0.275014317 0.1609760451 0) 476
(0.2722054683 0.08925760801 -2.168404345e-19) 85
(0.1565906631 0.07547050263 2.168404345e-19) 160
(0.2180459778 0.06211620516 1.084202172e-19) 18
(0.2751247676 0.07559087393 -1.084202172e-19) 26
(0.1930515621 0.07337929403 2.168404345e-19) 105
(0.2624730372 0.07332565177 6.776263578e-20) 24
(0.2789247119 0.09125239244 -5.421010862e-20) 86
(0.1493382353 0.07986902918 2.168404345e-19) 189
(0.2191285045 0.08925405846 -2.168404345e-19) 168
(0.2432010586 0.1234354946 0) 291
(0.2424446861 0.07856863747 1.084202172e-19) 81
(0.2012390522 0.06500373682 1.084202172e-19) 46
(0.2344807075 0.07345065802 4.33680869e-19) 50
(0.2912806839 0.09593633396 -4.33680869e-19) 118
(0.2669230317 0.08609654728 2.710505431e-20) 85
(0.2115759351 0.0848290655 0) 137
(0.2876086335 0.08605832457 2.168404345e-19) 57
(0.2727560635 0.08647243341 3.252606517e-19) 85
(0.2220187712 0.08139490208 -1.084202172e-19) 109
(0.2313923865 0.06525575086 1.355252716e-19) 20
(0.2428457744 0.07886278056 1.084202172e-19) 81
(0.2638402733 0.09691187703 -1.084202172e-19) 144
(0.2980937293 0.1084599276 2.710505431e-19) 179
(0.2930099294 0.1524631215 0) 418
(0.2330881599 0.08387001653 5.421010862e-20) 110
(0.291306545 0.1225381045 2.168404345e-19) 268
(0.2832237616 0.08959218589 4.33680869e-19) 87
(0.2492368768 0.08511353766 -2.168404345e-19) 112
(0.1810287809 0.06452590781 -2.168404345e-19) 73
(0.1894728023 0.0543435458 0) 14
(0.1867060804 0.07347624667 -2.066760391e-19) 104
(0.2674969125 0.1014828781 0) 175
(0.2481751526 0.07843240606 0) 82
(0.2807037316 0.08100229693 0) 56
(0.2994778573 0.1332853292 1.084202172e-19) 299
(0.2473640028 0.07168338651 0) 22
(0.2573049373 0.1273669282 2.168404345e-19) 323
(0.273615334 0.08946870268 -2.168404345e-19) 85
(0.2950736789 0.1137525507 1.084202172e-19) 208
(0.3022809274 0.1198009 4.33680869e-19) 239
(0.2435124567 0.1068171735 -2.168404345e-19) 231
(0.2054530476 0.06773352617 -4.33680869e-19) 76
(0.2735412575 0.08223749292 2.168404345e-19) 55
(0.3016082683 0.114283775 2.168404345e-19) 209
(0.2650849708 0.09451547344 0) 144
(0.2633893514 0.1326742229 -4.33680869e-19) 324
(0.2571039805 0.08915613594 0) 113
(0.2492058259 0.06717747101 0) 22
(0.2605182928 0.09467350428 1.084202172e-19) 144
(0.2663506619 0.0885866651 0) 114
(0.269328382 0.1172881873 2.168404345e-19) 235
(0.2817531223 0.07934895315 0) 26
(0.2848851701 0.112916035 -1.084202172e-19) 207
(0.2454457005 0.0756000913 1.084202172e-19) 52
(0.297857037 0.137985794 -1.626303259e-19) 329
(0.2562437472 0.1163802311 0) 263
(0.2816100245 0.1069573023 0) 176
(0.2481597358 0.09187644715 -1.084202172e-19) 142
(0.2928950954 0.1220916676 0) 238
(0.2917183777 0.1013403772 -1.084202172e-19) 148
(0.2897808279 0.1111864459 3.760826286e-19) 208
(0.2663246725 0.1252046129 2.168404345e-19) 294
(0.2586177903 0.0736404838 0) 23
(0.2190551671 0.07606833028 0) 78
(0.1356330043 0.03864260855 -2.168404345e-19) 7
(0.265179335 0.09923515107 2.168404345e-19) 144
(0.2308700838 0.1224971176 -3.252606517e-19) 320
(0.2836552668 0.07954445205 -3.252606517e-19) 27
(0.267401322 0.09181241893 -2.439454888e-19) 115
(0.230961895 0.09609719029 1.626303259e-19) 170
(0.290972978 0.1424103774 5.421010862e-19) 358
(0.2987729866 0.1051314635 1.626303259e-19) 149
(0.2934254034 0.08760770415 1.016439537e-19) 58
(0.2830422418 0.1188477381 -1.084202172e-19) 237
(0.2925844705 0.156744123 1.626303259e-19) 448
(0.2315168362 0.09066902029 -2.168404345e-19) 140
(0.302330459 0.1613391628 0) 449
(0.2472923795 0.1417729268 -2.168404345e-19) 382
(0.3024182938 0.08613130687 1.084202172e-19) 29
(0.2496103377 0.1181729789 -4.33680869e-19) 262
(0.2822594114 0.07815231172 -2.168404345e-19) 27
(0.2953845097 0.1323846736 2.168404345e-19) 298
(0.2503588927 0.06945549362 0) 22
(0.2264432324 0.08163471141 2.168404345e-19) 109
(0.2952022266 0.1189928996 6.505213035e-19) 238
(0.2443164695 0.07051910781 2.168404345e-19) 22
(0.2675160825 0.1041371426 1.084202172e-19) 175
(0.2583247229 0.1141256517 2.168404345e-19) 233
(0.2554040387 0.09667326062 2.032879073e-19) 143
(0.2842647667 0.09118634267 -1.084202172e-19) 87
(0.2669924831 0.1140534933 0) 235
(0.2821377873 0.1366358496 -2.168404345e-19) 327
(0.2107806262 0.05853042377 1.084202172e-19) 17
(0.2972309101 0.1045847968 6.776263578e-20) 149
(0.2736773548 0.09934580432 0) 145
(0.2405686655 0.09142447395 0) 141
(0.2705563084 0.08209891629 -1.050320855e-19) 55
(0.2954386061 0.1113739291 0) 178
(0.3038418353 0.08454862932 -2.168404345e-19) 29
(0.275444499 0.1305682297 2.168404345e-19) 326
(0.2438404324 0.1562973838 -2.337810934e-19) 472
(0.2638415849 0.1010537503 -2.168404345e-19) 174
(0.2007209536 0.0626831982 -2.710505431e-19) 46
(0.2498562387 0.1275780296 1.626303259e-19) 322
(0.2765552575 0.07650862489 0) 26
(0.167106781 0.1169035967 1.084202172e-19) 341
(0.2334120413 0.0903347259 1.084202172e-19) 140
(0.2191572207 0.08112516338 -2.168404345e-19) 108
(0.2121470579 0.07601252588 4.33680869e-19) 107
(0.2456038903 0.1009107221 7.589415207e-19) 172
(0.250649938 0.08548393487 2.168404345e-19) 112
(0.2846693242 0.1064422464 -1.084202172e-19) 177
(0.2591111667 0.08545314998 4.33680869e-19) 84
(0.2256197809 0.07238688986 -2.710505431e-19) 49
(0.2108195171 0.07928520777 0) 107
(0.1574901691 0.06591540579 1.084202172e-19) 100
(0.2175836447 0.05976599563 -2.168404345e-19) 18
(0.2670952749 0.08905358376 -2.303929617e-19) 115
(0.2547045797 0.08972950346 0) 113
(0.299970632 0.1472728016 -1.084202172e-19) 389
(0.272754164 0.1110699626 0) 205
(0.2469069115 0.09136482428 -5.421010862e-20) 142
(0.2398099836 0.1127154649 1.626303259e-19) 261
(0.2978704492 0.106662697 2.168404345e-19) 149
(0.2944603886 0.1377654817 1.084202172e-19) 328
(0.1773796027 0.06225079248 -8.131516294e-20) 73
(0.2461157091 0.0923190213 1.524659305e-19) 142
(0.2398404027 0.08797426059 2.57498016e-19) 141
(0.293706017 0.07951686371 -4.33680869e-19) 28
(0.2587650484 0.1070363122 0) 203
(0.2986059021 0.1500920919 4.33680869e-19) 389
(0.2533288251 0.08460418728 -2.168404345e-19) 83
(0.2839759502 0.1182254537 -2.168404345e-19) 237
(0.2480018619 0.08440159871 2.168404345e-19) 112
(0.2295439578 0.0806934134 1.626303259e-19) 110
(0.2231916931 0.07748711783 -2.168404345e-19) 79
(0.2113835046 0.06513110614 1.084202172e-19) 47
(0.2958598196 0.08943282463 4.33680869e-19) 58
(0.2484115424 0.1048019742 0) 202
(0.2377230104 0.07992938366 0) 81
(0.2788591883 0.1447901616 0) 386
(0.2681657761 0.109508619 -1.626303259e-19) 205
(0.2615939788 0.07920770314 -5.421010862e-20) 54
(0.259341652 0.1015089861 1.355252716e-19) 174
(0.273027414 0.09563537443 0) 115
(0.2592408194 0.08153496789 -2.168404345e-19) 84
(0.2110305392 0.09945862728 2.168404345e-19) 227
(0.2216763339 0.08201260275 4.33680869e-19) 109
(0.2368278406 0.08134919252 0) 111
(0.2676149064 0.1226599564 4.065758147e-19) 265
(0.2738569514 0.07501444979 -1.084202172e-19) 25
(0.3022420964 0.1218273014 -1.355252716e-19) 239
(0.2933754366 0.111372341 -6.818615225e-20) 178
(0.2355364116 0.07518362302 0) 80
(0.2375390696 0.09245180853 1.355252716e-19) 141
(0.2826324307 0.0908603226 1.084202172e-19) 87
(0.3032543584 0.09844570319 -2.168404345e-19) 119
(0.2782609431 0.1574662789 9.486769009e-20) 446
(0.2569331231 0.1057963871 -1.626303259e-19) 203
(0.2334914582 0.06943411483 -2.168404345e-19) 50
(0.2775085929 0.07663289195 -2.168404345e-19) 26
(0.2208721453 0.08324894597 0) 108
(0.2971937951 0.09548334484 0) 89
(0.287028781 0.1115023674 0) 207
(0.2513973989 0.09834956645 -3.252606517e-19) 172
(0.2904523637 0.1012443618 0) 148
(0.2000656109 0.05372081994 -4.33680869e-19) 16
(0.2908521292 0.1271272005 -5.692061406e-19) 268
(0.2664869995 0.07626073497 0) 24
(0.2213859606 0.07952585622 2.168404345e-19) 109
(0.2862589198 0.1118535231 1.084202172e-19) 207
(0.2333021544 0.06604654602 0) 20
(0.2395592161 0.08876937255 0) 141
(0.2758489968 0.1181011556 4.065758147e-20) 236
(0.177421917 0.0510997129 -1.084202172e-19) 13
(0.2690925115 0.07844185024 -3.252606517e-19) 55
(0.2757567198 0.07429947023 -2.168404345e-19) 26
(0.2686877107 0.09022311037 -2.168404345e-19) 115
(0.2785490243 0.07809172353 1.626303259e-19) 26
(0.2953251433 0.1055456281 2.168404345e-19) 148
(0.293207486 0.07886860678 3.252606517e-19) 28
(0.1389320554 0.04007044924 -2.168404345e-19) 8
(0.2916390359 0.125370811 1.490777987e-19) 268
(0.2633203161 0.106124716 -2.168404345e-19) 204
(0.3029372756 0.09803626409 -2.168404345e-19) 119
(0.2336289435 0.08029435302 0) 80
(0.1878079116 0.07118904963 1.084202172e-19) 104
(0.1970636179 0.1254302976 0) 345
(0.2557879271 0.07557272467 0) 53
(0.2350094764 0.07048913105 -1.084202172e-19) 50
(0.2573621799 0.07630419272 -1.084202172e-19) 53
(0.1829304526 0.05901054954 -2.168404345e-19) 44
(0.2664948851 0.07765700144 0) 54
(0.2967169847 0.1384019957 0) 328
(0.2737100501 0.08557968355 2.168404345e-19) 85
(0.3015181403 0.09988482199 -6.776263578e-20) 119
(0.2843117767 0.1019349526 0) 147
(0.1869496114 0.08055984043 -2.710505431e-20) 134
(0.1587141408 0.06312267229 -4.33680869e-19) 100
(0.2377237258 0.0745214389 5.421010862e-20) 51
(0.23380168 0.06601782205 1.084202172e-19) 20
(0.2892169216 0.08784788601 2.168404345e-19) 57
(0.2866743299 0.09141734164 -1.084202172e-19) 87
(0.2480557397 0.13121423 0) 352
(0.252143129 0.08704583288 -4.33680869e-19) 113
(0.2684259344 0.08521084799 2.710505431e-19) 85
(0.229834431 0.09012639836 0) 140
(0.282218338 0.1115373909 0) 207
(0.1952018237 0.06450389895 -4.33680869e-19) 45
(0.2831323292 0.1016603209 0) 147
(0.2530176826 0.09143633534 4.33680869e-19) 143
(0.3024428837 0.08546228827 -2.168404345e-19) 29
(0.2569860417 0.1007397985 2.168404345e-19) 173
(0.2353281705 0.1074670038 2.862971362e-19) 230
(0.274115329 0.1613552123 0) 475
(0.2363688179 0.07164420548 0) 51
(0.2509243526 0.07275406172 0) 22
(0.2666304867 0.08067577499 -4.33680869e-19) 54
(0.2610847102 0.08903963391 -2.439454888e-19) 114
(0.2677664861 0.1078209687 -2.168404345e-19) 205
(0.2906544348 0.1077937289 -2.168404345e-19) 178
(0.2366523829 0.09459697571 -1.084202172e-19) 171
(0.1606750074 0.08061644542 4.33680869e-19) 161
(0.3025796797 0.09086316378 -5.421010862e-19) 59
(0.222392496 0.06066635843 0) 19
(0.2349421457 0.07506722643 0) 80
(0.3046340223 0.1485800599 0) 389
(0.2375721267 0.1363340313 0) 381
(0.2899453812 0.1225499564 1.219727444e-19) 268
(0.2905297699 0.0914818328 -2.168404345e-19) 88
(0.292502239 0.09707432785 1.626303259e-19) 118
(0.2513743313 0.08312476914 0) 82
(0.2550199357 0.07308551354 0) 23
(0.2061209434 0.1254451655 4.33680869e-19) 347
(0.2040503461 0.115717048 0) 286
(0.2059127155 0.06308232702 2.168404345e-19) 47
(0.2831172741 0.1227909918 -1.084202172e-19) 267
(0.2172186263 0.0724082521 3.252606517e-19) 78
(0.2321071201 0.0734365366 -2.168404345e-19) 50
(0.2915243491 0.09210752947 -4.065758147e-20) 88
(0.2505446825 0.129436527 2.168404345e-19) 322
(0.2835074546 0.1170462847 1.084202172e-19) 237
(0.2587624786 0.1068713424 0) 203
(0.2333090893 0.06515196422 0) 20
(0.2293914831 0.09388197988 2.168404345e-19) 170
(0.2269177189 0.06326368543 5.421010862e-20) 19
(0.2031718296 0.06570568998 -2.168404345e-19) 46
(0.2850165602 0.1110445888 3.794707604e-19) 207
(0.2806538732 0.08469119638 2.168404345e-19) 56
(0.2497616414 0.08877783284 4.33680869e-19) 112
(0.2136900455 0.06824711423 0) 48
(0.2736762827 0.1020720117 -2.168404345e-19) 175
(0.2819443588 0.1056129432 -2.168404345e-19) 177
(0.2487737937 0.1235436757 -1.084202172e-19) 292
(0.264069209 0.1101166226 3.252606517e-19) 204
(0.2202610623 0.08532353516 2.168404345e-19) 138
(0.2752162463 0.1103797697 2.168404345e-19) 206
(0.238407952 0.07966757489 2.168404345e-19) 81
(0.2486485507 0.1228126924 1.084202172e-19) 292
(0.2633216482 0.0812135327 -2.710505431e-20) 54
(0.2446630643 0.06653960646 2.168404345e-19) 22
(0.2348467079 0.08213853409 2.168404345e-19) 110
(0.2574179566 0.09626194815 0) 143
(0.24904217 0.07342800859 2.168404345e-19) 52
(0.2824542175 0.08187739949 -2.439454888e-19) 57
(0.2943817411 0.09344339058 -1.084202172e-19) 88
(0.2338724612 0.07472610863 0) 80
(0.2185437127 0.1091344644 2.168404345e-19) 258
(0.2943826417 0.08093740153 1.084202172e-19) 28
(0.2316226437 0.09393169015 1.084202172e-19) 170
(0.2624505857 0.07290171944 6.776263578e-20) 24
(0.3000717886 0.1293706158 -2.168404345e-19) 269
(0.2045146837 0.1202094045 -6.505213035e-19) 316
(0.2671651585 0.102966823 0) 175
(0.2291419031 0.07301463582 2.032879073e-19) 50
(0.2121384865 0.05747683554 -4.33680869e-19) 17
(0.2334814725 0.08001714967 0) 80
(0.2543157302 0.1324760541 -2.168404345e-19) 353
(0.2828027274 0.09323997511 -7.284483346e-20) 117
(0.2561160601 0.0820080619 -1.084202172e-19) 83
(0.268801451 0.08220688456 5.421010862e-20) 55
(0.2448937714 0.06808753186 2.168404345e-19) 22
(0.2985229772 0.1374179074 0) 329
(0.2736519517 0.09303000784 -2.846030703e-19) 115
(0.2498904614 0.07720970464 -2.168404345e-19) 52
(0.2098937666 0.06231971501 2.981555974e-19) 17
(0.2988683461 0.104811205 -2.168404345e-19) 149
(0.2976494863 0.1050138028 1.084202172e-19) 149
(0.3001566309 0.1091704063 -5.421010862e-20) 179
(0.2126202736 0.06358349086 -2.168404345e-19) 47
(0.2114720883 0.07774020773 3.523657061e-19) 107
(0.2364541415 0.1013473524 4.33680869e-19) 201
(0.267367834 0.1177379564 -2.168404345e-19) 265
(0.2939619131 0.1193657529 3.252606517e-19) 238
(0.2027524633 0.06556899812 0) 46
(0.2899457463 0.1374443165 -4.33680869e-19) 328
(0.2041935237 0.09706347502 0) 196
(0.2638564479 0.09195587686 1.084202172e-19) 114
(0.2668354678 0.08574925981 0) 85
(0.2952069652 0.1031615589 -1.084202172e-19) 148
(0.1730308568 0.1029119901 -3.252606517e-19) 252
(0.2951144194 0.08909746462 2.168404345e-19) 58
(0.2182937666 0.07194887532 4.33680869e-19) 78
(0.291121856 0.08235662448 -4.33680869e-19) 28
(0.2682907597 0.1100555693 -4.33680869e-19) 205
(0.2809490834 0.0970441585 -2.168404345e-19) 116
(0.2687727438 0.09905219908 9.486769009e-20) 145
(0.3020765257 0.1582997144 0) 449
(0.2337401558 0.06741996069 -3.252606517e-19) 20
(0.2924590536 0.1257673374 1.355252716e-19) 268
(0.2981506114 0.1050331561 -1.084202172e-19) 149
(0.2519773134 0.1072377383 2.168404345e-19) 203
(0.257545987 0.0873299513 0) 113
(0.295134787 0.1050864244 -2.168404345e-19) 148
(0.2534711998 0.08819202496 0) 113
(0.2041753393 0.1060042744 2.168404345e-19) 256
(0.1634332942 0.05568001634 2.168404345e-19) 41
(0.2633208079 0.1429209386 -5.421010862e-20) 384
(0.1988269022 0.05673041001 -3.794707604e-19) 16
(0.2614113372 0.1109212723 1.084202172e-19) 234
(0.2678809015 0.0779300173 0) 55
(0.2987300854 0.08223602385 -1.084202172e-19) 29
(0.2467016506 0.06878741705 1.084202172e-19) 22
(0.2742624022 0.162615581 0) 475
(0.2947640194 0.08122638232 -1.084202172e-19) 28
(0.2670513487 0.1035962243 0) 175
(0.2654094329 0.07522837816 -2.168404345e-19) 24
(0.1957561298 0.06294627211 -3.252606517e-19) 45
(0.2628587981 0.1174058552 2.270048299e-19) 264
(0.2648508086 0.1349316326 0) 354
(0.2934320086 0.103739392 4.743384505e-20) 148
(0.2489854035 0.07678091486 1.084202172e-19) 52
(0.2422033477 0.1124456253 0) 261
(0.1461263202 0.05503924624 0) 69
(0.2859267451 0.08273620111 -2.168404345e-19) 57
(0.2372820752 0.08227279674 -1.897353802e-19) 111
(0.2499124684 0.09949046386 2.168404345e-19) 172
(0.2282660999 0.06897401077 0) 49
(0.2665843968 0.08309234075 -2.168404345e-19) 84
(0.3033117793 0.08923134975 1.084202172e-19) 59
(0.2975875076 0.1171212208 -2.168404345e-19) 209
(0.2234337829 0.07082321566 1.084202172e-19) 49
(0.2560401592 0.07741760858 5.421010862e-20) 53
(0.2756222898 0.1602813733 -1.084202172e-19) 476
(0.2359999499 0.08419136366 4.33680869e-19) 110
(0.2297478644 0.09379236811 -4.33680869e-19) 170
(0.249722896 0.1060054836 0) 202
(0.1706894292 0.08923514968 -4.33680869e-19) 192
(0.2846463827 0.1086272271 -2.168404345e-19) 177
(0.2862792309 0.08680513179 1.084202172e-19) 57
(0.2494630152 0.07911186894 -4.33680869e-19) 82
(0.2821490955 0.0845222711 5.421010862e-20) 57
(0.1682227093 0.04875006853 0) 12
(0.2804673272 0.1225830376 -5.421010862e-20) 266
(0.2322317792 0.09822703552 -1.355252716e-19) 200
(0.2902340002 0.107044267 0) 178
(0.2870566015 0.07922501937 1.084202172e-19) 27
(0.2800821879 0.07976569272 2.168404345e-19) 26
(0.1933548213 0.05582524159 -1.219727444e-19) 15
(0.1679447227 0.1119403103 -1.130788985e-19) 312
(0.2468506226 0.1040658346 2.168404345e-19) 202
(0.2812021231 0.1334265897 1.084202172e-19) 326
(0.2867826974 0.07869645711 1.084202172e-19) 27
(0.2792627868 0.1489269977 -4.33680869e-19) 416
(0.2742393814 0.07578362657 -1.084202172e-19) 25
(0.2920428084 0.1214506877 3.252606517e-19) 238
(0.276914312 0.08215207252 5.421010862e-20) 56
(0.1590360762 0.05869384696 9.825582188e-20) 70
(0.2593738078 0.0923960446 8.131516294e-20) 114
(0.2826767989 0.1063179674 8.67361738e-19) 177
(0.1946715767 0.05278303641 0) 15
(0.2454003833 0.1039720722 4.878909776e-19) 202
(0.2646261552 0.123561876 -2.168404345e-19) 294
(0.2947434013 0.1166795283 -3.252606517e-19) 208
(0.2001935515 0.06379236711 0) 46
(0.2178305463 0.07273719503 0) 78
(0.1812230996 0.100550536 2.168404345e-19) 253
(0.2483614083 0.07135364135 0) 22
(0.3042066182 0.1003216682 4.607859233e-19) 119
(0.2193060936 0.08407464408 -2.168404345e-19) 138
(0.215676855 0.07548659079 0) 78
(0.2441234358 0.1017156554 -1.084202172e-19) 202
(0.2949919051 0.08494421609 -2.168404345e-19) 58
(0.270920815 0.08764796094 -8.131516294e-20) 85
(0.2555986483 0.09440441632 0) 143
(0.2351953348 0.06843194164 2.168404345e-19) 20
(0.2426549821 0.09798748375 0) 171
(0.2731629478 0.1044542185 2.168404345e-19) 175
(0.3046591568 0.09302366003 0) 89
(0.2669482832 0.07853081451 3.252606517e-19) 55
(0.2499774492 0.1306762614 4.33680869e-19) 322
(0.1918227747 0.06911756244 -2.032879073e-19) 75
(0.2801874448 0.07599323884 -4.33680869e-19) 26
(0.2495012031 0.1271193486 -1.084202172e-19) 322
(0.2415630525 0.1239769422 2.168404345e-19) 321
(0.2788265364 0.1526312478 -2.710505431e-19) 416
(0.3014533658 0.09740840066 2.168404345e-19) 119
(0.2017971315 0.05930508442 0) 16
(0.2448890934 0.1356601734 -4.33680869e-19) 352
(0.2997348854 0.09818207601 -2.168404345e-19) 119
(0.2286511512 0.09302484232 2.168404345e-19) 170
(0.2362124162 0.1001079427 2.168404345e-19) 200
(0.2265370561 0.0613468198 0) 19
(0.1820907698 0.06256873455 2.168404345e-19) 73
(0.2167333312 0.08851995302 -4.065758147e-19) 168
(0.2839876863 0.08904922233 5.421010862e-20) 87
(0.266075626 0.07572261409 2.168404345e-19) 24
(0.2388687807 0.08582209245 5.421010862e-20) 111
(0.2999772998 0.09626038303 4.33680869e-19) 89
(0.2822197532 0.1135235278 -2.168404345e-19) 207
(0.2059756624 0.07229423849 0) 77
(0.1901108493 0.0808632054 0) 134
(0.2927347279 0.09459077041 -2.168404345e-19) 88
(0.2772911245 0.08836727439 -5.421010862e-20) 86
(0.1861885727 0.1021668317 2.168404345e-19) 254
(0.2817693552 0.1105843193 0) 206
(0.2371766794 0.06656492109 -1.423015351e-19) 21
(0.2655595524 0.08128968503 2.168404345e-19) 54
(0.287861743 0.162590172 -1.084202172e-19) 477
(0.2791838493 0.1067458769 0) 176
(0.27902007 0.09554467745 1.084202172e-19) 116
(0.2162006217 0.08482344863 -5.421010862e-20) 138
(0.2638985269 0.1220142169 -1.084202172e-19) 264
(0.2780932684 0.09200677727 3.388131789e-19) 116
(0.2234696806 0.06478504584 -1.084202172e-19) 19
(0.2480808751 0.06882908605 -5.421010862e-20) 22
(0.2702990298 0.1351268835 -2.168404345e-19) 355
(0.270694523 0.08459116398 -2.168404345e-19) 85
(0.2478092272 0.09719052928 -3.252606517e-19) 172
(0.247382791 0.1650510811 -2.168404345e-19) 501
(0.1760472494 0.08447282391 -3.015437292e-19) 163
(0.290561471 0.09219415985 1.084202172e-19) 88
(0.3034896879 0.1118948474 -2.168404345e-19) 179
(0.1690028094 0.04618657359 0) 12
(0.2411031012 0.08587780255 -1.084202172e-19) 111
(0.222650986 0.09842037861 1.084202172e-19) 199
(0.240399319 0.07216862265 1.084202172e-19) 51
(0.2755711614 0.1039545941 0) 176
(0.2416123841 0.1215114323 0) 291
(0.188849001 0.05116874227 -2.168404345e-19) 14
(0.1556825987 0.04921738442 0) 40
(0.2909238672 0.1446889994 -2.168404345e-19) 388
(0.2887891925 0.1007937343 2.168404345e-19) 147
(0.2755448633 0.09472189335 0) 116
(0.2017947468 0.06791574858 2.168404345e-19) 76
(0.2892542255 0.1303769386 0) 297
(0.2800942417 0.1444748505 2.168404345e-19) 386
(0.2769117453 0.1435525719 8.67361738e-19) 386
(0.250789357 0.07438698446 2.168404345e-19) 52
(0.2622694502 0.1078194242 1.355252716e-19) 204
(0.2244700187 0.08279960115 -2.168404345e-19) 109
(0.1862834057 0.07919462643 2.168404345e-19) 134
(0.2428490847 0.08261576643 -4.33680869e-19) 81
(0.2311149644 0.07868701105 -2.168404345e-19) 80
(0.2058266214 0.09098572012 0) 167
(0.2692719095 0.0967102322 6.505213035e-19) 145
(0.1955990887 0.05301517515 8.67361738e-19) 15
(0.2486843042 0.07134768248 -3.252606517e-19) 22
(0.2900438306 0.08957237705 -1.084202172e-19) 88
(0.1841706513 0.05505815477 -1.084202172e-19) 14
(0.2589851598 0.08211621133 2.168404345e-19) 83
(0.3037205485 0.158747555 0) 449
(0.2439511283 0.09583967909 3.252606517e-19) 172
(0.1755733613 0.0489410258 0) 13
(0.1624739895 0.05054950067 -1.084202172e-19) 41
(0.2191968198 0.07195361337 2.168404345e-19) 78
(0.2550654833 0.120658969 2.168404345e-19) 293
(0.1907528338 0.0711252665 0) 105
(0.2357754027 0.1229064732 -2.168404345e-19) 320
(0.2329633122 0.06273238829 2.168404345e-19) 20
(0.2617799045 0.1071138647 -5.421010862e-20) 204
(0.296754703 0.1405561955 0) 358
(0.2425391122 0.08395019372 -4.33680869e-19) 111
(0.2861956417 0.07875501439 0) 27
(0.2022122435 0.06153885913 2.168404345e-19) 46
(0.2390698875 0.1151941378 1.355252716e-19) 261
(0.2332986785 0.06426526309 0) 20
(0.2282567438 0.07046118139 2.168404345e-19) 49
(0.2950806809 0.1014941371 0) 148
(0.2775058906 0.09879154005 5.421010862e-20) 146