/*--------------------------------*- C++ -*----------------------------------*\
| =========                 |                                                 |
| \\      /  F ield         | OpenFOAM: The Open Source CFD Toolbox           |
|  \\    /   O peration     | Version:  2406                                  |
|   \\  /    A nd           | Website:  www.openfoam.com                      |
|    \\/     M anipulation  |                                                 |
\*---------------------------------------------------------------------------*/
FoamFile
{
    version     2.0;
    format      ascii;
    arch        "LSB;label=32;scalar=64";
    class       vectorField;
    location    "0.012/lagrangian/dsmc";
    object      U;
}
// * * * * * * * * * * * * * * * * * * * * * * * * * * * * * * * * * * * * * //


9503
(
(1970.091227 -32.31401319 389.3274749)
(839.5047886 -383.3752681 785.5530759)
(626.135609 885.588665 277.6589761)
(101.1194155 593.2572856 -171.8433452)
(1587.74438 775.8499898 1003.288989)
(-50.65064482 256.9033655 -307.7097748)
(305.799219 334.6684031 532.6933431)
(473.2366437 230.2703293 -112.2318694)
(1203.132044 -307.8429268 152.3480419)
(798.338134 -170.6401216 371.3316483)
(24.00174968 -61.75579849 -353.9687446)
(444.7156816 -221.759874 -429.5261543)
(994.7154452 311.6458566 263.7511422)
(-52.60051639 572.9045404 405.2220735)
(221.5373407 -53.18758394 -386.4623846)
(1276.196898 488.6692668 513.7612429)
(329.3110738 448.8849777 -379.452667)
(24.41326421 517.3159334 -370.8783128)
(289.0095182 4.952070482 123.0465013)
(7.813167524 -259.8920599 -351.2922469)
(686.108525 244.3264551 -454.5659881)
(999.265261 892.611864 -319.1955605)
(164.0943707 -79.79164761 509.3885767)
(64.96568168 662.9291668 47.01193509)
(-30.97585452 656.4797299 57.47842156)
(1450.967542 -129.7429939 -67.24363313)
(270.5718165 500.5564123 -81.97793359)
(415.0194207 -379.705155 1050.143851)
(1195.487486 693.3247933 432.0464499)
(773.0359203 -5.83609986 -577.0682988)
(554.1155467 -73.72902173 328.2076615)
(-228.7884015 138.8086054 506.0599178)
(789.4965272 -18.11814065 -209.173145)
(233.6417651 351.9955111 -564.907108)
(735.2902828 347.3141152 -518.546132)
(727.4465308 67.41373036 487.8780959)
(419.1914569 -93.02818412 395.9364098)
(820.583356 -264.1347935 37.35174379)
(606.4781013 236.0010189 470.1509337)
(550.5106412 233.6807777 -123.6762388)
(1426.255398 391.7984726 -992.9254836)
(358.5834377 -266.9936611 -24.74608878)
(802.7602545 14.88249295 -208.4330973)
(1426.577064 737.0120953 -356.7612674)
(610.3973198 -80.77199425 -47.74716704)
(401.9966939 114.6524453 -33.38524549)
(-49.25661808 285.4501849 463.4937917)
(-676.6076348 -176.8668354 -455.4982717)
(1131.923088 361.0933286 -653.5679367)
(-13.7164596 477.123386 146.7589281)
(1523.021639 326.2983022 -798.354708)
(-162.7505038 -305.5423776 -221.8286808)
(843.1976369 -524.4580152 471.5198389)
(976.6506248 640.3362702 450.2920916)
(696.7884645 877.3563596 593.2904756)
(1402.824873 539.2381484 -611.0051959)
(688.523501 -163.1597628 317.034296)
(16.16000681 313.3254042 -282.4834561)
(471.7772221 540.7151263 -461.4840502)
(495.3723799 310.9284303 -163.8066435)
(163.775716 -306.4622544 -83.09888885)
(823.7259 516.8415587 1016.312352)
(608.2061576 -91.63376233 -431.8914288)
(-550.0929451 524.3852676 -106.0113318)
(716.2492291 -754.9626976 -598.3220789)
(-174.3457432 133.3543347 33.41569717)
(-780.3948141 1.509634379 142.3931486)
(376.6149132 346.6766945 -356.9258788)
(517.3539901 -432.4338596 159.6715849)
(1210.95438 -348.7201775 -82.18947253)
(812.7058737 -220.5948033 -35.00083483)
(-472.1127623 -301.5205414 -109.2787071)
(465.352092 40.93745168 38.74157667)
(536.2290843 421.3027035 45.97003521)
(1254.015057 25.46797875 -730.6661074)
(319.7727853 -706.1337305 -298.2297648)
(966.9441234 277.1011892 -529.0986468)
(707.8296964 816.293227 115.9058646)
(428.0330142 236.9838348 8.953702083)
(953.8715935 707.1624748 326.2255165)
(592.5107233 522.9954478 -265.2485287)
(198.1172485 333.3217641 -422.6579841)
(521.6372972 50.00605939 138.7519935)
(21.74987021 -55.91087525 49.57635486)
(1134.781112 339.454916 298.6552468)
(1317.06283 -708.6130996 824.0200291)
(-215.9088586 -767.5384791 -312.3938276)
(643.0643859 628.0697077 -46.16988477)
(882.7608445 -463.4857968 -32.1700485)
(514.3502317 961.4893431 541.2185751)
(273.8825045 266.2706635 -340.3930546)
(611.7837143 501.7923829 -724.0726015)
(717.0681392 -817.183931 -13.8904218)
(446.074387 952.9838536 -223.2606646)
(1063.632807 607.6550001 668.711778)
(-92.61444364 362.1917877 38.76814633)
(-517.9474587 -375.963457 30.09925161)
(-153.5827521 -209.9180119 174.5537231)
(1643.832525 433.9217867 -82.20964404)
(-440.7165368 743.1084133 306.5557066)
(-610.1246947 399.3073328 -272.5331623)
(747.0530121 -126.6566796 -132.0640121)
(239.4858262 830.5279058 624.6550269)
(450.6297438 -74.06607649 63.41896495)
(658.6880977 52.52349717 -647.3388292)
(543.3090746 186.046918 559.183674)
(-214.2625784 208.5193796 386.5494139)
(133.8443565 494.6536464 530.6941261)
(492.1143795 277.7458733 245.8919541)
(646.6391071 -174.7339834 343.6773912)
(1525.770336 116.7456527 454.2628857)
(-52.98506071 18.27978979 259.569598)
(914.1978812 -519.4267874 -590.6174483)
(542.2085043 -198.0143212 -610.1799145)
(36.71585137 -119.647813 207.3864137)
(413.7763959 -149.8729452 -466.1012905)
(612.1838357 -92.39998584 -55.92486337)
(287.5765657 198.553597 -124.5471324)
(1011.457228 531.3186345 912.4596443)
(681.1103726 39.13953986 54.99087048)
(574.8604935 461.5327454 -631.1247878)
(342.0382242 111.5362198 -495.2565797)
(807.7270716 1262.127257 -194.4774342)
(522.6658052 475.7006762 350.7949484)
(2074.733481 -854.4251563 -507.2070191)
(-386.7465802 258.8413448 239.7734777)
(1862.523711 179.0347489 -301.5120953)
(356.4496974 -122.2211243 -333.0921747)
(816.4793277 -492.8175937 -545.1314879)
(465.9108956 847.6762766 -290.5046173)
(531.6584928 663.3304037 927.925322)
(1349.137596 218.4045107 47.69869066)
(403.8512466 129.993901 -835.0894508)
(950.821246 584.0714263 349.001809)
(-38.8387685 -276.1998146 498.1883474)
(-240.4403499 521.040516 14.01857982)
(-583.4572346 151.7004546 396.5550347)
(568.4163263 185.8860308 179.5959803)
(595.3128743 919.3969938 -44.73122688)
(848.11449 59.54763533 343.1346762)
(-91.56642023 229.9706581 21.86523541)
(777.1776507 -184.4932648 -430.943078)
(605.1256243 69.60174677 -483.8414688)
(893.464039 -126.0136593 -63.64115827)
(-389.2254584 415.8130781 -1060.590851)
(507.1607527 236.7536594 871.2002412)
(72.60793859 516.6599257 -224.6363775)
(-533.4849628 193.9053338 -435.61862)
(985.4468623 1095.964428 795.3208996)
(1267.587569 949.6157183 -344.9024927)
(296.7404178 596.8430425 -355.1053966)
(-79.84661065 282.5990203 158.5411943)
(-304.016392 581.6285002 248.0849784)
(716.1316562 -666.0206831 -1044.213858)
(573.5560187 -134.0173126 35.55555135)
(447.3683502 405.1169322 328.8467583)
(748.5113977 652.8290031 -323.7175774)
(940.2518896 -143.1222132 69.74909939)
(1384.519862 -492.6514717 286.2438427)
(1157.595858 337.9283004 565.063302)
(-118.3935036 230.2412107 -247.6716787)
(1437.528108 209.2969177 797.4065534)
(694.6390764 302.3234188 -601.8380358)
(1558.533837 431.361113 215.3836244)
(1010.673436 463.711527 92.2944705)
(726.0401272 632.4462218 -1768.046625)
(260.8928388 431.8126903 -680.9986837)
(166.1709058 132.8290835 -67.42528119)
(801.3338037 587.4786228 -923.7921561)
(1198.752622 227.751583 19.43399002)
(413.1946268 -64.58882081 -785.7177695)
(691.3730544 1240.406833 -61.13873159)
(936.7318494 73.77179803 -8.788678393)
(971.218455 630.7319756 1132.377002)
(-83.83751672 -57.02248293 380.2058435)
(-395.8908746 635.3171055 291.8832308)
(671.2058796 -520.485493 -681.962756)
(-142.9310562 274.7451207 -339.7210132)
(731.3433389 72.19836076 -354.0381137)
(482.1009084 245.059328 658.2991547)
(428.168024 -198.1834316 -668.2350153)
(484.389694 534.129874 1035.638902)
(937.6762587 197.4732327 -521.8409852)
(71.01400758 -541.6726771 -637.3198023)
(473.6231801 571.9499598 230.0099284)
(279.3143078 -402.7352374 -286.1350169)
(337.6565776 451.1725647 271.0036527)
(1140.4256 -203.3499764 -102.0297261)
(600.0678239 -439.6811392 -316.8275174)
(597.7079399 -427.761091 88.93045414)
(803.7068318 -241.7361958 -112.1490048)
(1093.045134 -939.9804684 245.702312)
(480.0739634 966.3065304 164.4216355)
(82.8154905 214.8706594 -204.6946758)
(843.9359854 -304.5736218 167.6123254)
(815.852543 1022.504206 -609.1455214)
(384.8371454 -172.0657761 -1169.08015)
(762.8549045 316.2748265 145.0476226)
(-317.7083934 1085.593492 519.2417778)
(1581.148982 -4.997212022 -951.1772427)
(40.22960036 -637.7476442 -391.3353542)
(452.8410191 155.2391732 461.9861331)
(368.1034063 98.84991363 397.0423024)
(601.2075616 712.3964566 -160.7287167)
(172.2145379 1179.302884 1037.036793)
(678.4079394 -512.7118504 233.9985608)
(674.5530488 95.91826116 -587.5959143)
(-684.0169015 213.0983018 144.228751)
(1638.179531 957.1322281 475.6217663)
(934.7112443 623.7289812 -110.4127197)
(649.119413 -598.0006536 -294.6195847)
(917.9381629 -171.6026266 99.45530243)
(645.7133755 -367.5497712 139.5252221)
(-487.1342406 367.2681026 201.4595532)
(-534.1347439 51.52808275 -553.6156532)
(1415.865032 143.8919096 -78.45118957)
(801.6288179 291.4038039 233.7602163)
(1228.405627 807.7189664 -44.87618715)
(-282.2083033 283.8362821 369.7800514)
(183.3264826 -849.0665759 -176.9371021)
(656.3588071 -157.8180225 -346.357872)
(-89.60321363 625.683956 -451.1618888)
(1000.915088 -146.3824939 260.2094311)
(137.0232589 559.8557332 0.1971479504)
(529.2350645 -581.2059754 334.5501384)
(26.55103269 384.2191747 -102.4651122)
(1768.294796 895.3623022 328.0194223)
(-107.937635 -75.41069339 71.02928835)
(244.6000125 486.3956347 967.0605357)
(915.9838452 564.3197869 42.58767725)
(1031.470493 321.7489215 703.816545)
(289.02237 566.5728246 94.99924064)
(138.0864692 77.6552244 -640.3930589)
(1464.990247 862.783623 499.0764558)
(754.8557362 252.4253335 -588.6795705)
(-74.43567685 327.9840788 209.0344313)
(-159.2173702 -134.6332966 263.6974118)
(628.3944381 236.8152223 -21.11837344)
(1383.738596 534.8021574 -966.1156862)
(898.8498648 -597.8078353 791.2185287)
(567.2810711 -498.5807797 -668.2706475)
(152.7741953 -580.6109656 429.6761375)
(1488.829307 -295.9816396 -72.01954294)
(981.4343935 -271.0421227 100.6712393)
(1982.245913 28.42877558 -75.57031213)
(431.5825095 50.09994443 -637.5966755)
(609.9551525 1251.005245 -104.5080095)
(-681.8691441 -204.6479299 117.3490322)
(675.5808082 1286.348264 -80.24823932)
(844.3250832 1370.688198 -132.6781855)
(323.8262261 429.8211314 -495.7987942)
(799.7497602 -359.3819207 290.5839009)
(535.1921073 95.1979624 69.48260984)
(1269.708428 -152.250223 224.5488645)
(685.565213 -345.255202 -465.2953392)
(-72.94606824 366.2207296 742.8401998)
(1113.533202 -333.8334731 -398.1704092)
(1004.895507 -504.3167511 -619.3671136)
(571.7298104 830.4021927 35.31475724)
(191.0933195 -114.1683897 597.2350014)
(982.1881063 922.5936095 628.9042673)
(284.7548132 -800.4651227 340.9540947)
(1014.800731 -106.9933729 764.3153743)
(1349.090914 310.6238593 82.0657629)
(53.79134497 427.4836816 155.5210687)
(1383.519503 249.9407094 282.6458013)
(348.9330665 1024.446653 -641.9972387)
(930.5801664 572.9988841 -721.7088643)
(213.204665 77.4821428 270.2476747)
(806.9147734 369.1964587 -883.0111429)
(396.3811772 303.322213 22.60583152)
(1355.028431 479.7519 -407.8653889)
(717.7340426 -284.63762 -133.8046901)
(667.6465359 665.5152465 648.893568)
(944.6824344 -274.5472558 -139.118896)
(456.9324418 741.6292786 -222.1928986)
(168.6283922 104.6406541 172.8686835)
(765.9459568 1132.342991 -428.3734025)
(1194.479869 -571.3751855 -87.70916689)
(-252.7538951 188.9965582 221.1800589)
(-430.7092318 724.4194033 533.0488415)
(145.260514 594.8854267 -789.806293)
(842.7837421 -134.6679493 330.7871652)
(143.3857895 6.050180817 -202.7788531)
(757.1236904 511.3978105 477.3952055)
(792.5889222 -80.17026872 -207.9416041)
(916.919471 -434.1308127 347.9171517)
(582.3112278 238.1086246 346.5824165)
(-76.71931442 -789.2553565 75.38248771)
(1157.772942 238.5179828 75.95212785)
(195.307169 -187.5416033 -112.7601291)
(1533.110172 604.4347334 5.537009891)
(438.0578445 285.5022964 -473.4485187)
(498.6315464 212.5518896 -403.4802944)
(1210.733145 823.0663314 -672.9979594)
(856.0592042 321.4570923 -557.4968554)
(796.6254628 290.4518232 677.720194)
(833.0421777 744.3787539 -164.1047338)
(775.1876335 512.066144 962.5356303)
(776.327984 -79.20835114 -939.0464418)
(589.4247451 103.7227337 217.0766573)
(986.0134101 271.4250568 -706.6259854)
(1138.899849 -297.2334468 291.0262897)
(-403.1833535 771.9632149 -247.6732354)
(1471.595725 311.4280927 -935.623814)
(-290.3376394 261.1873489 -139.2434909)
(604.8724084 543.3863091 319.3815802)
(426.1184061 430.8474067 -800.5406377)
(484.0721017 -592.5731826 -272.8357255)
(1683.052604 233.5916703 253.4916555)
(191.6137558 777.4296135 -21.2269939)
(611.3704435 -170.2834229 94.38277437)
(1154.977839 136.2534323 -625.5273323)
(914.8817306 -642.0123224 210.5163287)
(-47.95245362 656.2101669 891.2679064)
(608.7558179 157.1779278 695.6586186)
(1030.123062 220.9584242 -52.21002345)
(-140.5069771 -75.49048306 -25.39846812)
(1012.373657 438.4189457 -296.9895253)
(718.7856057 -171.6481417 -1004.919217)
(901.1650313 685.7875395 332.0059685)
(863.2231903 438.3475287 721.6713921)
(526.4183032 944.4733211 -54.90790756)
(1096.090773 1040.438773 -0.4199173873)
(265.6043322 -51.91167135 306.5346092)
(872.8984003 -30.10510924 -426.8252981)
(672.9021819 -11.2634174 -559.2202779)
(-195.8016455 370.2807784 -16.81234551)
(271.2241003 1001.163781 -676.0965868)
(801.1692844 414.5746737 495.7464285)
(886.5879543 175.4201612 304.4435314)
(142.2708611 -655.7925097 212.3363172)
(584.6587291 134.9999016 -632.3682497)
(452.7150996 23.93333336 34.40271523)
(1708.594705 211.0657968 224.7140932)
(2481.775383 -111.2450015 453.6851645)
(467.3369732 293.9973302 -148.5056685)
(293.457483 47.12712484 -525.080606)
(368.9669926 123.0412174 197.827461)
(696.1500803 1351.339316 1182.207746)
(-614.6362696 340.1436049 506.714275)
(522.4176599 -18.3668483 576.7111953)
(1189.935488 151.9363525 422.4469666)
(203.4254692 447.4844797 251.0116964)
(2436.745224 -323.2957277 195.7758126)
(626.4988788 1047.956038 -231.2120025)
(249.5673711 -204.5808424 -285.775408)
(456.6700253 -211.0890494 -628.2737607)
(-325.7214905 77.02193953 44.9445326)
(1920.714508 469.4491342 20.69820746)
(907.5145496 -106.7769721 883.8577366)
(-226.1206994 833.8853678 -275.7366256)
(121.9470233 97.94138399 463.5939685)
(688.4843141 495.0677173 486.564922)
(489.7329699 249.4657167 40.14375057)
(99.08185898 263.488103 -221.3455346)
(952.6650801 850.961169 157.2172974)
(479.527337 504.784404 143.8419838)
(506.021529 -671.4247307 108.7494041)
(162.2600229 473.058171 1313.008419)
(969.3864585 -185.0346894 194.4030455)
(184.1898491 1081.489232 424.9173578)
(226.7012928 733.3147631 -663.2265692)
(479.761989 65.82999046 -879.6747823)
(659.1989682 617.2321799 74.56003927)
(1555.564008 426.5977436 582.797552)
(621.2118918 -114.3935157 212.0192716)
(275.0439889 -255.8014275 -61.5143643)
(588.7057085 38.2205475 254.7481351)
(984.6071104 532.4834129 318.3750412)
(1020.334206 792.4544151 152.1603468)
(955.9266524 186.9128887 -396.7748762)
(-52.92128482 -112.6124547 -562.5169777)
(685.2532284 308.7903734 -63.89122142)
(764.7557742 181.5368864 -618.3519845)
(983.4236618 453.8944166 201.3919028)
(-338.1643389 -80.45231704 259.1212511)
(-69.43334688 91.1712496 227.3961747)
(-450.71794 100.4724892 -105.8897065)
(1677.24673 1138.07958 -563.5832254)
(-249.8258466 474.5828093 -97.14012598)
(500.5382179 -456.8383552 365.7616994)
(344.0920592 316.2788053 889.201394)
(307.3956069 1041.163967 -248.5471618)
(1076.45237 -258.1471832 341.5453296)
(1371.417692 830.6436728 -304.4800898)
(1148.430276 1530.840489 -243.9163019)
(824.6603188 326.7471326 204.0359289)
(353.9149872 507.2134563 -10.41872016)
(1144.916496 -786.6529935 689.6445036)
(1596.559942 -586.9966946 682.9578566)
(407.9129232 131.5625028 199.8366735)
(930.6013786 -432.3309575 852.9018158)
(690.0171373 168.0689002 193.8775982)
(745.7410647 488.2594759 47.4936574)
(866.5778544 -23.67586322 497.2043955)
(-725.9429694 -40.45483794 871.5307559)
(1212.714747 135.7529739 837.5473762)
(1603.216282 260.0964752 273.2840464)
(558.1192851 1381.727752 -95.88277298)
(1456.397417 595.0817219 -387.7812099)
(1997.640721 -46.13281227 573.7276323)
(-109.3509938 895.7893843 -183.5123459)
(504.063013 197.6714634 -103.7593487)
(489.5626312 -210.9989224 -168.7667638)
(1367.089821 -167.9570448 403.8163953)
(611.6999974 335.344102 -160.0254235)
(-22.9274939 352.219655 97.097658)
(1875.60191 580.1318967 -391.782459)
(-250.0431799 1205.840401 370.22478)
(188.3136697 306.6085215 -93.2401688)
(578.4762213 -535.8794182 -331.5026315)
(1393.839445 -166.5975438 1214.525612)
(479.2746502 -336.1473591 245.3530299)
(148.9928353 353.4775769 721.492553)
(62.60036601 -311.185449 163.415669)
(-105.5110625 329.3776511 -755.4230755)
(33.06923849 222.3634315 512.5976933)
(571.2279191 150.8776007 344.3169382)
(902.6615701 638.5336077 101.4510825)
(843.3401273 -336.601503 278.3765599)
(1130.602688 -226.5832518 209.8216319)
(468.3606598 662.1234262 462.0960086)
(-405.7342497 722.9603078 -379.6774098)
(238.5627558 549.7574402 -198.3493605)
(394.0299828 843.8187497 -295.7519979)
(1548.89644 653.5038965 329.5157976)
(-22.43902186 778.6364677 -50.27134268)
(1552.63299 314.8772799 206.0071344)
(877.8231398 894.6948721 112.4798563)
(616.0549847 125.9779118 206.4053984)
(592.0677029 280.4727298 249.5875929)
(639.7149413 -208.7174907 -513.5682449)
(692.793858 -923.5036172 -176.2550502)
(83.45339338 -53.99388638 -35.47337864)
(36.68813669 -606.8678784 198.5469238)
(214.1493155 282.7788575 -232.2191696)
(-445.1060652 -317.5412162 210.9866814)
(731.5974327 440.5990859 431.5867759)
(450.9062288 1542.678228 977.4254466)
(1488.842828 -339.4371955 644.2404966)
(1034.687755 -1156.129028 117.2649167)
(260.8566545 442.1217145 -44.14801813)
(96.49098279 565.5239669 -118.3554675)
(1620.920877 -358.1814959 1031.200272)
(519.7688571 367.5588071 -412.2526767)
(-437.3891131 -334.0066865 -64.20401346)
(-489.6708856 -397.1192572 -184.4121819)
(838.7096233 661.8085619 202.5855041)
(473.9571952 319.7037294 -328.3838381)
(408.9861635 -352.5870799 117.3384276)
(215.3330433 124.7225717 -142.9898518)
(-253.8618495 671.1346858 -292.8199393)
(502.9889651 -272.4725634 229.1031538)
(1180.732323 -263.0582368 -8.925495269)
(632.4228768 -462.4549152 -690.0545393)
(-9.881986716 -507.0545864 271.4658495)
(-90.87028828 -5.931244685 -648.5136726)
(1200.646656 440.3677056 743.1921889)
(1234.041831 443.656456 753.7554243)
(-161.4786541 191.7612169 -757.0858085)
(605.1382227 -480.2955383 -30.16237022)
(984.4078621 -315.3774564 -237.3035939)
(804.2185883 -42.36656328 470.0834962)
(1193.730185 1586.670803 -344.1095346)
(1320.252051 1039.071986 804.3170795)
(-169.5452683 487.4394012 -286.7752814)
(229.343149 1045.770231 -103.4977801)
(-34.31065639 -105.9302249 1186.231329)
(607.3734179 866.9723682 520.8463911)
(974.6955797 146.809412 85.43303871)
(481.9264875 308.2974037 -356.1919217)
(-272.6953907 1143.246231 -411.7925162)
(540.3604167 -355.2429231 -519.7134509)
(436.1580586 618.068099 373.3324551)
(451.723571 -99.0292554 430.7333306)
(1388.429254 7.458360312 1510.55394)
(1137.833969 536.3617011 726.8935976)
(68.93189967 346.2285041 998.3096729)
(1693.419295 1320.348264 163.1075003)
(663.907605 298.8926477 -585.7945419)
(491.00259 796.9165384 532.3335548)
(1444.117891 35.32911434 -50.86926852)
(379.6699111 -628.2880181 -396.8317206)
(529.2317149 -184.7318953 276.150435)
(494.0804653 1060.212016 303.9591195)
(-1020.887859 511.3547561 -244.5158993)
(987.3064313 -386.4089317 -454.8958385)
(-36.0820276 288.2162425 -50.88981975)
(594.5297321 -177.9387569 -524.7481485)
(575.7373167 522.9925507 -364.362744)
(906.3554155 697.258687 -482.1271376)
(734.8659832 89.1518501 599.9991883)
(-390.1167119 830.7563786 356.8150771)
(1397.092211 -447.8006704 706.5744872)
(1455.664309 366.1316408 282.7412436)
(-261.7339632 147.1265468 -350.2965997)
(691.299481 1039.209928 158.3517191)
(-403.2528292 -36.51842055 -243.7924919)
(165.2849112 -763.3131842 7.961466986)
(1429.024415 1283.401309 -656.7983947)
(1507.331796 156.5172658 506.2038851)
(856.5696065 -625.8562745 400.7653088)
(90.44427838 598.6472713 321.9582374)
(1413.075668 -266.9920115 145.6039002)
(90.64410536 -99.90102883 -524.6931432)
(30.49062823 -581.0596262 -185.7632688)
(1166.859599 547.6791126 61.57548474)
(959.8776312 712.9083032 280.3613074)
(251.129792 -133.0280554 -83.70089133)
(712.7275131 198.2585673 902.1821912)
(641.0065131 174.508177 -448.6960597)
(2039.539529 -10.89297862 650.0119003)
(723.0232624 -610.0435389 271.036146)
(202.4186855 -27.02722987 -17.11919378)
(1462.53451 459.2184568 -319.5802877)
(502.4050553 -66.19392808 527.3699096)
(48.27486501 25.63290134 -183.2178257)
(932.7546289 -26.50440029 265.8251512)
(1237.502545 -287.9269397 347.5116498)
(730.1326839 -157.0268401 685.4586128)
(483.6386238 -376.5760475 -24.49817536)
(-560.3951944 293.504851 -30.26654532)
(122.1211682 236.2137124 -486.7345345)
(900.0258486 496.5672419 -179.579392)
(1239.57631 -173.3821497 571.6621572)
(867.9969356 155.0544815 -351.6417893)
(595.8802375 4.852640484 -303.3657078)
(221.5196076 238.7034716 641.8348139)
(669.6758481 563.4084196 399.3549673)
(-510.1106697 449.5293806 512.4815762)
(236.0262995 1457.361289 645.9085922)
(965.3179485 98.9836118 -284.8353823)
(908.7736621 958.7551793 -197.2084009)
(342.5655753 70.02739373 -681.030029)
(577.7609081 1003.097327 -78.94795816)
(628.0304157 90.29819135 366.2599658)
(1278.944727 863.6893991 -424.7148647)
(561.7529319 400.6337496 -279.2669038)
(-120.493086 -133.4047335 454.975956)
(442.184435 81.56200959 -854.006901)
(643.5144667 126.9575732 350.9157563)
(1033.831767 297.2905087 49.64129366)
(122.1425598 653.8857363 499.592189)
(249.4703037 1310.72208 -60.52316616)
(1840.426531 608.0510494 -148.0862243)
(-241.9193172 -346.9271419 324.9253647)
(672.1427973 693.0327046 595.6795927)
(282.8771868 973.3720563 575.2172333)
(245.913265 452.9057724 -329.2815032)
(507.0873731 566.421153 457.0696801)
(35.44484984 461.3027041 433.7983963)
(569.9810713 355.200393 637.8894981)
(465.8218385 176.2675973 379.1070503)
(-24.59973017 -237.8794649 -234.3280344)
(964.6035008 -578.0120931 661.6386354)
(1061.694938 109.301054 -75.85270185)
(792.5341757 134.294062 -249.5668924)
(349.4933409 580.2391112 133.7287056)
(1658.33215 475.5819758 144.2980368)
(672.8568681 168.8212115 -1296.148893)
(-161.4411936 337.0097509 -253.7736763)
(963.4831616 1281.930366 -658.3426403)
(-382.6569438 90.94735096 850.4212243)
(34.28994194 865.5879537 1.990859743)
(956.9015916 605.6816688 -311.0185914)
(790.7785203 -211.9214922 523.5324116)
(1163.960065 629.5306565 -503.3183408)
(527.9003215 -63.64132476 -16.54322028)
(578.4349658 137.3570113 469.5623395)
(1623.036719 1243.877758 40.71726169)
(1369.548261 189.9939498 1056.400991)
(1666.467465 1275.137784 23.95800059)
(1726.19409 218.6313274 -293.1080586)
(27.22980559 -8.77913293 505.5228714)
(-57.63780132 278.8270172 14.07049456)
(461.3474962 533.2738354 -547.8703012)
(393.1526136 700.0450527 37.35609479)
(-363.4923406 -424.0544025 -137.7753435)
(40.07331582 -525.7822945 1060.968969)
(921.8610155 29.93257717 -669.4885914)
(1612.957488 -157.8072148 707.6633777)
(477.4405931 -140.7774412 -913.6895129)
(1110.353693 53.81446005 1400.63207)
(242.7229351 568.5293121 -283.5674805)
(123.8759125 -5.803557369 -1190.367712)
(453.5308869 885.0391973 456.3342908)
(690.1900296 275.5725604 82.4634579)
(-175.3897157 -196.2810992 -231.9163691)
(-657.6329873 647.1416027 -327.4923821)
(965.142671 518.5483668 797.8647239)
(1005.389699 771.2384173 208.2251441)
(1099.269937 -371.2922633 -29.69165432)
(948.2904075 259.4220621 21.91062023)
(1976.941989 113.0808015 -868.3876986)
(360.1901781 639.755111 150.6778854)
(303.898773 -571.1143289 -1056.978235)
(40.36429974 -651.4679846 -736.7324372)
(1477.610851 1273.49523 35.72190159)
(744.1717375 121.3699825 450.6784682)
(1755.642412 -339.2203261 -338.4765836)
(1369.640091 193.0125349 189.8104723)
(1329.273825 934.4154124 419.179935)
(470.6306038 -236.9939262 600.7535648)
(2362.47231 34.06455199 -649.1411276)
(494.8353456 -24.57005109 109.6954765)
(927.9076413 -5.841347128 -1157.89334)
(758.7838669 665.1382275 43.56494257)
(-158.6329133 317.225052 -5.27399087)
(1371.238616 10.57404469 -144.3703975)
(348.1336338 339.5081152 -54.99389141)
(743.1394326 22.97866853 -662.2884618)
(751.9577265 711.2920468 -222.1276873)
(757.2235099 356.5629761 -583.6363214)
(1041.551 410.2701169 777.791079)
(693.6352331 48.80696497 391.7340209)
(307.8314864 487.3591768 -262.443743)
(2111.379901 271.4771395 -77.14834483)
(1552.958337 -123.7721393 89.68015965)
(1183.436509 -193.6630346 -133.7968577)
(601.9912716 154.3475868 249.9022167)
(209.400474 -65.95451182 -292.7128759)
(460.3017647 4.831590575 144.3869876)
(540.5166872 129.269436 422.1546333)
(1015.340947 251.7030317 -269.5019572)
(-392.3354193 221.702499 -84.47100474)
(502.3466049 786.6744298 557.4772141)
(852.3050535 341.3790336 -867.3334033)
(825.5422876 649.9802397 -248.0675531)
(899.5287326 433.9892756 432.3097559)
(485.2921347 -98.68588035 489.1325015)
(543.9014814 -377.2050277 -534.501293)
(-432.5544695 345.8351653 770.4983775)
(310.7957645 1078.94604 -727.2972807)
(407.8135443 700.245012 -1209.798685)
(422.3020702 492.68041 506.9104595)
(752.0196045 599.7375523 363.2612992)
(765.97093 291.8403083 -966.6777157)
(270.3669475 875.8718716 -579.8501697)
(1040.310078 666.0353086 802.8059308)
(1344.713907 373.6417147 -228.4336231)
(-136.2849325 287.3053908 -24.36556369)
(817.3449185 -162.4446638 118.1165401)
(1452.852691 704.5822901 303.3540101)
(729.5931126 -212.8244373 -567.5186229)
(188.9738863 -1.589780889 14.01126016)
(-370.0283764 555.4065054 -67.58225875)
(1081.071318 919.6755154 776.0310815)
(-318.6326 595.7167324 627.8422454)
(249.2631076 16.21807116 236.7777835)
(1506.97033 77.53536135 -97.2493121)
(1275.594881 593.0064388 123.9325696)
(637.5941543 405.9211919 -529.6890249)
(47.64730732 111.1533876 113.1180954)
(424.0058566 -368.8194634 64.7377823)
(366.884263 201.4442359 -35.90073393)
(1160.586241 -322.3377814 -684.4209219)
(456.13996 381.1130689 -791.5842857)
(1052.464465 531.1328239 -412.5071316)
(1340.249242 567.0951034 129.4111081)
(236.2610623 116.3436766 442.1284692)
(995.4398367 874.2120185 199.4289899)
(-184.5809436 242.8634253 -575.6495955)
(717.1402246 -195.9929726 36.58910023)
(153.780551 164.2149853 92.10285141)
(138.7530034 988.1663249 -942.9125721)
(629.0911917 798.0824942 -430.2186645)
(-71.49301545 846.1002703 -624.465361)
(906.5625616 92.41194071 272.3794268)
(429.355919 135.1620324 -517.7220499)
(-100.6564304 644.5111545 -99.67168709)
(-250.6365644 175.520967 88.92140014)
(-343.4550856 317.3038388 398.2614488)
(909.9030194 255.946495 452.9182349)
(264.8073072 -517.6996175 166.4228812)
(1092.043122 -920.8943241 1026.12531)
(259.4146877 -64.49599703 761.4705911)
(539.3625128 -130.9046838 -822.1812287)
(620.1734491 1147.539224 -516.8869639)
(104.1094682 -507.0661755 300.7744754)
(539.0722168 1110.444779 248.8829294)
(613.1206368 363.6199461 -521.9598017)
(317.2572154 461.7159834 193.0045578)
(-239.126869 111.3185874 119.9460431)
(1066.156 892.7869066 -551.9432181)
(797.9253874 -361.2779706 108.4877695)
(1209.109541 308.1618587 379.7393243)
(453.9753851 141.9431436 563.0269259)
(-278.8915152 138.767283 425.8113977)
(317.9973713 0.004883688222 -557.4630283)
(883.5590591 953.6896076 -7.817628232)
(1689.617987 549.3962015 -766.8462457)
(745.2567913 630.4691588 272.2148111)
(965.6888835 -1256.986518 -990.1195556)
(736.6450309 -700.4363948 -55.33221349)
(975.6515999 60.43842699 244.9382096)
(-5.803127945 -2.898149791 -1057.121532)
(701.1337625 630.4622568 111.4186824)
(1160.097887 -1240.542935 -81.37355343)
(754.4300847 721.7275004 -395.0122005)
(1209.568764 558.0896853 -364.433726)
(731.9736428 -166.6067139 -952.1804647)
(574.2315472 333.2416116 651.671047)
(766.9557099 99.80857416 250.5067195)
(1140.444886 655.614154 884.8152811)
(-24.99337735 1062.336437 -680.6229726)
(-498.5914852 675.5882144 -320.2608038)
(379.0530037 412.489763 446.257138)
(1494.831284 -230.5656068 -66.16474491)
(588.1591106 81.75411019 -104.6095955)
(-97.17952237 437.9545836 -3.890030266)
(544.8764969 486.1812329 550.1397248)
(683.7495058 -240.3703765 361.4924909)
(1856.836648 89.26135168 350.778443)
(-15.08282913 828.2330592 115.1223066)
(-11.12737376 557.3019037 -38.5929399)
(161.5131713 43.59903271 178.912306)
(799.464717 247.8331641 -1157.729176)
(55.78329419 -737.5874443 -131.9050254)
(661.5513102 664.008192 -494.7343768)
(-361.0068248 455.9277385 394.9929122)
(705.4042794 778.7958192 -73.35069534)
(426.4648874 707.8247348 -289.3767374)
(-268.212448 -57.36356792 486.0433133)
(1117.256208 306.2399508 -137.5765699)
(670.8991347 273.3403363 -682.2651527)
(-329.4337636 788.1572889 -286.8045848)
(494.257698 1517.959783 -395.6005702)
(153.8834161 3.006553053 -36.92576978)
(636.5377417 -1337.094265 -638.5901578)
(336.1541199 484.4392293 -144.4185331)
(659.0898747 180.7489009 -731.4751073)
(-133.914362 -313.4506672 373.1576284)
(106.5713609 503.5179002 -191.9805377)
(232.5321717 981.8831376 872.7967992)
(549.29289 306.556116 -82.01315861)
(420.4966522 343.2082671 185.9120426)
(1049.164023 118.9464423 31.64467046)
(-334.6651573 -56.57489851 -1100.61425)
(230.0892411 442.352489 -7.03922179)
(1111.901059 -641.1650447 1059.927046)
(266.961717 582.7492452 394.0842432)
(1269.916867 -12.68242314 1052.585364)
(1647.095535 353.2659545 -107.5744383)
(32.20705341 -15.63567948 -6.286509774)
(278.9308606 -29.46742514 772.5145205)
(-595.3865923 -72.74597364 473.3247688)
(279.0460423 277.2658861 402.0217217)
(720.5757246 356.9078189 274.7086562)
(584.604981 511.9968405 763.5900799)
(412.2497969 49.53197944 -515.738655)
(505.3082983 186.2226215 1104.526181)
(726.2159933 1073.934026 -969.7882981)
(641.2643107 597.3171973 -383.0835478)
(147.769682 865.2934922 -743.784434)