/*--------------------------------*- C++ -*----------------------------------*\
| =========                 |                                                 |
| \\      /  F ield         | OpenFOAM: The Open Source CFD Toolbox           |
|  \\    /   O peration     | Version:  2406                                  |
|   \\  /    A nd           | Website:  www.openfoam.com                      |
|    \\/     M anipulation  |                                                 |
\*---------------------------------------------------------------------------*/
FoamFile
{
    version     2.0;
    format      ascii;
    arch        "LSB;label=32;scalar=64";
    class       volScalarField;
    location    "0.009";
    object      dsmcRhoNMean;
}
// * * * * * * * * * * * * * * * * * * * * * * * * * * * * * * * * * * * * * //

dimensions      [0 -3 0 0 0 0 0];

internalField   nonuniform List<scalar> 
654
(
7.334888889
9.423111111
9.468
9.473111111
9.500444444
9.500888889
9.500888889
9.524666667
9.477555556
9.449777778
9.470888889
9.461555556
9.437555556
9.465777778
9.499333333
9.543777778
9.547777778
9.737333333
10.24733333
13.04577778
7.418888889
9.545777778
9.625333333
9.574222222
9.554
9.575777778
9.539555556
9.550444444
9.55
9.564222222
9.576888889
9.622444444
9.647555556
9.674
9.672444444
9.765111111
9.857333333
10.148
10.79777778
12.49866667
7.461777778
9.624444444
9.625555556
9.593555556
9.576444444
9.601555556
9.628222222
9.589333333
9.614
9.583555556
9.606444444
9.576666667
9.527777778
9.584888889
9.627777778
9.611333333
9.717111111
9.911555556
10.34022222
11.38044444
7.472888889
9.560222222
9.668
9.656
9.604666667
9.586
9.580222222
9.601111111
9.557333333
9.588666667
9.550222222
9.588888889
9.622444444
9.537555556
9.563555556
9.562888889
9.612888889
9.785555556
10.13911111
10.85511111
7.456666667
9.582
9.522
9.556444444
9.582666667
9.609555556
9.578444444
9.547333333
9.523111111
9.540888889
9.524888889
9.527777778
9.563111111
9.564888889
9.567111111
9.694666667
9.761777778
9.931111111
10.16333333
10.51955556
7.401555556
9.478444444
9.579555556
9.518222222
9.521333333
9.502888889
9.504
9.562888889
9.581777778
9.607111111
9.592
9.576888889
9.520888889
9.518
9.624
9.622
9.651111111
9.762
9.869555556
10.15088889
7.465777778
9.620666667
9.667111111
9.624
9.698444444
9.667333333
9.664444444
9.636222222
9.669111111
9.722888889
9.691111111
9.696888889
9.753111111
9.704888889
9.717111111
9.673555556
9.738
9.794444444
9.940888889
10.10333333
7.437111111
9.515555556
9.588
9.569555556
9.562444444
9.572222222
9.613333333
9.633333333
9.664444444
9.609777778
9.602222222
9.556
9.576888889
9.597777778
9.599777778
9.649111111
9.686222222
9.756
9.828444444
9.916666667
7.454666667
9.630222222
9.680888889
9.681777778
9.624888889
9.61
9.631333333
9.64
9.561333333
9.545555556
9.601555556
9.634666667
9.601333333
9.598
9.562666667
9.639777778
9.714888889
9.725777778
9.784888889
9.931333333
7.444444444
9.504444444
9.603555556
9.604666667
9.618222222
9.634888889
9.623777778
9.607333333
9.661111111
9.684222222
9.656666667
9.670888889
9.702444444
9.688666667
9.690444444
9.705777778
9.730222222
9.678222222
9.752888889
9.772888889
7.477111111
9.582
9.574444444
9.555555556
9.515333333
9.464888889
9.442444444
9.466444444
9.468222222
9.522666667
9.574444444
9.563777778
9.634222222
9.645333333
9.626222222
9.527333333
9.563555556
9.656222222
9.758666667
9.834
7.446888889
9.592666667
9.661111111
9.623555556
9.705555556
9.693111111
9.730666667
9.737777778
9.748222222
9.667555556
9.629333333
9.559777778
9.505333333
9.598666667
9.641555556
9.748888889
9.797333333
9.738444444
9.720444444
9.731777778
7.456888889
9.588222222
9.615333333
9.601111111
9.550444444
9.554222222
9.606222222
9.578222222
9.532222222
9.549111111
9.601777778
9.638
9.670222222
9.628222222
9.538222222
9.599111111
9.611555556
9.644888889
9.699333333
9.671111111
7.492444444
9.643333333
9.729555556
9.75
9.766222222
9.752888889
9.690444444
9.708444444
9.699555556
9.68
9.648888889
9.653333333
9.634444444
9.649333333
9.663555556
9.587777778
9.540222222
9.497333333
9.515111111
9.609111111
7.393111111
9.545333333
9.578
9.546
9.589777778
9.604666667
9.637555556
9.642
9.674444444
9.69
9.669777778
9.673333333
9.712
9.656666667
9.643333333
9.599333333
9.606
9.628444444
9.593333333
9.565777778
7.485333333
9.598888889
9.630222222
9.610444444
9.540444444
9.559555556
9.578666667
9.549777778
9.563333333
9.558222222
9.553333333
9.518666667
9.424666667
9.46
9.501777778
9.552
9.600888889
9.588222222
9.630444444
9.575111111
7.445111111
9.516888889
9.541333333
9.560444444
9.566888889
9.578666667
9.497777778
9.504444444
9.475777778
9.461333333
9.483777778
9.509555556
9.525333333
9.570888889
9.523333333
9.533333333
9.541333333
9.579777778
9.548888889
9.558222222
7.405111111
9.541111111
9.596666667
9.618666667
9.581111111
9.522
9.581111111
9.579111111
9.57
9.567777778
9.569333333
9.568222222
9.600888889
9.608444444
9.608444444
9.590666667
9.624222222
9.586888889
9.619111111
9.622
7.475333333
9.615555556
9.639777778
9.548666667
9.594666667
9.646222222
9.620444444
9.632888889
9.611777778
9.586888889
9.595111111
9.603777778
9.526444444
9.542222222
9.535777778
9.535777778
9.552
9.546444444
9.528444444
9.526222222
7.426666667
9.586666667
9.727111111
9.715555556
9.686444444
9.678222222
9.664666667
9.629333333
9.647333333
9.660222222
9.656444444
9.663555556
9.694666667
9.669333333
9.666444444
9.629333333
9.635555556
9.654444444
9.704222222
9.693555556
7.442444444
9.522222222
9.513111111
9.545777778
9.554666667
9.591777778
9.571111111
9.508888889
9.551333333
9.572222222
9.605555556
9.619111111
9.601555556
9.653555556
9.682888889
9.716888889
9.704888889
9.692888889
9.678444444
9.662
7.44
9.550222222
9.595111111
9.521111111
9.560666667
9.539555556
9.635111111
9.681111111
9.736222222
9.718222222
9.650666667
9.610666667
9.639777778
9.661111111
9.642
9.634888889
9.642
9.622888889
9.663333333
9.649777778
23.14933333
26.378
27.44911111
28.03644444
28.16066667
28.50644444
28.53266667
28.55
27.74488889
27.642
15.81555556
18.78733333
20.83555556
22.28333333
23.402
24.15844444
24.37266667
24.73577778
24.82555556
24.59311111
13.10288889
15.11844444
16.74666667
18.40133333
19.66155556
20.87244444
21.70044444
22.382
22.79555556
23.06
11.834
12.96288889
14.20644444
15.68022222
16.86622222
18.09977778
19.25688889
20.026
20.63777778
21.32333333
11.07888889
11.82844444
12.69888889
13.68533333
14.76688889
15.73311111
16.71688889
17.55666667
18.65022222
19.69511111
10.53377778
11.03666667
11.57355556
12.32288889
13.09688889
14.10466667
15.20155556
16.04444444
16.96755556
17.79822222
10.36444444
10.684
10.99466667
11.55711111
12.05377778
12.79044444
13.56822222
14.41022222
15.374
16.27244444
10.08533333
10.30311111
10.52088889
10.90688889
11.308
11.74644444
12.40822222
13.02466667
13.79222222
14.538
9.975777778
10.08733333
10.22044444
10.46244444
10.73822222
11.10222222
11.49333333
11.92733333
12.54177778
13.20933333
9.895333333
9.997777778
10.138
10.17666667
10.33066667
10.57888889
10.91111111
11.20355556
11.52688889
11.97911111
9.861777778
9.859333333
9.985111111
10.06133333
10.12066667
10.22577778
10.398
10.70577778
10.93977778
11.31555556
9.706666667
9.65
9.622444444
9.676888889
9.697111111
9.844888889
9.962666667
10.19755556
10.47311111
10.67222222
9.655111111
9.669111111
9.619555556
9.638222222
9.648222222
9.77
9.911111111
9.916444444
9.945555556
10.21888889
9.629777778
9.598222222
9.622222222
9.575777778
9.574444444
9.504444444
9.544222222
9.656888889
9.802
9.891333333
9.559111111
9.503555556
9.480444444
9.476222222
9.422222222
9.490888889
9.440666667
9.484666667
9.536222222
9.618222222
9.622888889
9.579333333
9.491555556
9.445111111
9.483333333
9.447333333
9.448444444
9.438888889
9.477111111
9.484
9.506
9.515111111
9.432666667
9.408888889
9.296222222
9.278888889
9.292222222
9.293777778
9.231111111
9.349111111
9.600222222
9.444444444
9.413555556
9.331111111
9.375111111
9.348666667
9.290666667
9.259111111
9.218444444
9.207111111
9.546888889
9.566444444
9.535777778
9.514
9.411333333
9.311333333
9.266
9.216
9.188888889
9.206
9.645555556
9.591333333
9.503555556
9.408444444
9.376666667
9.344222222
9.318666667
9.292
9.175333333
9.121333333
9.616444444
9.535111111
9.460666667
9.376444444
9.284888889
9.191555556
9.107777778
9.110888889
9.171777778
9.121555556
9.594666667
9.482888889
9.422666667
9.434666667
)
;

boundaryField
{
    flow
    {
        type            calculated;
        value           nonuniform List<scalar> 
42
(
7.334888889
7.418888889
7.461777778
7.472888889
7.456666667
7.401555556
7.465777778
7.437111111
7.454666667
7.444444444
7.477111111
7.446888889
7.456888889
7.492444444
7.393111111
7.485333333
7.445111111
7.405111111
7.475333333
7.426666667
7.442444444
7.44
7.334888889
9.423111111
9.468
9.473111111
9.500444444
9.500888889
9.500888889
9.524666667
9.477555556
9.449777778
9.470888889
9.461555556
9.437555556
9.465777778
9.499333333
9.543777778
9.547777778
9.737333333
10.24733333
13.04577778
)
;
    }
    obstacle
    {
        type            calculated;
        value           nonuniform List<scalar> 10(23.14933333 26.378 27.44911111 28.03644444 28.16066667 28.50644444 28.53266667 28.55 27.74488889 27.642);
    }
    frontAndBack
    {
        type            empty;
    }
    procBoundary0to1
    {
        type            processor;
        value           nonuniform List<scalar> 
21
(
27.23155556
24.62911111
22.94622222
21.51866667
20.14555556
18.72622222
17.076
15.284
13.98466667
12.57511111
11.79688889
11.02822222
10.40444444
9.953555556
9.766666667
9.48
9.368888889
9.233111111
9.2
9.118888889
9.016
)
;
    }
    procBoundary0to2
    {
        type            processor;
        value           nonuniform List<scalar> 
31
(
7.422444444
9.575555556
9.676888889
9.610222222
9.608
9.591777778
9.604888889
9.561777778
9.524888889
9.602888889
9.638222222
9.694444444
9.666
9.604222222
9.602444444
9.588888889
9.598
9.573111111
9.502444444
9.505555556
9.402222222
9.348888889
9.302666667
9.214
9.15
9.122
9.516222222
9.491777778
9.459555556
9.402222222
9.331555556
)
;
    }
}


// ************************************************************************* //
