/*--------------------------------*- C++ -*----------------------------------*\
| =========                 |                                                 |
| \\      /  F ield         | OpenFOAM: The Open Source CFD Toolbox           |
|  \\    /   O peration     | Version:  2406                                  |
|   \\  /    A nd           | Website:  www.openfoam.com                      |
|    \\/     M anipulation  |                                                 |
\*---------------------------------------------------------------------------*/
FoamFile
{
    version     2.0;
    format      ascii;
    arch        "LSB;label=32;scalar=64";
    class       volScalarField;
    location    "0.009";
    object      iDofMean;
}
// * * * * * * * * * * * * * * * * * * * * * * * * * * * * * * * * * * * * * //

dimensions      [0 -3 0 0 0 0 0];

internalField   nonuniform List<scalar> 
654
(
1.527710376e+20
1.96264522e+20
1.971994676e+20
1.973059218e+20
1.978752204e+20
1.978844773e+20
1.978844773e+20
1.983797208e+20
1.973984907e+20
1.968199353e+20
1.972596374e+20
1.970652428e+20
1.965653709e+20
1.971531832e+20
1.978520782e+20
1.987777669e+20
1.988610789e+20
2.028091413e+20
2.134314193e+20
2.717174095e+20
1.545205893e+20
1.988194229e+20
2.004764057e+20
1.994118637e+20
1.989906753e+20
1.994442628e+20
1.986898265e+20
1.989166202e+20
1.989073633e+20
1.992035837e+20
1.99467405e+20
2.004162359e+20
2.009392501e+20
2.014900348e+20
2.014576357e+20
2.033876967e+20
2.053085008e+20
2.11362505e+20
2.248960741e+20
2.603221813e+20
1.554138789e+20
2.004578919e+20
2.004810341e+20
1.998145383e+20
1.994581481e+20
1.999811622e+20
2.005365755e+20
1.997265978e+20
2.002403551e+20
1.996062583e+20
2.00082988e+20
1.994627766e+20
1.98444519e+20
1.99634029e+20
2.005273186e+20
2.001848138e+20
2.023879529e+20
2.06437841e+20
2.153661087e+20
2.370318532e+20
1.556453011e+20
1.991202717e+20
2.013650669e+20
2.011151309e+20
2.000459604e+20
1.996571712e+20
1.995368316e+20
1.999719053e+20
1.99060102e+20
1.997127125e+20
1.989119918e+20
1.997173409e+20
2.004162359e+20
1.986481705e+20
1.991896984e+20
1.99175813e+20
2.002172129e+20
2.038135135e+20
2.111773673e+20
2.260902125e+20
1.553074247e+20
1.995738592e+20
1.983241794e+20
1.990415882e+20
1.995877445e+20
2.001477862e+20
1.994998041e+20
1.98851822e+20
1.983473216e+20
1.987175971e+20
1.983843492e+20
1.98444519e+20
1.991804415e+20
1.99217469e+20
1.992637535e+20
2.019204801e+20
2.033182701e+20
2.068451441e+20
2.116818676e+20
2.191012627e+20
1.541595707e+20
1.974170045e+20
1.995229463e+20
1.982454959e+20
1.983102941e+20
1.979261333e+20
1.979492755e+20
1.99175813e+20
1.995692308e+20
2.000968733e+20
1.997821392e+20
1.99467405e+20
1.983010372e+20
1.982408674e+20
2.00448635e+20
2.00406979e+20
2.010133052e+20
2.033228985e+20
2.055630652e+20
2.114226748e+20
1.554971909e+20
2.003792084e+20
2.013465531e+20
2.00448635e+20
2.019991636e+20
2.013511815e+20
2.012910118e+20
2.007031994e+20
2.013882091e+20
2.025082924e+20
2.01846425e+20
2.019667645e+20
2.031377608e+20
2.021333885e+20
2.023879529e+20
2.01480778e+20
2.028230266e+20
2.039986513e+20
2.070487956e+20
2.104321879e+20
1.549001217e+20
1.981899546e+20
1.996988272e+20
1.993146664e+20
1.991665562e+20
1.993702077e+20
2.002264697e+20
2.006430297e+20
2.012910118e+20
2.001524146e+20
1.999950476e+20
1.990323313e+20
1.99467405e+20
1.999024787e+20
1.999441347e+20
2.009716492e+20
2.017445992e+20
2.031979305e+20
2.047068031e+20
2.065442952e+20
1.552657687e+20
2.005782315e+20
2.016335166e+20
2.016520304e+20
2.004671488e+20
2.001570431e+20
2.006013737e+20
2.00781883e+20
1.991434139e+20
1.988147944e+20
1.999811622e+20
2.006708003e+20
1.999765338e+20
1.999071071e+20
1.991711846e+20
2.007772545e+20
2.023416685e+20
2.025684622e+20
2.037996282e+20
2.068497725e+20
1.550528603e+20
1.979585324e+20
2.000228182e+20
2.000459604e+20
2.003282955e+20
2.006754288e+20
2.004440066e+20
2.001015018e+20
2.012215851e+20
2.017029433e+20
2.011290162e+20
2.014252366e+20
2.020824756e+20
2.017955121e+20
2.018325397e+20
2.021519023e+20
2.026610311e+20
2.015779753e+20
2.031331323e+20
2.035496922e+20
1.557332415e+20
1.995738592e+20
1.994164921e+20
1.990230744e+20
1.981853261e+20
1.971346694e+20
1.966671966e+20
1.971670685e+20
1.972040961e+20
1.983380648e+20
1.994164921e+20
1.991943268e+20
2.006615434e+20
2.008929656e+20
2.004949195e+20
1.984352621e+20
1.991896984e+20
2.011197594e+20
2.032534719e+20
2.048225142e+20
1.551037732e+20
1.997960245e+20
2.012215851e+20
2.004393782e+20
2.021472738e+20
2.01888081e+20
2.02670288e+20
2.028183982e+20
2.03035935e+20
2.0135581e+20
2.005597177e+20
1.991110148e+20
1.979770462e+20
1.999209925e+20
2.008142821e+20
2.030498203e+20
2.04058821e+20
2.028322835e+20
2.024573796e+20
2.026934302e+20
1.553120531e+20
1.997034556e+20
2.002681257e+20
1.999719053e+20
1.989166202e+20
1.989953037e+20
2.000783595e+20
1.994951757e+20
1.985370878e+20
1.988888495e+20
1.999857907e+20
2.00740227e+20
2.014113513e+20
2.005365755e+20
1.986620558e+20
1.999302494e+20
2.001894422e+20
2.008837087e+20
2.020176774e+20
2.014298651e+20
1.560526041e+20
2.008513096e+20
2.026471457e+20
2.030729626e+20
2.034108389e+20
2.031331323e+20
2.018325397e+20
2.022074436e+20
2.020223059e+20
2.016150028e+20
2.009670207e+20
2.010595896e+20
2.006661719e+20
2.009762776e+20
2.01272498e+20
1.996941987e+20
1.987037118e+20
1.978104222e+20
1.981806977e+20
2.001385293e+20
1.539836898e+20
1.98810166e+20
1.994905472e+20
1.988240513e+20
1.997358547e+20
2.000459604e+20
2.007309701e+20
2.00823539e+20
2.014992917e+20
2.018232828e+20
2.014020944e+20
2.014761495e+20
2.022814987e+20
2.011290162e+20
2.008513096e+20
1.999348778e+20
2.000737311e+20
2.005412039e+20
1.998099098e+20
1.992359828e+20
1.559044939e+20
1.999256209e+20
2.005782315e+20
2.001663e+20
1.987083402e+20
1.991063864e+20
1.995044325e+20
1.989027349e+20
1.991850699e+20
1.990786157e+20
1.9897679e+20
1.982547528e+20
1.962969211e+20
1.970328437e+20
1.979029911e+20
1.989490193e+20
1.999672769e+20
1.997034556e+20
2.005828599e+20
1.994303774e+20
1.550667456e+20
1.982177252e+20
1.98726854e+20
1.991249002e+20
1.99259125e+20
1.995044325e+20
1.978196791e+20
1.979585324e+20
1.973614632e+20
1.970606143e+20
1.975280871e+20
1.980649866e+20
1.983936061e+20
1.99342437e+20
1.983519501e+20
1.985602301e+20
1.98726854e+20
1.995275748e+20
1.988842211e+20
1.990786157e+20
1.542336258e+20
1.987222256e+20
1.998793365e+20
2.003375524e+20
1.995553454e+20
1.983241794e+20
1.995553454e+20
1.995136894e+20
1.993239232e+20
1.992776388e+20
1.993100379e+20
1.992868957e+20
1.999672769e+20
2.00124644e+20
2.00124644e+20
1.997543685e+20
2.004532635e+20
1.99675685e+20
2.003468093e+20
2.00406979e+20
1.55696214e+20
2.002727542e+20
2.007772545e+20
1.988795927e+20
1.998376805e+20
2.009114794e+20
2.003745799e+20
2.006337728e+20
2.001940706e+20
1.99675685e+20
1.998469374e+20
2.000274467e+20
1.984167483e+20
1.987453678e+20
1.986111429e+20
1.986111429e+20
1.989490193e+20
1.988333082e+20
1.984584043e+20
1.984121199e+20
1.546825848e+20
1.996710565e+20
2.025962329e+20
2.023555538e+20
2.017492277e+20
2.015779753e+20
2.012956402e+20
2.005597177e+20
2.009346216e+20
2.012030713e+20
2.011243878e+20
2.01272498e+20
2.019204801e+20
2.013928375e+20
2.013326678e+20
2.005597177e+20
2.006893141e+20
2.010827318e+20
2.021195032e+20
2.018973379e+20
1.550112043e+20
1.983288079e+20
1.981390417e+20
1.988194229e+20
1.990045606e+20
1.997775107e+20
1.993470655e+20
1.980511013e+20
1.98935134e+20
1.993702077e+20
2.000644742e+20
2.003468093e+20
1.999811622e+20
2.01064218e+20
2.016751726e+20
2.023833245e+20
2.021333885e+20
2.018834526e+20
2.015826037e+20
2.012400989e+20
1.549602914e+20
1.989119918e+20
1.998469374e+20
1.983056657e+20
1.991295286e+20
1.986898265e+20
2.006800572e+20
2.01638145e+20
2.027859991e+20
2.024110951e+20
2.010040483e+20
2.001709284e+20
2.007772545e+20
2.012215851e+20
2.00823539e+20
2.006754288e+20
2.00823539e+20
2.004254928e+20
2.012678696e+20
2.009855345e+20
4.838640681e+20
5.551403349e+20
5.816821992e+20
5.982708094e+20
6.051406249e+20
6.169022268e+20
6.218666539e+20
6.267071687e+20
6.134335475e+20
6.156057138e+20
3.305744897e+20
3.953903449e+20
4.415323955e+20
4.755049415e+20
5.02882303e+20
5.228080343e+20
5.311998648e+20
5.429803596e+20
5.488877131e+20
5.477049317e+20
2.738747173e+20
3.181764466e+20
3.548835463e+20
3.926667882e+20
4.225044161e+20
4.516963693e+20
4.729590449e+20
4.913120791e+20
5.040048481e+20
5.135615282e+20
2.473525824e+20
2.728115278e+20
3.010529492e+20
3.346008891e+20
3.624358888e+20
3.91693648e+20
4.19701993e+20
4.395950182e+20
4.562968439e+20
4.748848071e+20
2.315693575e+20
2.489364853e+20
2.691058953e+20
2.920318757e+20
3.17323609e+20
3.404770913e+20
3.643429436e+20
3.853901529e+20
4.123524168e+20
4.386232162e+20
2.201755227e+20
2.322730619e+20
2.45258625e+20
2.629586188e+20
2.814372123e+20
3.052362523e+20
3.313164027e+20
3.521950383e+20
3.751490168e+20
3.963782398e+20
2.166361415e+20
2.24850987e+20
2.329912201e+20
2.466176565e+20
2.59021944e+20
2.767954341e+20
2.957180644e+20
3.163218765e+20
3.399158453e+20
3.623981542e+20
2.108022008e+20
2.168349592e+20
2.229512557e+20
2.327425382e+20
2.429960293e+20
2.542024401e+20
2.704359788e+20
2.859072496e+20
3.049430776e+20
3.237709235e+20
2.085122862e+20
2.122937904e+20
2.165844488e+20
2.232585206e+20
2.307521547e+20
2.402609566e+20
2.504960656e+20
2.618194504e+20
2.772960189e+20
2.941806337e+20
2.06830848e+20
2.104090418e+20
2.148373445e+20
2.171602971e+20
2.219942503e+20
2.289356054e+20
2.378065899e+20
2.459316493e+20
2.548570431e+20
2.66782767e+20
2.061294745e+20
2.074953979e+20
2.115974308e+20
2.146991945e+20
2.174815897e+20
2.212939988e+20
2.266233837e+20
2.350048224e+20
2.418761422e+20
2.520049438e+20
2.028873641e+20
2.030898565e+20
2.039120548e+20
2.06495519e+20
2.083798636e+20
2.130512592e+20
2.171353376e+20
2.238487291e+20
2.315582434e+20
2.376774838e+20
2.018097572e+20
2.034920613e+20
2.038508362e+20
2.056704096e+20
2.073292963e+20
2.114306033e+20
2.160116881e+20
2.176779956e+20
2.19894101e+20
2.275814481e+20
2.012802428e+20
2.020001617e+20
2.039073441e+20
2.043379044e+20
2.057438969e+20
2.056837689e+20
2.080153803e+20
2.119804375e+20
2.167201185e+20
2.202865666e+20
1.9980318e+20
2.000078484e+20
2.009028908e+20
2.022134858e+20
2.024728163e+20
2.053904172e+20
2.057583986e+20
2.08199952e+20
2.108438303e+20
2.142042022e+20
2.011362527e+20
2.016026358e+20
2.01138351e+20
2.015496046e+20
2.03786023e+20
2.044478402e+20
2.059279145e+20
2.071950713e+20
2.095368948e+20
2.112149841e+20
1.986930578e+20
2.002510405e+20
1.998904165e+20
2.007766557e+20
1.997652185e+20
2.008025665e+20
2.025230666e+20
2.040097091e+20
2.04097889e+20
2.082109189e+20
2.006624772e+20
1.987638208e+20
1.9948543e+20
1.991169526e+20
2.014604494e+20
2.023126133e+20
2.02489162e+20
2.032487322e+20
2.038178317e+20
2.050484845e+20
1.995477128e+20
2.013313817e+20
2.020754758e+20
2.030196273e+20
2.022388251e+20
2.015046902e+20
2.019515559e+20
2.02302391e+20
2.031643632e+20
2.050237408e+20
2.016100281e+20
2.018551828e+20
2.013926452e+20
2.007671717e+20
2.014938779e+20
2.022164334e+20
2.030994207e+20
2.039706833e+20
2.028646543e+20
2.031381564e+20
2.010015518e+20
2.006719521e+20
2.004837741e+20
2.000843238e+20
1.995216781e+20
1.989126034e+20
1.985031182e+20
1.999950759e+20
2.027860417e+20
2.031431054e+20
2.005463558e+20
1.995729051e+20
1.996785049e+20
2.013267301e+20
)
;

boundaryField
{
    flow
    {
        type            calculated;
        value           nonuniform List<scalar> 
42
(
1.527710376e+20
1.545205893e+20
1.554138789e+20
1.556453011e+20
1.553074247e+20
1.541595707e+20
1.554971909e+20
1.549001217e+20
1.552657687e+20
1.550528603e+20
1.557332415e+20
1.551037732e+20
1.553120531e+20
1.560526041e+20
1.539836898e+20
1.559044939e+20
1.550667456e+20
1.542336258e+20
1.55696214e+20
1.546825848e+20
1.550112043e+20
1.549602914e+20
1.527710376e+20
1.96264522e+20
1.971994676e+20
1.973059218e+20
1.978752204e+20
1.978844773e+20
1.978844773e+20
1.983797208e+20
1.973984907e+20
1.968199353e+20
1.972596374e+20
1.970652428e+20
1.965653709e+20
1.971531832e+20
1.978520782e+20
1.987777669e+20
1.988610789e+20
2.028091413e+20
2.134314193e+20
2.717174095e+20
)
;
    }
    obstacle
    {
        type            calculated;
        value           nonuniform List<scalar> 10(279.3593827 287.9423788 292.7609625 282.2355351 300.2200701 286.8752076 284.6452619 286.7074484 281.2884048 276.3279647);
    }
    frontAndBack
    {
        type            empty;
    }
    procBoundary0to1
    {
        type            processor;
        value           nonuniform List<scalar> 
21
(
6.109100517e+20
5.525270682e+20
5.147733032e+20
4.827476616e+20
4.519434213e+20
4.201022369e+20
3.830813125e+20
3.428797599e+20
3.137306433e+20
2.821088117e+20
2.646502506e+20
2.474060587e+20
2.334122875e+20
2.232970904e+20
2.191044449e+20
2.126733914e+20
2.101807356e+20
2.071347117e+20
2.063919003e+20
2.045722601e+20
2.022640623e+20
)
;
    }
    procBoundary0to2
    {
        type            processor;
        value           nonuniform List<scalar> 
31
(
1.545946444e+20
1.994396343e+20
2.015502046e+20
2.001616715e+20
2.001153871e+20
1.997775107e+20
2.000505889e+20
1.991526708e+20
1.983843492e+20
2.000089329e+20
2.007448554e+20
2.019158517e+20
2.013234109e+20
2.000367036e+20
1.99999676e+20
1.997173409e+20
1.999071071e+20
1.993887215e+20
1.979168764e+20
1.979816746e+20
2.020430377e+20
2.023174224e+20
2.027507008e+20
2.022584886e+20
2.023045397e+20
2.031530035e+20
1.989067212e+20
1.997599783e+20
2.004602282e+20
2.020430377e+20
1.991264366e+20
)
;
    }
}


// ************************************************************************* //
