/*--------------------------------*- C++ -*----------------------------------*\
| =========                 |                                                 |
| \\      /  F ield         | OpenFOAM: The Open Source CFD Toolbox           |
|  \\    /   O peration     | Version:  2406                                  |
|   \\  /    A nd           | Website:  www.openfoam.com                      |
|    \\/     M anipulation  |                                                 |
\*---------------------------------------------------------------------------*/
FoamFile
{
    version     2.0;
    format      ascii;
    arch        "LSB;label=32;scalar=64";
    class       volScalarField;
    location    "0.009";
    object      iDof;
}
// * * * * * * * * * * * * * * * * * * * * * * * * * * * * * * * * * * * * * //

dimensions      [0 -3 0 0 0 0 0];

internalField   nonuniform List<scalar> 
654
(
1.666239693e+20
8.331198464e+19
2.499359539e+20
2.499359539e+20
1.874519654e+20
2.915919462e+20
1.457959731e+20
1.457959731e+20
2.082799616e+20
2.707639501e+20
2.291079578e+20
1.041399808e+20
2.707639501e+20
2.291079578e+20
1.874519654e+20
2.291079578e+20
2.499359539e+20
1.666239693e+20
1.457959731e+20
2.707639501e+20
1.457959731e+20
2.707639501e+20
2.707639501e+20
1.874519654e+20
1.24967977e+20
1.24967977e+20
2.082799616e+20
1.457959731e+20
1.666239693e+20
2.499359539e+20
2.499359539e+20
1.666239693e+20
8.331198464e+19
1.666239693e+20
2.707639501e+20
2.915919462e+20
2.499359539e+20
2.082799616e+20
1.457959731e+20
2.291079578e+20
2.499359539e+20
1.24967977e+20
1.666239693e+20
1.666239693e+20
2.499359539e+20
2.707639501e+20
2.291079578e+20
1.874519654e+20
2.291079578e+20
1.666239693e+20
2.915919462e+20
2.291079578e+20
1.041399808e+20
1.874519654e+20
1.457959731e+20
2.082799616e+20
1.874519654e+20
1.874519654e+20
2.499359539e+20
3.332479385e+20
1.24967977e+20
1.666239693e+20
1.666239693e+20
1.666239693e+20
2.707639501e+20
1.24967977e+20
1.24967977e+20
3.332479385e+20
2.082799616e+20
1.874519654e+20
2.499359539e+20
2.915919462e+20
1.24967977e+20
1.666239693e+20
1.457959731e+20
2.291079578e+20
1.874519654e+20
2.082799616e+20
3.749039309e+20
2.499359539e+20
1.666239693e+20
2.707639501e+20
2.082799616e+20
1.874519654e+20
1.874519654e+20
2.915919462e+20
1.874519654e+20
2.291079578e+20
8.331198464e+19
1.666239693e+20
1.24967977e+20
1.457959731e+20
2.499359539e+20
1.666239693e+20
2.915919462e+20
2.291079578e+20
3.124199424e+20
2.082799616e+20
1.24967977e+20
2.915919462e+20
1.457959731e+20
1.874519654e+20
1.874519654e+20
2.291079578e+20
1.24967977e+20
1.041399808e+20
2.499359539e+20
2.082799616e+20
4.165599232e+19
3.124199424e+20
2.291079578e+20
2.082799616e+20
1.666239693e+20
1.457959731e+20
1.666239693e+20
1.666239693e+20
2.915919462e+20
1.874519654e+20
2.291079578e+20
2.707639501e+20
1.457959731e+20
1.874519654e+20
2.499359539e+20
2.291079578e+20
2.499359539e+20
3.332479385e+20
1.041399808e+20
2.291079578e+20
3.332479385e+20
1.24967977e+20
2.291079578e+20
1.666239693e+20
1.666239693e+20
1.457959731e+20
8.331198464e+19
2.082799616e+20
2.707639501e+20
1.666239693e+20
1.874519654e+20
1.874519654e+20
1.24967977e+20
1.457959731e+20
1.457959731e+20
2.291079578e+20
1.041399808e+20
1.457959731e+20
1.666239693e+20
8.331198464e+19
3.124199424e+20
2.915919462e+20
3.124199424e+20
1.666239693e+20
2.707639501e+20
1.24967977e+20
2.707639501e+20
1.666239693e+20
1.457959731e+20
2.915919462e+20
1.874519654e+20
1.666239693e+20
1.666239693e+20
1.874519654e+20
2.499359539e+20
1.874519654e+20
2.082799616e+20
1.666239693e+20
2.915919462e+20
2.707639501e+20
1.874519654e+20
1.041399808e+20
6.248398848e+19
3.749039309e+20
1.457959731e+20
3.124199424e+20
2.915919462e+20
2.082799616e+20
1.666239693e+20
2.082799616e+20
1.666239693e+20
2.082799616e+20
1.666239693e+20
2.082799616e+20
2.291079578e+20
2.707639501e+20
2.499359539e+20
1.041399808e+20
2.082799616e+20
2.082799616e+20
1.666239693e+20
4.165599232e+19
2.082799616e+20
1.041399808e+20
6.248398848e+19
2.291079578e+20
1.457959731e+20
1.24967977e+20
1.874519654e+20
1.666239693e+20
1.457959731e+20
2.499359539e+20
1.24967977e+20
2.291079578e+20
1.666239693e+20
1.666239693e+20
1.874519654e+20
2.915919462e+20
2.082799616e+20
2.291079578e+20
1.24967977e+20
2.499359539e+20
3.749039309e+20
1.666239693e+20
2.291079578e+20
1.874519654e+20
2.082799616e+20
1.24967977e+20
1.874519654e+20
1.24967977e+20
1.041399808e+20
2.082799616e+20
1.874519654e+20
1.24967977e+20
1.874519654e+20
1.874519654e+20
1.874519654e+20
1.874519654e+20
2.082799616e+20
3.332479385e+20
1.874519654e+20
1.24967977e+20
1.457959731e+20
2.082799616e+20
1.874519654e+20
2.291079578e+20
1.666239693e+20
1.457959731e+20
2.499359539e+20
1.874519654e+20
1.457959731e+20
2.499359539e+20
1.666239693e+20
2.291079578e+20
2.499359539e+20
8.331198464e+19
1.666239693e+20
2.082799616e+20
1.041399808e+20
3.124199424e+20
2.291079578e+20
2.082799616e+20
2.707639501e+20
2.082799616e+20
1.874519654e+20
2.499359539e+20
1.874519654e+20
1.24967977e+20
2.915919462e+20
4.165599232e+20
1.666239693e+20
1.666239693e+20
2.082799616e+20
1.457959731e+20
2.499359539e+20
2.707639501e+20
1.041399808e+20
2.707639501e+20
1.041399808e+20
2.499359539e+20
2.499359539e+20
2.291079578e+20
1.457959731e+20
2.082799616e+20
1.457959731e+20
1.874519654e+20
3.124199424e+20
2.291079578e+20
1.874519654e+20
3.95731927e+20
2.499359539e+20
2.291079578e+20
1.457959731e+20
1.874519654e+20
1.457959731e+20
1.457959731e+20
2.707639501e+20
2.499359539e+20
1.457959731e+20
1.666239693e+20
1.874519654e+20
1.874519654e+20
1.874519654e+20
2.082799616e+20
1.457959731e+20
2.291079578e+20
2.291079578e+20
1.24967977e+20
1.457959731e+20
1.874519654e+20
2.499359539e+20
1.457959731e+20
1.666239693e+20
2.499359539e+20
1.457959731e+20
2.291079578e+20
2.499359539e+20
2.082799616e+20
1.041399808e+20
2.291079578e+20
2.082799616e+20
1.457959731e+20
1.457959731e+20
1.24967977e+20
1.874519654e+20
1.874519654e+20
3.540759347e+20
1.666239693e+20
1.874519654e+20
3.124199424e+20
2.915919462e+20
1.457959731e+20
1.041399808e+20
2.915919462e+20
2.291079578e+20
2.082799616e+20
2.082799616e+20
2.082799616e+20
2.707639501e+20
1.666239693e+20
8.331198464e+19
2.915919462e+20
2.082799616e+20
1.24967977e+20
2.291079578e+20
1.874519654e+20
1.24967977e+20
2.082799616e+20
2.291079578e+20
1.874519654e+20
1.041399808e+20
1.041399808e+20
1.874519654e+20
2.082799616e+20
2.915919462e+20
2.291079578e+20
1.874519654e+20
1.457959731e+20
1.666239693e+20
2.082799616e+20
1.874519654e+20
2.499359539e+20
2.082799616e+20
2.707639501e+20
1.666239693e+20
2.499359539e+20
3.332479385e+20
1.457959731e+20
2.082799616e+20
1.457959731e+20
1.874519654e+20
1.874519654e+20
1.041399808e+20
1.457959731e+20
1.874519654e+20
2.499359539e+20
1.457959731e+20
1.457959731e+20
3.124199424e+20
1.457959731e+20
2.082799616e+20
2.291079578e+20
2.291079578e+20
8.331198464e+19
2.082799616e+20
1.24967977e+20
2.291079578e+20
2.291079578e+20
2.291079578e+20
1.874519654e+20
1.874519654e+20
2.082799616e+20
1.666239693e+20
2.082799616e+20
2.291079578e+20
2.082799616e+20
2.707639501e+20
2.082799616e+20
2.291079578e+20
1.041399808e+20
3.540759347e+20
2.082799616e+20
1.666239693e+20
1.24967977e+20
2.291079578e+20
1.874519654e+20
1.874519654e+20
1.24967977e+20
1.041399808e+20
2.915919462e+20
1.24967977e+20
2.499359539e+20
1.457959731e+20
2.082799616e+20
1.874519654e+20
8.331198464e+19
1.24967977e+20
1.874519654e+20
2.082799616e+20
2.082799616e+20
2.707639501e+20
2.707639501e+20
1.874519654e+20
2.499359539e+20
2.082799616e+20
2.082799616e+20
1.666239693e+20
1.874519654e+20
2.915919462e+20
2.915919462e+20
1.874519654e+20
2.915919462e+20
1.24967977e+20
2.082799616e+20
2.499359539e+20
1.457959731e+20
2.291079578e+20
1.874519654e+20
2.291079578e+20
1.24967977e+20
1.041399808e+20
1.041399808e+20
1.666239693e+20
1.874519654e+20
2.082799616e+20
2.915919462e+20
1.041399808e+20
2.291079578e+20
1.457959731e+20
1.24967977e+20
1.457959731e+20
2.291079578e+20
5.016445816e+20
4.840483623e+20
7.205040153e+20
5.974931199e+20
4.942437811e+20
6.059423646e+20
8.71796052e+20
6.585364294e+20
7.296229279e+20
7.794732648e+20
4.598408666e+20
4.209116195e+20
3.814433024e+20
5.334760002e+20
4.942437813e+20
3.029711825e+20
5.448725329e+20
5.268291439e+20
4.643054996e+20
5.122252883e+20
3.344297211e+20
3.788204574e+20
4.238258913e+20
3.841027201e+20
3.438217611e+20
4.760975721e+20
7.846164468e+20
5.048779296e+20
4.864152853e+20
7.349319353e+20
2.508222908e+20
4.630027816e+20
2.54295535e+20
2.774075199e+20
2.793551805e+20
3.462527797e+20
3.923082237e+20
4.170730723e+20
3.095369997e+20
4.231426294e+20
1.672148605e+20
3.367292955e+20
2.54295535e+20
4.054417604e+20
1.719108806e+20
4.544567737e+20
1.961541118e+20
4.609755009e+20
3.537565714e+20
4.899546239e+20
2.090185757e+20
2.735925526e+20
4.662084804e+20
6.401711998e+19
2.793551805e+20
2.380487859e+20
2.615388154e+20
4.829267146e+20
3.316467852e+20
4.231426297e+20
1.881167181e+20
2.946381335e+20
2.754868295e+20
3.200856003e+20
3.438217611e+20
2.380487862e+20
1.525643092e+20
3.073170006e+20
2.653174283e+20
2.227066471e+20
1.46313003e+20
2.525469718e+20
1.483390621e+20
2.347294399e+20
1.933997404e+20
3.24611981e+20
3.051286184e+20
3.29268215e+20
3.979761425e+20
1.336239882e+20
1.881167181e+20
1.473190668e+20
1.059564728e+20
3.627636801e+20
2.793551809e+20
2.164079873e+20
1.743592104e+20
3.512194293e+20
1.989880713e+20
3.340599706e+20
2.299204334e+20
1.473190669e+20
2.966781241e+20
3.627636801e+20
1.289331603e+20
1.298447925e+20
3.705133224e+20
2.853657863e+20
2.210978569e+20
3.117893059e+20
1.881167181e+20
2.104558097e+20
3.602520076e+20
1.066952e+20
1.074443003e+20
2.380487861e+20
1.961541117e+20
2.634145718e+20
1.105489285e+20
2.227066471e+20
2.926260059e+20
1.473190669e+20
3.390607133e+20
2.133903999e+20
1.289331603e+20
1.7312639e+20
6.538470418e+19
3.512194315e+20
1.547685006e+20
1.781653184e+20
1.672148605e+20
2.315013913e+20
1.271477679e+20
1.066952e+20
1.933997397e+20
2.380487857e+20
2.39743914e+20
1.975609273e+20
2.874272128e+20
3.117893059e+20
1.463130025e+20
1.473190659e+20
2.119129442e+20
1.920513594e+20
1.504220205e+20
2.380487856e+20
1.525643084e+20
1.756097144e+20
2.653174272e+20
2.4497731e+20
3.135278652e+20
1.473190672e+20
2.754868294e+20
2.133904008e+20
2.148886022e+20
2.380487872e+20
1.743592108e+20
1.975609301e+20
1.989880718e+20
3.117893059e+20
2.508222905e+20
2.104558102e+20
2.119129471e+20
2.56068481e+20
2.148886007e+20
2.164079884e+20
1.961541121e+20
1.53658499e+20
1.547684992e+20
3.117893059e+20
1.463130028e+20
1.68364647e+20
2.119129442e+20
2.347294393e+20
2.363774608e+20
2.164079869e+20
1.743592108e+20
2.634145734e+20
1.768782861e+20
1.336239882e+20
1.672148603e+20
2.735925533e+20
2.119129471e+20
3.414246389e+20
1.933997393e+20
1.298447921e+20
1.743592096e+20
4.829267146e+20
2.210978576e+20
2.672479765e+20
1.881167191e+20
2.946381343e+20
1.907216511e+20
4.054417615e+20
1.719108806e+20
2.164079869e+20
1.525643094e+20
1.317072858e+20
2.653174272e+20
1.781653189e+20
2.71724148e+20
3.367292964e+20
2.331042402e+20
2.560684792e+20
1.289331604e+20
2.813303849e+20
2.397439148e+20
2.19512143e+20
2.432076433e+20
2.449773118e+20
2.299204329e+20
1.052279044e+20
1.695303565e+20
2.56068481e+20
2.793551809e+20
1.298447921e+20
8.717960539e+19
1.975609301e+20
2.432076433e+20
2.227066471e+20
1.463130028e+20
2.315013897e+20
1.48339062e+20
1.066952004e+20
)
;

boundaryField
{
    flow
    {
        type            zeroGradient;
    }
    obstacle
    {
        type            calculated;
        value           nonuniform List<scalar> 10(239.6190931 67.84170518 196.5310669 486.921305 1e-300 670.8581823 1e-300 925.8518611 140.4809586 268.6269692);
    }
    frontAndBack
    {
        type            empty;
    }
    procBoundary0to1
    {
        type            processor;
        value           nonuniform List<scalar> 
21
(
5.832814549e+20
5.832814553e+20
5.832814549e+20
6.05715357e+20
6.505831612e+20
4.71111945e+20
2.467729232e+20
5.159797486e+20
1.570373149e+20
3.365085317e+20
3.140746296e+20
2.019051197e+20
2.467729225e+20
8.973560819e+19
2.692068265e+20
2.916407266e+20
2.467729225e+20
2.916407287e+20
1.794712177e+20
3.813763348e+20
2.467729243e+20
)
;
    }
    procBoundary0to2
    {
        type            processor;
        value           nonuniform List<scalar> 
31
(
1.24967977e+20
1.874519654e+20
1.874519654e+20
2.082799616e+20
2.915919462e+20
1.457959731e+20
1.666239693e+20
2.082799616e+20
2.499359539e+20
2.499359539e+20
1.874519654e+20
2.291079578e+20
1.874519654e+20
1.874519654e+20
2.082799616e+20
1.666239693e+20
2.291079578e+20
1.874519654e+20
2.082799616e+20
3.540759347e+20
1.719108806e+20
1.514855908e+20
1.961541108e+20
1.756097144e+20
1.989880718e+20
2.227066471e+20
2.299204329e+20
2.735925533e+20
2.119129457e+20
1.719108806e+20
1.066951997e+20
)
;
    }
}


// ************************************************************************* //
