/*--------------------------------*- C++ -*----------------------------------*\
| =========                 |                                                 |
| \\      /  F ield         | OpenFOAM: The Open Source CFD Toolbox           |
|  \\    /   O peration     | Version:  2406                                  |
|   \\  /    A nd           | Website:  www.openfoam.com                      |
|    \\/     M anipulation  |                                                 |
\*---------------------------------------------------------------------------*/
FoamFile
{
    version     2.0;
    format      ascii;
    arch        "LSB;label=32;scalar=64";
    class       volScalarField;
    location    "0.009";
    object      internalT;
}
// * * * * * * * * * * * * * * * * * * * * * * * * * * * * * * * * * * * * * //

dimensions      [1 2 -2 0 0 0 0];

internalField   nonuniform List<scalar> 
654
(
298.6396454
300.6832205
300.6899162
298.8450406
298.9918616
298.0691587
297.5681241
297.2490479
296.8324793
297.4039731
297.8417057
300.2728651
299.1932522
299.8012568
301.96706
303.5177682
306.5305329
310.2498464
336.9398865
427.9470206
300.6938662
299.4245692
300.1367752
300.2271212
301.4097983
301.7378862
302.2196943
301.8280941
303.0921068
303.9618431
302.8470066
300.7279599
302.6245747
301.6900915
300.3100569
301.9229672
307.7401342
321.5941908
353.1891001
423.7550259
299.1818506
298.0037702
297.7841974
296.6887829
297.9140668
298.4099221
296.8385087
297.0831317
296.3341013
297.0100353
297.5234566
298.7757335
299.7814813
300.6917141
305.0452832
304.6313646
309.9418631
320.7511092
346.4088976
398.1431449
298.0259893
298.425523
299.4812793
299.2280046
299.6597136
297.0548154
297.9862777
298.2496782
298.3980029
295.3266855
295.8048702
298.233333
298.6581281
300.3344192
301.2469906
306.5745078
309.4253925
317.457206
335.20839
369.7465089
297.0461796
298.6029276
297.4394548
299.6761281
299.2914986
298.6308183
298.8995394
300.3432461
302.0744379
302.7479853
304.3272003
303.442051
302.8659972
303.7634496
305.6078048
306.503679
308.5679462
317.7532328
335.4645613
353.721724
298.9190906
298.4992569
297.0533213
295.5434531
297.0531389
298.0404272
298.0474908
297.3344136
296.389565
297.9911819
297.9506464
298.6812909
299.6112616
300.04072
298.1211984
303.3618736
305.9432558
319.1315741
318.4032542
336.4547394
297.8889182
299.6318889
299.4129443
298.9570855
298.4758406
300.3439963
299.0793068
298.2382696
300.2609714
299.8094355
300.3532389
298.684267
301.6044212
301.4775171
304.595479
306.5610171
307.9678049
310.1543569
313.4020358
325.4119701
300.7502624
301.237326
301.5176928
301.9739097
300.2902585
299.701229
299.7970651
299.9108041
300.6669566
300.2986963
299.4305949
300.3278719
300.2593655
299.9554691
298.8687801
300.2929605
304.9437861
311.3572118
315.8920108
319.8976984
302.9702125
302.4206384
301.6266834
300.8774497
300.6256172
299.9910282
298.9179792
298.6270445
300.7151684
301.6016689
301.1169237
300.9175009
301.5666781
300.4566245
302.3287949
303.7133823
304.8935888
308.1842782
309.5590455
316.8703395
302.8236507
304.0745242
303.3612947
303.588968
304.4507273
305.2283673
304.0416759
303.0516685
300.0598438
300.062549
299.7974646
299.512185
302.0244874
303.3089223
302.081273
303.8155761
304.3978338
306.9802312
310.5956312
314.7786635
301.872859
301.8526885
302.4603019
302.6958141
302.0431199
301.7926443
300.9405262
299.9144117
300.6229638
300.1571995
299.4111709
300.2637528
299.6758197
298.3081878
298.3034857
299.9647229
301.4369605
304.6457487
305.7679426
308.5461451
299.9390464
300.8815627
300.2023464
301.2565141
302.0848936
302.4115624
301.5403996
301.0354391
301.0383675
301.4398458
301.6767467
303.477106
303.7918672
304.2163303
303.38405
300.9120952
299.9630605
301.0272653
302.9373402
308.2621756
295.896048
295.8189925
295.8651062
295.6501871
294.3754214
294.9787823
297.8583814
300.9147549
300.5813159
300.383116
298.0422545
297.7761744
298.391764
299.0918525
299.5050869
297.7753053
300.2503649
301.286115
300.8755454
301.9735696
297.9739205
297.0252712
296.9059523
298.6025617
301.0710027
300.6343777
299.8647374
299.0317758
297.8286084
298.8190643
299.6891783
299.1511434
299.3298909
300.1834779
300.7469488
301.5980877
300.8323857
300.4670566
301.3757105
302.5143629
298.7921819
300.819727
301.4673511
299.9028854
297.435882
298.3599331
295.6530432
297.4561112
296.2710815
298.2901894
300.5681956
299.9474457
298.6617402
298.8461255
299.0407584
298.0254595
298.0356082
300.1234706
300.8947791
303.5567658
301.1983733
299.7265948
299.0489046
297.295793
296.2588131
298.2644475
299.8119825
301.0832973
297.8347138
298.1811417
297.1451639
298.1601075
298.7096424
297.9145505
296.8798809
298.2463026
300.3260934
299.9694291
299.8497941
303.8799272
299.8373183
300.2278229
299.9447705
299.989731
302.0532449
299.3962928
299.1619386
297.9558169
299.351391
299.8868308
300.1471702
300.0493122
300.6746774
299.9412911
300.3321413
299.5742875
300.460556
301.4165114
301.5869358
303.3596335
303.8290678
302.6211524
302.9650739
302.5074931
303.0105373
302.8432264
302.9106414
303.1773285
303.2556272
300.9833286
300.4106351
299.850485
299.4037502
301.0297089
301.8376537
300.0844341
299.5964489
300.0930957
302.7208004
301.390551
296.4584853
297.8582986
298.3437291
299.5195058
297.6859099
298.642931
297.2119706
296.377665
297.3212252
298.4067354
299.3287765
299.5258957
298.1849002
297.4938248
297.7367343
298.9751846
300.2384309
300.2275353
299.656828
301.4031043
297.0819136
297.5877727
298.4936868
297.3109561
300.067647
298.3965019
297.8306167
298.4012155
298.467685
296.1488858
296.6428261
299.1967509
300.881481
301.7401222
303.5874775
302.678279
302.9199409
303.245753
301.5208938
300.6365867
302.3644593
301.5627098
301.6424723
299.3823574
298.8910813
299.5235061
300.3698204
303.0111032
303.3980133
305.3709328
304.0255588
302.0083961
302.1102405
300.4876736
299.9883246
300.6614705
301.6862215
302.0756779
301.0599591
301.8950597
300.6412264
299.8672675
300.2843022
301.6874248
302.5500147
302.7506106
302.9419923
303.0760286
302.4566519
301.7314401
303.2366603
302.297525
300.6526333
301.8764615
301.9756977
301.7089673
300.908582
300.7058067
300.5125407
299.5951124
546.5719523
605.7095356
630.8770313
656.7392456
672.7513439
680.0542231
698.5529999
702.6346781
703.1977697
705.0349755
511.8899523
569.9008663
613.9004267
651.3102506
683.0449779
699.6448983
724.9901753
739.1191515
749.2707956
757.8913626
459.9642026
510.3209697
558.1003361
604.1209866
634.8813429
668.0024098
695.7983943
719.0069107
734.4353554
748.6476758
408.358743
454.0569932
499.748022
540.0219402
580.5429045
618.8505885
641.5699938
667.019558
692.0149078
715.5804289
383.4546148
414.9434911
452.2066954
490.7565775
525.9434966
563.2617694
599.1136295
615.6292216
645.7086955
669.9023644
361.7048157
386.0628481
409.5585757
445.6878638
476.8688088
508.1930268
553.0623361
574.4373234
602.9891634
630.5291712
343.7831222
366.3054614
378.5960726
406.4883117
433.1450216
455.582609
486.2718269
516.5267354
541.5324966
571.1399942
327.9460753
344.7846831
356.4755645
375.7287421
400.3903656
420.444054
443.8226004
474.4242253
491.8843466
516.0969853
324.8243464
333.0368382
338.9566481
354.6093741
376.08164
396.4150955
409.1738362
433.1607573
450.2067623
474.4354943
317.6663733
325.180361
334.1957543
343.2055335
354.3697551
372.9004786
387.5882926
403.1725055
416.4584375
434.3829744
313.632306
322.0554369
324.3252169
333.2002983
338.3748008
352.6434402
364.1883404
375.7883708
391.867061
410.8483024
307.0989161
310.6899525
315.1956903
317.0008007
324.7149553
331.5050494
341.5774687
351.3586414
362.9624207
380.8455227
303.9099535
306.1957038
309.6766951
316.7789352
319.565352
325.5082137
332.8296029
338.8054662
346.9278089
355.9394251
306.7430654
308.0533775
309.6362829
311.5811672
316.2323332
316.3390898
323.2315891
331.5175051
336.837263
340.9870186
303.8700826
304.8107931
306.9497027
309.9301881
315.5862345
315.2564138
318.598839
323.2433051
333.0950334
339.315228
303.4483215
305.9149581
304.1790559
306.1543441
309.0783293
316.9576719
318.8548173
317.8483951
322.2853465
327.7247889
305.4155886
303.8824446
306.7542615
307.4594948
305.9638215
310.8451585
312.5729509
317.0142717
319.8616348
320.1556881
304.5939523
305.8978524
306.6397666
303.7048813
305.0752065
306.2213355
307.873615
311.3087385
316.4760218
318.2139071
300.6216558
301.7245185
303.6591222
304.1272091
304.1264583
304.3531851
306.0302534
309.1633425
310.066947
313.1533116
301.8968037
301.1861567
302.2206065
301.9058156
302.9587577
303.8774704
305.954993
306.7089229
308.7049231
311.4600929
302.5793416
302.0557305
301.954217
301.7436508
301.6555664
301.1497618
304.0609287
304.1081977
305.4070979
306.7041474
300.5052675
298.2789564
300.0656594
301.5593445
)
;

boundaryField
{
    flow
    {
        type            calculated;
        value           nonuniform List<scalar> 
42
(
298.6396454
300.6938662
299.1818506
298.0259893
297.0461796
298.9190906
297.8889182
300.7502624
302.9702125
302.8236507
301.872859
299.9390464
295.896048
297.9739205
298.7921819
301.1983733
299.8373183
303.8290678
296.4584853
297.0819136
302.3644593
300.6412264
298.6396454
300.6832205
300.6899162
298.8450406
298.9918616
298.0691587
297.5681241
297.2490479
296.8324793
297.4039731
297.8417057
300.2728651
299.1932522
299.8012568
301.96706
303.5177682
306.5305329
310.2498464
336.9398865
427.9470206
)
;
    }
    obstacle
    {
        type            calculated;
        value           nonuniform List<scalar> 10(534.6965659 581.4331765 581.7501523 579.0948752 602.0180198 611.6037092 622.6799327 626.8127434 638.9888053 611.947268);
    }
    frontAndBack
    {
        type            empty;
    }
    procBoundary0to1
    {
        type            processor;
        value           nonuniform List<scalar> 
21
(
706.7420394
760.7344863
771.0257698
729.5659864
687.1749873
650.1697313
602.9798767
554.2063111
503.478384
456.1155767
427.7117511
402.1797512
369.8075324
355.2376481
340.2274584
332.926024
324.392745
322.626638
313.735308
314.2109974
306.4387437
)
;
    }
    procBoundary0to2
    {
        type            processor;
        value           nonuniform List<scalar> 
31
(
301.0313936
303.8967661
303.3666432
301.3212488
300.2067146
298.5762074
298.2496205
298.3066059
298.6312936
298.4956357
297.9623416
300.3166568
300.8942208
299.5725117
299.9190709
298.8359297
296.9757804
296.5753009
296.5442724
298.0332825
303.896803
304.9134454
305.0512156
304.0693405
304.9897403
302.9582982
297.7782339
299.2674755
300.9465907
303.896803
301.397976
)
;
    }
}


// ************************************************************************* //
