/*--------------------------------*- C++ -*----------------------------------*\
| =========                 |                                                 |
| \\      /  F ield         | OpenFOAM: The Open Source CFD Toolbox           |
|  \\    /   O peration     | Version:  2406                                  |
|   \\  /    A nd           | Website:  www.openfoam.com                      |
|    \\/     M anipulation  |                                                 |
\*---------------------------------------------------------------------------*/
FoamFile
{
    version     2.0;
    format      ascii;
    arch        "LSB;label=32;scalar=64";
    class       volScalarField;
    location    "0.009";
    object      internalEMean;
}
// * * * * * * * * * * * * * * * * * * * * * * * * * * * * * * * * * * * * * //

dimensions      [1 -1 -2 0 0 0 0];

internalField   nonuniform List<scalar> 
654
(
0.314950347
0.4073845888
0.4093343623
0.4070425166
0.4084175356
0.4071761873
0.4064917509
0.4070721102
0.4044909869
0.4040819509
0.4055807579
0.4084883943
0.4059872607
0.4080288246
0.4124333622
0.4164909118
0.4208013584
0.4343628789
0.4964372706
0.8027144373
0.3207484205
0.4109602755
0.4153709128
0.4132896372
0.4140413289
0.4154368274
0.4145262083
0.4144616336
0.416177971
0.4179937788
0.4170122613
0.4160641637
0.4197807999
0.4196316342
0.4176449272
0.4239107506
0.436158833
0.4692342931
0.5483309602
0.7615170624
0.3209804974
0.4123808782
0.4121246038
0.4092435209
0.4102006971
0.4119608531
0.4109296109
0.4096071219
0.4096253637
0.4092596031
0.4109462077
0.4113966805
0.4106742863
0.4143903506
0.4222711997
0.4209779469
0.433030512
0.4570998481
0.5150151459
0.6514777024
0.320216535
0.4102088648
0.4163009595
0.4154326099
0.4138202586
0.4094257111
0.4104619828
0.4117205744
0.4100470917
0.4071570913
0.406181265
0.4111739186
0.413200503
0.4118539899
0.4142315678
0.4215278176
0.4276721437
0.4466545547
0.4886701968
0.5770845479
0.3184709263
0.4113877149
0.4072188227
0.4117651421
0.4123650531
0.4126093039
0.4116435558
0.4122883341
0.4136127502
0.4153088544
0.4167751143
0.415688945
0.4164384391
0.4177500745
0.420384166
0.4272377936
0.433092654
0.4537210297
0.4902119657
0.5350079249
0.3181103109
0.4068004398
0.4091484058
0.4044625112
0.406661451
0.4072226437
0.40727991
0.4088230536
0.4083288769
0.4116208041
0.4109174577
0.4112761818
0.4101443382
0.410607606
0.4125243258
0.4196888593
0.4245406595
0.4479295029
0.4518311662
0.4910568966
0.3197646837
0.4144711348
0.4161677023
0.4136809821
0.4162098527
0.4174714103
0.4155892926
0.4132104233
0.4174327574
0.4191232083
0.4185111018
0.4164336896
0.4229431211
0.4206748881
0.4255608936
0.4263871903
0.4311974444
0.4367760174
0.4479485379
0.4727149053
0.3215965457
0.4121392947
0.4156635258
0.415491631
0.4128680341
0.4124795166
0.4143835139
0.4154031541
0.4177954308
0.4149233562
0.4133986139
0.4126414685
0.4134491485
0.4139315843
0.4125179218
0.4166137021
0.4246931998
0.4367488918
0.4464003433
0.4561187456
0.3247351132
0.4187442197
0.4198421959
0.4188377714
0.4160282294
0.4145078356
0.4139420458
0.4139112785
0.4134042
0.4139387086
0.415697923
0.416855207
0.4163091824
0.4146327671
0.4156804705
0.4209514804
0.4258799757
0.430958958
0.4355123628
0.4524704675
0.3241329446
0.4155352421
0.418883557
0.4192464302
0.4210298751
0.4228367195
0.4207070544
0.4186206321
0.4168080003
0.4178088466
0.4162519553
0.4164683282
0.4213319673
0.4225229379
0.4208899825
0.4239761919
0.4258585852
0.4271762403
0.4355416676
0.4423126282
0.3245330959
0.4158649372
0.4163734753
0.4158756069
0.4132320948
0.4107005276
0.4085697462
0.4082115761
0.4092528242
0.4109684076
0.4121759748
0.4128891544
0.41511598
0.41369808
0.4128718771
0.4109061426
0.4144927872
0.4229640581
0.4290259141
0.4362660516
0.3211507724
0.41498846
0.4170059481
0.4168435586
0.4215513635
0.4214661242
0.4218802475
0.4214815567
0.4219377295
0.4190042479
0.4176756404
0.4171332618
0.4151878014
0.4198503542
0.4205725689
0.4217895888
0.4225486814
0.4214989672
0.4233894392
0.4313338215
0.3172472946
0.407816915
0.4090337871
0.4081320911
0.4042278384
0.4052165804
0.4113992965
0.41440929
0.4119620687
0.4124198456
0.4114628036
0.412646303
0.4148817933
0.4140490366
0.4107454203
0.4109800946
0.4149333238
0.4178086593
0.4195945762
0.4199005042
0.3209984069
0.4118334997
0.4153488353
0.4186000109
0.4227626598
0.4215732131
0.4178016824
0.4174150274
0.4153548994
0.4158960056
0.4157664648
0.4152112006
0.4146463576
0.4164714018
0.4178681479
0.4157647194
0.4126522041
0.4102982211
0.4123093674
0.4179557503
0.317612476
0.4128559066
0.4151606738
0.4116263469
0.4101124877
0.4120253042
0.4096852598
0.4123738463
0.4121130701
0.4155888024
0.4178886814
0.4171789741
0.4170511811
0.4149310744
0.4146280267
0.4113348719
0.4116345578
0.4154867508
0.4150355306
0.4175046291
0.3241640558
0.4136636262
0.4140755766
0.4108027353
0.4063880941
0.4099588644
0.412909749
0.4134100401
0.409529979
0.4097871984
0.4081545932
0.4080625558
0.4047774698
0.4052135338
0.4055895219
0.4096099263
0.4145773784
0.4135387189
0.4151941021
0.4183568905
0.3209652086
0.4108156942
0.4114825793
0.4123685742
0.4154849779
0.4123372492
0.4085351543
0.4071736784
0.4078469683
0.407953655
0.4092764095
0.4102550598
0.41179221
0.4127524135
0.411236722
0.4106297437
0.4121901654
0.415167706
0.4140630293
0.4169039452
0.3234908425
0.4151445346
0.4180363683
0.4183618759
0.4174213888
0.4146170258
0.4172837742
0.4175639748
0.4172745492
0.4140517372
0.4133310932
0.412512487
0.4133041536
0.4158756883
0.4169918724
0.4138027341
0.4145752718
0.4136516759
0.4186762204
0.4169616144
0.3186365117
0.4117988944
0.4135090575
0.4112149865
0.4106664849
0.4142004748
0.4111142436
0.4104905027
0.4108948762
0.4113271779
0.4129519957
0.4135971794
0.4084299461
0.4081582434
0.4082156333
0.4099136259
0.412345905
0.4120911245
0.4105322454
0.4128283558
0.3172277968
0.4101888023
0.4174650452
0.4153169381
0.4179118205
0.4152316106
0.4138636762
0.4131406221
0.414005101
0.4113375059
0.4118624387
0.4157142496
0.4194009694
0.4194987628
0.4219409763
0.4190622758
0.4196678632
0.4209428194
0.420706513
0.4190115806
0.323554492
0.4128735297
0.4125875809
0.4109023397
0.4106100616
0.4130770908
0.4133517146
0.4142756485
0.4166561772
0.4202827435
0.4198882039
0.4176909337
0.4170692166
0.4170758583
0.4176479859
0.4200549476
0.4209661095
0.4209883557
0.4189475454
0.419395851
0.3216048284
0.4117595019
0.4142702326
0.4129960821
0.4158976301
0.4152544161
0.4196790547
0.4218692617
0.4234037583
0.4216076493
0.4207654879
0.4177237774
0.4167092346
0.4193314328
0.4186395076
0.4179612502
0.4171601277
0.4160527301
0.4175328515
0.4156742547
1.825678562
2.321244006
2.533285232
2.712341599
2.810376368
2.896099519
2.998818857
3.039819834
2.977821143
2.996173136
1.1681525
1.555532104
1.871173724
2.137945103
2.371205844
2.525070605
2.658542936
2.770461874
2.839068794
2.865544853
0.8696201157
1.120895288
1.36726202
1.637576867
1.851728961
2.082947052
2.271750117
2.438619868
2.555299977
2.654138396
0.6972875464
0.85511926
1.038598214
1.247360815
1.452509958
1.673346727
1.858825736
2.024160436
2.17979934
2.345850499
0.6129833258
0.7130682697
0.8400667619
0.9893500693
1.152112997
1.323889607
1.5068609
1.637847422
1.838056177
2.028414597
0.5497647988
0.6190282329
0.6934160897
0.8090434008
0.9264757125
1.070824788
1.264942029
1.396623949
1.561589649
1.725315763
0.5141254053
0.5685802808
0.6089326512
0.6920314477
0.7745036829
0.870521819
0.9926829554
1.127913086
1.270719032
1.428835235
0.4772337837
0.5160964462
0.5486473549
0.6036758279
0.6716397595
0.7378048938
0.8285667189
0.9363659795
1.035464902
1.153513729
0.467556205
0.4880711841
0.5067864892
0.5465272944
0.5990754171
0.6574867234
0.7075585226
0.7828969709
0.8618054776
0.9634847687
0.4535656525
0.4723264963
0.4956376684
0.5145034724
0.5430652031
0.5893318113
0.636279802
0.6844771135
0.7326927715
0.799989283
0.4462872594
0.4613098265
0.473745076
0.493843564
0.5080121665
0.5387149747
0.5697500329
0.6096403617
0.6543127672
0.7147335344
0.4301172744
0.4355811157
0.4436870707
0.4518815322
0.4671019091
0.4875597602
0.5120039667
0.5429487951
0.5801970424
0.6248711831
0.4233900872
0.4301304274
0.4357873529
0.4497609123
0.4573766204
0.4750982191
0.4963097413
0.509118103
0.5266308466
0.5591992147
0.4262157582
0.4295673784
0.4358512691
0.4395150356
0.4491452751
0.4491655959
0.4641548001
0.4851274522
0.5039331877
0.5185366545
0.4191253618
0.4208535361
0.4257032881
0.4326409237
0.4411013397
0.4469898996
0.4525383215
0.4645834828
0.4848223764
0.501747178
0.421336124
0.4257459451
0.4223551505
0.4259670224
0.4348070242
0.4473396534
0.4532750408
0.4546247181
0.4661811028
0.4778456301
0.4189165275
0.420081924
0.423288217
0.4261423798
0.4219330577
0.4308905489
0.4369980402
0.4464607169
0.4506654526
0.4601700237
0.4219306233
0.4197274434
0.4222729465
0.4174587907
0.4242778055
0.4276731721
0.4303559936
0.436790072
0.4452834864
0.4504320879
0.4141146727
0.4193490644
0.4235976517
0.4262328366
0.4245925206
0.4233666184
0.4266435328
0.4317602049
0.4348671538
0.4432153199
0.4201692318
0.4196898953
0.4201663621
0.4184251508
0.4214043051
0.4241979353
0.4289629974
0.4318647559
0.432318223
0.4367646861
0.4198481902
0.4184343761
0.4179015002
0.416778019
0.4154846985
0.4135218168
0.4166597533
0.4198566457
0.4275341257
0.430105838
0.4160259925
0.4109394125
0.4136196987
0.4191098156
)
;

boundaryField
{
    flow
    {
        type            calculated;
        value           nonuniform List<scalar> 
42
(
0.314950347
0.3207484205
0.3209804974
0.320216535
0.3184709263
0.3181103109
0.3197646837
0.3215965457
0.3247351132
0.3241329446
0.3245330959
0.3211507724
0.3172472946
0.3209984069
0.317612476
0.3241640558
0.3209652086
0.3234908425
0.3186365117
0.3172277968
0.323554492
0.3216048284
0.314950347
0.4073845888
0.4093343623
0.4070425166
0.4084175356
0.4071761873
0.4064917509
0.4070721102
0.4044909869
0.4040819509
0.4055807579
0.4084883943
0.4059872607
0.4080288246
0.4124333622
0.4164909118
0.4208013584
0.4343628789
0.4964372706
0.8027144373
)
;
    }
    obstacle
    {
        type            calculated;
        value           nonuniform List<scalar> 10(1.031155729e-18 1.155736951e-18 1.175718288e-18 1.128275132e-18 1.247678854e-18 1.211202418e-18 1.223551998e-18 1.240596052e-18 1.240791134e-18 1.167326756e-18);
    }
    frontAndBack
    {
        type            empty;
    }
    procBoundary0to1
    {
        type            processor;
        value           nonuniform List<scalar> 
21
(
2.980518335
2.901618189
2.739923964
2.431298928
2.143902416
1.885538231
1.594583944
1.31179786
1.09041388
0.8882703322
0.781406633
0.6868851597
0.5958721247
0.5475901806
0.5146051765
0.4887812103
0.4706712184
0.4613247003
0.4470021876
0.4437329981
0.4278741016
)
;
    }
    procBoundary0to2
    {
        type            processor;
        value           nonuniform List<scalar> 
31
(
0.3212623525
0.4183994927
0.4220896188
0.4163554744
0.4147195289
0.4117706578
0.4118824955
0.4101121232
0.4089745887
0.4121364065
0.4129138064
0.418604061
0.4181785263
0.4136806921
0.4140825944
0.412004718
0.4098291717
0.4082151981
0.4051594473
0.4073271524
0.42386116
0.4258566764
0.4269615099
0.424554053
0.4259361099
0.424873556
0.4088801337
0.4126877748
0.416458039
0.42386116
0.4143075573
)
;
    }
}


// ************************************************************************* //
