/*--------------------------------*- C++ -*----------------------------------*\
| =========                 |                                                 |
| \\      /  F ield         | OpenFOAM: The Open Source CFD Toolbox           |
|  \\    /   O peration     | Version:  2406                                  |
|   \\  /    A nd           | Website:  www.openfoam.com                      |
|    \\/     M anipulation  |                                                 |
\*---------------------------------------------------------------------------*/
FoamFile
{
    version     2.0;
    format      ascii;
    arch        "LSB;label=32;scalar=64";
    class       volScalarField;
    location    "0.009";
    object      internalE;
}
// * * * * * * * * * * * * * * * * * * * * * * * * * * * * * * * * * * * * * //

dimensions      [1 -1 -2 0 0 0 0];

internalField   nonuniform List<scalar> 
654
(
0.3626365088
0.1658803713
0.5301881782
0.4634883683
0.4708068225
0.8519385499
0.1660993681
0.2896180471
0.9799913146
0.534485035
0.3892836223
0.1327078435
0.3674190908
0.4294934732
0.2668700932
0.302611747
0.6930713174
0.5411647252
0.4663642243
0.6992286157
0.1447191643
0.4774047861
0.6524303324
0.3514179612
0.2082786027
0.1694677739
0.4365181192
0.1274710715
0.4400776215
0.4319083603
0.5830366742
0.325853306
0.1857275366
0.4163358834
0.4802697703
0.3679299683
0.5822090179
0.4090318525
0.3146666338
0.8888644694
0.5270083358
0.2522127847
0.557810043
0.4170721856
0.7960249859
0.5837271135
0.710042572
0.2783298454
0.5600193403
0.3978498019
0.7995805197
0.5262923799
0.3601179434
0.4332967966
0.5590008746
0.2701886705
0.2511893977
0.3938689915
0.6069693824
0.8350147723
0.1384900817
0.5249555148
0.3016769848
0.383958352
0.5011611766
0.2931608394
0.2530035144
0.5432633193
0.5357602852
0.4219927029
0.5398958763
0.6710903194
0.112146004
0.2961718707
0.2042730534
0.9138529676
0.3059106398
0.5770603464
0.7276689333
0.6154977369
0.6932861922
0.4665735058
0.5427230243
0.2600427683
0.2159225007
0.6581122657
0.4154584298
0.4207492347
0.2335875158
0.4025158748
0.1662496724
0.5462661
0.5084655641
0.4120456632
0.6415267823
0.5483734934
0.5229598068
0.3503401685
0.3797957118
0.389691261
0.1882082943
0.149151091
0.3045226398
0.3600259095
0.209132595
0.3209838572
0.6604465428
0.3537323845
0.03480567672
0.5467564553
0.4105486217
0.6270283394
0.3289870058
0.1152765327
0.2548640481
0.2002085696
0.6398011685
0.2883444088
0.8609492341
0.4974319061
0.4142095174
0.7434119717
0.4068247355
0.4017591602
0.3769359209
0.5052206367
0.2455864566
0.3215365521
0.5146384817
0.189262133
0.1846978576
0.3565398183
0.2271268456
0.3302296352
0.2849430487
0.3018638818
0.4174404725
0.6707786829
0.3302811311
0.164796925
0.3645762699
0.1796706396
0.1083622738
0.5982803521
0.1575390267
0.3579762857
0.574242731
0.1658876083
0.586088642
0.6328098582
0.5735820934
0.3263614486
0.2586434959
0.1196346949
0.5085860412
0.3279985362
0.2759947667
0.4233383414
0.5396028763
0.3096070709
0.5451227689
0.257785884
0.5055001109
0.3136093962
0.6905742548
0.661068513
0.683372741
0.4175862844
0.3564805836
0.1300315345
0.4133042031
0.9993328805
0.2634873252
0.6771123568
0.5762947373
0.6038950225
0.5319404568
0.5811806913
0.2683050271
0.1891716606
0.189948905
0.3951888496
0.5561321118
0.5831168829
0.7303895064
0.4336489293
0.3590832586
0.3733013794
0.501843158
0.06154931157
0.4356816323
0.1802261733
0.0246829144
0.4538824124
0.2411606201
0.1705807554
0.3798566778
0.3704192438
0.4703521478
0.5738116222
0.1192739391
0.390465983
0.5547622497
0.545702009
0.4631024491
0.6067768568
0.5658061795
0.4892921985
0.1879430765
0.442767929
0.6869957498
0.2752976285
0.536295134
0.3801494814
0.2844962343
0.3380644054
0.2350227518
0.3409898092
0.3308838616
0.4830627876
0.3424284015
0.22059558
0.3290258923
0.4122536872
0.3925611796
0.1615242939
0.650039446
0.7148665432
0.3226118634
0.1027925304
0.3238023662
0.3601773611
0.5438390265
0.3422577208
0.334115359
0.3493033383
0.5498342163
0.3247619982
0.3355444261
0.4909989001
0.3596654187
0.3781632139
0.6065221993
0.07973324082
0.31820951
0.3677935074
0.340907586
0.8196271846
0.6451862443
0.3846518554
0.7346394675
0.417038431
0.3215796747
0.440034478
0.3075236864
0.1720378667
0.5680571143
0.9537287575
0.2847989219
0.2998544298
0.4632519563
0.3266270466
0.9024692936
0.6196151622
0.4079987532
0.4432184758
0.2865460351
0.3931940339
0.2412843027
0.3512623359
0.4282870871
0.6379405928
0.3212891026
0.2368575964
0.7276905396
0.7622158777
0.1979522215
1.134379027
0.5805071757
0.3644627967
0.2923722223
0.2762973685
0.2987037558
0.1904918831
0.4823214359
0.2939111114
0.5220930428
0.1709481161
0.2614860533
0.3728870956
0.1662413147
0.5262157313
0.3893812067
0.558610501
0.6687422022
0.2630556356
0.455101059
0.4416011242
0.5758989563
0.7168844318
0.4217355813
0.3183800361
0.3321165804
0.4629277261
0.4489085904
0.3886664094
0.3886992113
0.6404394679
0.386067754
0.253838329
0.2401193917
0.1752675237
0.3645734115
0.3754389173
0.8202686082
0.21131608
0.4500096912
0.4509676175
0.6298032586
0.3023286187
0.2922652787
0.6018004331
0.4533477082
0.202098908
0.5104974418
0.3730430561
0.5681328249
0.3524434444
0.1975816823
0.4224549855
0.4312988995
0.216235349
0.58945229
0.2020807374
0.1849323408
0.5884741119
0.3775954889
0.2050695011
0.3368714545
0.08010160942
0.2885040174
0.3252232438
0.42225246
0.3593250006
0.3264619543
0.3292900432
0.4163937176
0.3811071161
0.4576603693
0.7141040724
0.2470877589
0.4006619435
0.4612915606
0.7679724735
0.5868544184
0.2304268629
0.4890332422
0.2249789074
0.4065897862
0.3490631825
0.3331903507
0.2238710997
0.547728654
0.4998112669
0.4029301295
0.2213060606
0.3444003529
0.2327525775
0.636928806
0.604707115
0.6291552625
0.4259717369
0.3643568267
0.4908422852
0.5899688689
0.5246612436
0.4836536174
0.2674308715
0.2609323692
0.5184468179
0.2383913117
0.2745512538
0.4413095979
0.4200266909
0.4115997186
0.5275487974
0.4515276918
0.2533206567
0.5191708873
0.4147340958
0.362624855
0.3253575906
0.5673119997
0.2745720679
0.183401587
0.3248705551
0.2784276922
0.3334553648
0.4979709332
0.4237814101
0.4918710856
0.3831839793
0.3357161563
0.08956076598
0.3560023647
0.4677787278
0.2739386227
0.5181524103
0.3826593808
0.4931471334
0.1770694424
0.3704311503
0.4249957408
0.5398050261
0.3040058032
0.3175501904
0.7052957524
0.4747274811
0.6375736342
0.6629210185
0.2462413432
0.5820787336
0.5460163814
0.2643094643
0.4022261865
0.3892021244
0.4747988304
0.1968417543
0.1869322228
0.05773368114
0.2503691318
0.3148359693
0.6837896991
0.5713986432
0.2478949792
0.2085542316
0.439915656
0.2635156068
0.2234073855
0.3319843669
1.525628506
3.312937895
2.614401397
2.266941835
2.293358094
3.861134121
4.814800708
3.292301288
3.475047084
2.832634032
2.111200731
1.63348473
2.294074839
2.22321077
1.906157945
1.932624726
2.826922774
2.560267615
2.581848684
2.067100386
0.9088047197
1.368466122
1.716304082
2.450809327
1.260727963
2.74924327
3.745559322
2.473114221
1.211743582
5.704834322
1.01923239
1.512907064
0.7151844492
1.137850524
1.336952022
1.385469254
1.722803707
1.2419177
0.6082618098
1.955486953
0.2882115071
0.9766463725
0.8211273556
2.014184862
1.304465176
2.411969732
1.039899962
1.908095113
2.184927722
2.393704023
0.7854081033
0.8140692186
1.037117837
0.2245453857
0.8318329315
0.8380427122
0.5604347987
1.337012596
1.447567168
2.055777004
0.2981655921
0.7472101813
1.030444875
0.742460799
1.457104697
1.397703511
0.177659711
1.487746618
0.7135336945
0.7782606459
0.2423943099
0.9334264487
0.4619731458
0.4270589722
0.1899840402
1.343908734
1.145621957
0.7390813193
1.412711833
0.3621447926
0.4835540462
0.3382372507
0.2219993749
0.6456231664
0.6320021702
0.494470716
0.4008365971
1.615775835
1.437962218
0.8612667167
0.6441654148
0.2237778864
0.3621931973
0.716660734
0.3651164263
0.1909928495
1.243310543
0.5239279117
0.548362091
1.334191751
0.3511226889
0.3757318262
0.9172070014
0.1996671961
0.2943589777
0.6332528976
0.6321193306
0.8626904525
0.3096641203
0.8740370628
0.7444701465
0.174788035
0.6297062609
0.7155112483
0.1135749949
0.2781625137
0.2491629994
1.297282792
0.1341569032
0.3085961728
0.3962466967
0.4567950847
0.3486862213
0.1888847089
0.2421873052
0.5234095222
0.4580221704
0.7547883007
0.8571187314
1.112844343
0.2259269128
0.2981591108
0.3031518353
0.3745986662
0.2433310178
0.7658537285
0.2540184538
0.4898261733
0.6351262992
0.5212187813
1.061855901
0.233298247
0.4185375363
0.5484006257
0.4803711839
0.4083688002
0.4636850334
0.4571808796
0.5170520167
0.5975815567
0.8984328281
0.4695440105
0.455621798
0.8036772273
0.3825001319
0.2983933277
0.2830691077
0.2691222559
0.2306769055
0.7975755728
0.05571189777
0.3137425959
0.793616039
0.8669784741
0.5626542702
0.4595809041
0.4041113709
0.6071862371
0.1146110942
0.3434536165
0.4264202303
0.6004078087
0.7217721547
0.9772630144
0.5939995955
0.2630805794
0.3279261236
0.8374784971
0.5575562685
0.3131545032
0.4763649737
0.626795596
0.5260439455
0.7329766547
0.4508490763
0.4765220453
0.4797744196
0.3001163732
0.8302488029
0.3523339356
0.6310950319
0.5759433569
0.633387692
0.2383952613
0.1518023283
0.4990109528
0.3617987262
0.9601966257
0.6590399521
0.2403528844
0.7047018571
0.3522289217
0.3141888809
0.8106546357
0.8494642714
0.3883236154
0.2780899207
0.3508916034
0.2599356243
0.3030366372
0.2212302195
0.4606877694
0.4465466387
0.2036274382
)
;

boundaryField
{
    flow
    {
        type            zeroGradient;
    }
    obstacle
    {
        type            calculated;
        value           nonuniform List<scalar> 10(3.358536402e-19 1.271559298e-19 5.16252647e-19 9.012690444e-19 0 3.189080444e-18 0 3.248270734e-18 1.525690399e-18 4.933065957e-19);
    }
    frontAndBack
    {
        type            empty;
    }
    procBoundary0to1
    {
        type            processor;
        value           nonuniform List<scalar> 
21
(
3.558200413
2.799554794
3.369761456
3.940683481
2.829009194
2.106310831
0.9637522145
1.79302511
0.71416766
1.363140274
0.5410225093
0.3602248499
0.4377405169
0.08004141824
0.7152681462
0.5298098374
0.5222391954
0.6010872958
0.4532771755
1.624142261
0.7181214782
)
;
    }
    procBoundary0to2
    {
        type            processor;
        value           nonuniform List<scalar> 
31
(
0.489988225
0.495222415
0.3045705673
0.3625436529
0.6759175001
0.2273244906
0.3133111875
0.2670215737
0.6221141568
0.7286990985
0.3280803579
0.2961122829
0.4060418259
0.4722176055
0.3522675525
0.2509861279
0.6301156603
0.2572320899
0.5905841668
0.8579275848
0.5128276098
0.2019942985
0.2938970873
0.3021297626
0.3858699004
0.4475048764
0.3407172078
0.7124509365
0.4500067386
0.5128276098
0.1007099149
)
;
    }
}


// ************************************************************************* //
