/*--------------------------------*- C++ -*----------------------------------*\
| =========                 |                                                 |
| \\      /  F ield         | OpenFOAM: The Open Source CFD Toolbox           |
|  \\    /   O peration     | Version:  2406                                  |
|   \\  /    A nd           | Website:  www.openfoam.com                      |
|    \\/     M anipulation  |                                                 |
\*---------------------------------------------------------------------------*/
FoamFile
{
    version     2.0;
    format      ascii;
    arch        "LSB;label=32;scalar=64";
    class       volScalarField;
    location    "0.009";
    object      linearKE;
}
// * * * * * * * * * * * * * * * * * * * * * * * * * * * * * * * * * * * * * //

dimensions      [1 -1 -2 0 0 0 0];

internalField   nonuniform List<scalar> 
654
(
6.154840099
3.253880387
10.68553616
9.469201952
8.33558281
11.35101149
4.954605756
5.410316822
8.790956906
12.48324805
8.554014849
4.514940407
9.977293728
8.61526366
7.555137704
9.359541829
10.38182274
6.514690116
5.206300524
8.236244544
4.70767015
10.51079736
10.54749355
8.241099886
4.233544974
4.840569527
8.436256187
5.586272282
5.580731675
8.899297667
9.175117127
5.979171343
2.819357807
7.978926916
10.52748776
11.40835471
8.574808554
7.184324803
7.709251863
7.543501161
8.363257215
5.258147117
6.712295849
6.883608469
10.26403861
10.00895471
8.638041844
7.182437562
9.569826659
6.730327002
11.04686893
8.951685716
4.8836922
7.867010829
5.256960246
8.313571653
7.196891368
8.051065396
9.442791525
12.46411142
4.867148409
6.038666076
7.592948199
6.448207141
11.73611073
4.525665718
6.26746192
14.43310153
7.300291845
6.694943311
10.60990993
11.21737972
5.508470011
6.549619463
5.073184312
8.996048521
6.414152437
7.24917655
14.76664765
9.901200074
5.820350903
11.99884935
7.343037339
7.238697837
7.839268252
11.30559475
8.448598122
8.660596677
3.409558673
6.617598473
5.921858457
6.492061675
8.753174491
6.939452789
11.04418832
7.647567217
12.16585261
8.132342432
3.71666084
10.53909106
5.482373397
9.149222862
7.313950121
12.06319961
6.064201098
3.55017027
11.09407356
8.072632376
1.653262525
12.11004691
8.917827583
8.806447994
8.020164516
5.556899578
6.173613696
5.672388853
12.32372186
8.675175543
8.578342054
11.41595871
5.64835592
7.950980828
9.434292554
8.369529354
8.55303185
12.53179382
3.920405361
8.234016966
13.80254024
4.223525313
7.807923783
5.489337313
7.369604785
5.730263137
3.264910155
8.64686124
9.884314212
4.895465228
8.22555482
7.950372958
4.547080724
6.228913196
5.926346734
8.553240139
3.865838489
6.023350963
6.300376648
2.964980191
9.908971107
11.64818598
11.51382523
5.704626795
10.11508903
5.676700422
9.449048702
6.572335397
4.558635884
10.79549276
8.923947333
5.928284932
5.76837567
8.44637652
8.978550313
6.450191698
7.689443368
6.22437538
11.39249346
9.775515942
8.584972141
3.07438264
2.226172575
12.44823504
5.375297749
12.84300918
11.40998833
8.344265648
5.261817404
7.129713751
7.850822794
7.568263765
6.104181217
8.774379841
8.669913883
8.884001404
10.66139328
4.677093408
8.038537802
8.316858934
6.746823328
1.189818757
7.421097375
5.246781059
1.787439637
8.162863786
5.557007853
4.93798806
8.164742236
6.670673196
6.223918432
8.442788597
4.913270448
10.34407663
5.93250222
5.762467058
6.995470425
11.18063437
8.346367267
7.044546687
3.98057487
10.09160946
13.07958797
7.303047227
8.892069015
7.890823699
8.289066384
4.493890909
7.767917946
4.480727286
4.252044835
7.541918744
6.902836297
4.40055898
7.529862869
8.559470069
8.648618938
6.71353965
8.771609997
12.42179151
6.461692181
5.479844031
7.877866221
8.405653124
7.879281716
9.564665335
7.173535233
5.160386134
10.10274338
7.297202388
5.6040579
8.45548936
6.799125719
9.637741879
10.66770125
3.759357756
6.161388499
8.323511825
3.701719494
12.60468233
9.344352442
8.760542979
11.06352525
8.313003845
8.216111064
10.04623978
6.993964618
4.778999673
9.577735405
17.35071152
6.264351098
6.932067935
7.00188052
4.865370282
9.738603118
10.75033684
4.100257105
11.97564293
4.293899881
9.773358889
8.324876249
10.37375788
5.270533669
7.844125445
5.830385955
8.63969986
12.31359959
8.68987271
6.800147406
18.42121567
10.34856797
7.810537606
6.151549301
8.579303194
5.487024767
5.564457508
12.12935029
8.834456176
5.2232895
6.746474137
8.551337841
7.654641802
6.822018054
8.804220366
5.161836081
10.0794875
8.903477662
4.698944013
5.906622565
7.241781288
9.741966532
7.05078109
6.262135452
9.773922366
5.68132316
8.24379924
8.020865609
7.842448278
3.762858714
8.044349149
9.034877297
5.688094628
5.790243868
4.351599005
8.086120362
7.096485954
14.32062384
5.706218104
8.007381872
10.99803725
10.32102416
5.546087295
3.503669887
10.49712191
8.031556508
7.057475792
8.287634303
8.167603887
10.44168316
5.900812537
3.447937559
12.6156445
8.020598362
5.295862646
8.580023665
6.912748948
5.49509921
8.234917445
8.315899646
7.246520744
2.873713764
3.550614676
7.479162833
8.416319345
11.00057032
8.228951916
6.692325046
5.451769998
6.806169292
7.922428078
7.409810825
7.853720651
9.349453178
10.00609281
8.308126278
9.259765207
13.58441203
7.412684995
8.485820013
5.636978293
7.155815075
8.100635327
4.359351622
6.926317006
6.44547737
8.986621014
4.90999578
6.250980679
14.33460574
5.807901875
8.764943914
8.24356996
8.046295998
4.028790465
8.6541167
5.062267495
10.64672304
8.913945973
7.926762271
6.47017804
8.444613696
9.265911248
6.859900138
9.241452292
8.006792551
8.448519496
10.85740657
8.58397741
9.276395338
3.573636309
15.18781136
7.664156649
6.422291137
3.870356908
9.733063906
7.409411977
7.269271303
5.242878793
3.513549569
11.54201534
4.127975711
9.648944289
5.392297376
8.302780173
8.709039347
3.981184281
3.788996121
7.556486142
7.854447552
8.096364577
10.30649963
11.22855263
7.230928842
9.03493697
8.32636051
8.123512674
6.811207275
7.735444872
13.37528693
11.12120191
7.514645135
11.97129771
4.27205121
8.7565895
10.10253534
5.4730956
9.738203192
7.871852975
8.530570578
4.72918061
4.726529597
4.302350891
5.330895366
8.692066832
9.325260194
11.01533717
3.451607574
9.674006962
5.014808231
5.035258514
7.115688609
7.926577865
9.815699783
10.20407727
11.92010804
11.44991064
7.460896566
8.551030567
15.45636767
7.882842111
7.506713222
9.325716772
14.329645
8.866781512
8.235467439
12.39897397
10.53935728
4.214781975
11.80658591
10.56501098
10.94817046
8.290099789
10.47709648
12.54605929
10.88424097
5.775709365
7.383031516
10.14866798
17.84587813
9.802195195
8.946610605
14.22521385
10.06177662
14.94664433
8.092100599
9.326701369
9.300077897
9.511945059
12.15018435
11.82865861
7.306689428
11.77399519
6.483765858
11.83551281
7.411063618
11.46714303
4.945465891
10.98439496
6.010158129
11.78659544
8.291876034
11.395488
6.713420431
9.405357154
17.03020238
1.891769011
10.25413495
6.513772381
8.756331846
12.43795305
9.367568267
11.48929201
6.904389092
11.01768936
10.87231603
9.487097273
10.64054957
7.08902139
4.522771255
7.624055895
7.099845268
5.909280656
5.083876593
10.2067123
5.233281159
8.828085426
6.683705112
9.898431
10.6377176
11.26797466
13.96105054
3.304208098
7.770043239
4.874329612
2.85874205
14.33710955
10.86566464
8.151392467
6.600368405
11.16718261
8.763733685
10.24953071
8.83719521
5.122554268
11.78033336
13.66513734
6.115204651
4.952472324
11.73502717
8.642478494
7.38140122
12.11859305
8.30023436
8.466652698
12.79666682
4.557617669
4.083070829
8.547915519
9.645143071
9.270706276
4.380439651
7.713111023
14.08710404
6.910092131
13.96960253
8.393477071
3.875695493
5.97142923
2.500277843
14.41144839
5.37563928
5.620383229
6.35982398
8.098718736
4.118798663
5.757727859
7.833238947
8.898680512
7.328485023
7.147892155
11.23018369
10.06347753
5.631513737
5.528488097
7.981401262
7.783979366
6.488852446
6.996148045
6.245348933
6.680433583
9.949024186
10.36080228
14.62248735
5.701760788
10.6350276
7.867205157
7.97008265
7.657092921
6.244804908
8.779975516
8.469941591
13.06576123
9.15619642
8.881068163
8.491747377
10.48540875
8.412589136
8.769143139
7.203206963
6.381399815
6.523675511
14.16996884
7.154011221
5.859182426
7.917724372
9.929456987
9.531405074
9.151892718
5.21670584
10.53822552
7.541853863
4.497741076
6.788556979
10.54204004
6.846255789
13.59178728
6.246935129
6.6235349
6.06997264
19.57861071
8.751434557
9.195958743
7.090682918
11.76332864
7.760297666
14.0122207
5.451502544
9.040056014
6.703458977
4.582612685
10.44318946
6.552159592
9.099698612
14.48726311
9.638246784
9.936494438
5.151064696
10.15761809
7.834809267
7.660643368
10.13892823
10.45945476
8.83529731
3.99481556
6.174158277
10.87982105
10.5666676
4.093640139
2.97622544
7.318909754
8.945911898
9.847217858
5.479014338
8.352010125
6.244970642
4.024208778
)
;

boundaryField
{
    flow
    {
        type            zeroGradient;
    }
    obstacle
    {
        type            calculated;
        value           nonuniform List<scalar> 10(4.104158345e-18 1.365221298e-18 1.830921803e-18 2.685788812e-18 0 2.760787448e-18 0 8.308775457e-18 1.644108671e-18 3.269425019e-18);
    }
    frontAndBack
    {
        type            empty;
    }
    procBoundary0to1
    {
        type            processor;
        value           nonuniform List<scalar> 
21
(
7.768868328
8.336596689
11.12819016
13.60162228
17.93763937
17.37557063
7.043062635
17.72078822
4.299389977
11.66722716
11.18726373
6.652211359
9.527933698
2.957128285
9.997961302
12.1474426
9.709053499
10.61422033
7.160016837
15.74113819
9.801751234
)
;
    }
    procBoundary0to2
    {
        type            processor;
        value           nonuniform List<scalar> 
31
(
4.74207189
7.187912411
6.120415993
7.853101144
12.3192617
5.777282329
6.531655952
8.333120437
8.672501152
9.886492171
6.021340205
9.328484991
6.387626294
7.492867398
9.601118807
7.24858334
7.975935609
7.241562726
9.286973096
12.80752731
6.021526809
5.613154931
8.333131012
5.188975703
7.214903827
8.191485896
9.004119958
10.16494414
7.805084603
6.021526809
4.052137744
)
;
    }
}


// ************************************************************************* //
