/*--------------------------------*- C++ -*----------------------------------*\
| =========                 |                                                 |
| \\      /  F ield         | OpenFOAM: The Open Source CFD Toolbox           |
|  \\    /   O peration     | Version:  2406                                  |
|   \\  /    A nd           | Website:  www.openfoam.com                      |
|    \\/     M anipulation  |                                                 |
\*---------------------------------------------------------------------------*/
FoamFile
{
    version     2.0;
    format      ascii;
    arch        "LSB;label=32;scalar=64";
    class       volScalarField;
    location    "0.009";
    object      linearKEMean;
}
// * * * * * * * * * * * * * * * * * * * * * * * * * * * * * * * * * * * * * //

dimensions      [1 -1 -2 0 0 0 0];

internalField   nonuniform List<scalar> 
654
(
5.795554874
7.773173002
7.739712016
7.761189983
7.768813775
7.776973212
7.782586868
7.787811055
7.740989836
7.702673864
7.722478883
7.708092407
7.684651227
7.718143579
7.736673878
7.765022277
7.728450716
7.764436317
7.834782975
8.32326959
5.880848604
7.89496116
7.85865174
7.808647247
7.795018257
7.813181174
7.774959239
7.789183095
7.805953188
7.831766095
7.852577916
7.884140418
7.900267963
7.90846372
7.89535785
7.962032724
7.984647856
8.074328746
8.203119072
8.470168685
5.914049329
7.961898621
7.880196403
7.842297087
7.835443765
7.841349888
7.875041194
7.855584777
7.857624618
7.826674922
7.836385929
7.807267452
7.777236783
7.802083489
7.835147161
7.813524839
7.837843764
7.920546204
7.974426732
8.202344021
5.907547115
7.87281797
7.876840608
7.873758841
7.855519098
7.855675961
7.857028746
7.867760549
7.833590976
7.859002551
7.823973235
7.854637638
7.88231183
7.796915953
7.795520264
7.75246038
7.749365256
7.813634032
7.930038266
8.156615221
5.901677553
7.924643206
7.812709714
7.841270224
7.854467765
7.853308006
7.830271057
7.809820765
7.796402125
7.815351457
7.801793344
7.779569553
7.81131105
7.81242892
7.813893747
7.90082748
7.903791211
7.968647881
8.014074742
8.086596231
5.877951044
7.872033023
7.857584162
7.792322937
7.798731091
7.770345595
7.775157588
7.829950396
7.832674911
7.857995112
7.847138507
7.851812162
7.808347265
7.809585504
7.88020581
7.848578444
7.842354568
7.85731187
7.866701166
7.962237789
5.910121385
7.948932703
7.899023618
7.864878882
7.924488657
7.898953887
7.905505713
7.864011611
7.89375038
7.928972336
7.900208088
7.876534734
7.924889054
7.887427322
7.884012117
7.82970631
7.867411661
7.882356767
7.973204528
8.001027979
5.894546791
7.869657386
7.826702466
7.812580603
7.807348143
7.837448443
7.862992917
7.871489211
7.88429848
7.841426324
7.829344546
7.813441788
7.816068573
7.834387653
7.817094282
7.869559469
7.90384973
7.904855481
7.918366763
7.936554128
5.892529322
7.952641952
7.910805455
7.901391829
7.847643476
7.846795461
7.854547129
7.880622373
7.825641636
7.819968189
7.854799216
7.885919624
7.8447732
7.847271881
7.818402475
7.854498963
7.886157354
7.885586388
7.898503006
7.984243568
5.899800955
7.85958809
7.846422347
7.8579446
7.857064065
7.859982536
7.850800375
7.818506323
7.865411714
7.888859121
7.853791108
7.873116259
7.911796898
7.89491034
7.89935033
7.92694702
7.925864002
7.90026537
7.920496844
7.904913805
5.886538321
7.872590559
7.798383906
7.789960788
7.760331845
7.72944246
7.704758488
7.745286993
7.742216557
7.770768292
7.818769435
7.809405936
7.854331673
7.859174153
7.850897977
7.759557358
7.796005562
7.868003547
7.937037244
7.985198434
5.899712715
7.930733825
7.891429353
7.841001211
7.91945998
7.906227607
7.925155051
7.919364582
7.924041531
7.865905903
7.836627701
7.788340058
7.759345974
7.844901973
7.869487983
7.948278898
7.981111663
7.904927897
7.884508466
7.895957021
5.884330998
7.896745475
7.830788948
7.828046313
7.781025618
7.789632707
7.840726047
7.826201571
7.79823149
7.819188238
7.853419543
7.867481706
7.894726814
7.837976922
7.778545906
7.822426811
7.842861689
7.891480485
7.92807442
7.893326759
5.891399907
7.938064974
7.932348307
7.945182231
7.974426424
7.966058864
7.924402614
7.953660836
7.935369529
7.911085038
7.885513712
7.887337158
7.87451775
7.894003299
7.911917236
7.839854367
7.794686794
7.735902999
7.734993096
7.8087549
5.875848993
7.911625363
7.843180508
7.824821138
7.857726489
7.851186733
7.867130173
7.859194619
7.894068904
7.909566119
7.89615113
7.902167089
7.934762267
7.892653775
7.873460285
7.840538617
7.842942553
7.853134006
7.838052031
7.811099651
5.907013596
7.914347598
7.846844058
7.813357859
7.748938549
7.781964793
7.811837478
7.795646177
7.807096398
7.804560005
7.804770251
7.79855641
7.731990301
7.757620208
7.786282048
7.834622392
7.861334614
7.863426316
7.883426183
7.831247526
5.885344229
7.872483191
7.799164501
7.818485717
7.821647906
7.82932561
7.755994697
7.765245084
7.731287246
7.72594847
7.738330173
7.75334091
7.763491273
7.806321176
7.768190315
7.752767551
7.754779233
7.7983032
7.777276215
7.782238778
5.893936049
7.916963325
7.873975365
7.882513413
7.860322627
7.812140499
7.856178958
7.865828436
7.852132203
7.832836225
7.809528875
7.813720773
7.811108366
7.83141688
7.84441474
7.840780789
7.872821639
7.831653918
7.854582526
7.86153665
5.89511074
7.915001616
7.862292634
7.777209311
7.827296702
7.85999683
7.839154896
7.848675807
7.830906813
7.838914113
7.836149896
7.844276202
7.779860168
7.788021166
7.77229629
7.7726719
7.792134834
7.781231546
7.777312069
7.773816158
5.89379279
7.931119919
7.960106483
7.946114757
7.931033062
7.912171513
7.898937435
7.865430961
7.885265733
7.879090786
7.88469617
7.899887564
7.932277292
7.906234381
7.902476485
7.891568182
7.879548546
7.921638031
7.932312124
7.917571141
5.900288625
7.880293238
7.781833637
7.808758761
7.813735741
7.846395357
7.8464127
7.78711465
7.829074177
7.854270562
7.889497985
7.897297659
7.874186563
7.92020379
7.933124208
7.95550131
7.932736491
7.906786981
7.903268205
7.884971569
5.888865413
7.913511222
7.858683604
7.815898719
7.838394546
7.808636443
7.872810377
7.917202965
7.94764695
7.925997117
7.861392806
7.81643753
7.839086734
7.865370944
7.855631278
7.872440671
7.874300968
7.867974614
7.910807162
7.905199948
9.730822397
9.855965511
9.595887477
9.155073229
8.769395469
8.498334382
8.162269907
7.791875006
7.459610254
7.240353002
9.136710557
9.774920695
10.24182309
10.46150827
10.4804004
10.37033436
10.03039482
9.760525783
9.432557644
9.094186968
8.653371607
9.318463092
9.827502697
10.39528407
10.69692933
11.00321776
11.07080481
11.02338605
10.87050116
10.53974175
8.454189805
8.810422792
9.247155806
9.808928667
10.25246049
10.68218724
11.10556409
11.34047522
11.49997849
11.55935261
8.253646967
8.54374696
8.931606697
9.327257535
9.847431971
10.26764714
10.64587077
11.01665913
11.3950322
11.75003376
8.115006836
8.333182269
8.613417987
8.963864542
9.335313536
9.803349664
10.33387327
10.76900821
11.21771396
11.6081481
8.130735925
8.303563293
8.429575678
8.704649728
8.950364998
9.399866202
9.802520111
10.27188565
10.79841021
11.26252835
8.006888314
8.114699329
8.284208909
8.46615694
8.734034663
8.964088288
9.359514793
9.691922345
10.11576481
10.50372045
7.982860019
8.078046058
8.160254463
8.307427828
8.509247182
8.742587576
8.980647319
9.253228388
9.656576124
10.01459266
8.001530072
8.087997703
8.209050659
8.230808704
8.3416987
8.514402536
8.743426348
8.931461705
9.155860985
9.457177759
8.010443721
8.029250321
8.15004851
8.214810477
8.287413143
8.338735202
8.464617843
8.6543055
8.829632604
9.107047847
7.901027069
7.888134081
7.898609155
7.941418255
7.988756957
8.11830636
8.209350409
8.374527845
8.594357277
8.784179644
7.875553574
7.899509056
7.884299985
7.9498178
7.97647196
8.102902371
8.232976875
8.293867665
8.364147694
8.544450249
7.836361514
7.866200005
7.9257034
7.935655496
7.968033869
7.959512072
8.028682033
8.163644628
8.28759169
8.382976291
7.816565395
7.80624969
7.865272438
7.901029867
7.902781527
8.012995887
7.991155782
8.062790573
8.138179136
8.235149103
7.907054112
7.925466083
7.884177943
7.905963999
7.968564036
7.971047882
8.009554743
8.022665973
8.062302069
8.106490023
7.76140721
7.822092761
7.813257353
7.830724819
7.791195497
7.822563439
7.861929753
7.918025096
7.928440852
8.097072704
7.852162692
7.772511539
7.788254675
7.775156274
7.859525109
7.887227551
7.89249165
7.932281424
7.925074367
7.947684921
7.820691228
7.899182061
7.915947791
7.949648594
7.952059249
7.907919194
7.909162953
7.910940973
7.919889456
7.979367237
7.911047663
7.907203012
7.88767671
7.863312445
7.883684731
7.913260035
7.942843748
7.972962799
7.946443949
7.952932528
7.882984543
7.881485346
7.876556856
7.866136911
7.851666604
7.820923318
7.801793062
7.84124561
7.924649752
7.934458779
7.884379122
7.853136612
7.82872637
7.902707892
)
;

boundaryField
{
    flow
    {
        type            calculated;
        value           nonuniform List<scalar> 
42
(
5.795554874
5.880848604
5.914049329
5.907547115
5.901677553
5.877951044
5.910121385
5.894546791
5.892529322
5.899800955
5.886538321
5.899712715
5.884330998
5.891399907
5.875848993
5.907013596
5.885344229
5.893936049
5.89511074
5.89379279
5.900288625
5.888865413
5.795554874
7.773173002
7.739712016
7.761189983
7.768813775
7.776973212
7.782586868
7.787811055
7.740989836
7.702673864
7.722478883
7.708092407
7.684651227
7.718143579
7.736673878
7.765022277
7.728450716
7.764436317
7.834782975
8.32326959
)
;
    }
    obstacle
    {
        type            calculated;
        value           nonuniform List<scalar> 10(4.11927863e-18 3.634905697e-18 3.367118548e-18 3.046283627e-18 3.059406631e-18 2.842911357e-18 2.756072642e-18 2.649191784e-18 2.536995912e-18 2.489765816e-18);
    }
    frontAndBack
    {
        type            empty;
    }
    procBoundary0to1
    {
        type            processor;
        value           nonuniform List<scalar> 
21
(
7.018670057
8.791867647
10.27654775
11.37390458
11.90490697
11.93305402
11.67503547
10.964483
10.5146752
9.804603931
9.448634317
9.025965193
8.727089903
8.432494828
8.377378781
8.138232556
8.12879913
8.020940445
8.00024003
8.008133985
7.909515432
)
;
    }
    procBoundary0to2
    {
        type            processor;
        value           nonuniform List<scalar> 
31
(
5.870210578
7.886053645
7.890721332
7.824496022
7.830321384
7.826089504
7.843240013
7.812034556
7.797832741
7.867211464
7.897993812
7.957475811
7.937677519
7.87505135
7.872755803
7.857936546
7.861310266
7.849345114
7.786907205
7.784735388
7.9262795
7.932346806
7.954469046
7.933401624
7.942715991
7.971877757
7.811536009
7.85292585
7.891944471
7.9262795
7.832675265
)
;
    }
}


// ************************************************************************* //
