/*--------------------------------*- C++ -*----------------------------------*\
| =========                 |                                                 |
| \\      /  F ield         | OpenFOAM: The Open Source CFD Toolbox           |
|  \\    /   O peration     | Version:  2406                                  |
|   \\  /    A nd           | Website:  www.openfoam.com                      |
|    \\/     M anipulation  |                                                 |
\*---------------------------------------------------------------------------*/
FoamFile
{
    version     2.0;
    format      ascii;
    arch        "LSB;label=32;scalar=64";
    class       volVectorField;
    location    "0.009";
    object      momentumMean;
}
// * * * * * * * * * * * * * * * * * * * * * * * * * * * * * * * * * * * * * //

dimensions      [1 -2 -1 0 0 0 0];

internalField   nonuniform List<vector> 
654
(
(0.006253858292 -3.285567597e-05 -1.041062565e-05)
(0.008206738023 -3.878060245e-05 -1.751477215e-05)
(0.008215516029 -4.88948793e-05 -1.544560452e-05)
(0.008227605884 -4.383351393e-05 -9.798948001e-06)
(0.008241224392 -4.362061531e-05 -1.172392443e-05)
(0.008247686898 -4.539168312e-05 -6.875932683e-06)
(0.00824897543 -3.896984443e-05 2.289850052e-06)
(0.008262481662 -3.681838937e-05 -7.411657428e-06)
(0.008215242632 -3.387547048e-05 6.477312899e-06)
(0.008182448225 -3.073796485e-05 4.502387688e-06)
(0.008206039113 -2.186981104e-05 2.007614801e-06)
(0.008193562854 -1.818320082e-05 -7.108867307e-06)
(0.008170351728 -2.141422689e-05 -7.733573029e-06)
(0.008191054855 -3.090680584e-05 -1.368039143e-05)
(0.008203026522 -1.90180769e-05 -1.082140872e-05)
(0.008216532838 -3.101442834e-05 -1.036883823e-05)
(0.008158837805 -3.867398834e-05 8.707011809e-07)
(0.008141131737 -7.431899752e-05 -1.534353293e-06)
(0.008030666716 -0.0001024723637 -7.172970657e-06)
(0.007731199714 7.041356969e-05 1.207648843e-05)
(0.006335917814 -9.345166869e-06 5.995513212e-06)
(0.008324376737 -1.733450889e-05 8.132230723e-06)
(0.008341494894 -9.038178831e-06 1.395564394e-05)
(0.008291875194 -1.448162512e-05 2.450816455e-06)
(0.008277452815 -2.505641983e-06 -2.069476695e-06)
(0.008295716667 -1.100399992e-05 -6.159265896e-06)
(0.00825877842 -1.564143035e-05 -1.498184631e-05)
(0.008269653039 -1.087343936e-05 -1.111173852e-05)
(0.008279251897 -5.640843653e-06 -6.591515161e-06)
(0.008301025997 -7.522554946e-06 -1.377165934e-06)
(0.008318287909 -1.454540991e-05 -2.157432455e-06)
(0.008351240957 -1.274056789e-05 -2.925526055e-06)
(0.008361176029 -9.599332363e-06 1.958921948e-06)
(0.008369870564 -1.016809537e-05 -1.132906739e-06)
(0.008357937519 -1.033799557e-05 -7.490852026e-06)
(0.008409399495 -1.733804281e-05 -7.713349884e-06)
(0.008399454379 -1.25329504e-05 -5.251003327e-06)
(0.008424459321 1.057120896e-05 -3.999612603e-06)
(0.008351335156 8.868325301e-05 -6.629909252e-06)
(0.008171874094 0.0004334150634 8.137115815e-07)
(0.006370662715 2.022024791e-06 1.583767832e-05)
(0.008388805998 -2.193432826e-06 1.966033073e-05)
(0.008354786015 -9.403350661e-06 7.000139454e-06)
(0.008319009173 -1.27802608e-05 3.403921144e-06)
(0.008310340616 -2.684287679e-05 7.343444176e-06)
(0.008323648237 -1.951713774e-05 7.740382293e-06)
(0.008355213982 -5.093662089e-06 1.271898395e-05)
(0.008327277186 -1.021602643e-06 1.085195882e-05)
(0.00833729592 -3.961607833e-06 2.368389729e-06)
(0.008308050572 -9.463926277e-06 1.642324894e-06)
(0.008323147292 -1.60828714e-05 -6.408534859e-07)
(0.008296796178 -2.658551152e-05 -5.117132241e-06)
(0.008258547349 -2.128650982e-05 -4.229595067e-06)
(0.008283227954 -1.612826845e-05 -4.784831029e-06)
(0.008307909498 -1.423764306e-05 -9.813022051e-06)
(0.008269877352 -2.120424831e-07 -1.949177378e-07)
(0.008245926063 9.668064704e-06 3.003215196e-06)
(0.008263356739 4.205869751e-05 -6.238883401e-06)
(0.008174318984 0.0001446153551 9.953124405e-06)
(0.008202855427 0.0003763133744 1.284963681e-05)
(0.006376012088 -9.903586458e-06 7.213907885e-07)
(0.008319309079 -1.218860017e-05 1.164300404e-06)
(0.008370984348 -7.478843978e-06 1.012167834e-05)
(0.008364606281 -1.444393641e-06 1.349094966e-05)
(0.008335574722 1.263776341e-05 1.173020081e-05)
(0.008326496911 2.444728476e-06 7.527575009e-06)
(0.00832724925 -1.470070846e-05 -2.045620235e-06)
(0.008340871049 -2.197045713e-05 -7.173628951e-06)
(0.008302376149 -1.803064721e-05 -2.663289512e-06)
(0.008329682048 -2.286777865e-06 -1.605813072e-06)
(0.008290906265 3.452295891e-06 2.396814376e-06)
(0.008322591349 1.264375168e-05 -3.451860978e-06)
(0.008350562885 1.563070983e-05 -5.816413589e-06)
(0.008264009455 1.01124761e-05 8.513644619e-06)
(0.008258577407 1.116345066e-05 6.202200637e-06)
(0.008202051788 2.216980616e-06 4.398426571e-06)
(0.008181244885 1.8868333e-05 2.548369853e-06)
(0.00818385161 5.331354041e-05 1.36031943e-05)
(0.008207319465 0.0001266855752 4.344258601e-06)
(0.008303373566 0.0002982497116 1.784109808e-05)
(0.006364960773 -8.052186127e-06 4.887344103e-06)
(0.008356777346 -8.978056988e-06 1.067025767e-05)
(0.008278533086 -2.153338936e-06 7.526340516e-06)
(0.008309767022 -3.986662577e-06 6.324709032e-06)
(0.008323042879 -6.493313976e-06 7.197122163e-06)
(0.008331036912 -4.316143493e-06 5.726890511e-06)
(0.008304600992 1.347825072e-05 1.793876156e-05)
(0.008280627887 1.331857948e-05 1.694689363e-05)
(0.008265292817 1.102451996e-05 8.993296492e-06)
(0.008283469837 2.699887564e-07 9.340446413e-06)
(0.008269921449 -7.566339273e-06 1.496922222e-05)
(0.008254646592 -5.978286127e-07 1.779259473e-05)
(0.008285384586 -2.577907385e-06 9.950358669e-06)
(0.008284878729 5.401929624e-07 7.00009886e-06)
(0.008278871985 7.52016909e-06 7.706242888e-06)
(0.008352853523 1.753050331e-05 2.659765343e-06)
(0.008344356167 3.195121495e-05 6.233392884e-06)
(0.008371016726 5.071022483e-05 -1.833462169e-06)
(0.008370840562 0.0001126230485 -2.308167958e-06)
(0.008358988022 0.0002408927529 6.891542824e-06)
(0.006328588718 1.420182154e-05 -5.419033321e-06)
(0.008283188835 1.169113215e-05 -3.241105923e-06)
(0.008321595758 4.767286952e-06 4.01113105e-06)
(0.008258788161 6.576479277e-07 -4.107199237e-06)
(0.008266677035 7.274340644e-06 4.720444564e-07)
(0.008246399653 -3.763910223e-06 5.461335764e-06)
(0.008248869379 -1.374944917e-06 -3.190014795e-06)
(0.0083006892 -4.520793343e-06 -5.671766736e-06)
(0.008310734718 1.877150698e-06 3.425590644e-06)
(0.008330020334 9.429508386e-06 4.409978355e-06)
(0.008319688375 1.150712223e-05 3.537661703e-06)
(0.008318381655 5.306776728e-06 -4.221396729e-06)
(0.008267713097 -7.84435451e-06 -3.952553747e-06)
(0.008266261298 -1.588317181e-05 -1.259541715e-06)
(0.00833535132 -8.705882114e-07 3.542374525e-06)
(0.008296590779 -7.996717106e-07 -2.009021592e-06)
(0.008278529066 2.410651236e-05 -7.45765089e-06)
(0.008257934481 5.956206003e-05 -1.173044808e-05)
(0.008247227867 9.687670569e-05 -5.672205576e-06)
(0.008278549239 0.0001999317904 3.215527754e-06)
(0.006371165092 -3.225597497e-06 -1.46507588e-05)
(0.008385164547 3.642686615e-06 -2.360219736e-05)
(0.008384183411 5.420463755e-06 -2.243222644e-05)
(0.008344836963 8.72362654e-06 -2.433537107e-05)
(0.008407073607 3.354335148e-06 -2.510336982e-05)
(0.008379310925 1.285687135e-05 -2.056204743e-05)
(0.008384274828 -2.173644052e-06 -1.283556829e-05)
(0.008352853123 -7.76039633e-06 -1.596209431e-05)
(0.008383183666 -9.748231966e-06 -1.578789821e-05)
(0.008422128635 -1.067189021e-05 -1.101045612e-05)
(0.008391797588 -8.783873021e-06 -1.700327821e-05)
(0.008378457627 -6.511474849e-06 -6.030558721e-06)
(0.008426596041 7.469030608e-06 3.183009146e-06)
(0.008385836742 1.602036029e-05 -9.413929812e-06)
(0.008375046114 1.699774268e-05 -5.521861788e-06)
(0.008315224824 1.949426851e-05 -1.000328232e-05)
(0.008334608467 4.202512592e-05 -1.350376867e-05)
(0.008331953349 4.614453905e-05 -1.665381273e-05)
(0.008389987513 9.601022798e-05 -5.874988043e-06)
(0.008381990327 0.0001499101586 -1.329039632e-06)
(0.00635392475 -9.214926867e-06 -1.443218918e-05)
(0.008298978359 -7.360958376e-06 -1.653185292e-05)
(0.008311269671 -1.018939416e-05 -1.149635647e-05)
(0.008291791262 -5.776085127e-06 -8.924419311e-06)
(0.008289607371 -2.3299031e-06 -7.200385761e-06)
(0.008309302245 -4.012721801e-06 -1.972524998e-05)
(0.008340423586 8.355802442e-06 -2.142159679e-05)
(0.008352289467 3.309342815e-06 -1.538055767e-05)
(0.0083727282 3.126688239e-06 -1.719512796e-05)
(0.008325675197 -6.397963772e-06 -2.240427005e-05)
(0.008317034071 -4.435879529e-06 -1.663526353e-05)
(0.008287732562 5.203457473e-06 -1.984771833e-05)
(0.008297198258 1.611873095e-05 -2.237999108e-05)
(0.0083124914 1.630857009e-05 -1.275445597e-05)
(0.00828736879 2.020973291e-05 -2.079738813e-05)
(0.008334422385 1.465623881e-05 -1.387076242e-05)
(0.008356691147 1.167139727e-05 -2.786650104e-06)
(0.008350691081 4.284232737e-05 -1.920897888e-05)
(0.008357119155 6.502412297e-05 -1.452675129e-05)
(0.008353455108 0.0001059974976 -1.556446981e-05)
(0.006355635831 -4.093336249e-06 -1.084639935e-05)
(0.008386554731 -2.289879094e-06 -1.497313441e-05)
(0.008393380981 -6.938942395e-07 -2.356629995e-05)
(0.008387486947 -1.882318135e-07 -2.083171842e-05)
(0.0083344697 -4.139508666e-06 -1.603037945e-05)
(0.008327750709 2.17039463e-08 -1.00983074e-05)
(0.008339639755 -5.948710519e-06 -6.044021608e-06)
(0.008356519293 5.722546109e-06 -7.92507571e-06)
(0.008294863203 6.660931065e-06 -7.771636197e-06)
(0.008287136831 2.18801457e-05 3.863384445e-06)
(0.008328204999 1.339591024e-05 3.564276584e-06)
(0.008361832184 1.472725915e-05 -8.707151122e-06)
(0.008321750738 -1.201462185e-05 -4.524367146e-06)
(0.008315913525 -1.061487768e-05 -9.770717049e-07)
(0.008282116762 -8.264513982e-06 3.7397153e-06)
(0.008325645138 7.015259422e-06 -3.413521445e-07)
(0.008353659309 2.494321224e-05 6.398215175e-06)
(0.008347921728 3.924482902e-05 -8.563249542e-06)
(0.008345931982 5.478669139e-05 -1.235453241e-05)
(0.008420493622 8.971191572e-05 -5.260771789e-06)
(0.006358886765 -6.1770757e-06 5.833153459e-06)
(0.008289405536 -1.551615622e-05 9.07693414e-06)
(0.008328454141 -1.461666817e-05 1.160670149e-05)
(0.008336104165 -1.330624996e-05 5.564034834e-06)
(0.008339676457 -9.653732504e-06 -8.815061044e-07)
(0.008346549744 -2.010110219e-06 -1.474097831e-06)
(0.00833784082 -2.933591807e-06 4.019173062e-06)
(0.008313436914 4.121104156e-06 -3.999275827e-06)
(0.008359836549 1.365038119e-05 -1.064841287e-05)
(0.008380894344 1.200389214e-05 -1.740012909e-05)
(0.008346481446 1.028864561e-05 -7.144713602e-06)
(0.008360270725 6.717814209e-06 -3.195452059e-06)
(0.008393445585 5.616933033e-06 4.245705687e-06)
(0.008379046539 5.166327926e-06 -6.787203843e-06)
(0.008381361914 7.404091889e-06 -7.105610463e-06)
(0.008395490214 6.462354735e-06 -7.027758167e-06)
(0.008398447106 1.369409147e-05 -5.419286326e-06)
(0.008352116415 2.886787733e-05 7.628308779e-07)
(0.008373215558 5.138239442e-05 7.274138288e-06)
(0.008338807118 7.617554966e-05 1.121844495e-06)
(0.006362186076 1.632263337e-05 -3.934860245e-06)
(0.008327298725 2.445616096e-05 -8.661378719e-06)
(0.008287770282 1.387823625e-05 -1.220798696e-05)
(0.008274628485 7.604767412e-06 -8.321768541e-06)
(0.008243609192 5.723869703e-06 -5.503615725e-06)
(0.008205849625 -4.774110707e-06 -4.126468132e-06)
(0.00818313421 -4.135180634e-06 -2.270006125e-06)
(0.008212656556 -1.179935771e-05 -9.333229085e-06)
(0.008211832677 -1.554591508e-05 -5.004266594e-06)
(0.008249688617 -1.854150707e-05 -8.132448707e-06)
(0.008297130363 -1.246006362e-05 -1.027708758e-05)
(0.008288733789 -9.361619666e-06 -1.008405014e-05)
(0.008341389813 3.066291035e-06 -9.028318519e-06)
(0.008346617719 1.478942029e-05 -1.369153493e-05)
(0.008328579506 1.982840203e-05 -1.502419894e-05)
(0.008239157584 1.857459443e-05 -7.400747234e-06)
(0.008265869064 1.800996081e-05 -4.817256776e-06)
(0.00833237385 1.113836637e-05 -3.497834418e-06)
(0.00840329005 1.170880404e-05 -1.006486579e-05)
(0.008430761103 4.092734415e-05 -6.109934711e-06)
(0.006357933026 5.971400351e-06 4.390467603e-06)
(0.008361217455 -8.840866316e-07 1.04954022e-05)
(0.008376398135 2.830394663e-06 1.752659782e-05)
(0.008333320599 3.948111245e-06 1.496196494e-05)
(0.008411343656 -5.01159383e-06 1.020013914e-05)
(0.008401799229 -4.426466998e-06 4.099550169e-06)
(0.008426178639 8.20046401e-07 2.051800438e-06)
(0.008428825885 -5.291025643e-06 3.532975011e-06)
(0.008428629081 -2.833510271e-06 9.881822129e-06)
(0.008362703052 -3.467797668e-06 8.320308363e-06)
(0.008332383507 -1.003836709e-06 4.488542072e-06)
(0.008277928977 6.383747664e-06 9.730958476e-07)
(0.00824134047 4.23301897e-07 4.071024933e-06)
(0.008324274038 -4.170873136e-06 1.68490048e-06)
(0.00835403962 -1.344512184e-05 5.847585524e-06)
(0.008433185343 -8.938143973e-06 -7.794078278e-06)
(0.008464947997 -5.792434096e-06 1.325958174e-06)
(0.008388706423 1.011962365e-05 7.256252009e-06)
(0.008369164157 1.177123083e-05 -1.218565516e-06)
(0.008363896294 2.748970373e-05 1.642480312e-05)
(0.006353848753 5.820266286e-06 1.22080847e-05)
(0.008340128571 5.079364155e-06 2.168092925e-06)
(0.008323774057 -6.657746139e-07 3.09126614e-06)
(0.008314532555 6.423755085e-06 5.391090628e-06)
(0.008268590194 3.431275923e-06 2.590351248e-06)
(0.008273294437 2.796156477e-06 4.937940163e-06)
(0.008321156556 -6.257031825e-06 3.694530392e-06)
(0.008300038854 -3.071064637e-06 -4.209698265e-06)
(0.00826701676 2.885634819e-06 6.732247926e-07)
(0.008288467377 -1.928960485e-06 4.995125614e-06)
(0.008329158084 -2.091018602e-06 6.176749767e-06)
(0.008352730916 -1.800467448e-05 1.425102366e-06)
(0.00837570448 -2.511054165e-05 4.167002682e-06)
(0.008327360037 -2.484408531e-05 8.20307013e-06)
(0.008259425676 -1.206167352e-05 1.059131422e-05)
(0.00830352057 -2.090547729e-06 1.201944669e-05)
(0.008318130084 -4.156275429e-06 5.052442628e-06)
(0.008356228042 4.909888384e-06 6.60876531e-06)
(0.008387227141 1.332122639e-05 7.886857239e-06)
(0.008352973593 3.566543814e-05 2.830889354e-06)
(0.006371677323 -7.632010727e-06 2.941136019e-06)
(0.008388119978 -6.72010416e-06 -1.680777032e-07)
(0.008424463968 3.056699499e-06 -7.077513978e-06)
(0.008438558095 -1.619952818e-06 -1.541561687e-05)
(0.008463691354 -5.11033577e-06 -8.471785748e-06)
(0.008451074716 2.545233842e-06 -4.279566063e-06)
(0.008405121334 1.553842674e-05 1.413474311e-06)
(0.008430637518 9.847885525e-06 5.65144519e-06)
(0.008415479123 -2.000957894e-06 5.434263479e-06)
(0.008395501376 -7.159000774e-06 1.077756076e-05)
(0.008363648049 -1.196393815e-05 2.817171981e-06)
(0.008366749832 -1.95968877e-07 1.057413619e-05)
(0.008352855272 5.445400089e-06 1.038220402e-05)
(0.00837227205 2.001884509e-06 9.951482874e-06)
(0.008384489247 -3.820662066e-06 6.107039715e-06)
(0.008311904062 -3.18576235e-06 -1.45315397e-06)
(0.008265767966 6.872315426e-07 -1.147099383e-05)
(0.008211057935 5.010076517e-06 -1.135079472e-06)
(0.008211815826 1.282088991e-05 -7.666925536e-06)
(0.008282489102 1.431837737e-05 -1.112910564e-05)
(0.006321978702 -4.393778223e-06 -3.78879497e-06)
(0.008329064701 -7.505280893e-06 1.43694141e-06)
(0.008313110739 -1.04306144e-05 1.198277951e-05)
(0.008292966124 -1.306207971e-05 1.465274642e-05)
(0.008324781139 -7.482662697e-06 8.292958404e-06)
(0.008329983881 -6.55521732e-06 -3.930438572e-07)
(0.008352707784 -9.668940985e-06 4.049969597e-06)
(0.008351653825 -9.472464041e-06 -1.018930626e-05)
(0.008382756779 -7.848791077e-07 -4.193272347e-06)
(0.008396827419 3.085385505e-06 -2.522017006e-06)
(0.008382014696 7.769590948e-06 4.161921741e-07)
(0.008385259104 -6.708750275e-06 -3.598360692e-06)
(0.008420620012 1.804212549e-06 -3.63664364e-06)
(0.008374852458 1.024869327e-05 -1.27762713e-05)
(0.00835706317 1.600433639e-05 -1.107680631e-05)
(0.008317493031 2.28746311e-05 -5.343108705e-06)
(0.008318414948 2.12445215e-05 2.711720917e-06)
(0.008329999084 2.02771031e-05 4.203127441e-07)
(0.008306783471 2.685065926e-05 3.826571098e-06)
(0.008275794794 1.744273032e-05 -1.778945149e-06)
(0.006378361809 -1.403100895e-05 4.665988297e-06)
(0.008357869666 -2.033279209e-05 2.502822502e-06)
(0.008338329553 -1.279143082e-05 1.617953104e-06)
(0.008311561784 -3.62294486e-06 7.820844543e-06)
(0.008247535056 -5.896947209e-06 1.13377833e-05)
(0.008273517577 -9.0878626e-06 1.500776183e-05)
(0.008297712261 9.527179398e-07 1.12307169e-05)
(0.008275354926 -2.838455071e-06 1.222116935e-05)
(0.008287789881 -1.021822097e-05 1.257070357e-05)
(0.008283606989 -5.008356354e-06 3.612846111e-06)
(0.008279543902 1.947827238e-06 2.975398298e-06)
(0.008266165635 1.665866082e-05 -1.519078803e-07)
(0.008191035689 2.710330706e-05 7.260279065e-06)
(0.008218420284 1.90244887e-05 1.790295043e-05)
(0.008251169875 1.281917866e-05 2.25721758e-05)
(0.008297455108 9.049313282e-06 1.600510051e-05)
(0.008330562829 1.039887171e-05 1.157978621e-05)
(0.008326208384 1.452798843e-05 9.978056446e-06)
(0.008353487566 1.596723736e-05 1.318883012e-06)
(0.008296477713 1.756488735e-05 2.188730876e-06)
(0.006348715318 1.019730697e-05 -1.363200776e-06)
(0.008298440834 1.477682556e-05 5.11552055e-06)
(0.008277490843 -4.516213123e-06 -2.722213118e-07)
(0.008291912823 1.924881461e-06 -1.169960997e-05)
(0.008295062458 3.200738755e-06 -1.769600256e-05)
(0.008305329902 -3.364132072e-06 -2.337579875e-05)
(0.008230483404 1.373576413e-06 -2.090139111e-05)
(0.008241276705 4.686863043e-06 -1.65662122e-05)
(0.008209510829 1.091411003e-05 -1.62624925e-05)
(0.008202800927 1.754136763e-05 -1.416037865e-05)
(0.008219026265 1.018496747e-05 -6.730944602e-06)
(0.008236056861 7.946586768e-06 -3.673779593e-06)
(0.008249170908 -1.064421498e-06 -1.211139806e-05)
(0.008289939764 -9.921862991e-08 -2.209353176e-05)
(0.008249350298 5.403469662e-06 -1.911524834e-05)
(0.008241178729 -1.359132288e-06 -1.101178096e-05)
(0.008242965203 5.826863304e-06 -1.744468357e-05)
(0.00827984723 4.019804772e-06 -1.165367796e-05)
(0.008256496088 1.941071725e-05 -8.994344564e-06)
(0.008257062512 1.467113401e-05 -3.537546782e-06)
(0.006340641599 3.370209394e-06 3.556635161e-07)
(0.008336603776 -4.861158344e-07 -1.985295244e-06)
(0.008338576855 1.538471511e-05 4.181956646e-06)
(0.008354778731 2.097342967e-05 1.567260264e-07)
(0.008327319101 2.311253308e-05 1.205570708e-05)
(0.008276303352 1.18757074e-05 5.072806142e-06)
(0.008325965445 7.885120796e-06 7.94794491e-06)
(0.008330920936 6.688436007e-06 2.862742273e-06)
(0.008322706501 -2.164195087e-06 6.005752526e-06)
(0.008310377313 -8.475847033e-06 -2.409451853e-06)
(0.008296988525 -2.208459272e-06 -9.183913625e-06)
(0.008300196297 3.918202996e-06 -4.616954954e-06)
(0.008307603248 1.024769917e-05 -5.218353431e-07)
(0.008321137249 7.640590269e-06 4.889592845e-06)
(0.008327195626 5.615884578e-06 4.57411446e-06)
(0.008318477619 1.710092305e-05 5.840854819e-06)
(0.008352638323 9.646052483e-06 1.214045157e-05)
(0.008312622865 4.489326199e-06 4.135380926e-06)
(0.008337017246 5.14956435e-06 1.089216879e-05)
(0.008337448414 1.004692946e-05 9.433540547e-06)
(0.006369456474 1.388383715e-05 -5.492236803e-06)
(0.008365361824 1.337781024e-05 -1.205407484e-05)
(0.008354759632 1.547445925e-05 -1.54536302e-05)
(0.008269561866 6.549150376e-06 -4.523644837e-06)
(0.008315018911 -5.481623759e-06 -1.583049308e-05)
(0.008353214467 1.36238123e-05 -1.162151124e-05)
(0.008328061636 1.353947961e-05 -6.638419021e-06)
(0.00833766788 1.771428467e-05 2.824781546e-06)
(0.008318268907 2.005505417e-05 2.858030018e-06)
(0.008312333815 1.998773794e-05 3.619464831e-06)
(0.008315882693 4.204781929e-06 5.814806578e-06)
(0.008322635557 2.684479659e-06 1.793519603e-06)
(0.008256292156 -4.770518899e-07 3.939119848e-06)
(0.008269034179 -4.251947232e-06 -9.786192365e-08)
(0.008256807766 -2.892511274e-06 -4.350543455e-06)
(0.008255484013 -4.154785836e-06 -7.6511221e-06)
(0.008274500375 7.815782426e-07 -7.325921547e-06)
(0.008267301887 1.301095519e-06 1.379446238e-07)
(0.008257778565 6.56883927e-06 4.864865158e-06)
(0.008257166042 1.05835659e-05 9.674690679e-06)
(0.006347294204 6.277910244e-06 -6.959752605e-06)
(0.008360747023 3.24996827e-06 -1.366064635e-05)
(0.008441546547 -4.955060048e-06 -1.318509008e-05)
(0.008429183634 5.458647504e-06 -1.319143664e-05)
(0.008409748794 1.952341947e-05 -9.091314605e-06)
(0.008397190777 1.6662309e-05 -3.171586842e-06)
(0.008382746702 4.737024599e-06 -7.955186468e-06)
(0.008350569467 1.835692432e-05 -6.462370086e-06)
(0.008371067056 1.022474163e-05 -9.401250074e-06)
(0.00837447411 1.527159414e-05 -1.493824823e-05)
(0.008375007053 1.769630508e-05 -1.255425987e-05)
(0.008385415634 1.354202412e-05 -1.041923361e-05)
(0.008413040313 1.525014919e-05 -1.232165484e-05)
(0.008387127944 2.291312771e-05 -1.408074171e-05)
(0.008383480137 1.125621851e-05 -7.679368112e-06)
(0.008364327597 1.217652977e-05 -9.30067363e-06)
(0.008361034187 1.287217783e-05 -3.442492817e-06)
(0.008391752959 -2.164413892e-06 -1.141355573e-05)
(0.008413422836 6.311767695e-06 -1.410320193e-05)
(0.008399190795 -7.250591622e-06 -2.329297113e-05)
(0.006357538021 -1.639219744e-05 5.243057597e-07)
(0.008307760294 -7.478578881e-06 8.470484829e-07)
(0.00825838053 1.439217318e-05 -8.857405567e-07)
(0.008284577932 7.79321042e-06 2.968850525e-06)
(0.008288993549 1.149944046e-05 -6.36408205e-06)
(0.008321085587 1.449548301e-05 -6.124336508e-06)
(0.008314161992 1.760744319e-05 -2.587246811e-06)
(0.008256035425 9.915343065e-06 -1.551024236e-05)
(0.008295387208 6.672827001e-06 -5.093714363e-06)
(0.008315573288 5.179230385e-06 -7.222649427e-06)
(0.008347793499 4.353835227e-06 -8.150117677e-06)
(0.00835821937 8.715739542e-06 -1.540213933e-05)
(0.008341577044 -6.868627782e-07 -1.260467732e-05)
(0.008390551336 3.384448832e-06 -4.832993862e-06)
(0.008410213138 1.594705933e-05 -2.031294457e-07)
(0.008434219573 1.199898511e-05 -1.238572561e-06)
(0.008414768083 3.657230576e-06 -3.282376924e-06)
(0.008395541744 -3.427203011e-06 1.095606881e-06)
(0.008389051602 -6.244227667e-06 2.789439081e-06)
(0.008369757195 -2.470497674e-06 1.618385016e-06)
(0.006351148685 1.846426199e-05 1.3606819e-06)
(0.00833651161 1.258943022e-05 -3.094224781e-06)
(0.008332272667 -1.262597488e-05 -1.106578847e-05)
(0.008278021451 -2.441876183e-06 -8.122765402e-06)
(0.008307291472 -1.845394971e-06 -7.932796855e-06)
(0.008281671964 7.826050432e-06 -3.696442347e-06)
(0.008356404991 7.43851083e-06 -9.729943271e-06)
(0.008397676352 1.02728743e-05 5.31428981e-06)
(0.008437140073 1.190804671e-05 6.726643915e-06)
(0.008419524468 1.522035972e-05 1.005363495e-06)
(0.008356839011 1.528754438e-05 2.000904124e-05)
(0.008316190332 -3.509830328e-06 1.60181661e-05)
(0.008335449865 -5.678876573e-06 1.587150384e-05)
(0.008360052696 -1.068061809e-05 8.182861041e-06)
(0.008345526722 -2.015077589e-05 -5.747342138e-06)
(0.008355150636 -1.755254693e-05 -1.568761352e-06)
(0.008359461814 -7.487671617e-06 3.941106654e-06)
(0.00834349366 1.290405197e-05 -3.804057976e-06)
(0.008383248262 1.636181524e-05 -5.102685353e-06)
(0.008374765049 2.416970807e-05 -7.287514383e-06)
(0.007761002878 0.001753213471 -5.966563847e-05)
(0.008061221127 0.002293483324 2.82566361e-05)
(0.007961305333 0.002292982941 1.375715019e-05)
(0.007623918227 0.002199614815 3.330080716e-05)
(0.007301186734 0.002144650971 6.123508392e-05)
(0.007008323237 0.002000508237 3.045146313e-05)
(0.006616212138 0.001908670919 -1.724210323e-05)
(0.006281749683 0.001834089152 -5.30728459e-05)
(0.005941369323 0.001699952079 -6.859614332e-05)
(0.005718130719 0.001666960094 -3.031590214e-05)
(0.008402302989 0.001279304965 -4.3777446e-05)
(0.008946026748 0.002107095599 -3.850954467e-05)
(0.009459789499 0.002599887218 2.571654623e-05)
(0.009779530761 0.002840550126 -2.226161923e-05)
(0.009880197387 0.002950389429 -9.254298734e-05)
(0.009756222481 0.003051167553 -8.0175922e-05)
(0.0095739804 0.002933261137 -5.2138407e-05)
(0.009284160709 0.002923223132 -4.073813121e-05)
(0.009030257763 0.00280432738 2.820904793e-06)
(0.008736935279 0.00263832365 2.620516657e-05)
(0.008389472915 0.0009026738137 3.085098602e-06)
(0.008913477619 0.001515105278 -4.36630985e-05)
(0.009413205059 0.002076702 8.274455068e-06)
(0.009933492353 0.002557176053 -4.176491063e-05)
(0.01027841807 0.002873663544 -3.317533414e-06)
(0.01062923477 0.003195881303 6.947341137e-06)
(0.01079248555 0.003364504591 -3.095846292e-05)
(0.01085832373 0.003453973806 4.981107112e-06)
(0.01080490045 0.003410338801 5.246504042e-06)
(0.01052864668 0.003423306946 -1.208141244e-05)
(0.008430133566 0.0006274239646 2.372435069e-05)
(0.008687536896 0.001043233265 1.193851592e-05)
(0.009067501677 0.001485375959 6.129942689e-05)
(0.009565728448 0.002014419982 -8.768080528e-07)
(0.009995654087 0.002451085056 2.316800259e-05)
(0.0104866074 0.002806478764 -2.958833379e-05)
(0.0109069781 0.003156630843 -5.634855244e-06)
(0.01125564699 0.003396987416 -4.294796363e-05)
(0.01140939049 0.003591506874 -8.419568058e-06)
(0.01149086658 0.003715575957 -2.71773503e-05)
(0.008440469875 0.0004566435834 3.802774045e-07)
(0.008633466794 0.0007557000993 1.055591966e-05)
(0.008942224851 0.001096933281 1.36168722e-05)
(0.0092580877 0.001477784083 1.655524704e-05)
(0.009742152263 0.001894314546 2.829800241e-05)
(0.01012181538 0.00232993092 3.870040865e-05)
(0.0104928243 0.002669914701 1.711678801e-05)
(0.01090791912 0.003004064675 -8.366661291e-06)
(0.01130212086 0.003339069461 -2.112459426e-05)
(0.01170606573 0.003614127445 2.581770726e-06)
(0.008365339804 0.0003363397091 8.038760129e-06)
(0.008499629361 0.0005402340562 1.305139461e-05)
(0.008719954539 0.0007730639957 3.46101261e-05)
(0.009008537636 0.001104082071 1.776097715e-05)
(0.009345244947 0.001436290975 -9.353864609e-06)
(0.009789030914 0.001777844496 -1.927268453e-05)
(0.01027760202 0.002217333741 -2.332256931e-05)
(0.01069114239 0.002541478391 6.228045916e-06)
(0.01110205332 0.002913699844 2.612670979e-05)
(0.01153467236 0.003212850866 -7.630058735e-06)
(0.008472198599 0.0002451047214 -7.198630766e-06)
(0.008573143411 0.0003935974706 5.454425246e-06)
(0.008669704985 0.0005674709426 -2.648412032e-05)
(0.008874554172 0.0008127042778 -8.113197715e-06)
(0.00910204303 0.001037964644 4.685124129e-08)
(0.009476443255 0.001356151642 -3.847382675e-05)
(0.009857109909 0.001672576344 -3.608473274e-05)
(0.01028088236 0.002054170592 -2.122713345e-05)
(0.01078468612 0.002418955795 -3.705462841e-05)
(0.01123718854 0.002747397154 -1.367156386e-05)
(0.00839239177 0.0001784963345 -6.328043047e-06)
(0.00845401981 0.0002996237328 -1.080440955e-05)
(0.008591478595 0.0004130303648 -5.790706197e-07)
(0.008716256453 0.0005817104521 3.174552688e-06)
(0.008947321237 0.000759272589 2.091227934e-05)
(0.009127807129 0.0009955259288 2.306104499e-05)
(0.009504611749 0.001236135625 5.835204224e-06)
(0.00979765206 0.00152991426 -6.116121909e-06)
(0.01017443431 0.001877430281 -1.072710029e-05)
(0.01055770723 0.002220773495 4.88124707e-06)
(0.008392714512 0.0001460023019 -1.177584283e-05)
(0.008441800289 0.0002109924802 1.028680992e-05)
(0.008515254479 0.0003004956291 7.705386154e-06)
(0.008624099289 0.0003999675709 -8.297880963e-06)
(0.008797478255 0.0005515200823 1.551622438e-05)
(0.008983253789 0.0007211761667 3.093490074e-05)
(0.00915925643 0.0009444852116 -2.366580388e-07)
(0.009409990153 0.001160987891 -9.161122372e-06)
(0.009775190955 0.001427092727 -2.524973657e-05)
(0.01011868283 0.001730643879 -2.091577648e-05)
(0.008427176559 0.0001011982077 8.2688402e-06)
(0.008505098058 0.0001576487471 -5.014267629e-06)
(0.008583376648 0.0002228882604 -2.717279152e-06)
(0.00857388576 0.0003070408054 -1.394617991e-06)
(0.008682294682 0.0003889769629 -2.981725839e-06)
(0.008817795092 0.000528141147 1.135459725e-05)
(0.009005338026 0.0007209282904 -1.381874669e-05)
(0.009178446297 0.0008585787175 9.913618991e-06)
(0.009343772878 0.001080312017 3.266795758e-06)
(0.009611855117 0.001318579506 -5.314222685e-06)
(0.008453930356 6.598406797e-05 -1.615507069e-05)
(0.008457910413 0.0001111880763 -4.154571645e-06)
(0.008560675699 0.0001610900354 -2.084616973e-05)
(0.008602240605 0.0002357856258 -6.01161876e-06)
(0.008656630328 0.0003111699721 -6.906986882e-06)
(0.0086758354 0.0004052482116 -4.609481542e-06)
(0.00876841928 0.000533005224 2.324336108e-05)
(0.008959430974 0.0006624068634 2.870105167e-05)
(0.009105495396 0.0008330235797 3.184606847e-05)
(0.009355930406 0.00102409237 1.016858155e-05)
(0.008351474445 4.120903951e-05 1.988476918e-05)
(0.008322795716 5.891786485e-05 1.2726737e-05)
(0.008318714965 9.720199877e-05 1.316205602e-05)
(0.008346463076 0.0001685820285 2.262567372e-05)
(0.008390511444 0.000202410647 1.527003567e-05)
(0.00849208434 0.0002875512536 1.777678781e-05)
(0.008560384023 0.0003827133749 1.585397994e-05)
(0.008729869575 0.0004882197429 -1.424460855e-06)
(0.00892506966 0.0005972945726 1.773698675e-05)
(0.009081885325 0.0007383631554 1.329535517e-05)
(0.008333521175 5.391576441e-05 8.238773831e-06)
(0.008358952781 8.027999717e-05 7.796740472e-06)
(0.008328109413 0.0001135357843 1.264671461e-05)
(0.008388773127 0.0001232326614 -3.411396779e-06)
(0.008414732711 0.0001533041457 -6.931559293e-06)
(0.008513936564 0.0002196168631 -1.323511552e-05)
(0.008635759392 0.0002709833186 -9.179072831e-06)
(0.008655567545 0.0003552199925 -1.687428205e-05)
(0.008706895134 0.000435238494 -2.194812701e-05)
(0.008877846474 0.0005453544343 -1.809284882e-05)
(0.00830385095 3.558905463e-05 -5.770914195e-06)
(0.008327518422 4.443344136e-05 -2.489620695e-06)
(0.008379138818 7.221894312e-05 -1.139612241e-05)
(0.008379026825 0.0001015763105 -4.105210557e-06)
(0.008404966743 0.000123285103 -1.280780926e-05)
(0.008386122404 0.000150346431 -2.007943485e-05)
(0.00843662539 0.0001899000476 -9.427801948e-06)
(0.008546265073 0.0002642692482 -8.006996731e-06)
(0.008660828747 0.0003261112105 -2.514203464e-05)
(0.008748376772 0.0003941957109 -3.688289012e-06)
(0.008273314783 2.785796673e-05 -6.923561483e-06)
(0.008270411012 3.330883732e-05 -2.787530917e-06)
(0.008311684332 4.567644467e-05 8.399213503e-06)
(0.008350681276 4.949165986e-05 4.771983963e-06)
(0.008334049544 8.846261172e-05 1.035367798e-05)
(0.008433030748 0.000114725807 3.880570304e-06)
(0.00840845458 0.0001466126339 1.493163139e-06)
(0.008462564645 0.0001816124807 -1.347337472e-06)