/*--------------------------------*- C++ -*----------------------------------*\
| =========                 |                                                 |
| \\      /  F ield         | OpenFOAM: The Open Source CFD Toolbox           |
|  \\    /   O peration     | Version:  2406                                  |
|   \\  /    A nd           | Website:  www.openfoam.com                      |
|    \\/     M anipulation  |                                                 |
\*---------------------------------------------------------------------------*/
FoamFile
{
    version     2.0;
    format      ascii;
    arch        "LSB;label=32;scalar=64";
    class       volVectorField;
    location    "0.009";
    object      momentum;
}
// * * * * * * * * * * * * * * * * * * * * * * * * * * * * * * * * * * * * * //

dimensions      [1 -2 -1 0 0 0 0];

internalField   nonuniform List<vector> 
654
(
(0.006821302196 0.0005939344671 -0.0009397206892)
(0.00336466027 0.0002379496984 -0.0004887433919)
(0.01100279063 -0.0004070759251 2.470955778e-05)
(0.01045629338 7.732233815e-05 -0.0003700708929)
(0.00796234013 0.0008565510035 0.0006107913436)
(0.01210366915 6.141436289e-05 0.0009315746704)
(0.005695429919 -0.000127396683 -0.0001406854755)
(0.005977894214 -6.079306225e-05 -0.0006324868542)
(0.008982209881 -0.0003960361346 0.0002590372717)
(0.01236657499 -0.0004471434181 0.0008599784378)
(0.009298344437 -0.0003136250857 -0.0005830749772)
(0.004579906336 0.0005686029071 0.0002859904748)
(0.01098263704 -2.987685595e-05 -0.0009058909447)
(0.009151415928 1.554524103e-05 0.0002070245146)
(0.008101677835 -0.000675929708 0.0006849855599)
(0.00985023639 -0.0003058782304 -0.0004771738914)
(0.0107296113 -0.000401564723 0.001117746346)
(0.006898377943 -0.001019062017 7.568585541e-05)
(0.003968011409 -7.167433603e-05 -0.0005107643756)
(0.007958537052 0.0002498767958 -0.000507699682)
(0.005502377188 0.0003570114027 -0.0002907098453)
(0.01128880989 0.0001115575408 -0.0003222335929)
(0.01096585681 0.0008463183849 -0.0005862462192)
(0.008043949472 -0.001211259609 -0.0001727080013)
(0.004839314582 -0.0004204596917 -0.0003473989123)
(0.005322229029 0.000282352123 0.0003636821248)
(0.008875775662 -0.000402568737 -0.0002472532296)
(0.006165015002 -0.0005832220126 -0.0004846689102)
(0.006552853906 -0.0001821611304 0.0006652209703)
(0.01012457611 0.000103279553 -0.0005519818226)
(0.01005831865 0.0004856217046 -0.0005941358414)
(0.006749052302 0.0003354321001 0.0001633187656)
(0.003272660064 -0.0002702046537 0.0003764618482)
(0.007528632112 -0.0006829002999 -0.0003417653298)
(0.0111698945 9.349774449e-05 -0.0003826580973)
(0.01207141442 0.0002928425149 -0.0006415809404)
(0.009802171773 0.0001594666145 -0.0001970391)
(0.006956907867 -0.0003992367365 -0.0001352653542)
(0.007117384771 -0.0002085804417 0.0006708482062)
(0.007694339846 -0.001094947529 0.0003551908503)
(0.009679929634 -0.0008595256968 -0.000200141112)
(0.005524977496 -0.0004080312437 0.000470189184)
(0.007043481761 -0.0006002131383 -6.084103738e-05)
(0.007224803703 -0.000107530456 0.0002748122851)
(0.01060834985 0.0007184139527 0.0001755430248)
(0.01085052841 -0.0003923914691 -0.0005256128084)
(0.009405431915 0.000327559427 0.0002544425831)
(0.007783117141 0.0008128474133 -0.0003571912685)
(0.009962649601 6.325288133e-05 -6.538403248e-05)
(0.007097591623 -0.0004167960017 -0.0003893231317)
(0.01174862888 0.0001487165564 -0.0001331762532)
(0.009582103736 0.0006565553944 0.0001563548258)
(0.004699177567 -0.0005981625275 0.0001608633976)
(0.008216261784 -0.0004382574972 5.717691014e-05)
(0.0051772014 0.001019672652 0.0006207952544)
(0.008688116571 0.0001265364629 -0.000210215242)
(0.007574704501 -0.001038989401 -0.0008039079289)
(0.00812138613 0.0007228844598 -0.0007889969845)
(0.009181709665 -0.0002433175329 -6.824497718e-05)
(0.01344882996 0.000593586895 0.0001337424932)
(0.005156458708 0.0001180510126 0.0009246648676)
(0.006564876145 -0.0004198255 -0.000325370519)
(0.007503785565 -0.0005189729465 0.0005733183349)
(0.006860188899 -0.0006322122037 0.0001462942714)
(0.01189861699 -0.0003536642291 0.0001135478138)
(0.005031784108 -0.0007740341942 0.0003671285401)
(0.005946931961 0.0002950591834 -9.397470989e-05)
(0.01458118791 -0.0001333887518 0.0008604129264)
(0.008312334084 -5.601293623e-05 -6.416633847e-05)
(0.007531940038 -0.000103866636 -4.303020162e-05)
(0.01084975326 -0.0003058351697 5.369085007e-06)
(0.01206667053 -0.0001487455327 0.0006529589125)
(0.005537285989 -0.0004000570029 -0.000356689076)
(0.006882326178 0.0004300357181 0.0001112479746)
(0.005556944466 0.0007124841686 5.276663378e-06)
(0.009536588042 -0.0006019283283 1.379576556e-06)
(0.007361403711 -0.0003309517482 -3.311832384e-05)
(0.006733037658 0.0004950363662 4.788253361e-05)
(0.01559148865 0.0008787152248 -0.0009551675368)
(0.009803702786 0.0009790553984 0.0005362290084)
(0.006586005707 -0.0003999006747 0.0006301981667)
(0.01181734101 0.0001741850071 -0.0002906356202)
(0.0082611903 3.932392666e-05 0.0002563829857)
(0.007741342407 0.001015489959 -0.000850842566)
(0.007768480452 -0.0001744891334 0.0008318131875)
(0.01210831907 0.000873267151 0.0007464980781)
(0.00854921608 0.0001008664813 3.070249738e-05)
(0.009146797611 -5.217040366e-05 -0.0002728802445)
(0.003484019479 0.0001706138106 -4.167210869e-05)
(0.006983029638 -0.0001477365153 0.0002892808048)
(0.005836340897 0.0004927786208 0.0006853564823)
(0.006537148326 0.0003191377982 -0.0005833773336)
(0.009995518024 -0.0003509747978 -0.0006487676163)
(0.00715131605 0.0001900217825 3.316309148e-05)
(0.01171535675 0.0005913066368 0.0008936036042)
(0.008838807159 0.0001575848504 9.39384731e-05)
(0.01208263721 0.00134257193 0.0003574406625)
(0.008719489609 9.435187977e-05 0.0002748571973)
(0.004445685958 -2.430157699e-05 -0.0005305521554)
(0.0114809558 0.0007437886738 -0.0002427717465)
(0.00599050855 -0.0008963563433 0.0005385513759)
(0.009060273419 -0.0001321541862 0.0001943001927)
(0.007861053249 -0.0004050895558 -2.325793232e-05)
(0.01088125535 -0.001012057725 -0.000308180558)
(0.00590817333 -0.0003992910129 3.111049958e-05)
(0.004121618458 -0.0007194639683 -0.0001649277986)
(0.01086618699 -9.602521625e-05 -6.901279582e-05)
(0.00865525075 -0.000229752457 0.000118325002)
(0.001736451526 0.0001084992487 -7.497244719e-05)
(0.01275160483 -4.974312327e-05 -0.0009691727805)
(0.009591403689 -0.0004310632311 0.0002684572111)
(0.00884571447 -0.0004229913718 0.0005384448005)
(0.007777069534 -0.0005169191229 0.0003728057789)
(0.006080265299 0.0005287483084 0.000266743615)
(0.006840449998 -4.840705726e-05 0.0003854032258)
(0.006266653906 0.0003149233812 0.0004411778682)
(0.01293310646 0.0002915163484 -0.0003151660658)
(0.008628872165 7.411198984e-05 -0.0006794413552)
(0.009167474624 -0.0002155917138 -0.0004978440884)
(0.01183703688 -0.0002019234651 0.0003808704692)
(0.006000032291 -0.0005449601674 -0.0001233827129)
(0.008053505744 3.278670959e-05 0.0002350286768)
(0.01039382169 -0.000359451737 0.0002891422111)
(0.00873630607 0.0007224764876 -0.0004668510495)
(0.009741071873 0.0008385135784 0.0005393550758)
(0.01366294651 -0.0003940573142 0.0008535412801)
(0.004224512239 5.084126134e-05 0.0009554620252)
(0.009239225477 -0.0004256380052 -0.0002620276385)
(0.01405787783 -0.000171765551 1.181102307e-05)
(0.004850505019 0.0002281827823 -0.0001437506179)
(0.008761248058 -6.212178779e-05 -0.0002050665262)
(0.00620836212 -0.0002387912009 -0.000900848937)
(0.007478705452 0.0004269566478 3.960725371e-05)
(0.006217589106 -0.0001315228697 -6.485927204e-05)
(0.003399829035 -0.0004293794796 0.0002319466865)
(0.009043267129 0.0001943347544 7.043269268e-06)
(0.01087573383 -0.0006770386639 0.000686736296)
(0.005533330433 -0.0002966814434 -0.0002590501486)
(0.008225356186 0.000623554592 0.0006980924874)
(0.007788240278 -0.0001176838421 -0.0002615170152)
(0.005087416993 -0.0002982315647 0.0002355009085)
(0.006335674661 0.0001003958892 -0.0005304249346)
(0.00618485219 -0.0003336532311 8.746128718e-05)
(0.00940808536 -0.0004461357033 0.0006648787297)
(0.004282699132 0.0003874465762 0.0001427544213)
(0.006125604639 4.104076683e-05 4.487116309e-05)
(0.006979015508 0.00040533636 -0.0002299450302)
(0.003298529506 -0.0005170384408 -9.678008024e-05)
(0.01166659869 -0.0004169060136 -0.0003401135569)
(0.01228067028 0.0006693017359 0.0004903273746)
(0.01262530236 -0.0008185339395 2.359349966e-05)
(0.006537944755 0.0007283672547 -0.0003542189653)
(0.01088390116 -0.000397751273 2.427114901e-05)
(0.005934242138 -0.0001777556337 5.38932831e-05)
(0.01055711625 -0.0003197719032 -0.0003579927333)
(0.006908548907 5.677424816e-06 0.0002265191572)
(0.005159033989 0.0007696151117 0.0008084576096)
(0.01156501003 7.766438792e-05 -0.0002748252725)
(0.008456787799 0.0009434114472 0.0004072375094)
(0.006689405053 -2.292924733e-05 -0.0005023881022)
(0.00654033194 -0.0002546384259 -0.0002770983531)
(0.008563578741 -0.00036259215 -0.0003641446575)
(0.009963630256 0.0004028698345 0.000741517898)
(0.007374326753 -0.0003176414303 0.0002874658406)
(0.008409438716 -0.000390192744 -5.929887581e-05)
(0.006856044833 0.0002341206914 -0.0007678823264)
(0.01216710513 -0.0001708463499 -6.679924863e-05)
(0.01082124352 0.0007459419578 -0.0003565385404)
(0.008380556825 0.0002946979209 0.0005271813229)
(0.003682447037 7.133231507e-05 -0.000367581683)
(0.002528553259 -0.0001975237998 -0.0001758067969)
(0.01455402975 -0.0002604928213 0.0004305464074)
(0.005921880478 -7.443033287e-05 -0.000611803287)
(0.01344003034 -0.0002925710243 -0.0002699861632)
(0.01213204879 -0.0003712485317 -0.0005822264426)
(0.00858116507 0.0007956096348 0.0001556691683)
(0.005526589578 7.286165682e-05 0.0009573476248)
(0.007866401794 0.0004646669721 0.0002331846617)
(0.007697527204 0.0001909129532 -0.001105723601)
(0.00799920334 -0.0001562851972 0.0007049451599)
(0.006641657874 -0.0008034888188 -0.0005401113463)
(0.008689493143 -0.0002209444805 0.0006547737087)
(0.009566120948 -0.000226328829 -0.0002744379581)
(0.01017366961 0.0005773904876 0.0002172419319)
(0.01079275612 1.908418664e-05 0.0001758757293)
(0.004582315008 -6.172551733e-05 -0.0003523851949)
(0.008667194536 1.256257685e-05 6.193975752e-05)
(0.008720018419 0.0003696290418 0.0003368537289)
(0.007094216329 0.0003094962821 -0.0002463498118)
(0.001496265422 0.0001307107272 -0.0001303173422)
(0.008159202443 0.0003483042289 2.386431087e-05)
(0.004943606443 -0.0004267923095 -0.0003050873026)
(0.002295478282 0.000287288501 -0.0001431794263)
(0.009049876774 -0.0005754232179 -0.0006499904583)
(0.006000490114 -0.0007399104766 -0.0002906815564)
(0.005162778249 0.0001128654985 -0.0003275803258)
(0.008233473169 -0.0005139838407 0.0003588451722)
(0.007002106003 8.423204859e-05 0.0003225830265)
(0.006408302134 -8.921114456e-05 -0.0002336236113)
(0.009593649443 -0.0003268737867 -0.0002251227469)
(0.005284826912 -0.0002479141724 -0.0003152232462)
(0.0100811022 -0.001190075588 0.0009179690917)
(0.006564200373 -0.0004644059852 -0.0001738957693)
(0.006252654431 -0.000416880089 -0.0005604813617)
(0.007542297887 -0.000201341883 -0.0001096101894)
(0.01222186221 8.73081839e-05 -0.0002553693193)
(0.008620893733 -0.0003050035967 -0.001136726743)
(0.00837142821 0.001121435202 -0.0005035194151)
(0.004653381742 -0.0001228712437 -0.0004352381992)
(0.01058808481 0.0007269701859 -0.0002765568974)
(0.01453394754 -0.0002720137694 0.0002269151666)
(0.007343077919 0.0005293418317 0.0004446816979)
(0.009391945986 0.0004003443351 0.0004217708508)
(0.007936828775 0.0002993244612 0.0004450701454)
(0.008868023287 4.407231746e-05 0.0003595965323)
(0.004924356343 6.898189513e-05 0.0001457046341)
(0.00810289283 0.0004939705525 0.0004241334653)
(0.004991472997 0.0005684841665 -0.0003146336727)
(0.004499928241 -4.649763785e-06 0.0005244836124)
(0.008332208159 -0.0003698105942 0.0002876384012)
(0.007682975214 -0.0007663824328 -0.0004003181956)
(0.004924459863 -0.0001759506384 0.000154568176)
(0.007976407793 0.0006102776159 0.000568102253)
(0.008438348183 5.742643348e-05 -8.142961142e-06)
(0.008615212383 -2.075343927e-05 0.0007499455417)
(0.007385316275 0.0003830256718 0.000188415044)
(0.009348546271 0.0001943393938 0.0004308134401)
(0.01341139117 -1.987264345e-05 -0.0006946868864)
(0.007324884738 0.0003586502494 0.0008337165425)
(0.005522919765 -0.0002927176622 4.913786504e-05)
(0.007213690027 0.0001269525145 -3.224843458e-05)
(0.008867068713 0.0002616430586 0.0001344022894)
(0.008041730146 -0.0002383828504 -0.0004250853684)
(0.009718104884 -0.0001559479139 -7.525620341e-05)
(0.007646753366 -0.0003726164318 4.652874712e-05)
(0.005629490682 6.27205085e-05 -0.0004137992688)
(0.01061641717 0.0004657929167 0.0001112281908)
(0.007784099791 0.0006148457358 2.484906408e-05)
(0.006094182039 0.0004768025272 0.000795783254)
(0.009706586656 -0.0004685682632 -0.0005856252424)
(0.006949054863 0.0005354685986 -0.0001728228405)
(0.009888306268 0.0004405908508 -5.692280517e-06)
(0.0109398201 4.10374637e-05 -0.0003508761114)
(0.003805939908 0.0001989823159 0.000440891462)
(0.006554270394 0.0008142357912 0.0001650506064)
(0.008943391025 -0.0007039039024 -5.44149699e-05)
(0.004089271307 7.590504402e-05 -0.0003972584493)
(0.01272919835 -0.001054873584 -0.000227553331)
(0.009919050734 -0.000243538426 -0.0002787366797)
(0.009042118066 -0.0003702397775 0.0003081163923)
(0.01126648791 0.0003732465217 0.0004751757012)
(0.00870400625 -0.0003194178672 -0.0001340857276)
(0.008516789979 -4.494240424e-05 -0.000867402047)
(0.01061140205 -0.0001467439058 0.0003467116393)
(0.007479516647 0.0001573344782 -5.579956232e-05)
(0.005277992296 -6.260273568e-05 -0.0001601345607)
(0.01100554078 0.0006081340971 0.0005910341071)
(0.0179091738 -0.0004258016042 0.0005258262691)
(0.006737316743 0.0003212483414 -0.0002936932959)
(0.007142152202 -0.0004798439966 0.0001009227813)
(0.007901007586 0.0006570038367 -0.0004257831207)
(0.005591799649 -0.0005111496269 -0.0002801648897)
(0.01038018118 0.0001702525602 0.0004182347167)
(0.01144932687 0.0003233377342 -0.0002050151896)
(0.004434251984 -0.0001325030172 0.0001874341976)
(0.01211915499 0.001351129494 0.0009005017848)
(0.004408125295 0.0001813395439 0.0008132637177)
(0.01038358936 -0.0002288541019 0.0008435902907)
(0.009512373882 -0.0002353531241 -0.000273421195)
(0.0102289336 0.0002142322512 -0.0001047347105)
(0.005834170634 0.0004751439151 -0.0002058413181)
(0.008673212807 0.0001309181333 0.0006135708212)
(0.006239828497 0.0005295914591 -0.0002506046021)
(0.008486434883 0.0002291390126 0.0004201396601)
(0.01312482269 0.000275675051 0.0005792194988)
(0.009200514825 0.0005878159162 0.0002519961301)
(0.007478267353 -0.001034548239 0.0002442996969)
(0.0178178599 -0.000466119596 -0.0002179360231)
(0.01092063503 0.0006188066537 0.0004685881201)
(0.008814041851 -0.0001017695359 0.0007089631492)
(0.006467500307 0.0002993982983 -0.0001955797097)
(0.008462096402 0.000112424129 3.791044947e-05)
(0.005897256097 0.0006214905627 4.378692442e-06)
(0.006031162502 7.103963473e-05 -0.0006481760796)
(0.01210981679 0.000510642527 -0.0007684302128)
(0.009655490583 -0.0001146714576 -0.0003911774597)
(0.005697896158 -0.0004534262747 -0.0008372318637)
(0.00712345838 -0.0002855281812 -0.0001258703955)
(0.008656835273 0.0005263370931 -0.0004133930298)
(0.008098937765 0.0001558155858 -0.0004178499682)
(0.00755589211 0.0007537629842 -0.0005156306351)
(0.009243916026 -6.906016283e-05 -0.0003171330328)
(0.005758278902 -0.0004275014845 -0.0002655358577)
(0.01040627139 0.0001027011738 0.0005892190738)
(0.00915780097 0.0001072035347 -0.0004658009193)
(0.005183555494 0.0002705331011 7.878538015e-05)
(0.006207504139 -3.766556332e-05 0.0001492862445)
(0.007539672508 0.0005309713847 -0.0001312137019)
(0.0104295537 0.0009005549218 0.0002071036101)
(0.006813157767 0.001042542343 5.03693096e-05)
(0.006831820289 -0.0001534754058 0.000148271207)
(0.01053408592 -0.0004927618161 -0.000349820216)
(0.006153235658 -3.743990439e-05 -0.0001789682794)
(0.009300503787 0.0003675420822 0.0004550711771)
(0.009202871291 -0.0002366726962 -0.0004868893044)
(0.008454662939 -0.0001845445067 0.0006478845586)
(0.004119969573 0.0006840143244 -0.0002507689841)
(0.009199174381 -6.25207866e-05 0.0001569827158)
(0.009425885321 0.0004649118657 0.0005044286794)
(0.006068091166 -0.0002199616684 0.0003243269397)
(0.006271440484 0.0001909991321 0.0008152307867)
(0.004939507627 -0.001023119204 3.683028868e-06)
(0.008136826044 1.134969083e-05 -0.0001469483377)
(0.007656665208 0.0003254411554 0.0001255957816)
(0.01481108866 -2.665599028e-05 -0.0002731411238)
(0.006579670543 -4.775175835e-05 -8.461091095e-05)
(0.008005247286 1.700578206e-05 2.949462944e-05)
(0.0124457947 -0.0001005525188 0.00012214878)
(0.01137056593 0.0002700720695 0.0009780289987)
(0.005977062588 -0.0002204793031 -0.0002400733891)
(0.004073057739 1.185700365e-05 -0.0003242534022)
(0.01159101997 -0.001137013708 -0.0001765353372)
(0.008957602783 0.0006642620214 -0.0001133095648)
(0.007934265287 -4.290289378e-05 -5.611900528e-05)
(0.008433972419 -6.384255176e-06 -0.0001434265277)
(0.008596682557 0.0003459571203 -0.0002835465665)
(0.011020146 -0.0009915416228 -0.0004735778507)
(0.006753551246 -0.0001369030101 -0.000235577846)
(0.003656904843 0.0003253845093 -0.0001174321748)
(0.01287612701 -0.0003454849441 0.0001703754115)
(0.008437361792 -0.0007200281477 -0.0002382467558)
(0.005392774268 0.0003524826302 0.0003577944217)
(0.009041176265 -7.395530076e-05 0.0002819935035)
(0.007585401948 -6.267042975e-06 0.0001498977397)
(0.005580126247 0.0003954552572 0.0004760768142)
(0.008626813184 0.0004616056259 -0.0001439357263)
(0.009157944297 0.0002024520056 -0.0004640824488)
(0.007762137514 -0.000535055548 -0.0002368483544)
(0.003677881822 9.31411761e-05 0.0001241838504)
(0.004022857468 -0.000216568098 -0.0004205243367)
(0.007904253344 0.0005389014119 -0.0004155684136)
(0.00874755012 0.0001297826162 0.001435148253)
(0.01181990083 -0.0003392565154 -0.0003282706677)
(0.009011464138 9.795646195e-05 -0.001149458596)
(0.007366238421 -0.0004092807732 -0.000620167517)
(0.005907128243 -0.0002087384429 -0.00011215659)
(0.006885348031 0.0007310796471 -0.0003941227307)
(0.008392542817 -0.0004347347764 0.000246715502)
(0.007812492306 0.0001475550532 -0.0002144601)
(0.009139140358 -0.0003124687659 -0.0004998516123)
(0.009435469 -0.0001343275605 -0.0008641654306)
(0.01098414035 0.0002539903184 -0.0008616222798)
(0.0080567116 -9.568280371e-06 0.0002124843984)
(0.01015009592 -0.0009329307503 -0.0006217493344)
(0.01420203147 9.955771042e-05 -0.0009236648671)
(0.006876565065 -0.000206308438 -0.0001467159719)
(0.008855334207 -0.0003352168106 0.0005009021634)
(0.006033983175 0.0004543737427 0.0007940501909)
(0.007933557327 -0.0004637550504 -0.0004398435903)
(0.008159333191 0.0001070340443 9.000327124e-05)
(0.004535989866 9.699337795e-05 0.000922011528)
(0.006666200645 -4.820635671e-06 0.0003824813949)
(0.007127033536 -0.0005427843448 0.0006445278442)
(0.009936815583 -0.001164873356 -0.0001694036667)
(0.005669893755 -0.0002082628291 1.729708565e-05)
(0.006393106441 0.0005765261482 -0.0002895766436)
(0.01416328309 -0.0001316352366 0.0006785045868)
(0.006335383197 -0.0002915577663 -0.0003951623024)
(0.009133411535 0.0004123962135 -0.0002592678833)
(0.008935349584 -0.001279197915 -0.0001181640342)
(0.0088528416 0.001363682165 8.42107406e-05)
(0.003987916462 -0.0001369816435 8.15349853e-05)
(0.009196658777 0.000644012144 -0.0002865058602)
(0.005415888288 -7.063192024e-05 -0.0002568240693)
(0.01045213874 -0.000526149999 -0.0009823143383)
(0.00966361375 0.0004771294571 -0.0002307221158)
(0.008876328425 0.0001491691912 0.0007121828194)
(0.007118380232 -8.417696799e-05 0.0004600141729)
(0.008268809324 -0.0006007474559 0.001097518018)
(0.009342090343 -0.0005970887471 0.0007204977972)
(0.006985822599 0.0003254707424 0.0002008830718)
(0.009260685861 0.000601410849 0.001205690467)
(0.009029153827 0.000549038302 -7.085872418e-05)
(0.008796316998 -0.0001789249706 -8.313670816e-05)
(0.01147698712 0.0001002644566 -0.0004670568672)
(0.00863837344 -0.0001740287469 -0.0002229028916)
(0.009713121184 -0.0001426923178 0.0001024224238)
(0.004051399348 -0.000156179564 -4.508451706e-05)
(0.01580893985 -0.0001464856377 -0.0008389039542)
(0.008115649241 -0.0001856043667 0.0004818724456)
(0.006925984371 0.00072714204 0.0001504416207)
(0.004633485725 -0.0001690692544 -0.0008244922374)
(0.009974124329 -0.0006642478543 -0.0009411816983)
(0.00782046726 -0.0009497308451 -0.0003313292551)
(0.007789909186 0.0001739516594 -0.0001433463469)
(0.005378153191 -0.0002038267056 0.0003968973039)
(0.003946516537 0.0005525357308 2.781557179e-05)
(0.01210003758 0.000483316399 -0.0008947357313)
(0.004410929065 0.0004316472933 4.756568138e-05)
(0.01044394955 0.001111416214 -0.0004537137289)
(0.006012427919 -3.859986488e-05 -0.0002189109215)
(0.008682681257 0.0006081585382 -0.0009391175416)
(0.008712365388 0.0003740950276 -0.0002184228211)
(0.003945441294 -1.302343552e-05 -0.0002798701279)
(0.004546767061 -0.0003265512043 -4.39939394e-05)
(0.007941246866 -0.0006622383588 0.0003389106608)
(0.008378693288 0.0005868274716 -0.0005056281762)
(0.008423939616 -0.0006162302922 -0.0004836533318)
(0.01106861632 0.0003065272998 8.831456593e-06)
(0.01182869441 -0.0007651941721 -0.0005999821797)
(0.007732384647 -1.690320539e-05 -5.203188914e-05)
(0.00987266148 0.0006251616943 0.0008048826557)
(0.008624873768 0.001127783129 0.0001646791069)
(0.008899753265 0.0001574495149 -0.0004549432663)
(0.007035625194 0.0004340555885 0.001320568289)
(0.00807709441 0.0005303794856 -0.0003347796493)
(0.01341182284 0.0002945615028 -0.0002883655203)
(0.01217438308 0.0006352851626 8.475106359e-05)
(0.007900804673 0.0004364147886 0.0003447208624)
(0.01240780128 6.227222141e-06 0.0006638002508)
(0.004888567244 -0.0003288047002 0.000101009012)
(0.009017137986 -5.090171517e-05 0.0008538362853)
(0.01054098332 0.0002109846043 -0.0005629764132)
(0.005946273451 0.001205166754 -0.0003318631622)
(0.01022150576 -0.0002723482461 0.0002471857296)
(0.00803152083 0.000264021143 -0.0002297160437)
(0.009524850154 -6.36421815e-05 0.0002880478178)
(0.005040195932 -2.056787977e-05 -5.302387415e-05)
(0.004479797985 0.0003656883372 -0.0001379647715)
(0.004268735752 0.000439166998 -0.000771454751)
(0.006226854842 -0.000218948945 -0.0002877966464)
(0.008569696813 0.0002744750908 -0.0005931050857)
(0.009130358558 -0.0008604355862 5.069783721e-05)
(0.01184318103 -0.0002657575299 0.0001905428782)
(0.003985010132 -0.0001731183121 0.0001939115442)
(0.009932604912 -0.0004715727852 -0.0008740129094)
(0.005751675403 0.0005742119493 5.471652156e-05)
(0.005311831645 6.650763569e-05 0.0003805807299)
(0.006824532973 -0.0007145778679 0.000803043364)
(0.008857588228 -0.0002507375075 -0.0004645065436)
(0.008587502447 0.003091896293 0.0009600756563)
(0.01006482558 -5.873470596e-05 0.0005730369816)
(0.0103016134 0.002439417997 -0.0002692010857)
(0.008902533628 0.0006871395528 0.001039717211)
(0.00478598213 0.0007161627791 0.002482289761)
(0.006644971096 0.001364714922 0.002019968292)
(0.01665545205 0.002626974922 0.0008700401848)
(0.006935425398 0.002128777186 0.001263210415)
(0.003553963065 0.003818392182 0.001665940298)
(0.00521127871 -0.00104301416 -0.0003332782162)
(0.01368199174 0.003274199533 -0.0007759644237)
(0.007782250404 0.002831357358 0.001550352149)
(0.007861432558 0.004122721322 -0.001806209887)
(0.01239878335 0.002580965949 0.0004180763127)
(0.01112408729 0.002084402329 -0.00100302631)
(0.004013452458 0.001773106843 0.0006454147612)
(0.01018257459 0.00409427803 -0.0005412012088)
(0.01017691485 0.002729705622 -0.0001511182537)
(0.01001378924 0.002253184328 -0.0008710817928)
(0.006691856557 0.004250382385 0.0002017773027)
(0.01078590515 0.001209213849 -0.0005703818986)
(0.0125396408 0.0005256077595 -0.002716881906)
(0.01114359103 0.003285323762 0.001436841462)
(0.005720112038 0.0009903229172 -0.002190848222)
(0.005321435191 0.003275936299 -0.001218975994)
(0.009503880379 0.002727908403 0.00171234326)
(0.01860480184 0.004078489765 0.0003613501929)
(0.01152555542 0.002603190336 0.001938708976)
(0.009045750516 0.002617572246 -0.0004123368846)
(0.01381245046 0.006663688642 -0.0008552097266)
(0.01026566238 0.0005294999449 -0.0005133547806)
(0.01528968293 0.0007671157982 -0.0009037374537)
(0.007290405168 0.001582012814 -0.0003598409492)
(0.007720546443 0.001744165978 0.001439305646)
(0.009303748622 0.002065903904 -0.0007935977614)
(0.0107033134 -1.141095306e-05 0.0001325515224)
(0.01107104478 0.005290134493 0.0004710815554)
(0.01067688391 0.004944141095 -0.0008502833505)
(0.006936726939 0.002905004378 0.0006607141353)
(0.01164865184 0.003998525307 -0.0009656675779)
(0.006969748676 -0.0003541366354 -0.0009593315344)
(0.01198270269 0.0007333244654 0.000515256374)
(0.008606736688 0.0002746376484 0.0003372688337)
(0.0117036396 0.002734010343 0.002593105504)
(0.005055888167 0.001037757483 -7.542070385e-05)
(0.009110323898 0.005335761062 -0.001091256344)
(0.006059436798 0.001288225061 0.0002222398773)
(0.01151337655 0.003905782167 0.0008627220491)
(0.01045740501 0.001005719192 0.0001172828207)
(0.01198060281 0.004332964894 0.000747226481)
(0.00650797288 0.001146212681 0.0003978730521)
(0.0106117142 -0.0001030574559 -0.0001164435967)
(0.0185519937 -0.0001248162504 -0.001081186966)
(0.002225902752 4.314279618e-05 -0.0001945063431)
(0.01062858258 0.0003156780435 -0.0001419437588)
(0.006651966441 0.001090530525 0.0001568341755)
(0.008660105758 0.0008733766901 -9.494878379e-05)
(0.01441260001 0.000683582905 -0.0001713305586)
(0.01056082693 0.001252331324 -0.001176628635)
(0.01167454918 0.002623478815 -0.0006321110804)
(0.00741724104 -0.0006860425153 0.0006603722415)
(0.01124249601 0.0003346893447 -0.0008027711643)
(0.0100584405 0.002599210188 0.0009835006463)
(0.01089263817 0.0001936514433 0.001081992811)
(0.0101086355 0.002661763015 -0.001258372107)
(0.005967458117 0.002933133961 -9.345547444e-05)
(0.004899515095 0.0002646305663 0.0009867678613)
(0.006628378925 0.0045746269 -0.0007506618952)
(0.007465462344 0.002894417655 0.00187074062)
(0.00612063664 0.00210940125 0.0009102387151)
(0.005605907929 -0.0001020241142 0.000264240462)
(0.01003933954 0.0005105654512 0.001439977063)
(0.005893616503 0.0003364966755 0.0002018608939)
(0.009003406207 0.001232161413 0.0002186259423)
(0.007272778981 1.944090904e-05 0.0008666798825)
(0.009668595098 0.002973973299 0.001154216554)
(0.01151453128 0.0008293187393 0.0007050435)
(0.01170943404 0.0004067996374 0.000137392297)
(0.01452575496 0.0003779358333 -0.0001867849212)
(0.003457895871 0.002099183808 0.0002102271227)
(0.007691812039 -0.0009633800285 -0.0003761369625)
(0.005506375565 0.0009767309931 0.0003043939834)
(0.003640711341 -0.0004834539104 1.735205711e-05)
(0.01506956102 0.0002094081 -0.001715370744)
(0.01103689579 0.001055073958 -0.0004303374469)
(0.008094503254 0.0006745366076 0.0003220825453)
(0.006782822946 0.0002961895841 0.0005110212436)
(0.01244232661 0.0006266920207 0.0001990704994)
(0.008596937894 0.0004480596094 4.263493113e-05)
(0.0107301017 0.001186481005 0.0003594810561)
(0.009441149653 0.00100788297 0.0001165018562)
(0.005753335247 0.0002604415111 0.0008340351466)
(0.01230066734 -0.000349314527 -0.0003902204168)
(0.01503268199 0.0001598881814 0.0003262145971)
(0.006185592437 0.0001780522647 -0.0002487653168)
(0.005037147788 0.001178276341 0.0006902609563)
(0.0107947515 0.002309257388 -0.0002113153028)
(0.009663128248 -0.0003261654587 0.0002000637425)
(0.007470888822 0.001340326091 0.0002783674164)
(0.01178585661 0.002435172981 -0.0003393236722)
(0.008157576859 -5.625691707e-05 0.0009817183481)
(0.008911775338 0.00015308432 5.605637846e-05)
(0.01452627279 -0.0002913034584 0.0003849711084)
(0.004615774719 -0.0002697609865 5.54044901e-05)
(0.003899646287 0.0005620416631 0.0006675177003)
(0.009418759644 -0.0004283989727 0.0003361556754)
(0.008915157453 0.0003106048082 -0.001165710243)
(0.009996942074 0.0002298223869 -3.915406061e-05)
(0.004116799556 0.001775800561 -5.916763334e-05)
(0.007346741573 0.002135591815 0.0008237725099)
(0.01361219494 8.965324496e-05 -0.0001689411717)
(0.006793207847 0.0001791405836 -0.0002399410238)
(0.01439665976 7.27090326e-05 0.0004640592482)
(0.008772932309 0.0004857561185 0.0003406481347)
(0.004754121186 0.0002863951992 0.0002233886843)
(0.006297943058 -0.0003318109896 -0.000314620011)
(0.002737852096 1.824028062e-07 0.0003168259329)
(0.01331788349 0.001545037746 -0.000837755583)
(0.00571872072 0.0006097884884 0.0008834004149)
(0.006172372955 0.0001719864961 0.0009954602568)
(0.006641866607 -0.0009491814981 -0.0002316938747)
(0.009084788828 0.0002217655236 0.0004889412526)
(0.004876764759 -0.0001361350886 0.0003971576575)
(0.005136828016 7.826814451e-05 -0.0006793223861)
(0.007815269225 0.0003742373559 0.00063992431)
(0.009576342984 -0.0001872160627 -7.626668502e-05)
(0.00866957129 -0.0006931137059 0.0004062380624)
(0.006580588555 0.001830912446 -0.0008119909815)
(0.0109030442 0.002368964363 -0.00235690558)
(0.01144668905 0.000163189965 -0.0006673425776)
(0.006044757458 -0.0005782224499 0.0003626580307)
(0.006115383562 2.760218972e-05 -6.405408966e-05)
(0.008583974238 0.0002718857634 -0.0002434068648)
(0.008136019212 0.001019778911 0.0001660573081)
(0.006495218779 -7.294529503e-06 -0.0001888980051)
(0.008225892983 -0.0004630785163 0.0006455557564)
(0.006566832452 0.0002286399316 -0.0003955188466)
(0.00709389265 -0.0002106215076 -0.0003653513049)
(0.01070843076 -0.0007116605086 -0.0002193556465)
(0.01037920397 0.0004990378349 0.0003199290721)
(0.01417359434 -0.0005038813359 0.001447952971)
(0.006328956314 -0.0003887187763 0.0002420610945)
(0.01113702231 -0.0001751968828 -0.0001704438781)
(0.00847484604 0.0005836668721 0.0003401128195)
(0.008694934866 2.902414146e-05 0.0003259938752)
(0.008909010769 0.0001218992001 0.0007736046742)
(0.007002992339 0.0005779855528 -6.922326919e-05)
(0.008629755685 0.000100213126 8.195099456e-05)
(0.008749239649 0.0002867662227 -3.536834848e-05)
(0.01362819742 -2.638267429e-05 -0.0008065368012)
(0.01019914466 3.919498208e-05 -8.902691617e-05)
(0.009018828503 0.0008084955685 -0.0003051620255)