/*--------------------------------*- C++ -*----------------------------------*\
| =========                 |                                                 |
| \\      /  F ield         | OpenFOAM: The Open Source CFD Toolbox           |
|  \\    /   O peration     | Version:  2406                                  |
|   \\  /    A nd           | Website:  www.openfoam.com                      |
|    \\/     M anipulation  |                                                 |
\*---------------------------------------------------------------------------*/
FoamFile
{
    version     2.0;
    format      ascii;
    arch        "LSB;label=32;scalar=64";
    class       volScalarField;
    location    "0.009";
    object      overallT;
}
// * * * * * * * * * * * * * * * * * * * * * * * * * * * * * * * * * * * * * //

dimensions      [1 2 -2 0 0 0 0];

internalField   nonuniform List<scalar> 
654
(
293.7335103
303.0625378
298.0821524
298.8562475
299.6395341
298.857136
299.1416218
298.6119858
298.417098
298.5404958
297.1877245
298.5869538
297.6345208
302.137505
309.0513572
320.5996624
340.225299
394.8610361
551.3261178
967.927464
294.9580359
303.1515268
300.335115
300.5931532
300.4544577
301.0950975
301.2876047
301.7314053
302.8229006
301.9352418
301.0787938
301.3269554
306.8669846
310.0262421
312.5110826
325.6364344
355.7525641
424.1837941
589.4281142
862.0046033
295.4493053
305.1578102
299.3531314
299.0352994
298.9649365
299.3837796
297.7752365
299.0675414
298.9218979
299.3746438
299.5015822
298.9726321
300.6635504
307.0273228
313.85369
323.2201981
364.1265016
417.5707486
544.2631015
714.9040192
291.7251608
301.9545411
299.1956207
299.1517531
298.2267715
297.5903416
297.1929283
298.1836456
299.0076996
297.9513617
299.3680989
301.0039767
302.2995791
304.559985
313.2521939
330.6243403
350.194646
401.9060838
486.0233918
607.5930393
292.7867299
303.1342008
297.9635918
298.5769378
300.3798282
300.3855255
301.312661
301.5930445
301.3401205
301.0382412
301.749692
302.8586276
304.0066339
304.6000716
308.6749062
322.0129552
340.4462883
379.9586656
438.2530574
520.2950119
293.5672132
302.9944882
299.3293563
299.4127254
298.6572069
296.9376421
297.3176576
298.2507645
297.9500109
300.670457
299.8342124
300.0291444
301.4777567
302.0929354
308.6580317
321.3802077
335.7787576
376.0526402
401.0247774
464.4618008
293.9425883
303.4425353
298.6634963
299.3256337
300.231105
301.722315
299.9233422
298.0993417
299.0233851
300.1900032
300.7177835
300.4743109
302.3305595
303.2818851
310.9755218
317.0590578
331.0451526
348.5027257
374.4994733
417.1347264
293.1185912
303.246034
299.8685922
302.090119
300.0685955
300.524803
301.3680999
301.6097512
301.5289983
301.5597547
300.2625662
301.3126764
301.2802905
303.3056336
310.1615075
311.9939776
320.2064692
339.2410997
354.4492584
378.6775826
296.6092954
306.5073517
301.105895
300.8482213
300.6316536
300.5717735
300.1016674
300.9856439
301.1395268
300.7328396
301.3774911
301.0588769
302.8714768
305.0798118
307.5987322
310.6707509
319.8861232
325.8349536
342.372402
360.3098898
295.3830926
304.0775622
299.9900403
300.1435814
300.8798877
301.7707594
300.7424026
299.2807596
299.942674
300.3922858
301.8131098
302.5408422
304.4487488
305.1831265
305.0855751
310.0446764
313.8113796
319.8446705
330.7593926
348.640922
295.178386
303.9476921
301.0847599
301.2657048
300.6744523
299.9901895
299.5340507
301.1012169
300.8891005
301.3334854
300.6215021
300.6468864
300.603716
300.6078621
304.4484212
304.136293
308.4984682
315.9967197
321.0900414
336.6388741
294.4167708
304.6225829
300.4571866
300.555348
300.6668626
299.9184784
300.2302271
298.7284504
302.2268477
301.1884244
300.4090893
300.5130151
300.2424564
302.2854682
302.2220702
304.8533893
308.1852057
313.240746
314.7841183
324.6173586
292.9777089
303.0267587
297.6302633
298.6373401
297.6346229
298.2744414
300.4486788
302.4036851
301.2275819
300.5006341
300.0382582
299.6303428
302.0405147
301.7008741
301.300344
303.0745157
304.2251012
306.901768
312.3512619
314.6646814
293.1807364
301.7164115
298.8149512
299.7699163
300.2729203
301.3656962
299.7431626
299.3522065
298.7002083
298.3296586
300.4215029
300.5047557
299.6270625
298.7218942
300.351787
300.9369954
301.8538901
303.5811149
307.4770771
312.0312244
295.2330669
306.0211688
301.4250556
299.3394368
299.8318964
298.9106057
297.0288118
297.2165865
297.5209396
298.9750673
299.3753812
300.0041045
299.085387
298.2495455
299.5889208
301.5378598
302.8165151
304.4200287
304.4816189
307.1868418
294.597285
302.856324
299.4064271
298.3736861
297.4282235
298.8128202
300.2289885
301.0547388
299.4922264
299.554314
300.4167984
299.1811781
299.383413
299.9052788
299.8778549
300.7833986
302.6356973
303.1241126
304.7118335
308.5903919
294.6764764
304.3640475
299.0011606
300.2126333
301.1247833
299.4896015
299.3485233
298.3713871
299.2552689
299.1415651
299.7355026
300.0626589
300.0396898
300.2278759
300.8234014
301.7518577
302.9551609
304.8702162
304.0783226
307.6576367
294.8948618
303.5742058
301.5514573
300.9342502
301.0967099
301.3727978
300.7824564
300.2637918
298.9945605
298.0540134
297.760431
297.0370526
298.7256756
299.7703206
301.0896385
299.8270676
298.5244268
299.7524191
301.8542561
304.0153587
290.8307707
301.4351858
296.7357578
297.5709442
297.8379744
299.0684857
299.6186705
299.3315076
299.8146355
300.984181
300.3325375
301.079572
299.6705208
298.2277767
298.9436478
300.3775505
300.4037083
299.7467547
299.9425674
300.2086281
293.476995
302.8156222
299.6898452
298.7062562
299.1526802
297.4583525
297.2315505
297.3277473
296.8725457
295.3857344
296.2668115
297.941215
300.2665079
300.9102949
301.826791
300.403077
300.3411908
301.0076301
301.5129666
301.9859284
295.3165951
303.9631598
298.4509921
298.4829038
299.0687065
299.9670921
299.7757422
300.7451852
301.364985
302.8489488
302.0741141
302.056768
300.6267728
299.3909352
299.0739677
300.5517717
301.7335459
301.6884785
300.7451492
301.9738381
294.171699
303.7351503
299.203768
300.1116801
299.6619179
300.131347
300.5136185
301.6620642
301.392704
300.5140651
300.8410064
300.2921111
301.0623082
301.6911675
302.3071003
300.7278651
300.0430179
301.8956283
301.7542595
301.3019151
1057.45815
995.9538582
963.4080502
937.1023073
917.9836515
901.7018957
891.8653736
869.9400938
863.5199493
850.5708926
1008.232788
1007.607164
993.3331602
981.5326083
973.306011
967.5402546
955.2173092
949.3418767
937.3550196
930.1754952
868.306264
925.7067386
937.2994379
951.9536042
950.7425418
949.5415469
944.6969449
937.999272
933.1024743
927.5131895
733.1283686
810.3034271
854.2991535
883.47762
897.7453079
899.7014625
906.2010861
897.8612797
907.6085268
915.7013611
609.0049464
691.1021092
750.5807644
803.0511494
827.9149149
849.3083165
866.761633
861.5217031
872.7961512
877.8382579
534.9762118
610.3420502
660.7307784
714.0386891
749.1994378
780.1000725
811.5599621
824.6599213
842.7136328
846.3671094
463.8457603
526.4722529
567.6180481
630.2186335
663.9226329
704.4394995
734.5218973
761.2883686
780.1356527
798.2415096
416.2148062
468.2684687
497.6037428
556.2050854
592.8886752
635.3955314
665.6689763
701.1599474
728.6165794
744.7326918
390.5022484
426.409472
449.222224
491.904362
524.0077099
566.6349283
607.3558338
635.5959935
664.4172861
689.9310985
362.4405944
382.4079899
417.2274193
446.9449926
466.5836586
506.095663
543.1071767
568.5191038
602.1739362
631.1258696
345.9487193
363.8747812
384.6029364
410.679673
428.3741852
463.4262221
494.8604065
519.8176304
545.8866443
572.3951722
332.6377688
346.878064
360.1691684
380.9505382
392.5654726
418.6305603
445.369183
464.7712946
492.347821
517.5832741
323.5269156
333.6501682
347.8147415
356.011851
365.3925761
389.8485221
407.8449662
428.1351335
443.0316855
471.5075673
321.4041487
326.0148787
334.7228453
341.5418605
352.6499026
358.8645034
377.1852028
398.256981
417.9751397
432.1223847
315.990788
316.9766744
322.9605978
327.6301232
341.4093666
349.9387812
359.770106
376.4483108
394.4701285
408.2988857
307.5886635
313.4813809
317.9946817
323.7046574
328.3605021
340.9452301
346.9798907
356.6076186
371.1393866
382.595013
308.9839402
311.3517737
315.1413315
316.2225778
317.2266169
326.956547
335.0505676
343.8344313
350.6749072
360.6830943
307.2308603
307.9228244
309.3820494
311.071944
312.9989473
317.9637967
323.0656814
328.6299607
338.4400358
345.5023949
301.0252257
306.8413009
309.4412865
310.2156796
312.1596471
315.1119119
318.1554324
323.7919987
327.2517684
334.6295391
303.2361706
303.5933011
305.467482
305.2692941
307.5942726
309.7678202
311.9212619
317.7445875
322.0939677
324.9864135
301.5592556
301.9885168
303.4669028
302.7643519
304.4090881
306.3175291
309.3042679
314.6642187
318.6335286
321.0958053
299.0882061
299.6246763
301.1384283
303.2317279
)
;

boundaryField
{
    flow
    {
        type            calculated;
        value           nonuniform List<scalar> 
42
(
293.7335103
294.9580359
295.4493053
291.7251608
292.7867299
293.5672132
293.9425883
293.1185912
296.6092954
295.3830926
295.178386
294.4167708
292.9777089
293.1807364
295.2330669
294.597285
294.6764764
294.8948618
290.8307707
293.476995
295.3165951
294.171699
293.7335103
303.0625378
298.0821524
298.8562475
299.6395341
298.857136
299.1416218
298.6119858
298.417098
298.5404958
297.1877245
298.5869538
297.6345208
302.137505
309.0513572
320.5996624
340.225299
394.8610361
551.3261178
967.927464
)
;
    }
    obstacle
    {
        type            calculated;
        value           nonuniform List<scalar> 10(935.7805642 878.7721137 827.4149959 799.5330938 778.8054908 770.9924063 775.2783152 751.5212802 743.9895961 735.5815573);
    }
    frontAndBack
    {
        type            empty;
    }
    procBoundary0to1
    {
        type            processor;
        value           nonuniform List<scalar> 
21
(
843.6890125
918.0426311
928.6060211
908.5900001
877.6715527
847.2874067
814.0462217
765.8669051
714.8429971
658.6382762
598.6388378
554.4833138
497.6389474
458.0972293
421.0161306
396.0233539
374.1006569
358.9832238
343.3487485
335.8111623
322.872201
)
;
    }
    procBoundary0to2
    {
        type            processor;
        value           nonuniform List<scalar> 
31
(
292.9765662
304.0098395
300.3320639
300.7645505
299.9908288
298.6180222
299.2828518
300.2467462
299.8340019
300.15477
301.125515
301.9595255
301.3172117
300.3612341
299.4478338
299.6634987
298.0900637
297.4139147
297.5218973
299.0243095
304.7391547
306.7017621
305.2083313
305.8066381
310.2123579
312.7955922
300.16316
301.9536014
301.7633235
304.7391547
302.4312516
)
;
    }
}


// ************************************************************************* //
