/*--------------------------------*- C++ -*----------------------------------*\
| =========                 |                                                 |
| \\      /  F ield         | OpenFOAM: The Open Source CFD Toolbox           |
|  \\    /   O peration     | Version:  2406                                  |
|   \\  /    A nd           | Website:  www.openfoam.com                      |
|    \\/     M anipulation  |                                                 |
\*---------------------------------------------------------------------------*/
FoamFile
{
    version     2.0;
    format      ascii;
    arch        "LSB;label=32;scalar=64";
    class       volScalarField;
    location    "0.009";
    object      p;
}
// * * * * * * * * * * * * * * * * * * * * * * * * * * * * * * * * * * * * * //

dimensions      [1 -1 -2 0 0 0 0];

internalField   nonuniform List<scalar> 
654
(
0.3063268606
0.4127573372
0.4034177059
0.4070679573
0.4098920507
0.4089702094
0.4100742015
0.4101829359
0.4080898966
0.4066556012
0.4040965119
0.4046658976
0.402462086
0.4133282053
0.4285598479
0.4555575629
0.4978942947
0.6317949398
1.022887833
2.490813185
0.3105511251
0.419485692
0.4158283963
0.4141294304
0.4118541047
0.4139618271
0.4123954431
0.4142403499
0.4155618895
0.4133489702
0.4129542914
0.4174453709
0.429588784
0.4389567218
0.4459251238
0.4794016912
0.549571867
0.7187130946
1.159604852
2.074125017
0.3143063278
0.4288806095
0.4157435351
0.4146380438
0.4126122846
0.4142015693
0.4130908825
0.4141671717
0.4155872556
0.4146900521
0.4154999283
0.4118485435
0.4126882148
0.4289424372
0.4425935186
0.4637919285
0.5592025708
0.6870613415
1.005273491
1.515332195
0.3089332379
0.4182937102
0.4156391488
0.4152561707
0.4105221815
0.4106558892
0.4086406475
0.4115686492
0.4114434613
0.4131880145
0.4143359466
0.4175403902
0.4215972241
0.4215116471
0.4417446184
0.476640431
0.5215874809
0.6446837442
0.8551029335
1.195785713
0.3108598151
0.4217923355
0.4084147998
0.4092479343
0.4148642281
0.416650015
0.4171824622
0.4151477144
0.4119369875
0.4113998174
0.4108919657
0.4143568803
0.4190523837
0.4196676791
0.4274158409
0.4632686222
0.5076644295
0.6017599801
0.7405521237
0.9549144175
0.308617846
0.4170107503
0.4143732597
0.4132879229
0.410321361
0.4047113566
0.405617723
0.410922964
0.4119118593
0.4177890257
0.4152469787
0.4143694456
0.4144028139
0.4152883887
0.4368248457
0.4612349179
0.4935424726
0.5810857874
0.6472383985
0.8024348371
0.3127044629
0.4232563754
0.4144315491
0.4145309446
0.4202892357
0.4206644637
0.4175440254
0.4128896147
0.4145652016
0.4200099091
0.4193576937
0.4205932357
0.4246402405
0.4248711783
0.4404171916
0.4507229114
0.4850498991
0.5267830705
0.5934937942
0.6947857878
0.3079954544
0.4167196672
0.4118745222
0.4157581219
0.4123600945
0.4143686615
0.4180026895
0.4193251424
0.419791865
0.4178273682
0.4153130018
0.4148966213
0.415792126
0.4216368329
0.4384961701
0.4436695258
0.4601202631
0.5019379879
0.5372118021
0.5958019797
0.3133719877
0.4281752756
0.4186340304
0.4187699586
0.416042152
0.4158452284
0.4166740012
0.4193598301
0.4143765019
0.4119513075
0.4162974537
0.4171816161
0.4193112807
0.425266165
0.427756782
0.4370231826
0.4607829735
0.472096232
0.5124531094
0.5558519414
0.3108593776
0.4155421616
0.4111251345
0.4113164868
0.4127995879
0.4148536062
0.4130982974
0.4099390527
0.416536736
0.4185740588
0.4209163058
0.4234871844
0.4269684795
0.4268743555
0.4278664752
0.4384640941
0.4478081464
0.4570119445
0.4826670261
0.5216154647
0.312538101
0.4206754436
0.4132174732
0.4126008805
0.4101112524
0.4066123502
0.4053872605
0.4109038309
0.4098566658
0.4136526475
0.4149529222
0.4137672253
0.4172582091
0.4190134488
0.4270468767
0.4204301725
0.4306760715
0.4492298263
0.4648568855
0.502468488
0.3112960865
0.4235880797
0.4175959384
0.4152265723
0.4182533231
0.4156751725
0.4188251793
0.4160981751
0.4247140348
0.4184217842
0.4147504916
0.4103429587
0.4071029236
0.4154090348
0.4178878703
0.4309971329
0.441852484
0.4500011999
0.4509848089
0.4694752918
0.3120324272
0.4243779937
0.4131010061
0.4150048135
0.4116869077
0.4127620707
0.4173621218
0.4178267943
0.413438303
0.4126887621
0.416055448
0.4169286903
0.4233371218
0.4200687197
0.414848821
0.4231697667
0.4240881866
0.4307878417
0.4462675562
0.449312594
0.3123924834
0.4226741528
0.4197997423
0.4213274639
0.4208948863
0.4232824005
0.4175193654
0.4181605034
0.4173808033
0.4147607487
0.4174597527
0.4183424771
0.4153324518
0.4130917588
0.4169530622
0.4142458169
0.4149875359
0.4173854793
0.4262214075
0.4398700102
0.3113069823
0.4247536524
0.4150635963
0.4103374278
0.4156186348
0.413292739
0.4128625884
0.4118204106
0.4150106579
0.4171791305
0.4151246738
0.417310313
0.4180371483
0.4135505448
0.4158947632
0.4194145659
0.4226398789
0.4254002426
0.4232813033
0.425825827
0.3123233791
0.4208627158
0.4149006442
0.4132851194
0.4090616261
0.4112150777
0.413866937
0.4133446851
0.4133285127
0.4129324255
0.4156443817
0.4103916216
0.4062991658
0.4097264053
0.4124157778
0.4154173173
0.4198910999
0.4207871452
0.4264146651
0.4291651914
0.3117577116
0.4202486751
0.4093250763
0.4128792467
0.4133564246
0.4125514281
0.4089598207
0.4081201792
0.4076287012
0.4062639407
0.4083408359
0.4102854745
0.4103427866
0.4134097008
0.4123578372
0.4156044423
0.417893918
0.4230961961
0.4197639349
0.4267484458
0.3076368962
0.4173235787
0.4147854812
0.414735603
0.4130273035
0.4112617984
0.4123975307
0.410875986
0.4075026247
0.4073354845
0.407253791
0.4060616276
0.4117441028
0.4129759247
0.4152695542
0.4132112397
0.412102869
0.4128690217
0.416678772
0.4230138062
0.3085553062
0.4200408348
0.4097946018
0.4067563023
0.4110161139
0.4151841743
0.4166626327
0.4173090796
0.4166379885
0.4172484776
0.4152599656
0.4171728087
0.4118214209
0.4098365332
0.410973556
0.4131181776
0.4127242235
0.410991262
0.4111846876
0.4101015885
0.3108121679
0.4221987341
0.4202532355
0.4185654546
0.4157879915
0.4130558181
0.4124762446
0.4106635692
0.4103173995
0.4095708677
0.4109923335
0.4128067751
0.4179722764
0.417575963
0.4178624936
0.4138121945
0.4137134927
0.415764831
0.4206880785
0.4221459839
0.3109848482
0.41835101
0.4053120521
0.4088448394
0.4110167577
0.4140966838
0.4119891539
0.4091123909
0.4120029178
0.4144977224
0.4153963196
0.4178024346
0.4136559553
0.4145387429
0.4155263516
0.4197995135
0.4210761683
0.4200889871
0.4182174095
0.4195782508
0.3100704199
0.4206114046
0.4117857362
0.4094008799
0.4092808033
0.4092667554
0.4140721638
0.418588962
0.4209214216
0.4187725972
0.415225214
0.413105209
0.4176555943
0.4189024516
0.4194052329
0.4156960279
0.4151601913
0.4187964337
0.4204082633
0.4196211033
4.669811507
4.81378166
4.758747768
4.642180066
4.517780568
4.469292008
4.381936987
4.246180069
4.109344395
4.026974965
3.055941471
3.546715246
3.798697392
3.944552814
4.050618573
4.136494466
4.065616534
4.083768495
4.026854871
3.951205969
2.156323402
2.641519818
2.915563452
3.209013331
3.387158471
3.546093261
3.626154199
3.676528978
3.707328041
3.711008097
1.621547646
1.973309236
2.266671015
2.569569924
2.77523634
2.93902889
3.136688609
3.191694117
3.311641114
3.439260758
1.213917513
1.504019135
1.76388523
2.03864372
2.254592629
2.444428556
2.628819217
2.728152952
2.915424098
3.077771997
0.9886978275
1.218391604
1.402174482
1.620924996
1.808296557
2.025727057
2.250317728
2.410563615
2.596299371
2.709643991
0.8133802189
0.9829324584
1.115636502
1.326852565
1.462256825
1.663043119
1.837318952
2.018702243
2.203865776
2.375744488
0.6913178645
0.8241608992
0.9106618911
1.086955358
1.209820867
1.366474552
1.518836974
1.682209064
1.86603927
2.00520903
0.6251188535
0.7161365046
0.7815566522
0.8991945002
0.9918042937
1.128025818
1.278731249
1.392701108
1.545224069
1.69286644
0.5601137512
0.610865641
0.7008747704
0.7736985548
0.8296748126
0.9401678643
1.061789407
1.152332935
1.27725453
1.403881152
0.5229290426
0.5611460257
0.6204921851
0.6852334015
0.7332100938
0.8207767624
0.910463915
0.9990707643
1.082931678
1.183126063
0.4897327118
0.5201394663
0.5491990398
0.6038144047
0.6297733313
0.7011256031
0.7712998039
0.8350400097
0.9249022712
0.9987912961
0.4689388163
0.4944084927
0.5252359001
0.5425986931
0.5666933364
0.6316122724
0.6827457595
0.7328421142
0.7697710843
0.8618050784
0.4601680864
0.4713116319
0.4947053216
0.5099524077
0.5353518258
0.5498010287
0.5932821793
0.6478999123
0.7062468535
0.749518213
0.4469886679
0.4488493413
0.4627120153
0.473820715
0.501257207
0.5289478827
0.5500045486
0.5920322004
0.6337089126
0.6717579956
0.430917523
0.4432964319
0.4543270026
0.4666646576
0.480016838
0.5037645691
0.5199113964
0.5470214987
0.5839588761
0.6111866615
0.4270739447
0.4372910465
0.4425769896
0.4463852686
0.4478192647
0.4681129668
0.4893734104
0.5094134436
0.5230221419
0.5572555884
0.428018467
0.4243582722
0.4285669323
0.4343361679
0.4426441367
0.4550059923
0.4657492877
0.4772950807
0.4967892986
0.5148102221
0.4150412205
0.4312015864
0.4370409673
0.4404544405
0.4432844812
0.4483096013
0.4548168324
0.4658094745
0.4750365133
0.49387524
0.4232760372
0.4252803147
0.4276897179
0.4261944834
0.4321506852
0.4379023309
0.442904637
0.4577628971
0.4635688204
0.4683782556
0.4174891326
0.4182791922
0.4213907358
0.4191277275
0.4218056278
0.4253486263
0.4286348117
0.4441463317
0.4583932124
0.4637426839
0.4127563083
0.4140294133
0.4160842612
0.4229836374
)
;

boundaryField
{
    flow
    {
        type            calculated;
        value           nonuniform List<scalar> 
42
(
0.3063268606
0.3105511251
0.3143063278
0.3089332379
0.3108598151
0.308617846
0.3127044629
0.3079954544
0.3133719877
0.3108593776
0.312538101
0.3112960865
0.3120324272
0.3123924834
0.3113069823
0.3123233791
0.3117577116
0.3076368962
0.3085553062
0.3108121679
0.3109848482
0.3100704199
0.3063268606
0.4127573372
0.4034177059
0.4070679573
0.4098920507
0.4089702094
0.4100742015
0.4101829359
0.4080898966
0.4066556012
0.4040965119
0.4046658976
0.402462086
0.4133282053
0.4285598479
0.4555575629
0.4978942947
0.6317949398
1.022887833
2.490813185
)
;
    }
    obstacle
    {
        type            calculated;
        value           nonuniform List<scalar> 10(3.681308501 3.682113966 3.637521866 3.492039258 3.523108711 3.463471614 3.463052222 3.449240371 3.354770801 3.31200273);
    }
    frontAndBack
    {
        type            empty;
    }
    procBoundary0to1
    {
        type            processor;
        value           nonuniform List<scalar> 
21
(
3.943087754
3.901634582
3.673221579
3.425636431
3.134445956
2.838296911
2.524860995
2.146793507
1.853355962
1.545614343
1.301864468
1.120418742
0.9391641084
0.8118494116
0.7182643652
0.6431738133
0.590875733
0.5479686673
0.5173229982
0.4945730705
0.466116931
)
;
    }
    procBoundary0to2
    {
        type            processor;
        value           nonuniform List<scalar> 
31
(
0.3069354261
0.418658955
0.4150526751
0.4150734298
0.4142224712
0.41186677
0.4142606482
0.4145576334
0.4117197637
0.4159543833
0.4202196401
0.4224206521
0.4191583042
0.4154959412
0.4129982403
0.4139063319
0.4123920395
0.4101390206
0.4073856126
0.4095845748
0.4258192817
0.4300194237
0.4273280185
0.4285968631
0.4380922641
0.447866853
0.4143380481
0.4188613564
0.418341734
0.4258192817
0.4166748254
)
;
    }
}


// ************************************************************************* //
