/*--------------------------------*- C++ -*----------------------------------*\
| =========                 |                                                 |
| \\      /  F ield         | OpenFOAM: The Open Source CFD Toolbox           |
|  \\    /   O peration     | Version:  2406                                  |
|   \\  /    A nd           | Website:  www.openfoam.com                      |
|    \\/     M anipulation  |                                                 |
\*---------------------------------------------------------------------------*/
FoamFile
{
    version     2.0;
    format      ascii;
    arch        "LSB;label=32;scalar=64";
    class       volScalarField;
    location    "0.009";
    object      rhoM;
}
// * * * * * * * * * * * * * * * * * * * * * * * * * * * * * * * * * * * * * //

dimensions      [1 -3 0 0 0 0 0];

internalField   nonuniform List<scalar> 
654
(
4.080829287e-06
1.937003643e-06
6.155714265e-06
6.086773598e-06
4.427198864e-06
7.124216086e-06
3.458697042e-06
3.52763771e-06
5.049331109e-06
6.708905843e-06
5.602522687e-06
2.490195221e-06
6.433143174e-06
5.464641352e-06
4.565080198e-06
5.464641352e-06
5.879951596e-06
4.01188862e-06
3.389756375e-06
6.502083841e-06
3.458697042e-06
6.639965176e-06
6.502083841e-06
4.427198864e-06
2.974446132e-06
3.112327466e-06
4.980390442e-06
3.596578377e-06
4.080829287e-06
6.155714265e-06
5.948892263e-06
4.080829287e-06
2.00594431e-06
3.942947953e-06
6.502083841e-06
6.986334752e-06
6.155714265e-06
4.911449774e-06
3.596578377e-06
5.53358202e-06
6.086773598e-06
3.112327466e-06
3.942947953e-06
4.01188862e-06
5.948892263e-06
6.502083841e-06
5.53358202e-06
4.496139531e-06
5.53358202e-06
4.01188862e-06
6.77951275e-06
5.464641352e-06
2.421254554e-06
4.496139531e-06
3.458697042e-06
4.842509107e-06
4.496139531e-06
4.427198864e-06
6.155714265e-06
7.954836573e-06
2.974446132e-06
3.874007286e-06
4.080829287e-06
3.874007286e-06
6.571024508e-06
3.043386799e-06
2.905505464e-06
7.885895906e-06
5.049331109e-06
4.496139531e-06
5.948892263e-06
7.124216086e-06
2.905505464e-06
3.942947953e-06
3.458697042e-06
5.602522687e-06
4.427198864e-06
4.980390442e-06
8.992279062e-06
6.01783293e-06
4.080829287e-06
6.433143174e-06
4.980390442e-06
4.496139531e-06
4.358258196e-06
7.124216086e-06
4.565080198e-06
5.326760018e-06
1.937003643e-06
4.01188862e-06
3.043386799e-06
3.52763771e-06
6.086773598e-06
3.942947953e-06
6.917394084e-06
5.464641352e-06
7.608466997e-06
4.980390442e-06
2.974446132e-06
7.055275419e-06
3.458697042e-06
4.702961533e-06
4.496139531e-06
5.464641352e-06
3.043386799e-06
2.559135888e-06
5.811010928e-06
4.980390442e-06
9.685018214e-07
7.401644995e-06
5.740404021e-06
4.842509107e-06
4.01188862e-06
3.665519044e-06
4.01188862e-06
3.942947953e-06
7.262097421e-06
4.565080198e-06
5.395700685e-06
6.433143174e-06
3.458697042e-06
4.358258196e-06
6.086773598e-06
5.53358202e-06
6.01783293e-06
7.954836573e-06
2.490195221e-06
5.464641352e-06
7.954836573e-06
3.043386799e-06
5.395700685e-06
3.942947953e-06
4.01188862e-06
3.52763771e-06
1.937003643e-06
5.049331109e-06
6.502083841e-06
3.942947953e-06
4.496139531e-06
4.358258196e-06
3.043386799e-06
3.458697042e-06
3.458697042e-06
5.53358202e-06
2.559135888e-06
3.389756375e-06
4.218710622e-06
1.937003643e-06
7.470585662e-06
7.193156754e-06
7.608466997e-06
3.942947953e-06
6.433143174e-06
3.181268133e-06
6.502083841e-06
3.942947953e-06
3.389756375e-06
6.917394084e-06
4.565080198e-06
4.080829287e-06
3.942947953e-06
4.634020865e-06
5.948892263e-06
4.496139531e-06
4.980390442e-06
4.01188862e-06
7.055275419e-06
6.502083841e-06
4.496139531e-06
2.490195221e-06
1.521693399e-06
8.923338395e-06
3.458697042e-06
7.470585662e-06
6.986334752e-06
4.911449774e-06
3.874007286e-06
4.980390442e-06
3.942947953e-06
5.049331109e-06
4.01188862e-06
4.842509107e-06
5.671463354e-06
6.433143174e-06
5.948892263e-06
2.421254554e-06
4.980390442e-06
4.980390442e-06
3.942947953e-06
9.685018214e-07
4.842509107e-06
2.490195221e-06
1.521693399e-06
5.464641352e-06
3.458697042e-06
3.043386799e-06
4.496139531e-06
4.01188862e-06
3.52763771e-06
5.948892263e-06
2.974446132e-06
5.53358202e-06
3.942947953e-06
3.942947953e-06
4.427198864e-06
7.124216086e-06
4.911449774e-06
5.395700685e-06
2.905505464e-06
6.01783293e-06
8.923338395e-06
4.080829287e-06
5.602522687e-06
4.496139531e-06
5.049331109e-06
2.974446132e-06
4.565080198e-06
2.974446132e-06
2.559135888e-06
4.911449774e-06
4.565080198e-06
3.043386799e-06
4.496139531e-06
4.427198864e-06
4.496139531e-06
4.427198864e-06
5.187212443e-06
7.954836573e-06
4.496139531e-06
2.974446132e-06
3.52763771e-06
4.980390442e-06
4.427198864e-06
5.395700685e-06
4.287651289e-06
3.458697042e-06
5.948892263e-06
4.496139531e-06
3.52763771e-06
5.948892263e-06
3.942947953e-06
5.464641352e-06
5.948892263e-06
2.074884977e-06
4.01188862e-06
5.187212443e-06
2.421254554e-06
7.401644995e-06
5.53358202e-06
5.049331109e-06
6.364202506e-06
4.842509107e-06
4.634020865e-06
6.086773598e-06
4.358258196e-06
3.112327466e-06
6.848453417e-06
9.960780883e-06
4.01188862e-06
4.01188862e-06
4.980390442e-06
3.458697042e-06
5.948892263e-06
6.502083841e-06
2.490195221e-06
6.502083841e-06
2.490195221e-06
6.01783293e-06
5.879951596e-06
5.464641352e-06
3.52763771e-06
5.049331109e-06
3.52763771e-06
4.427198864e-06
7.53952633e-06
5.395700685e-06
4.496139531e-06
9.54547064e-06
6.155714265e-06
5.395700685e-06
3.52763771e-06
4.496139531e-06
3.596578377e-06
3.52763771e-06
6.502083841e-06
5.948892263e-06
3.52763771e-06
4.01188862e-06
4.634020865e-06
4.565080198e-06
4.565080198e-06
5.187212443e-06
3.458697042e-06
5.602522687e-06
5.464641352e-06
3.043386799e-06
3.52763771e-06
4.427198864e-06
6.086773598e-06
3.52763771e-06
3.942947953e-06
6.01783293e-06
3.596578377e-06
5.602522687e-06
5.879951596e-06
4.911449774e-06
2.490195221e-06
5.602522687e-06
5.187212443e-06
3.458697042e-06
3.596578377e-06
3.043386799e-06
4.427198864e-06
4.358258196e-06
8.439087484e-06
3.942947953e-06
4.427198864e-06
7.470585662e-06
6.986334752e-06
3.389756375e-06
2.490195221e-06
6.986334752e-06
5.464641352e-06
4.911449774e-06
4.842509107e-06
4.911449774e-06
6.502083841e-06
4.080829287e-06
2.00594431e-06
6.986334752e-06
4.842509107e-06
2.974446132e-06
5.395700685e-06
4.427198864e-06
2.974446132e-06
5.118271776e-06
5.395700685e-06
4.565080198e-06
2.421254554e-06
2.490195221e-06
4.496139531e-06
5.049331109e-06
6.986334752e-06
5.464641352e-06
4.496139531e-06
3.52763771e-06
3.942947953e-06
5.049331109e-06
4.427198864e-06
5.879951596e-06
4.980390442e-06
6.502083841e-06
4.149769955e-06
6.086773598e-06
7.954836573e-06
3.458697042e-06
5.049331109e-06
3.52763771e-06
4.702961533e-06
4.427198864e-06
2.559135888e-06
3.52763771e-06
4.496139531e-06
5.879951596e-06
3.458697042e-06
3.458697042e-06
7.470585662e-06
3.596578377e-06
5.049331109e-06
5.395700685e-06
5.395700685e-06
2.00594431e-06
5.256153111e-06
3.043386799e-06
5.464641352e-06
5.53358202e-06
5.53358202e-06
4.358258196e-06
4.496139531e-06
5.118271776e-06
3.942947953e-06
5.118271776e-06
5.464641352e-06
5.049331109e-06
6.502083841e-06
4.980390442e-06
5.53358202e-06
2.421254554e-06
8.78379082e-06
4.980390442e-06
4.01188862e-06
3.043386799e-06
5.602522687e-06
4.565080198e-06
4.427198864e-06
2.974446132e-06
2.490195221e-06
7.055275419e-06
2.974446132e-06
6.086773598e-06
3.458697042e-06
4.980390442e-06
4.634020865e-06
2.00594431e-06
2.905505464e-06
4.496139531e-06
5.118271776e-06
4.980390442e-06
6.502083841e-06
6.639965176e-06
4.358258196e-06
5.879951596e-06
4.911449774e-06
5.049331109e-06
4.01188862e-06
4.496139531e-06
7.055275419e-06
7.055275419e-06
4.427198864e-06
7.055275419e-06
2.974446132e-06
5.049331109e-06
5.879951596e-06
3.52763771e-06
5.602522687e-06
4.427198864e-06
5.602522687e-06
2.905505464e-06
2.421254554e-06
2.421254554e-06
3.942947953e-06
4.565080198e-06
4.980390442e-06
6.986334752e-06
2.421254554e-06
5.602522687e-06
3.458697042e-06
2.974446132e-06
3.596578377e-06
5.53358202e-06
1.207834741e-05
1.13237853e-05
1.717257747e-05
1.424487615e-05
1.213132105e-05
1.444631519e-05
2.113495169e-05
1.603755718e-05
1.75492002e-05
1.885991241e-05
1.110641104e-05
1.006483864e-05
9.008843152e-06
1.282711034e-05
1.191793668e-05
7.187342081e-06
1.288470976e-05
1.261207019e-05
1.094146965e-05
1.213038565e-05
8.190601906e-06
9.155879999e-06
9.994238343e-06
9.212917133e-06
8.207240327e-06
1.149905482e-05
1.896374362e-05
1.210170446e-05
1.174825573e-05
1.75294629e-05
6.177544004e-06
1.097379729e-05
6.052657558e-06
6.732253727e-06
6.850648581e-06
8.408532348e-06
9.193307324e-06
1.020555857e-05
7.416285416e-06
9.911782035e-06
4.026115804e-06
8.107599611e-06
6.192943928e-06
9.638417597e-06
4.0680561e-06
1.070938208e-05
4.632724224e-06
1.115363151e-05
8.590757238e-06
1.176002451e-05
4.928867033e-06
6.43068772e-06
1.11900631e-05
1.488398039e-06
6.708392328e-06
5.749527404e-06
6.369341952e-06
1.180931427e-05
7.857154537e-06
1.013292974e-05
4.442898844e-06
7.059319223e-06
6.615498342e-06
7.583254652e-06
8.278368454e-06
5.677896368e-06
3.547120189e-06
7.217778784e-06
6.31499699e-06
5.472793145e-06
3.401777319e-06
6.080699713e-06
3.589169563e-06
5.598723923e-06
4.56767209e-06
7.833752734e-06
7.238522625e-06
7.946120075e-06
9.326128704e-06
3.254189527e-06
4.581269141e-06
3.564490048e-06
2.533631178e-06
8.858048897e-06
6.992904844e-06
5.174747793e-06
4.270275012e-06
8.383827289e-06
4.919206219e-06
7.988042017e-06
5.484020373e-06
3.494829178e-06
7.038052756e-06
8.787416675e-06
3.282208485e-06
3.090522469e-06
8.758716992e-06
6.85273009e-06
5.360075346e-06
7.470249063e-06
4.512083993e-06
5.032419321e-06
8.866861472e-06
2.480663401e-06
2.569208108e-06
5.749527408e-06
4.704865344e-06
6.269705833e-06
2.716629368e-06
5.325361345e-06
7.080295232e-06
3.634150924e-06
7.953304769e-06
5.102591243e-06
3.068824105e-06
4.096819611e-06
1.592335496e-06
8.456485862e-06
3.671551031e-06
4.142343653e-06
3.956930656e-06
5.521729093e-06
3.096471975e-06
2.551295623e-06
4.567672075e-06
5.892789487e-06
5.646187123e-06
4.738608597e-06
7.04859965e-06
7.470249063e-06
3.470962456e-06
3.634150899e-06
5.067262322e-06
4.535826328e-06
3.497311977e-06
5.677896352e-06
3.619261292e-06
4.08292586e-06
6.241813573e-06
5.916870157e-06
7.497078312e-06
3.703811804e-06
6.405068783e-06
5.031959041e-06
5.28067251e-06
5.749527436e-06
4.270275021e-06
4.665950144e-06
4.846022842e-06
7.617680863e-06
6.108358847e-06
5.032419334e-06
5.067262391e-06
6.236121073e-06
5.280672474e-06
5.103116774e-06
4.777006477e-06
3.645218621e-06
3.817917778e-06
7.396533163e-06
3.470962463e-06
3.984138917e-06
5.137405507e-06
5.528091685e-06
5.78028847e-06
5.031485695e-06
4.125992774e-06
6.342364392e-06
4.258786933e-06
3.180473627e-06
4.026115799e-06
6.50034861e-06
4.92697602e-06
8.291283966e-06
4.638800192e-06
3.090522461e-06
4.342416114e-06
1.173665575e-05
5.140525189e-06
6.360947254e-06
4.442898868e-06
7.198640989e-06
4.574564758e-06
9.638417623e-06
4.139184227e-06
5.174747783e-06
3.619261318e-06
3.134852914e-06
6.461363744e-06
4.216059566e-06
6.386771589e-06
8.107599633e-06
5.559959955e-06
6.165488808e-06
3.139952234e-06
6.755824582e-06
5.718328266e-06
5.176315844e-06
5.87412788e-06
6.064302e-06
5.484020362e-06
2.51620965e-06
3.941580789e-06
6.377385518e-06
6.708392337e-06
3.162153504e-06
2.243349196e-06
4.665950144e-06
5.654577707e-06
5.251645445e-06
3.470962463e-06
5.521729056e-06
3.519026376e-06
2.551295632e-06
)
;

boundaryField
{
    flow
    {
        type            zeroGradient;
    }
    obstacle
    {
        type            calculated;
        value           nonuniform List<scalar> 10(5.980614577e-24 1.801875689e-24 4.569347306e-24 1.178889276e-23 1e-300 1.6993407e-23 1e-300 2.19449129e-23 3.266182287e-24 6.648012262e-24);
    }
    frontAndBack
    {
        type            empty;
    }
    procBoundary0to1
    {
        type            processor;
        value           nonuniform List<scalar> 
21
(
1.378406247e-05
1.408108735e-05
1.408108734e-05
1.43056507e-05
1.586862066e-05
1.125037759e-05
5.737470465e-06
1.229355402e-05
3.725373787e-06
7.972335793e-06
7.450747569e-06
4.917062682e-06
5.88598288e-06
2.160609106e-06
6.407571149e-06
7.077671757e-06
5.811726664e-06
7.003415591e-06
4.246962027e-06
9.089768431e-06
5.811726706e-06
)
;
    }
    procBoundary0to2
    {
        type            processor;
        value           nonuniform List<scalar> 
31
(
3.043386799e-06
4.496139531e-06
4.565080198e-06
4.980390442e-06
6.986334752e-06
3.52763771e-06
4.01188862e-06
4.911449774e-06
5.948892263e-06
5.948892263e-06
4.427198864e-06
5.602522687e-06
4.565080198e-06
4.427198864e-06
5.118271776e-06
4.01188862e-06
5.53358202e-06
4.496139531e-06
5.187212443e-06
8.645909486e-06
4.0680561e-06
3.736933118e-06
4.777006444e-06
4.155584379e-06
4.772839451e-06
5.251645445e-06
5.484020362e-06
6.848652976e-06
4.926975987e-06
4.0680561e-06
2.551295614e-06
)
;
    }
}


// ************************************************************************* //
