/*--------------------------------*- C++ -*----------------------------------*\
| =========                 |                                                 |
| \\      /  F ield         | OpenFOAM: The Open Source CFD Toolbox           |
|  \\    /   O peration     | Version:  2406                                  |
|   \\  /    A nd           | Website:  www.openfoam.com                      |
|    \\/     M anipulation  |                                                 |
\*---------------------------------------------------------------------------*/
FoamFile
{
    version     2.0;
    format      ascii;
    arch        "LSB;label=32;scalar=64";
    class       volScalarField;
    location    "0.009";
    object      rhoMMean;
}
// * * * * * * * * * * * * * * * * * * * * * * * * * * * * * * * * * * * * * //

dimensions      [1 -3 0 0 0 0 0];

internalField   nonuniform List<scalar> 
654
(
3.664866758e-06
4.707297412e-06
4.73029115e-06
4.733562858e-06
4.746998211e-06
4.748117323e-06
4.746937671e-06
4.759126168e-06
4.733677504e-06
4.719889047e-06
4.731337734e-06
4.727078501e-06
4.713709982e-06
4.726196968e-06
4.74285992e-06
4.766695525e-06
4.767391597e-06
4.861819113e-06
5.118852414e-06
6.51579505e-06
3.706723485e-06
4.768659836e-06
4.808686061e-06
4.78301625e-06
4.77316234e-06
4.784259774e-06
4.765539479e-06
4.770444749e-06
4.771669621e-06
4.777423054e-06
4.783127935e-06
4.804606088e-06
4.817424933e-06
4.83134905e-06
4.833292117e-06
4.881888831e-06
4.926547526e-06
5.072113651e-06
5.395716098e-06
6.24814433e-06
3.728518919e-06
4.807796012e-06
4.80960564e-06
4.792439715e-06
4.785026892e-06
4.797998939e-06
4.810881656e-06
4.792677802e-06
4.804270295e-06
4.790232271e-06
4.802005643e-06
4.787371245e-06
4.76404912e-06
4.792241433e-06
4.81238229e-06
4.804189251e-06
4.857480456e-06
4.955393791e-06
5.168200186e-06
5.68600796e-06
3.733700323e-06
4.776221417e-06
4.830404524e-06
4.824716074e-06
4.798662889e-06
4.788229405e-06
4.786212839e-06
4.797707115e-06
4.775894881e-06
4.792201767e-06
4.771915113e-06
4.791267608e-06
4.809171492e-06
4.766041711e-06
4.780960897e-06
4.779657574e-06
4.803594357e-06
4.891360107e-06
5.067870479e-06
5.424797349e-06
3.726763906e-06
4.788559783e-06
4.759259606e-06
4.777119011e-06
4.789234981e-06
4.800984377e-06
4.786378398e-06
4.770301684e-06
4.758326929e-06
4.766154506e-06
4.759049938e-06
4.759652237e-06
4.778662134e-06
4.77794505e-06
4.777780231e-06
4.841188381e-06
4.874437685e-06
4.958704887e-06
5.076137758e-06
5.254613552e-06
3.698161281e-06
4.73409263e-06
4.785016756e-06
4.754871749e-06
4.756761311e-06
4.746649921e-06
4.747203298e-06
4.775827537e-06
4.786567794e-06
4.797839674e-06
4.790614026e-06
4.785134874e-06
4.7556422e-06
4.754044091e-06
4.808193595e-06
4.80900223e-06
4.824999011e-06
4.88120956e-06
4.932404868e-06
5.073129594e-06
3.73014952e-06
4.806610065e-06
4.829698316e-06
4.807136505e-06
4.845009392e-06
4.830342132e-06
4.828575502e-06
4.815291868e-06
4.832168192e-06
4.859083378e-06
4.84259191e-06
4.844194832e-06
4.871589016e-06
4.849754056e-06
4.855182434e-06
4.832757763e-06
4.864792332e-06
4.894392988e-06
4.969751686e-06
5.049702449e-06
3.715808056e-06
4.753442532e-06
4.791128246e-06
4.781920744e-06
4.779488312e-06
4.784223209e-06
4.806751048e-06
4.816083703e-06
4.831608891e-06
4.803910896e-06
4.799455464e-06
4.775831378e-06
4.785916202e-06
4.797180676e-06
4.796617163e-06
4.821104361e-06
4.840423623e-06
4.875331946e-06
4.910045551e-06
4.954789502e-06
3.724707673e-06
4.810593906e-06
4.8366613e-06
4.836249137e-06
4.808118475e-06
4.800724675e-06
4.810105512e-06
4.814915159e-06
4.775411301e-06
4.767893459e-06
4.796390323e-06
4.815365877e-06
4.798611374e-06
4.796154596e-06
4.778860556e-06
4.814332624e-06
4.849510276e-06
4.85475259e-06
4.884955175e-06
4.958613337e-06
3.720937204e-06
4.747924085e-06
4.797098382e-06
4.798448407e-06
4.804614373e-06
4.812639261e-06
4.806952293e-06
4.797135317e-06
4.826057443e-06
4.836789415e-06
4.822756206e-06
4.828356437e-06
4.844357291e-06
4.838895681e-06
4.83960337e-06
4.848116281e-06
4.861638742e-06
4.834450755e-06
4.871358844e-06
4.88182519e-06
3.735668337e-06
4.787946977e-06
4.784211592e-06
4.77402286e-06
4.755464422e-06
4.728968433e-06
4.717961809e-06
4.730579641e-06
4.730628563e-06
4.759092196e-06
4.783169822e-06
4.778525364e-06
4.812852632e-06
4.81743655e-06
4.810173597e-06
4.761183512e-06
4.777973468e-06
4.82534457e-06
4.876929685e-06
4.914574251e-06
3.720328471e-06
4.791411784e-06
4.828906991e-06
4.810398956e-06
4.851210581e-06
4.846425279e-06
4.865101836e-06
4.869296085e-06
4.874583619e-06
4.830909348e-06
4.811741436e-06
4.776649641e-06
4.750499351e-06
4.797534521e-06
4.817997101e-06
4.869958045e-06
4.895608093e-06
4.86661617e-06
4.858680982e-06
4.863617633e-06
3.726871517e-06
4.790362608e-06
4.804042714e-06
4.79710963e-06
4.772084005e-06
4.772856307e-06
4.798665481e-06
4.784432369e-06
4.760578852e-06
4.77064169e-06
4.79815251e-06
4.816872806e-06
4.831664479e-06
4.810406731e-06
4.766333905e-06
4.796309649e-06
4.800466825e-06
4.818753343e-06
4.845638999e-06
4.832386007e-06
3.743292679e-06
4.816544649e-06
4.859308969e-06
4.868565763e-06
4.877662321e-06
4.871052441e-06
4.840032334e-06
4.850648549e-06
4.844536319e-06
4.835035883e-06
4.817994e-06
4.821233957e-06
4.810738822e-06
4.81794878e-06
4.823977976e-06
4.785474741e-06
4.763043405e-06
4.741431814e-06
4.751787216e-06
4.797904287e-06
3.694608257e-06
4.768260772e-06
4.785489089e-06
4.769778578e-06
4.789828995e-06
4.797835601e-06
4.813011388e-06
4.816036863e-06
4.831885996e-06
4.839970313e-06
4.82976404e-06
4.831684983e-06
4.851512402e-06
4.822281281e-06
4.816866372e-06
4.796647063e-06
4.799323877e-06
4.808660605e-06
4.789819599e-06
4.774514818e-06
3.740324042e-06
4.795681153e-06
4.811957399e-06
4.801751866e-06
4.76655209e-06
4.776695231e-06
4.787359258e-06
4.771822452e-06
4.778539944e-06
4.774992473e-06
4.772870146e-06
4.756373864e-06
4.70996571e-06
4.727903197e-06
4.749283135e-06
4.773496051e-06
4.798350191e-06
4.792844472e-06
4.816599774e-06
4.788303182e-06
3.719865905e-06
4.754440563e-06
4.767932384e-06
4.775271938e-06
4.777289616e-06
4.783238138e-06
4.742091321e-06
4.747541081e-06
4.733000456e-06
4.727461134e-06
4.739984453e-06
4.751578797e-06
4.760015848e-06
4.781631883e-06
4.759123947e-06
4.763200448e-06
4.766231848e-06
4.784986486e-06
4.768726301e-06
4.773046814e-06
3.700312027e-06
4.766093596e-06
4.794130115e-06
4.807081658e-06
4.788497022e-06
4.759903053e-06
4.789017907e-06
4.786823793e-06
4.783085816e-06
4.781504138e-06
4.781460769e-06
4.781183155e-06
4.7971399e-06
4.800461641e-06
4.801089767e-06
4.791423772e-06
4.808408447e-06
4.790375707e-06
4.807067078e-06
4.809262673e-06
3.73417932e-06
4.803031955e-06
4.815558235e-06
4.770824791e-06
4.794203384e-06
4.820670583e-06
4.806992699e-06
4.812390806e-06
4.801171922e-06
4.7896097e-06
4.793530038e-06
4.7978188e-06
4.758807407e-06
4.766095447e-06
4.763587525e-06
4.763955209e-06
4.772546202e-06
4.769763998e-06
4.761583687e-06
4.762131509e-06
3.711439731e-06
4.789256966e-06
4.861020752e-06
4.854383194e-06
4.839259662e-06
4.834573317e-06
4.826124648e-06
4.809504694e-06
4.819600024e-06
4.82689857e-06
4.825207059e-06
4.828911064e-06
4.844390292e-06
4.831448515e-06
4.829988288e-06
4.81114395e-06
4.815214157e-06
4.824728802e-06
4.847500883e-06
4.842366181e-06
3.719172055e-06
4.758110966e-06
4.753438459e-06
4.769257322e-06
4.773209411e-06
4.791578825e-06
4.781509692e-06
4.751026161e-06
4.77138076e-06
4.780408493e-06
4.795064135e-06
4.804294131e-06
4.796313722e-06
4.823072745e-06
4.838135367e-06
4.855182063e-06
4.84914125e-06
4.843238318e-06
4.836228263e-06
4.827499018e-06
3.718585816e-06
4.771486149e-06
4.794020282e-06
4.757542269e-06
4.776206838e-06
4.766412727e-06
4.814707851e-06
4.837289796e-06
4.864881291e-06
4.856823541e-06
4.82398714e-06
4.804877546e-06
4.816569365e-06
4.828692509e-06
4.818932371e-06
4.815136445e-06
4.818319565e-06
4.807747459e-06
4.826735232e-06
4.81992582e-06
1.161189315e-05
1.33275787e-05
1.396397125e-05
1.436341215e-05
1.453050882e-05
1.480151096e-05
1.491715312e-05
1.505234473e-05
1.474011994e-05
1.47833041e-05
7.93327835e-06
9.480989331e-06
1.059115492e-05
1.140987529e-05
1.207087356e-05
1.254322461e-05
1.275033121e-05
1.303244048e-05
1.317844313e-05
1.31489636e-05
6.569438691e-06
7.631136591e-06
8.518381511e-06
9.424902475e-06
1.01406646e-05
1.083679184e-05
1.134661509e-05
1.178460307e-05
1.208928261e-05
1.232313677e-05
5.933488712e-06
6.543228174e-06
7.219730669e-06
8.024172082e-06
8.696905489e-06
9.392159887e-06
1.007154856e-05
1.054725688e-05
1.095084695e-05
1.139341739e-05
5.553598798e-06
5.972591318e-06
6.456386332e-06
7.010066556e-06
7.617206991e-06
8.171576428e-06
8.744917332e-06
9.243156452e-06
9.889619986e-06
1.052053779e-05
5.284418034e-06
5.574872397e-06
5.885913476e-06
6.304887289e-06
6.749086116e-06
7.316315893e-06
7.943368366e-06
8.440998776e-06
8.995026058e-06
9.502729121e-06
5.197638074e-06
5.392587594e-06
5.586527391e-06
5.914051162e-06
6.210212321e-06
6.635742406e-06
7.092942468e-06
7.58691016e-06
8.152175927e-06
8.691019656e-06
5.05488057e-06
5.201772132e-06
5.347050316e-06
5.581817286e-06
5.826561237e-06
6.096606625e-06
6.486537601e-06
6.858699113e-06
7.315038663e-06
7.76403991e-06
5.000517718e-06
5.090679007e-06
5.194673179e-06
5.355584818e-06
5.532976427e-06
5.759828235e-06
6.002366382e-06
6.273986177e-06
6.649069809e-06
7.048774407e-06
4.95908736e-06
5.04493906e-06
5.149953523e-06
5.205309561e-06
5.321372992e-06
5.49204086e-06
5.706823069e-06
5.899040461e-06
6.110043551e-06
6.401977984e-06
4.94554783e-06
4.97727424e-06
5.077462433e-06
5.151981545e-06
5.219693914e-06
5.306621435e-06
5.435319039e-06
5.639631152e-06
5.801683627e-06
6.040505201e-06
4.866386643e-06
4.872910376e-06
4.891342263e-06
4.952770223e-06
5.000065014e-06
5.108419518e-06
5.205808531e-06
5.367125011e-06
5.551123968e-06
5.697644878e-06
4.841685896e-06
4.881224466e-06
4.887689936e-06
4.931859863e-06
4.969617141e-06
5.068526667e-06
5.177647697e-06
5.21538853e-06
5.27082539e-06
5.454819679e-06
4.824670095e-06
4.843364359e-06
4.887164433e-06
4.896185998e-06
4.930828245e-06
4.930057772e-06
4.987757762e-06
5.082774988e-06
5.196087043e-06
5.282592673e-06
4.789236797e-06
4.794690088e-06
4.816921212e-06
4.849336027e-06
4.857035915e-06
4.926134426e-06
4.934561528e-06
4.993070313e-06
5.056584797e-06
5.136115877e-06
4.827748856e-06
4.838456338e-06
4.825902821e-06
4.836051147e-06
4.887251845e-06
4.905047247e-06
4.94188539e-06
4.970707907e-06
5.026377439e-06
5.070073012e-06
4.76533289e-06
4.802867573e-06
4.796062211e-06
4.817012754e-06
4.793736528e-06
4.82015137e-06
4.861520324e-06
4.898601944e-06
4.899579032e-06
4.99852484e-06
4.815226878e-06
4.769357849e-06
4.785851321e-06
4.778393265e-06
4.834984171e-06
4.854432222e-06
4.856515793e-06
4.87624294e-06
4.890189154e-06
4.919641551e-06
4.787863406e-06
4.831778154e-06
4.849187359e-06
4.871076763e-06
4.853603012e-06
4.835234141e-06
4.846902096e-06
4.853271725e-06
4.873011928e-06
4.913660428e-06
4.835058886e-06
4.840396086e-06
4.830162898e-06
4.814861637e-06
4.831272409e-06
4.848901012e-06
4.868219447e-06
4.891090741e-06
4.865181758e-06
4.873981443e-06
4.821311548e-06
4.812963372e-06
4.807597607e-06
4.797761132e-06
4.783680076e-06
4.769858442e-06
4.759752277e-06
4.797188553e-06
4.862508341e-06
4.870312425e-06
4.809267666e-06
4.785955391e-06
4.789467419e-06
4.829142751e-06
)
;

boundaryField
{
    flow
    {
        type            calculated;
        value           nonuniform List<scalar> 
42
(
3.664866758e-06
3.706723485e-06
3.728518919e-06
3.733700323e-06
3.726763906e-06
3.698161281e-06
3.73014952e-06
3.715808056e-06
3.724707673e-06
3.720937204e-06
3.735668337e-06
3.720328471e-06
3.726871517e-06
3.743292679e-06
3.694608257e-06
3.740324042e-06
3.719865905e-06
3.700312027e-06
3.73417932e-06
3.711439731e-06
3.719172055e-06
3.718585816e-06
3.664866758e-06
4.707297412e-06
4.73029115e-06
4.733562858e-06
4.746998211e-06
4.748117323e-06
4.746937671e-06
4.759126168e-06
4.733677504e-06
4.719889047e-06
4.731337734e-06
4.727078501e-06
4.713709982e-06
4.726196968e-06
4.74285992e-06
4.766695525e-06
4.767391597e-06
4.861819113e-06
5.118852414e-06
6.51579505e-06
)
;
    }
    obstacle
    {
        type            calculated;
        value           nonuniform List<scalar> 10(6.704337649e-24 6.915356319e-24 7.026427941e-24 6.775708084e-24 7.210554716e-24 6.879375168e-24 6.819717062e-24 6.889668618e-24 6.751392392e-24 6.631208158e-24);
    }
    frontAndBack
    {
        type            empty;
    }
    procBoundary0to1
    {
        type            processor;
        value           nonuniform List<scalar> 
21
(
1.466876664e-05
1.326301322e-05
1.235698782e-05
1.158127005e-05
1.084381768e-05
1.007408818e-05
9.189523695e-06
8.223748995e-06
7.519382303e-06
6.770165046e-06
6.344748867e-06
5.928475122e-06
5.594704237e-06
5.353667912e-06
5.254753286e-06
5.106188372e-06
5.043003187e-06
4.969839937e-06
4.946150533e-06
4.909107838e-06
4.85006279e-06
)
;
    }
    procBoundary0to2
    {
        type            processor;
        value           nonuniform List<scalar> 
31
(
3.708353346e-06
4.783294235e-06
4.834892818e-06
4.801904697e-06
4.801180947e-06
4.793478523e-06
4.798969662e-06
4.778659913e-06
4.75923378e-06
4.798537366e-06
4.816444212e-06
4.843700515e-06
4.82922154e-06
4.798478307e-06
4.797096531e-06
4.791206327e-06
4.795051546e-06
4.782324992e-06
4.748472278e-06
4.749166869e-06
4.846474536e-06
4.852904478e-06
4.864279864e-06
4.852331726e-06
4.854728644e-06
4.876128582e-06
4.771346029e-06
4.794143932e-06
4.809949417e-06
4.846474536e-06
4.777310996e-06
)
;
    }
}


// ************************************************************************* //
