/*--------------------------------*- C++ -*----------------------------------*\
| =========                 |                                                 |
| \\      /  F ield         | OpenFOAM: The Open Source CFD Toolbox           |
|  \\    /   O peration     | Version:  2406                                  |
|   \\  /    A nd           | Website:  www.openfoam.com                      |
|    \\/     M anipulation  |                                                 |
\*---------------------------------------------------------------------------*/
FoamFile
{
    version     2.0;
    format      ascii;
    arch        "LSB;label=32;scalar=64";
    class       volScalarField;
    location    "0.009";
    object      rhoNMean;
}
// * * * * * * * * * * * * * * * * * * * * * * * * * * * * * * * * * * * * * //

dimensions      [0 -3 0 0 0 0 0];

internalField   nonuniform List<scalar> 
654
(
7.63855188e+19
9.813226102e+19
9.859973382e+19
9.865296092e+19
9.89376102e+19
9.894223864e+19
9.894223864e+19
9.918986038e+19
9.869924536e+19
9.840996763e+19
9.86298187e+19
9.853262139e+19
9.828268543e+19
9.85765916e+19
9.892603909e+19
9.938888345e+19
9.943053944e+19
1.014045706e+20
1.067157097e+20
1.358587047e+20
7.726029464e+19
9.940971145e+19
1.002382028e+20
9.970593184e+19
9.949533765e+19
9.972213139e+19
9.934491324e+19
9.94583101e+19
9.945368166e+19
9.960179186e+19
9.97337025e+19
1.00208118e+20
1.00469625e+20
1.007450174e+20
1.007288179e+20
1.016938484e+20
1.026542504e+20
1.056812525e+20
1.12448037e+20
1.301610907e+20
7.770693945e+19
1.00228946e+20
1.002405171e+20
9.990726913e+19
9.972907405e+19
9.999058112e+19
1.002682877e+20
9.986329892e+19
1.001201775e+20
9.980312915e+19
1.00041494e+20
9.973138828e+19
9.922225948e+19
9.981701448e+19
1.002636593e+20
1.000924069e+20
1.011939765e+20
1.032189205e+20
1.076830544e+20
1.185159266e+20
7.782265054e+19
9.956013586e+19
1.006825334e+20
1.005575655e+20
1.000229802e+20
9.982858559e+19
9.976841582e+19
9.998595267e+19
9.953005098e+19
9.985635625e+19
9.945599588e+19
9.985867047e+19
1.00208118e+20
9.932408524e+19
9.959484919e+19
9.958790652e+19
1.001086064e+20
1.019067568e+20
1.055886836e+20
1.130451063e+20
7.765371235e+19
9.97869296e+19
9.916208971e+19
9.952079409e+19
9.979387226e+19
1.000738931e+20
9.974990205e+19
9.9425911e+19
9.917366082e+19
9.935879857e+19
9.91921746e+19
9.922225948e+19
9.959022075e+19
9.960873452e+19
9.963187674e+19
1.0096024e+20
1.01659135e+20
1.03422572e+20
1.058409338e+20
1.095506314e+20
7.707978534e+19
9.870850224e+19
9.976147316e+19
9.912274794e+19
9.915514705e+19
9.896306664e+19
9.897463775e+19
9.958790652e+19
9.978461538e+19
1.000484367e+20
9.989106958e+19
9.97337025e+19
9.915051861e+19
9.912043372e+19
1.002243175e+20
1.002034895e+20
1.005066526e+20
1.016614493e+20
1.027815326e+20
1.057113374e+20
7.774859544e+19
1.001896042e+20
1.006732765e+20
1.002243175e+20
1.009995818e+20
1.006755908e+20
1.006455059e+20
1.003515997e+20
1.006941045e+20
1.012541462e+20
1.009232125e+20
1.009833823e+20
1.015688804e+20
1.010666943e+20
1.011939765e+20
1.00740389e+20
1.014115133e+20
1.019993256e+20
1.035243978e+20
1.052160939e+20
7.745006083e+19
9.909497728e+19
9.984941359e+19
9.965733318e+19
9.958327808e+19
9.968510384e+19
1.001132349e+20
1.003215148e+20
1.006455059e+20
1.000762073e+20
9.999752378e+19
9.951616565e+19
9.97337025e+19
9.995123935e+19
9.997206734e+19
1.004858246e+20
1.008722996e+20
1.015989653e+20
1.023534016e+20
1.032721476e+20
7.763288435e+19
1.002891157e+20
1.008167583e+20
1.008260152e+20
1.002335744e+20
1.000785215e+20
1.003006868e+20
1.003909415e+20
9.957170697e+19
9.940739722e+19
9.999058112e+19
1.003354002e+20
9.99882669e+19
9.995355357e+19
9.95855923e+19
1.003886273e+20
1.011708342e+20
1.012842311e+20
1.018998141e+20
1.034248863e+20
7.752643015e+19
9.897926619e+19
1.000114091e+20
1.000229802e+20
1.001641478e+20
1.003377144e+20
1.002220033e+20
1.000507509e+20
1.006107926e+20
1.008514716e+20
1.005645081e+20
1.007126183e+20
1.010412378e+20
1.008977561e+20
1.009162698e+20
1.010759511e+20
1.013305155e+20
1.007889876e+20
1.015665662e+20
1.017748461e+20
7.786662075e+19
9.97869296e+19
9.970824606e+19
9.951153721e+19
9.909266306e+19
9.856733471e+19
9.833359831e+19
9.858353427e+19
9.860204804e+19
9.916903238e+19
9.970824606e+19
9.959716341e+19
1.003307717e+20
1.004464828e+20
1.002474597e+20
9.921763104e+19
9.959484919e+19
1.005598797e+20
1.016267359e+20
1.024112571e+20
7.755188659e+19
9.989801225e+19
1.006107926e+20
1.002196891e+20
1.010736369e+20
1.009440405e+20
1.01335144e+20
1.014091991e+20
1.015179675e+20
1.00677905e+20
1.002798588e+20
9.955550742e+19
9.898852308e+19
9.996049623e+19
1.00407141e+20
1.015249102e+20
1.020294105e+20
1.014161417e+20
1.012286898e+20
1.013467151e+20
7.765602657e+19
9.985172781e+19
1.001340629e+20
9.998595267e+19
9.94583101e+19
9.949765187e+19
1.000391798e+20
9.974758783e+19
9.926854392e+19
9.944442477e+19
9.999289534e+19
1.003701135e+20
1.007056757e+20
1.002682877e+20
9.933102791e+19
9.996512468e+19
1.000947211e+20
1.004418544e+20
1.010088387e+20
1.007149325e+20
7.802630206e+19
1.004256548e+20
1.013235729e+20
1.015364813e+20
1.017054195e+20
1.015665662e+20
1.009162698e+20
1.011037218e+20
1.010111529e+20
1.008075014e+20
1.004835104e+20
1.005297948e+20
1.003330859e+20
1.004881388e+20
1.00636249e+20
9.984709937e+19
9.93518559e+19
9.89052111e+19
9.909034884e+19
1.000692647e+20
7.699184491e+19
9.9405083e+19
9.974527361e+19
9.941202567e+19
9.986792736e+19
1.000229802e+20
1.00365485e+20
1.004117695e+20
1.007496459e+20
1.009116414e+20
1.007010472e+20
1.007380748e+20
1.011407493e+20
1.005645081e+20
1.004256548e+20
9.99674389e+19
1.000368656e+20
1.00270602e+20
9.990495491e+19
9.961799141e+19
7.795224696e+19
9.996281046e+19
1.002891157e+20
1.0008315e+20
9.935417012e+19
9.95531932e+19
9.975221627e+19
9.945136744e+19
9.959253497e+19
9.953930787e+19
9.948839499e+19
9.912737639e+19
9.814846057e+19
9.851642183e+19
9.895149553e+19
9.947450966e+19
9.998363845e+19
9.985172781e+19
1.0029143e+20
9.971518872e+19
7.753337281e+19
9.910886261e+19
9.936342701e+19
9.956245009e+19
9.962956252e+19
9.975221627e+19
9.890983954e+19
9.897926619e+19
9.868073158e+19
9.853030716e+19
9.876404357e+19
9.903249329e+19
9.919680304e+19
9.967121851e+19
9.917597505e+19
9.928011503e+19
9.936342701e+19
9.976378738e+19
9.944211055e+19
9.953930787e+19
7.711681289e+19
9.936111279e+19
9.993966824e+19
1.001687762e+20
9.977767271e+19
9.916208971e+19
9.977767271e+19
9.975684472e+19
9.966196162e+19
9.96388194e+19
9.965501896e+19
9.964344785e+19
9.998363845e+19
1.00062322e+20
1.00062322e+20
9.987718425e+19
1.002266317e+20
9.983784248e+19
1.001734046e+20
1.002034895e+20
7.784810698e+19
1.001363771e+20
1.003886273e+20
9.943979633e+19
9.991884024e+19
1.004557397e+20
1.0018729e+20
1.003168864e+20
1.000970353e+20
9.983784248e+19
9.992346869e+19
1.000137233e+20
9.920837415e+19
9.93726839e+19
9.930557147e+19
9.930557147e+19
9.947450966e+19
9.941665411e+19
9.922920215e+19
9.920605993e+19
7.73412924e+19
9.983552826e+19
1.012981164e+20
1.011777769e+20
1.008746138e+20
1.007889876e+20
1.006478201e+20
1.002798588e+20
1.004673108e+20
1.006015357e+20
1.005621939e+20
1.00636249e+20
1.0096024e+20
1.006964188e+20
1.006663339e+20
1.002798588e+20
1.003446571e+20
1.005413659e+20
1.010597516e+20
1.009486689e+20
7.750560215e+19
9.916440394e+19
9.906952084e+19
9.940971145e+19
9.950228032e+19
9.988875536e+19
9.967353273e+19
9.902555063e+19
9.946756699e+19
9.968510384e+19
1.000322371e+20
1.001734046e+20
9.999058112e+19
1.00532109e+20
1.008375863e+20
1.011916622e+20
1.010666943e+20
1.009417263e+20
1.007913019e+20
1.006200494e+20
7.748014571e+19
9.945599588e+19
9.992346869e+19
9.915283283e+19
9.956476431e+19
9.934491324e+19
1.003400286e+20
1.008190725e+20
1.013929995e+20
1.012055476e+20
1.005020241e+20
1.000854642e+20
1.003886273e+20
1.006107926e+20
1.004117695e+20
1.003377144e+20
1.004117695e+20
1.002127464e+20
1.006339348e+20
1.004927672e+20
2.419320341e+20
2.775701674e+20
2.908410996e+20
2.991354047e+20
3.025703124e+20
3.084511134e+20
3.109333269e+20
3.133535843e+20
3.067167737e+20
3.078028569e+20
1.652872448e+20
1.976951725e+20
2.207661978e+20
2.377524707e+20
2.514411515e+20
2.614040172e+20
2.655999324e+20
2.714901798e+20
2.744438565e+20
2.738524658e+20
1.369373586e+20
1.590882233e+20
1.774417732e+20
1.963333941e+20
2.112522081e+20
2.258481847e+20
2.364795224e+20
2.456560396e+20
2.520024241e+20
2.567807641e+20
1.236762912e+20
1.364057639e+20
1.505264746e+20
1.673004445e+20
1.812179444e+20
1.95846824e+20
2.098509965e+20
2.197975091e+20
2.281484219e+20
2.374424036e+20
1.157846788e+20
1.244682426e+20
1.345529476e+20
1.460159379e+20
1.586618045e+20
1.702385456e+20
1.821714718e+20
1.926950765e+20
2.061762084e+20
2.193116081e+20
1.100877614e+20
1.16136531e+20
1.226293125e+20
1.314793094e+20
1.407186062e+20
1.526181262e+20
1.656582014e+20
1.760975192e+20
1.875745084e+20
1.981891199e+20
1.083180708e+20
1.124254935e+20
1.164956101e+20
1.233088283e+20
1.29510972e+20
1.383977171e+20
1.478590322e+20
1.581609383e+20
1.699579226e+20
1.811990771e+20
1.054011004e+20
1.084174796e+20
1.114756278e+20
1.163712691e+20
1.214980147e+20
1.2710122e+20
1.352179894e+20
1.429536248e+20
1.524715388e+20
1.618854618e+20
1.042561431e+20
1.061468952e+20
1.082922244e+20
1.116292603e+20
1.153760774e+20
1.201304783e+20
1.252480328e+20
1.309097252e+20
1.386480094e+20
1.470903168e+20
1.03415424e+20
1.052045209e+20
1.074186722e+20
1.085801486e+20
1.109971251e+20
1.144678027e+20
1.18903295e+20
1.229658246e+20
1.274285215e+20
1.333913835e+20
1.030647372e+20
1.03747699e+20
1.057987154e+20
1.073495973e+20
1.087407948e+20
1.106469994e+20
1.133116919e+20
1.175024112e+20
1.209380711e+20
1.260024719e+20
1.014436821e+20
1.015449282e+20
1.019560274e+20
1.032477595e+20
1.041899318e+20
1.065256296e+20
1.085676688e+20
1.119243645e+20
1.157791217e+20
1.188387419e+20
1.009048786e+20
1.017460307e+20
1.019254181e+20
1.028352048e+20
1.036646481e+20
1.057153017e+20
1.080058441e+20
1.088389978e+20
1.099470505e+20
1.137907241e+20
1.006401214e+20
1.010000808e+20
1.019536721e+20
1.021689522e+20
1.028719485e+20
1.028418844e+20
1.040076902e+20
1.059902187e+20
1.083600592e+20
1.101432833e+20
9.990158999e+19
1.000039242e+20
1.004514454e+20
1.011067429e+20
1.012364081e+20
1.026952086e+20
1.028791993e+20
1.04099976e+20
1.054219151e+20
1.071021011e+20
1.005681263e+20
1.008013179e+20
1.005691755e+20
1.007748023e+20
1.018930115e+20
1.022239201e+20
1.029639573e+20
1.035975356e+20
1.047684474e+20
1.05607492e+20
9.934652888e+19
1.001255202e+20
9.994520826e+19
1.003883279e+20
9.988260926e+19
1.004012833e+20
1.012615333e+20
1.020048545e+20
1.020489445e+20
1.041054594e+20
1.003312386e+20
9.938191039e+19
9.974271502e+19
9.955847631e+19
1.007302247e+20
1.011563067e+20
1.01244581e+20
1.016243661e+20
1.019089158e+20
1.025242422e+20
9.977385641e+19
1.006656908e+20
1.010377379e+20
1.015098137e+20
1.011194125e+20
1.007523451e+20
1.009757779e+20
1.011511955e+20
1.015821816e+20
1.025118704e+20
1.00805014e+20
1.009275914e+20
1.006963226e+20
1.003835859e+20
1.00746939e+20
1.011082167e+20
1.015497103e+20
1.019853416e+20
1.014323271e+20
1.015690782e+20
1.005007759e+20
1.00335976e+20
1.002418871e+20
1.000421619e+20
9.976083905e+19
9.945630171e+19
9.925155908e+19
9.999753793e+19
1.013930208e+20
1.015715527e+20
1.002731779e+20
9.978645255e+19
9.983925246e+19
1.006633651e+20
)
;

boundaryField
{
    flow
    {
        type            calculated;
        value           nonuniform List<scalar> 
42
(
7.63855188e+19
7.726029464e+19
7.770693945e+19
7.782265054e+19
7.765371235e+19
7.707978534e+19
7.774859544e+19
7.745006083e+19
7.763288435e+19
7.752643015e+19
7.786662075e+19
7.755188659e+19
7.765602657e+19
7.802630206e+19
7.699184491e+19
7.795224696e+19
7.753337281e+19
7.711681289e+19
7.784810698e+19
7.73412924e+19
7.750560215e+19
7.748014571e+19
7.63855188e+19
9.813226102e+19
9.859973382e+19
9.865296092e+19
9.89376102e+19
9.894223864e+19
9.894223864e+19
9.918986038e+19
9.869924536e+19
9.840996763e+19
9.86298187e+19
9.853262139e+19
9.828268543e+19
9.85765916e+19
9.892603909e+19
9.938888345e+19
9.943053944e+19
1.014045706e+20
1.067157097e+20
1.358587047e+20
)
;
    }
    obstacle
    {
        type            calculated;
        value           nonuniform List<scalar> 10(139.6796914 143.9711894 146.3804813 141.1177675 150.110035 143.4376038 142.322631 143.3537242 140.6442024 138.1639824);
    }
    frontAndBack
    {
        type            empty;
    }
    procBoundary0to1
    {
        type            processor;
        value           nonuniform List<scalar> 
21
(
3.054550258e+20
2.762635341e+20
2.573866516e+20
2.413738308e+20
2.259717107e+20
2.100511184e+20
1.915406562e+20
1.714398799e+20
1.568653216e+20
1.410544059e+20
1.323251253e+20
1.237030293e+20
1.167061438e+20
1.116485452e+20
1.095522225e+20
1.063366957e+20
1.050903678e+20
1.035673559e+20
1.031959502e+20
1.022861301e+20
1.011320312e+20
)
;
    }
    procBoundary0to2
    {
        type            processor;
        value           nonuniform List<scalar> 
31
(
7.729732219e+19
9.971981717e+19
1.007751023e+20
1.000808358e+20
1.000576935e+20
9.988875536e+19
1.000252944e+20
9.957633542e+19
9.91921746e+19
1.000044664e+20
1.003724277e+20
1.009579258e+20
1.006617054e+20
1.000183518e+20
9.9999838e+19
9.985867047e+19
9.995355357e+19
9.969436073e+19
9.89584382e+19
9.89908373e+19
1.010215188e+20
1.011587112e+20
1.013753504e+20
1.011292443e+20
1.011522698e+20
1.015765017e+20
9.945336059e+19
9.987998914e+19
1.002301141e+20
1.010215188e+20
9.956321832e+19
)
;
    }
}


// ************************************************************************* //
