/*--------------------------------*- C++ -*----------------------------------*\
| =========                 |                                                 |
| \\      /  F ield         | OpenFOAM: The Open Source CFD Toolbox           |
|  \\    /   O peration     | Version:  2406                                  |
|   \\  /    A nd           | Website:  www.openfoam.com                      |
|    \\/     M anipulation  |                                                 |
\*---------------------------------------------------------------------------*/
FoamFile
{
    version     2.0;
    format      ascii;
    arch        "LSB;label=32;scalar=64";
    class       volScalarField;
    location    "0.009";
    object      rhoN;
}
// * * * * * * * * * * * * * * * * * * * * * * * * * * * * * * * * * * * * * //

dimensions      [0 -3 0 0 0 0 0];

internalField   nonuniform List<scalar> 
654
(
8.331198464e+19
4.165599232e+19
1.24967977e+20
1.24967977e+20
9.372598272e+19
1.457959731e+20
7.289798656e+19
7.289798656e+19
1.041399808e+20
1.35381975e+20
1.145539789e+20
5.20699904e+19
1.35381975e+20
1.145539789e+20
9.372598272e+19
1.145539789e+20
1.24967977e+20
8.331198464e+19
7.289798656e+19
1.35381975e+20
7.289798656e+19
1.35381975e+20
1.35381975e+20
9.372598272e+19
6.248398848e+19
6.248398848e+19
1.041399808e+20
7.289798656e+19
8.331198464e+19
1.24967977e+20
1.24967977e+20
8.331198464e+19
4.165599232e+19
8.331198464e+19
1.35381975e+20
1.457959731e+20
1.24967977e+20
1.041399808e+20
7.289798656e+19
1.145539789e+20
1.24967977e+20
6.248398848e+19
8.331198464e+19
8.331198464e+19
1.24967977e+20
1.35381975e+20
1.145539789e+20
9.372598272e+19
1.145539789e+20
8.331198464e+19
1.457959731e+20
1.145539789e+20
5.20699904e+19
9.372598272e+19
7.289798656e+19
1.041399808e+20
9.372598272e+19
9.372598272e+19
1.24967977e+20
1.666239693e+20
6.248398848e+19
8.331198464e+19
8.331198464e+19
8.331198464e+19
1.35381975e+20
6.248398848e+19
6.248398848e+19
1.666239693e+20
1.041399808e+20
9.372598272e+19
1.24967977e+20
1.457959731e+20
6.248398848e+19
8.331198464e+19
7.289798656e+19
1.145539789e+20
9.372598272e+19
1.041399808e+20
1.874519654e+20
1.24967977e+20
8.331198464e+19
1.35381975e+20
1.041399808e+20
9.372598272e+19
9.372598272e+19
1.457959731e+20
9.372598272e+19
1.145539789e+20
4.165599232e+19
8.331198464e+19
6.248398848e+19
7.289798656e+19
1.24967977e+20
8.331198464e+19
1.457959731e+20
1.145539789e+20
1.562099712e+20
1.041399808e+20
6.248398848e+19
1.457959731e+20
7.289798656e+19
9.372598272e+19
9.372598272e+19
1.145539789e+20
6.248398848e+19
5.20699904e+19
1.24967977e+20
1.041399808e+20
2.082799616e+19
1.562099712e+20
1.145539789e+20
1.041399808e+20
8.331198464e+19
7.289798656e+19
8.331198464e+19
8.331198464e+19
1.457959731e+20
9.372598272e+19
1.145539789e+20
1.35381975e+20
7.289798656e+19
9.372598272e+19
1.24967977e+20
1.145539789e+20
1.24967977e+20
1.666239693e+20
5.20699904e+19
1.145539789e+20
1.666239693e+20
6.248398848e+19
1.145539789e+20
8.331198464e+19
8.331198464e+19
7.289798656e+19
4.165599232e+19
1.041399808e+20
1.35381975e+20
8.331198464e+19
9.372598272e+19
9.372598272e+19
6.248398848e+19
7.289798656e+19
7.289798656e+19
1.145539789e+20
5.20699904e+19
7.289798656e+19
8.331198464e+19
4.165599232e+19
1.562099712e+20
1.457959731e+20
1.562099712e+20
8.331198464e+19
1.35381975e+20
6.248398848e+19
1.35381975e+20
8.331198464e+19
7.289798656e+19
1.457959731e+20
9.372598272e+19
8.331198464e+19
8.331198464e+19
9.372598272e+19
1.24967977e+20
9.372598272e+19
1.041399808e+20
8.331198464e+19
1.457959731e+20
1.35381975e+20
9.372598272e+19
5.20699904e+19
3.124199424e+19
1.874519654e+20
7.289798656e+19
1.562099712e+20
1.457959731e+20
1.041399808e+20
8.331198464e+19
1.041399808e+20
8.331198464e+19
1.041399808e+20
8.331198464e+19
1.041399808e+20
1.145539789e+20
1.35381975e+20
1.24967977e+20
5.20699904e+19
1.041399808e+20
1.041399808e+20
8.331198464e+19
2.082799616e+19
1.041399808e+20
5.20699904e+19
3.124199424e+19
1.145539789e+20
7.289798656e+19
6.248398848e+19
9.372598272e+19
8.331198464e+19
7.289798656e+19
1.24967977e+20
6.248398848e+19
1.145539789e+20
8.331198464e+19
8.331198464e+19
9.372598272e+19
1.457959731e+20
1.041399808e+20
1.145539789e+20
6.248398848e+19
1.24967977e+20
1.874519654e+20
8.331198464e+19
1.145539789e+20
9.372598272e+19
1.041399808e+20
6.248398848e+19
9.372598272e+19
6.248398848e+19
5.20699904e+19
1.041399808e+20
9.372598272e+19
6.248398848e+19
9.372598272e+19
9.372598272e+19
9.372598272e+19
9.372598272e+19
1.041399808e+20
1.666239693e+20
9.372598272e+19
6.248398848e+19
7.289798656e+19
1.041399808e+20
9.372598272e+19
1.145539789e+20
8.331198464e+19
7.289798656e+19
1.24967977e+20
9.372598272e+19
7.289798656e+19
1.24967977e+20
8.331198464e+19
1.145539789e+20
1.24967977e+20
4.165599232e+19
8.331198464e+19
1.041399808e+20
5.20699904e+19
1.562099712e+20
1.145539789e+20
1.041399808e+20
1.35381975e+20
1.041399808e+20
9.372598272e+19
1.24967977e+20
9.372598272e+19
6.248398848e+19
1.457959731e+20
2.082799616e+20
8.331198464e+19
8.331198464e+19
1.041399808e+20
7.289798656e+19
1.24967977e+20
1.35381975e+20
5.20699904e+19
1.35381975e+20
5.20699904e+19
1.24967977e+20
1.24967977e+20
1.145539789e+20
7.289798656e+19
1.041399808e+20
7.289798656e+19
9.372598272e+19
1.562099712e+20
1.145539789e+20
9.372598272e+19
1.978659635e+20
1.24967977e+20
1.145539789e+20
7.289798656e+19
9.372598272e+19
7.289798656e+19
7.289798656e+19
1.35381975e+20
1.24967977e+20
7.289798656e+19
8.331198464e+19
9.372598272e+19
9.372598272e+19
9.372598272e+19
1.041399808e+20
7.289798656e+19
1.145539789e+20
1.145539789e+20
6.248398848e+19
7.289798656e+19
9.372598272e+19
1.24967977e+20
7.289798656e+19
8.331198464e+19
1.24967977e+20
7.289798656e+19
1.145539789e+20
1.24967977e+20
1.041399808e+20
5.20699904e+19
1.145539789e+20
1.041399808e+20
7.289798656e+19
7.289798656e+19
6.248398848e+19
9.372598272e+19
9.372598272e+19
1.770379674e+20
8.331198464e+19
9.372598272e+19
1.562099712e+20
1.457959731e+20
7.289798656e+19
5.20699904e+19
1.457959731e+20
1.145539789e+20
1.041399808e+20
1.041399808e+20
1.041399808e+20
1.35381975e+20
8.331198464e+19
4.165599232e+19
1.457959731e+20
1.041399808e+20
6.248398848e+19
1.145539789e+20
9.372598272e+19
6.248398848e+19
1.041399808e+20
1.145539789e+20
9.372598272e+19
5.20699904e+19
5.20699904e+19
9.372598272e+19
1.041399808e+20
1.457959731e+20
1.145539789e+20
9.372598272e+19
7.289798656e+19
8.331198464e+19
1.041399808e+20
9.372598272e+19
1.24967977e+20
1.041399808e+20
1.35381975e+20
8.331198464e+19
1.24967977e+20
1.666239693e+20
7.289798656e+19
1.041399808e+20
7.289798656e+19
9.372598272e+19
9.372598272e+19
5.20699904e+19
7.289798656e+19
9.372598272e+19
1.24967977e+20
7.289798656e+19
7.289798656e+19
1.562099712e+20
7.289798656e+19
1.041399808e+20
1.145539789e+20
1.145539789e+20
4.165599232e+19
1.041399808e+20
6.248398848e+19
1.145539789e+20
1.145539789e+20
1.145539789e+20
9.372598272e+19
9.372598272e+19
1.041399808e+20
8.331198464e+19
1.041399808e+20
1.145539789e+20
1.041399808e+20
1.35381975e+20
1.041399808e+20
1.145539789e+20
5.20699904e+19
1.770379674e+20
1.041399808e+20
8.331198464e+19
6.248398848e+19
1.145539789e+20
9.372598272e+19
9.372598272e+19
6.248398848e+19
5.20699904e+19
1.457959731e+20
6.248398848e+19
1.24967977e+20
7.289798656e+19
1.041399808e+20
9.372598272e+19
4.165599232e+19
6.248398848e+19
9.372598272e+19
1.041399808e+20
1.041399808e+20
1.35381975e+20
1.35381975e+20
9.372598272e+19
1.24967977e+20
1.041399808e+20
1.041399808e+20
8.331198464e+19
9.372598272e+19
1.457959731e+20
1.457959731e+20
9.372598272e+19
1.457959731e+20
6.248398848e+19
1.041399808e+20
1.24967977e+20
7.289798656e+19
1.145539789e+20
9.372598272e+19
1.145539789e+20
6.248398848e+19
5.20699904e+19
5.20699904e+19
8.331198464e+19
9.372598272e+19
1.041399808e+20
1.457959731e+20
5.20699904e+19
1.145539789e+20
7.289798656e+19
6.248398848e+19
7.289798656e+19
1.145539789e+20
2.508222908e+20
2.420241812e+20
3.602520077e+20
2.9874656e+20
2.471218906e+20
3.029711823e+20
4.35898026e+20
3.292682147e+20
3.64811464e+20
3.897366324e+20
2.299204333e+20
2.104558097e+20
1.907216512e+20
2.667380001e+20
2.471218906e+20
1.514855912e+20
2.724362665e+20
2.63414572e+20
2.321527498e+20
2.561126441e+20
1.672148605e+20
1.894102287e+20
2.119129457e+20
1.920513601e+20
1.719108806e+20
2.380487861e+20
3.923082234e+20
2.524389648e+20
2.432076426e+20
3.674659677e+20
1.254111454e+20
2.315013908e+20
1.271477675e+20
1.387037599e+20
1.396775903e+20
1.731263899e+20
1.961541118e+20
2.085365361e+20
1.547684999e+20
2.115713147e+20
8.360743026e+19
1.683646477e+20
1.271477675e+20
2.027208802e+20
8.595544028e+19
2.272283869e+20
9.807705592e+19
2.304877505e+20
1.768782857e+20
2.44977312e+20
1.045092878e+20
1.367962763e+20
2.331042402e+20
3.200855999e+19
1.396775903e+20
1.19024393e+20
1.307694077e+20
2.414633573e+20
1.658233926e+20
2.115713149e+20
9.405835905e+19
1.473190668e+20
1.377434148e+20
1.600428002e+20
1.719108806e+20
1.190243931e+20
7.628215461e+19
1.536585003e+20
1.326587142e+20
1.113533235e+20
7.315650148e+19
1.262734859e+20
7.416953103e+19
1.1736472e+20
9.669987019e+19
1.623059905e+20
1.525643092e+20
1.646341075e+20
1.989880713e+20
6.681199412e+19
9.405835905e+19
7.365953338e+19
5.297823641e+19
1.813818401e+20
1.396775905e+20
1.082039937e+20
8.71796052e+19
1.756097146e+20
9.949403563e+19
1.670299853e+20
1.149602167e+20
7.365953343e+19
1.483390621e+20
1.813818401e+20
6.446658017e+19
6.492239625e+19
1.852566612e+20
1.426828931e+20
1.105489285e+20
1.55894653e+20
9.405835905e+19
1.052279048e+20
1.801260038e+20
5.334760002e+19
5.372215014e+19
1.19024393e+20
9.807705585e+19
1.317072859e+20
5.527446424e+19
1.113533235e+20
1.46313003e+20
7.365953343e+19
1.695303566e+20
1.066952e+20
6.446658017e+19
8.6563195e+19
3.269235209e+19
1.756097158e+20
7.738425031e+19
8.908265921e+19
8.360743026e+19
1.157506956e+20
6.357388396e+19
5.334760002e+19
9.669986985e+19
1.190243929e+20
1.19871957e+20
9.878046365e+19
1.437136064e+20
1.55894653e+20
7.315650124e+19
7.365953293e+19
1.059564721e+20
9.60256797e+19
7.521101025e+19
1.190243928e+20
7.628215418e+19
8.78048572e+19
1.326587136e+20
1.22488655e+20
1.567639326e+20
7.365953358e+19
1.377434147e+20
1.066952004e+20
1.074443011e+20
1.190243936e+20
8.717960539e+19
9.878046504e+19
9.949403591e+19
1.55894653e+20
1.254111452e+20
1.052279051e+20
1.059564735e+20
1.280342405e+20
1.074443004e+20
1.082039942e+20
9.807705606e+19
7.682924951e+19
7.73842496e+19
1.55894653e+20
7.315650138e+19
8.418232352e+19
1.059564721e+20
1.173647196e+20
1.181887304e+20
1.082039934e+20
8.717960539e+19
1.317072867e+20
8.843914303e+19
6.681199412e+19
8.360743015e+19
1.367962766e+20
1.059564735e+20
1.707123195e+20
9.669986965e+19
6.492239607e+19
8.717960478e+19
2.414633573e+20
1.105489288e+20
1.336239882e+20
9.405835955e+19
1.473190672e+20
9.536082555e+19
2.027208808e+20
8.595544028e+19
1.082039934e+20
7.628215471e+19
6.58536429e+19
1.326587136e+20
8.908265946e+19
1.35862074e+20
1.683646482e+20
1.165521201e+20
1.280342396e+20
6.446658021e+19
1.406651925e+20
1.198719574e+20
1.097560715e+20
1.216038217e+20
1.224886559e+20
1.149602165e+20
5.26139522e+19
8.476517826e+19
1.280342405e+20
1.396775905e+20
6.492239607e+19
4.358980269e+19
9.878046504e+19
1.216038217e+20
1.113533235e+20
7.315650138e+19
1.157506948e+20
7.416953098e+19
5.33476002e+19
)
;

boundaryField
{
    flow
    {
        type            zeroGradient;
    }
    obstacle
    {
        type            calculated;
        value           nonuniform List<scalar> 10(119.8095466 33.92085259 98.26553345 243.4606525 1e-300 335.4290911 1e-300 462.9259306 70.2404793 134.3134846);
    }
    frontAndBack
    {
        type            empty;
    }
    procBoundary0to1
    {
        type            processor;
        value           nonuniform List<scalar> 
21
(
2.916407275e+20
2.916407277e+20
2.916407275e+20
3.028576785e+20
3.252915806e+20
2.355559725e+20
1.233864616e+20
2.579898743e+20
7.851865745e+19
1.682542658e+20
1.570373148e+20
1.009525599e+20
1.233864613e+20
4.486780409e+19
1.346034132e+20
1.458203633e+20
1.233864613e+20
1.458203644e+20
8.973560883e+19
1.906881674e+20
1.233864621e+20
)
;
    }
    procBoundary0to2
    {
        type            processor;
        value           nonuniform List<scalar> 
31
(
6.248398848e+19
9.372598272e+19
9.372598272e+19
1.041399808e+20
1.457959731e+20
7.289798656e+19
8.331198464e+19
1.041399808e+20
1.24967977e+20
1.24967977e+20
9.372598272e+19
1.145539789e+20
9.372598272e+19
9.372598272e+19
1.041399808e+20
8.331198464e+19
1.145539789e+20
9.372598272e+19
1.041399808e+20
1.770379674e+20
8.595544028e+19
7.574279541e+19
9.807705538e+19
8.78048572e+19
9.949403591e+19
1.113533235e+20
1.149602165e+20
1.367962766e+20
1.059564728e+20
8.595544028e+19
5.334759983e+19
)
;
    }
}


// ************************************************************************* //
