/*--------------------------------*- C++ -*----------------------------------*\
| =========                 |                                                 |
| \\      /  F ield         | OpenFOAM: The Open Source CFD Toolbox           |
|  \\    /   O peration     | Version:  2406                                  |
|   \\  /    A nd           | Website:  www.openfoam.com                      |
|    \\/     M anipulation  |                                                 |
\*---------------------------------------------------------------------------*/
FoamFile
{
    version     2.0;
    format      ascii;
    arch        "LSB;label=32;scalar=64";
    class       volScalarField;
    location    "0.009";
    object      translationalT;
}
// * * * * * * * * * * * * * * * * * * * * * * * * * * * * * * * * * * * * * //

dimensions      [1 2 -2 0 0 0 0];

internalField   nonuniform List<scalar> 
654
(
290.4627536
304.6487493
296.3436432
298.8637188
300.0713158
299.3824542
300.1906204
299.5206111
299.4735104
299.2981776
296.751737
297.4630129
296.5953666
303.6950038
313.7742219
331.9875918
362.6884763
451.2684959
694.2502721
1327.914426
291.1341491
305.6361652
300.4673415
300.8371745
299.817564
300.6665717
300.6662117
301.6669462
302.6434298
300.5841742
299.8999852
301.7262857
309.6952578
315.5836758
320.6450997
341.4454124
387.7608507
492.5768629
746.9207902
1154.170988
292.9609418
309.9271702
300.3990875
300.5996437
299.6655163
300.0330179
298.3997217
300.3904811
300.6470956
300.9510494
300.8203326
299.1038978
301.2515964
311.2510619
319.7259612
335.6127538
400.249594
482.1171748
676.1659041
926.0779355
287.5246085
304.3072199
299.0051816
299.1009188
297.2714767
297.947359
296.6640287
298.1396239
299.414164
299.7011459
301.7435846
302.8510725
304.7272131
307.3770288
321.2556628
346.657562
377.3741483
458.2053357
586.5667263
766.157393
289.9470967
306.1550495
298.3130165
297.8441443
301.1053813
301.5553302
302.9214087
302.4262435
300.8505755
299.8984118
300.0313532
302.4696786
304.7670583
305.1578197
310.7196404
332.3524726
361.6985164
421.4289541
506.7787215
631.3438705
289.9992949
305.9913091
300.846713
301.9922403
299.7265856
296.202452
296.8311021
298.8616651
298.9903082
302.4566404
301.089923
300.9277133
302.7220867
303.4610789
315.6825873
333.3924305
355.6690922
414.0000175
456.1057929
549.7998417
291.3117017
305.9829662
298.1638643
299.5713325
301.4012813
302.6411941
300.4860324
298.0067231
298.1983276
300.443715
300.9608133
301.6676735
302.8146517
304.4847971
315.2288837
324.0577515
346.4300511
374.0683049
415.2310982
478.2832306
288.0308105
304.5851727
298.7691918
302.1675919
299.9208201
301.0738524
302.4154565
302.7423826
302.1036927
302.4004604
300.8172137
301.9692127
301.9609071
305.5390766
317.6899924
319.7946556
330.3815912
357.8303583
380.1540902
417.8641721
292.3686841
309.2318272
300.7587027
300.8287356
300.6356778
300.9589371
300.8907929
302.5580436
301.4224324
300.15362
301.5512027
301.1531276
303.7413426
308.1619366
311.1120238
315.3089966
329.881146
337.6020705
364.247973
389.26959
290.4227206
304.0795876
297.7425373
297.8466571
298.499328
299.4656875
298.542887
296.7668204
299.8645608
300.6121103
303.1568733
304.5599469
306.0649231
306.432596
307.0884433
314.19741
320.0870769
328.4209634
344.2019002
371.215761
290.715404
305.3443612
300.1677319
300.3122986
299.7620072
298.7885529
298.5964003
301.8924204
301.066525
302.117676
301.4283896
300.9023089
301.2223135
302.1409782
308.5450449
306.9173398
313.20614
323.5640338
331.3047739
355.36736
290.7352538
307.1165963
300.6270801
300.0879039
299.7215086
298.2564224
299.3567788
297.1904579
303.0191679
301.02081
299.5639843
298.5369545
297.8761826
300.9982268
301.447417
307.4809187
313.6666359
321.3830665
322.6819704
335.5208139
291.0321495
307.8319361
298.8070347
300.6287754
299.807424
300.4715475
302.1755436
303.3963052
301.6584259
300.5789795
301.3689273
300.8664551
304.4730151
303.4402219
302.497182
306.6073227
306.8749254
310.6455367
320.0017397
323.1254225
289.9852804
304.8438385
300.0876171
300.5481527
299.7408653
301.8532419
299.6621128
299.565827
299.2812749
298.0033882
300.9097194
301.4071638
299.8251769
297.7475051
300.0883458
300.4962672
302.5348931
305.6571537
311.5446548
318.3757988
292.8603236
309.4887967
301.3968586
298.9638043
301.4292393
299.2777208
297.9459908
297.0569034
298.3541784
299.4316525
298.5801716
300.041877
299.3678182
297.8518256
299.9543624
303.87946
306.0037865
307.2844007
306.8728455
309.6068925
290.1965596
304.9428102
299.6447755
299.0922814
298.2078304
299.1784021
300.5069925
301.0356998
300.5972349
300.4697622
302.5978881
299.8618919
299.8325934
301.232431
301.8765042
302.474796
304.1754332
305.227235
307.9531932
311.7307018
291.235915
307.1215306
298.3720873
300.3612348
300.5058089
299.5518072
299.4729131
298.6484339
299.1911874
298.6447214
299.4610575
300.0715567
299.6163647
300.4189324
301.150908
303.2035711
304.6182308
307.172686
305.7392472
310.5229721
288.9387244
304.2095747
300.6090462
299.8854217
299.820825
300.392512
299.3636663
298.321434
296.1538495
296.1011366
295.9936283
295.1614311
298.2736259
298.9307284
300.5909616
299.65549
297.8097454
299.5253013
301.2765599
305.7652305
287.078961
303.8197772
295.6637768
296.2719032
297.9393507
299.3521888
301.2231371
301.300736
301.476909
302.702478
301.0017114
302.1153562
300.6609346
298.717078
299.7482567
301.312461
300.5138932
299.4262343
300.1330604
299.4123106
291.073716
306.3008552
300.4872841
299.6364562
298.5427024
296.8329195
296.8321729
296.6121017
295.8091194
294.8769669
296.0161352
297.1041911
299.8565257
300.3570767
300.653
298.8862756
298.6220241
299.5155481
301.5076817
302.8854895
290.6180189
305.5634599
296.3233386
297.8832681
299.1871233
300.2628162
299.3796901
299.2345733
300.0096328
301.1676261
300.773151
302.089016
299.6377943
298.6597762
298.4643965
300.4786392
301.7650954
301.4303456
300.535276
302.0263571
289.8586808
306.3137389
298.4834119
299.0611836
297.73652
298.3851713
298.8947027
300.7194213
300.6834054
299.7024818
299.2439038
298.9551685
301.3354248
301.5676382
302.5280355
300.0737969
299.4659752
302.6888428
302.582072
302.4397836
1398.048948
1256.11674
1185.095396
1124.011015
1081.471857
1049.467011
1020.740289
981.4770376
970.4014024
947.5948373
1339.128011
1299.411363
1246.288316
1201.680847
1166.813366
1146.137159
1108.702065
1089.49036
1062.744502
1045.031584
1140.534305
1202.630585
1190.098839
1183.842016
1161.316674
1137.234305
1110.629312
1083.994179
1065.54722
1046.756865
949.6414523
1047.80105
1090.666574
1112.448073
1109.213577
1086.935379
1082.621814
1051.755761
1051.337606
1049.115316
759.3718341
875.2078546
949.4968104
1011.247531
1029.229194
1040.006015
1045.193635
1025.450024
1024.187788
1016.462187
650.4904758
759.8615183
828.1789135
892.9392394
930.7531904
961.3714364
983.8917128
991.4749866
1002.529946
990.2590682
543.887519
633.250114
693.6326984
779.3721814
817.7743737
870.3440932
900.0219442
924.4627907
939.2044234
949.6425199
475.0606268
550.5909924
591.689195
676.5226476
721.2208816
778.6965163
813.5665603
852.3170954
886.4380679
897.1564961
434.2875163
488.6578945
522.7326079
583.434354
622.6250898
680.1148168
739.4771655
770.5528176
807.2243019
833.5948346
392.2900752
420.5597425
472.5818627
516.104632
541.3929275
594.8924525
646.7864327
678.7501694
725.9842686
762.2877997
367.4929948
391.7543441
424.7880827
462.3325895
488.3737748
537.28141
581.9751172
615.8371368
648.5663666
680.0930853
349.6636707
371.0034716
390.1514872
423.5836965
437.7991508
476.7142342
514.5636592
540.3797301
578.6047546
608.7417751
336.6048903
351.9531444
373.2401058
382.1671282
395.9440589
432.742061
457.8552084
487.688245
507.1009367
548.5529953
331.1782042
337.9892128
351.4472202
361.5156561
376.9282822
387.2147791
413.1542786
442.749965
472.0670576
492.8792954
324.0712583
325.0872619
333.6345279
339.43008
358.6247881
373.0603594
387.2176174
411.9183145
435.3868586
454.2879908
310.3488916
318.5256629
327.2050988
335.4048662
341.2152841
356.9369355
365.7299396
382.4471009
403.7087467
419.1751624
311.3628412
316.3313264
320.7327115
322.064633
324.7351472
337.6974727
350.0356453
361.7145377
371.2170888
387.7013651
308.988799
309.2728058
311.2102378
315.9833191
318.2814411
325.7921041
333.1937257
340.1774422
353.0827118
363.6947202
301.2942722
310.2524891
313.2960627
314.2746598
317.5151063
322.2843964
326.2388851
333.5444361
338.708316
348.9470242
304.1290819
305.198064
307.6320657
307.5116131
310.6846159
313.6947201
315.8987744
325.1016972
331.0199974
334.0039606
300.8791983
301.9437077
304.47536
303.4448193
306.2447692
309.7627074
312.7998274
321.7015661
327.451149
330.690244
298.1434985
300.5218228
301.8536076
304.3466502
)
;

boundaryField
{
    flow
    {
        type            calculated;
        value           nonuniform List<scalar> 
42
(
290.4627536
291.1341491
292.9609418
287.5246085
289.9470967
289.9992949
291.3117017
288.0308105
292.3686841
290.4227206
290.715404
290.7352538
291.0321495
289.9852804
292.8603236
290.1965596
291.235915
288.9387244
287.078961
291.073716
290.6180189
289.8586808
290.4627536
304.6487493
296.3436432
298.8637188
300.0713158
299.3824542
300.1906204
299.5206111
299.4735104
299.2981776
296.751737
297.4630129
296.5953666
303.6950038
313.7742219
331.9875918
362.6884763
451.2684959
694.2502721
1327.914426
)
;
    }
    obstacle
    {
        type            calculated;
        value           nonuniform List<scalar> 10(1203.169896 1076.998072 991.1915582 946.4919061 896.6638047 877.2515377 877.0105701 834.6603047 813.9901234 818.0044169);
    }
    frontAndBack
    {
        type            empty;
    }
    procBoundary0to1
    {
        type            processor;
        value           nonuniform List<scalar> 
21
(
934.9869946
1022.914728
1033.659522
1027.939343
1004.669263
978.6991902
954.7571184
906.9739677
855.7527391
793.6534092
712.5902289
656.0190222
582.8598907
526.6702834
474.8752454
438.0882405
407.2392649
383.2209476
363.0910422
350.2112721
333.8278391
)
;
    }
    procBoundary0to2
    {
        type            processor;
        value           nonuniform List<scalar> 
31
(
287.6066814
304.0852217
298.3090111
300.3934183
299.846905
298.6458987
299.9716726
301.540173
300.6358074
301.2608595
303.2342973
303.0547713
301.5992056
300.8870491
299.1336757
300.2152114
298.8329192
297.9729907
298.1736472
299.6849942
305.3007224
307.8939731
305.313075
306.9648366
313.6941029
319.3537882
301.7531107
303.744352
302.3078121
305.3007224
303.120102
)
;
    }
}


// ************************************************************************* //
