/*--------------------------------*- C++ -*----------------------------------*\
| =========                 |                                                 |
| \\      /  F ield         | OpenFOAM: The Open Source CFD Toolbox           |
|  \\    /   O peration     | Version:  2406                                  |
|   \\  /    A nd           | Website:  www.openfoam.com                      |
|    \\/     M anipulation  |                                                 |
\*---------------------------------------------------------------------------*/
FoamFile
{
    version     2.0;
    format      ascii;
    arch        "LSB;label=32;scalar=64";
    class       volVectorField;
    location    "0.009";
    object      UMean;
}
// * * * * * * * * * * * * * * * * * * * * * * * * * * * * * * * * * * * * * //

dimensions      [0 1 -1 0 0 0 0];

internalField   nonuniform List<vector> 
654
(
(1706.435378 -8.965039699 -2.840655976)
(1743.407587 -8.238400732 -3.720770246)
(1736.78866 -10.33654753 -3.265254512)
(1738.142311 -9.2601525 -2.070099901)
(1736.091742 -9.189094532 -2.469755392)
(1737.043619 -9.559932925 -1.44813875)
(1737.746733 -8.209470426 0.482384689)
(1736.134191 -7.736375979 -1.557356785)
(1735.488449 -7.156269191 1.368346892)
(1733.610291 -6.512433777 0.9539181203)
(1734.401469 -4.622331415 0.4243228689)
(1733.324897 -3.84660437 -1.503860642)
(1733.316593 -4.542966575 -1.64065525)
(1733.117539 -6.53946631 -2.894587663)
(1729.552772 -4.009833143 -2.281620984)
(1723.737712 -6.506484035 -2.175267579)
(1711.384022 -8.1121904 0.1826368074)
(1674.503215 -15.28625311 -0.3155924269)
(1568.84123 -20.01862047 -1.401284912)
(1186.532059 10.80659676 1.853417479)
(1709.304144 -2.521139466 1.617469778)
(1745.642806 -3.635090253 1.705349302)
(1734.67238 -1.879552692 2.902174058)
(1733.607991 -3.027718151 0.5123997759)
(1734.165366 -0.5249438013 -0.4335651183)
(1733.960332 -2.300042313 -1.287402062)
(1733.02067 -3.282195106 -3.143788102)
(1733.518251 -2.279334514 -2.329287751)
(1735.084898 -1.18215302 -1.381385487)
(1737.55305 -1.57460515 -0.2882654349)
(1739.089571 -3.040982827 -0.4510505436)
(1738.173911 -2.651740362 -0.608900293)
(1735.611067 -1.992627285 0.4066325839)
(1732.408583 -2.104607899 -0.2344907659)
(1729.243198 -2.138913875 -1.54984467)
(1722.570871 -3.551502997 -1.57999294)
(1704.937248 -2.543962143 -1.065858656)
(1660.936624 2.084182195 -0.7885494843)
(1547.771418 16.43586345 -1.228735747)
(1307.888176 69.36700571 0.13023252)
(1708.630921 0.5423131369 4.24771301)
(1744.834011 -0.4562241869 4.089260585)
(1737.10417 -1.955118853 1.455449776)
(1735.860995 -2.66675463 0.7102689542)
(1736.738539 -5.609765084 1.534671453)
(1734.816607 -4.067766165 1.613252189)
(1736.732387 -1.058779337 2.643794809)
(1737.499897 -0.213159049 2.264278816)
(1735.392767 -0.824601363 0.4929759534)
(1734.373221 -1.975671688 0.3428486973)
(1733.264788 -3.349198771 -0.1334553796)
(1733.058865 -5.553258806 -1.068881434)
(1733.514316 -4.468154985 -0.8878151675)
(1728.466328 -3.365495807 -0.9984536666)
(1726.361082 -2.958543648 -2.039119392)
(1721.388755 -0.04413699629 -0.04057245201)
(1697.572669 1.99034557 0.618266038)
(1667.547946 8.487458167 -1.2590086)
(1581.656803 27.98176347 1.925839566)
(1442.638752 66.18235096 2.259869648)
(1707.692513 -2.652485631 0.1932106827)
(1741.818135 -2.551933653 0.2437701903)
(1732.977913 -1.54828523 2.095410083)
(1733.699176 -0.2993738116 2.796216286)
(1737.061952 2.633601006 2.44447278)
(1738.951125 0.510570457 1.572099908)
(1739.840983 -3.071469855 -0.4273985098)
(1738.511929 -4.579366059 -1.495220275)
(1738.391727 -3.775344236 -0.5576524565)
(1738.17432 -0.4771873089 -0.3350887859)
(1737.437919 0.7234612957 0.5022751494)
(1737.033293 2.638915776 -0.7204483783)
(1736.382846 3.250187659 -1.209441917)
(1733.935613 2.121776667 1.786313494)
(1727.388612 2.33498054 1.297270731)
(1716.033348 0.463836704 0.9202388462)
(1703.150657 3.927961356 0.530513125)
(1673.123923 10.8995329 2.781065799)
(1619.480904 24.99779261 0.857215791)
(1530.632949 54.9789591 3.288804527)
(1707.905554 -2.160637575 1.311417688)
(1745.154644 -1.874897129 2.228281186)
(1739.458187 -0.4524525061 1.581409954)
(1739.493407 -0.8345328152 1.323958858)
(1737.864797 -1.355814447 1.502770733)
(1735.276822 -0.8990121929 1.19285756)
(1735.048987 2.815960126 3.747877846)
(1735.870902 2.791978445 3.552583202)
(1737.01659 2.316889976 1.890012315)
(1737.977614 0.05664708437 1.95974478)
(1737.725293 -1.589884404 3.145422389)
(1734.296159 -0.1256034229 3.738213181)
(1733.829334 -0.5394621574 2.08224779)
(1733.983678 0.113059685 1.465085677)
(1732.78627 1.573988071 1.61293373)
(1725.372546 3.621115712 0.5494033972)
(1711.860261 6.554851456 1.278792199)
(1688.145779 10.22650591 -0.3697461758)
(1649.057012 22.18675968 -0.4547094794)
(1590.790253 45.84404742 1.311522295)
(1711.279805 3.840238555 -1.465331798)
(1749.688796 2.469561342 -0.684630863)
(1739.094382 0.9962947247 0.8382689662)
(1736.910814 0.1383103399 -0.8637875959)
(1737.879303 1.52926333 0.09923652365)
(1737.309427 -0.7929614119 1.150566369)
(1737.627159 -0.2896326175 -0.6719777088)
(1738.063013 -0.9465989525 -1.187598734)
(1736.26178 0.3921705027 0.7156674243)
(1736.202312 1.965365462 0.9191591746)
(1736.664305 2.402014056 0.7384568417)
(1738.379769 1.109012989 -0.8821897064)
(1738.506126 -1.649483746 -0.8311293366)
(1738.785156 -3.340981175 -0.2649411092)
(1733.572319 -0.1810634689 0.7367370832)
(1725.220822 -0.1662864088 -0.4177626659)
(1715.757671 4.996169388 -1.545627444)
(1691.780363 12.2023157 -2.403184688)
(1672.050063 19.64086653 -1.149987831)
(1631.84265 39.40995133 0.6338351297)
(1708.018689 -0.8647367834 -3.92765993)
(1744.506925 0.7578494127 -4.910362404)
(1735.964208 1.122319325 -4.644643407)
(1735.926774 1.814724115 -5.062342426)
(1735.202747 0.6923278937 -5.181284037)
(1734.724104 2.661689586 -4.256851144)
(1736.386813 -0.4501625896 -2.658251546)
(1734.651471 -1.611614943 -3.314875763)
(1734.870007 -2.017361892 -3.267249313)
(1733.275184 -2.196276413 -2.265953322)
(1732.914469 -1.813878432 -3.511193702)
(1729.587252 -1.34418104 -1.244904247)
(1729.742803 1.533181593 0.6533821172)
(1729.126188 3.303334582 -1.94111489)
(1724.970427 3.500948299 -1.137312936)
(1720.596237 4.033777288 -2.069891108)
(1713.250617 8.638626903 -2.775816057)
(1702.346618 9.428041263 -3.402630882)
(1688.210607 19.31891854 -1.182149213)
(1659.897868 29.6869291 -0.2631916722)
(1709.971197 -2.479925424 -3.883997496)
(1745.888018 -1.548553144 -3.477869524)
(1734.720768 -2.126721231 -2.399509234)
(1733.987597 -1.20790064 -1.866283401)
(1734.413148 -0.4874796104 -1.506518123)
(1736.813247 -0.8387405072 -4.122978615)
(1735.147817 1.738347245 -4.456564648)
(1734.249233 0.6871439575 -3.193581886)
(1732.906862 0.6471318995 -3.558882423)
(1733.103585 -1.331823989 -4.663756373)
(1732.912022 -0.9242464197 -3.466073111)
(1735.348656 1.089539613 -4.155866646)
(1733.669774 3.367950936 -4.676218751)
(1732.78681 3.399615564 -2.658739962)
(1727.752812 4.213330399 -4.335844914)
(1728.737186 3.040016917 -2.877092339)
(1726.437973 2.411234672 -0.575703765)
(1712.845643 8.787571358 -3.940035078)
(1702.045138 13.24307938 -2.958577704)
(1685.935418 21.39293657 -3.141297891)
(1706.34487 -1.098968458 -2.912013587)
(1743.351215 -0.4760075656 -3.112533442)
(1735.366705 -0.143465543 -4.872431309)
(1734.295879 -0.03892103326 -4.307412177)
(1733.416043 -0.8609414863 -3.334023388)
(1734.686172 0.00452097293 -2.103496469)
(1733.774807 -1.236711025 -1.256525786)
(1735.548606 1.188504038 -1.64594296)
(1736.994508 1.394839239 -1.627427609)
(1738.112838 4.589059275 0.8102916893)
(1736.34847 2.792914949 0.7431164571)
(1736.489479 3.058388401 -1.808201359)
(1734.199769 -2.503770553 -0.9428492521)
(1733.871033 -2.213205906 -0.2037198104)
(1733.073536 -1.729390068 0.7825537608)
(1729.345641 1.457161349 -0.0709033154)
(1722.577917 5.143449713 1.319352844)
(1719.535975 8.083795888 -1.763889999)
(1708.497148 11.21539286 -2.52909842)
(1698.154917 18.09213779 -1.060936079)
(1708.947616 -1.660085984 1.567657055)
(1745.901027 -3.267987428 1.911769013)
(1736.144118 -3.046981114 2.419525423)
(1737.249931 -2.773031787 1.159548746)
(1735.763957 -2.009262712 -0.1834707296)
(1734.297813 -0.417673154 -0.3062971793)
(1734.537876 -0.6102810323 0.8361166946)
(1733.000294 0.8590760701 -0.8336800116)
(1732.228977 2.828474661 -2.206441384)
(1732.739142 2.481789285 -3.597454344)
(1730.645525 2.133353868 -1.481458589)
(1731.494108 1.391325246 -0.6618094792)
(1732.623149 1.159479513 0.8764229045)
(1731.603054 1.067666729 -1.402634876)
(1731.828266 1.529896424 -1.468221654)
(1731.701495 1.332961992 -1.449585315)
(1727.493043 2.816764511 -1.114703624)
(1727.624675 5.971283769 0.1577905984)
(1718.866506 10.54785658 1.493246242)
(1708.133084 15.6039077 0.2298002184)
(1703.09179 4.369401107 -1.053321626)
(1739.221166 5.107859606 -1.808996374)
(1732.316835 2.900840814 -2.551723879)
(1733.261178 1.592947423 -1.743135461)
(1733.502443 1.203640527 -1.157324551)
(1735.230366 -1.009545903 -0.8725937146)
(1734.463851 -0.8764760718 -0.4811412674)
(1736.078278 -2.494273134 -1.972956761)
(1735.886165 -3.286226105 -1.057843905)
(1733.458458 -3.896017624 -1.708823526)
(1734.65101 -2.604980396 -2.148593497)
(1734.579846 -1.959102224 -2.110284947)
(1733.14881 0.6371047004 -1.875876784)
(1732.584878 3.069977184 -2.842078932)
(1731.450921 4.122180131 -3.123421357)
(1730.485196 3.901255724 -1.554392351)
(1729.99476 3.769372292 -1.008221751)
(1726.793544 2.308304869 -0.724888009)
(1723.069758 2.40085562 -2.063770947)
(1715.461131 8.327749681 -1.243227673)
(1708.970881 1.605073422 1.180129023)
(1745.042554 -0.184514851 2.190461323)
(1734.636461 0.586135676 3.629516546)
(1732.355398 0.8207450736 3.110337642)
(1733.864881 -1.033060459 2.102596656)
(1733.607503 -0.9133467955 0.8458915454)
(1731.963466 0.168556883 0.4217384358)
(1731.015271 -1.086609964 0.7255617545)
(1729.09724 -0.5812825242 2.027213584)
(1731.082587 -0.7178353843 1.722306871)
(1731.677319 -0.2086223298 0.9328311032)
(1732.998984 1.336448796 0.2037193265)
(1734.836669 0.08910682134 0.8569677905)
(1735.114985 -0.8693784522 0.3512013248)
(1733.923754 -2.790603969 1.213696356)
(1731.675153 -1.83536365 -1.600440539)
(1729.090204 -1.183189909 0.2708464708)
(1723.724685 2.079396299 1.491026158)
(1722.517734 2.422721491 -0.2508017136)
(1719.686235 5.652110384 3.377075328)
(1704.874645 1.561702962 3.275692398)
(1741.022393 1.060329785 0.4525947411)
(1732.660293 -0.1385863227 0.6434718265)
(1733.23797 1.339088656 1.123820601)
(1732.70005 0.7190309137 0.5428134218)
(1733.405304 0.5858455182 1.034588063)
(1734.056393 -1.303910816 0.7699078852)
(1734.801166 -0.6418869367 -0.8798741294)
(1736.557049 0.6061520896 0.1414165826)
(1737.390464 -0.4043398374 1.047055289)
(1735.909408 -0.4357966108 1.287318349)
(1734.056773 -3.737834733 0.2958563415)
(1733.502919 -5.197078928 0.8624362682)
(1731.113501 -5.16465378 1.705275788)
(1732.867617 -2.530597679 2.222109158)
(1731.231129 -0.4358658805 2.505978048)
(1732.775246 -0.8658065103 1.052489854)
(1734.105784 1.018912577 1.371467855)
(1730.88155 2.749116555 1.627619647)
(1728.540225 7.380502735 0.5858160648)
(1702.158465 -2.038849585 0.7857082709)
(1741.522313 -1.395212678 -0.03489590889)
(1733.675307 0.6290399558 -1.45648569)
(1733.273926 -0.332737175 -3.166356914)
(1735.194197 -1.047701836 -1.736853679)
(1734.958681 0.5225223652 -0.8785711333)
(1736.583715 3.2103973 0.2920381959)
(1738.043363 2.030220377 1.165090633)
(1737.107242 -0.4130339339 1.121730362)
(1736.388639 -1.480651012 2.229054969)
(1735.91915 -2.4831783 0.5847188644)
(1735.395939 -0.04064703741 2.193242703)
(1736.293651 1.131925945 2.158130883)
(1737.725416 0.4155055606 2.065502007)
(1738.086137 -0.7920148237 1.26597587)
(1736.902714 -0.6657150068 -0.3036593126)
(1735.396313 0.1442841234 -2.408332835)
(1731.767588 1.056658983 -0.2393959287)
(1728.153104 2.698119535 -1.613482504)
(1726.272265 2.98429825 -2.319576417)
(1711.136408 -1.189240622 -1.025493018)
(1746.772062 -1.574008061 0.3013554583)
(1737.149659 -2.179633932 2.503982203)
(1738.648029 -2.738508611 3.071997197)
(1738.012181 -1.562198296 1.731368367)
(1736.196188 -1.366286356 -0.08192107649)
(1735.443179 -2.008917122 0.8414627082)
(1734.134115 -1.966858708 -2.115703543)
(1734.882981 -0.1624374226 -0.867833461)
(1734.892339 0.6374802541 -0.5210810898)
(1735.491553 1.608689552 0.08617236178)
(1735.473056 -1.388490827 -0.7447424046)
(1735.669069 0.3718866199 -0.7495896822)
(1736.699286 2.125279028 -2.649424734)
(1734.958482 3.322561838 -2.299587627)
(1734.022312 4.768879345 -1.113925756)
(1733.247258 4.426565501 0.565021446)
(1732.290916 4.216788158 0.0874074464)
(1734.258107 5.605776733 0.7988967056)
(1733.326864 3.653299024 -0.3725918166)
(1705.296583 -3.751281651 1.247482369)
(1742.79094 -4.239813166 0.521890931)
(1732.835281 -2.658259364 0.3362359576)
(1730.943626 -0.754504806 1.628748166)
(1730.293701 -1.23715153 2.378613112)
(1732.058919 -1.902541854 3.141871337)
(1733.254559 0.1990069866 2.345910614)
(1734.212664 -0.5948366897 2.561111499)
(1734.377023 -2.138356294 2.63065784)
(1734.789539 -1.048872094 0.7566181794)
(1734.70965 0.4081039665 0.6233981246)
(1737.91335 3.502386754 -0.03193775019)
(1739.086056 5.754459528 1.541471746)
(1738.280151 4.023874413 3.786657569)
(1737.350594 2.699181812 4.752754292)
(1738.234413 1.895741231 3.352909552)
(1736.130648 2.167176487 2.413284931)
(1737.216476 3.031182946 2.081865269)
(1734.312162 3.315043414 0.273820345)
(1732.655055 3.668290556 0.4570994761)
(1706.705424 2.741310367 -0.3664650316)
(1745.408471 3.108005108 1.075945841)
(1736.075551 -0.9472057822 -0.0570942056)
(1736.427355 0.40309358 -2.450040568)
(1736.353272 0.6699905201 -3.704192959)
(1736.340459 -0.7033168692 -4.887023827)
(1735.623135 0.2896562551 -4.407631507)
(1735.904243 0.9872190599 -3.489429984)
(1734.525679 2.305960062 -3.435979492)
(1735.138734 3.710526037 -2.995345333)
(1733.977473 2.148734361 -1.420035164)
(1733.330586 1.672409763 -0.7731702977)
(1733.013328 -0.2236172172 -2.544402885)
(1733.705138 -0.02074995155 -4.620500344)
(1733.375804 1.135391665 -4.016547699)
(1730.176762 -0.2853401411 -2.311844962)
(1729.451161 1.222530395 -3.660057699)
(1730.380484 0.8400869645 -2.435467268)
(1731.383931 4.070419652 -1.886110461)
(1729.935371 3.073746097 -0.7411506571)
(1713.542413 0.9107905956 0.09611716893)
(1749.148146 -0.1019946051 -0.4165455848)
(1739.330526 3.209073333 0.8723077066)
(1738.01473 4.363027543 0.03260315459)
(1739.025641 4.826677969 2.517639048)
(1738.754605 2.494947328 1.065737282)
(1738.553835 1.646500587 1.659618958)
(1740.385963 1.397259706 0.598046303)
(1740.028681 -0.4524683793 1.255622993)
(1738.02575 -1.772631956 -0.5039108582)
(1735.241368 -0.4618796177 -1.920733865)
(1736.013039 0.8195048942 -0.9656511377)
(1731.782567 2.136210196 -0.1087805138)
(1733.40355 1.591636563 1.018567215)
(1734.438644 1.169710389 0.952724211)
(1736.118118 3.569069208 1.219022799)
(1737.090019 2.006080097 2.524837833)
(1735.275764 0.9371553451 0.8632685992)
(1734.325132 1.071248698 2.265865778)
(1733.623007 2.089078959 1.961535726)
(1705.717891 3.718042428 -1.470801569)
(1741.683566 2.785284455 -2.509680334)
(1734.951427 3.21342999 -3.209104625)
(1733.361049 1.372750135 -0.9481892618)
(1734.390105 -1.143385735 -3.302006989)
(1732.790972 2.826123889 -2.41076652)
(1732.48893 2.816621629 -1.380992116)
(1732.541727 3.68097384 0.5869809124)
(1732.549686 4.17711644 0.5952775833)
(1735.492939 4.173145452 0.7556909764)
(1734.813932 0.877178592 1.213053122)
(1734.670671 0.5595208512 0.3738197873)
(1734.949841 -0.1002461014 0.8277535758)
(1734.970327 -0.8921238106 -0.02053293408)
(1733.317111 -0.6072127906 -0.9132913864)
(1732.905464 -0.8721294921 -1.606044088)
(1733.770617 0.1637654639 -1.535013227)
(1733.272734 0.2727798522 0.02892063924)
(1734.250432 1.379549264 1.021690571)
(1733.922305 2.222443013 2.031588305)
(1710.197299 1.691502678 -1.875216388)
(1745.72947 0.6785955092 -2.85235193)
(1736.578998 -1.019345586 -2.712411806)
(1736.406727 1.124478082 -2.717427964)
(1737.817224 4.034381462 -1.87865815)
(1736.904216 3.446490085 -0.6560220798)
(1736.951967 0.9815379719 -1.648359097)
(1736.263919 3.816801414 -1.343666447)
(1736.880035 2.121491737 -1.950628689)
(1734.95962 3.1638523 -3.094792239)
(1735.678273 3.667470611 -2.601807492)
(1736.502396 2.804363954 -2.157677678)
(1736.656175 3.148001764 -2.543489294)
(1735.944804 4.742496507 -2.914393408)
(1735.714382 2.330485674 -1.589935142)
(1738.531976 2.530901153 -1.933152225)
(1736.378469 2.6732306 -0.7149199816)
(1739.321173 -0.4486084049 -2.365636743)
(1735.620692 1.302066332 -2.909375835)
(1734.522025 -1.497324108 -4.810245706)
(1709.39605 -4.407485646 0.1409737845)
(1746.020712 -1.571753777 0.1780220111)
(1737.348785 3.027739458 -0.1863368095)
(1737.07925 1.634051152 0.6224974506)
(1736.566078 2.4091632 -1.333292027)
(1736.606219 3.02519974 -1.278145833)
(1738.815255 3.682402489 -0.5410941268)
(1737.737311 2.086989785 -3.264608915)
(1738.571627 1.39851069 -1.067555624)
(1739.511027 1.083428413 -1.510885406)
(1740.913836 0.9079826888 -1.699688982)
(1739.739313 1.814156108 -3.205910985)
(1739.164185 -0.143206391 -2.627992672)
(1739.669248 0.7017204614 -1.002057012)
(1738.317038 3.296116814 -0.04198506868)
(1737.158249 2.471376964 -0.2551032164)
(1735.310986 0.7542017003 -0.6768986)
(1733.456252 -0.7076263411 0.2262137044)
(1734.626892 -1.291135845 0.5767798642)
(1733.766732 -0.5117551893 0.3352429509)
(1707.947322 4.965398917 0.3659138089)
(1747.152009 2.6384715 -0.6484823981)
(1738.055364 -2.63369242 -2.308248154)
(1739.97854 -0.5132642119 -1.707344873)
(1739.307311 -0.3863724989 -1.660898936)
(1737.506263 1.641916233 -0.7755187304)
(1735.599594 1.544955802 -2.020879267)
(1736.029203 2.123683867 1.098608939)
(1734.295159 2.447756892 1.382694358)
(1733.545474 3.133809493 0.2070002105)
(1732.351013 3.169068229 4.147822259)
(1730.78091 -0.7304723781 3.333730349)
(1730.578184 -1.179029335 3.295188471)
(1731.328446 -2.211906861 1.694632869)
(1731.820677 -4.181585119 -1.192658808)
(1735.184606 -3.645285471 -0.325797902)
(1734.933041 -1.554000625 0.8179421479)
(1735.426773 2.68401202 -0.7912349824)
(1736.836155 3.389830694 -1.057171174)
(1737.529863 5.014539429 -1.511955714)
(668.3667147 150.9842924 -5.138321347)
(604.8526376 172.085521 2.120162765)
(570.1318908 164.2070797 0.9851889512)
(530.7874027 153.1401308 2.318446816)
(502.4728882 147.5964123 4.214242231)
(473.4870146 135.1556771 2.057321257)
(443.5304836 127.9514196 -1.155857495)
(417.3269877 121.8474055 -3.525885625)
(403.0746932 115.3282393 -4.653703198)
(386.7965293 112.7596431 -2.050685146)
(1059.121163 161.258046 -5.518203707)
(943.5752362 222.2442749 -4.061764371)
(893.1782763 245.4772153 2.428115387)
(857.1110998 248.9554051 -1.951083483)
(818.5155231 244.4221965 -7.666635465)
(777.8081619 243.2522455 -6.391970523)
(750.8809175 230.0537208 -4.089180597)
(712.3884986 224.3035858 -3.125901957)
(685.2294821 212.7965611 0.2140544801)
(664.4580929 200.648791 1.992945403)
(1277.045621 137.4050138 0.4696137291)
(1168.040634 198.5425448 -5.721703181)
(1105.046193 243.7906775 0.9713646961)
(1053.962349 271.3212216 -4.431336105)
(1013.584264 283.3801982 -0.3271514782)
(980.8470002 294.9102789 0.6410883627)
(951.1634497 296.5205539 -2.728431579)
(921.3991906 293.0920783 0.4226792436)
(893.7586124 282.0960441 0.4339797662)
(854.3804123 277.7950947 -0.9803845129)
(1420.771821 105.7428429 3.998381364)
(1327.71419 159.4370909 1.824560538)
(1255.933509 205.738417 8.490542058)
(1192.114071 251.0439658 -0.1092708436)
(1149.334565 281.8341603 2.663936341)
(1116.527777 298.8107951 -3.150322625)
(1082.949462 313.4206048 -0.5594825074)
(1067.163446 322.0730713 -4.071955783)
(1041.872884 327.9661283 -0.7688508568)
(1008.553113 326.1160222 -2.385355454)
(1519.819883 82.22480593 0.06847405049)
(1445.514406 126.5280109 1.767393599)
(1385.020101 169.8989535 2.109054741)
(1320.684708 210.8088519 2.361639066)
(1278.96646 248.688863 3.715010297)
(1238.661288 285.1262471 4.735978301)
(1199.876901 305.3104562 1.957341317)
(1180.107594 325.0042007 -0.9051736097)
(1142.826608 337.6337479 -2.136037006)
(1112.687009 343.5306745 0.2454029229)
(1583.020069 63.64744555 1.52121957)
(1524.632091 96.90518773 2.341110913)
(1481.495536 131.3413795 5.880162228)
(1428.818189 175.115275 2.817017392)
(1384.668203 212.8126609 -1.385945363)
(1337.972698 242.99723 -2.634206178)
(1293.859424 279.1427564 -2.936105722)
(1266.573147 301.0874019 0.7378328183)
(1234.243597 323.9234466 2.904572996)
(1213.827335 338.0977007 -0.8029334139)
(1630.009339 47.15694281 -1.384981152)
(1589.801419 72.9886096 1.011467158)
(1551.89519 101.5784767 -4.740712515)
(1500.587994 137.4192166 -1.371851121)
(1465.657301 167.1383505 0.007544225361)
(1428.090886 204.3707484 -5.797968697)
(1389.706734 235.808531 -5.087413708)
(1355.081601 270.751933 -2.797862767)
(1322.921171 296.7251709 -4.545366628)
(1292.965496 316.1190818 -1.573067879)
(1660.255204 35.31168186 -1.251867964)
(1625.219174 57.60031873 -2.077063214)
(1606.769731 77.24452557 -0.1082972079)
(1561.544566 104.2152443 0.5687310288)
(1535.609234 130.3122988 3.589128902)
(1497.1947 163.2918097 3.782603407)
(1465.282765 190.5694072 0.8995868957)
(1428.500055 223.0618714 -0.891732063)
(1390.89276 256.6535008 -1.466444784)
(1359.82135 286.0332405 0.628699379)
(1678.369118 29.19743718 -2.354924729)
(1658.285717 41.44682465 2.020714702)
(1639.228145 57.84687867 1.483324531)
(1610.300197 74.68233339 -1.549388394)
(1590.008266 99.67873342 2.804317818)
(1559.63918 125.2079293 5.370802649)
(1525.940912 157.3521427 -0.03942745639)
(1499.842347 185.0478879 -1.460175734)
(1470.159171 214.6304323 -3.797484054)
(1435.523716 245.5240839 -2.967292649)
(1699.340211 20.40661927 1.667411683)
(1685.867353 31.24889028 -0.9939203565)
(1666.690119 43.27966445 -0.5276317815)
(1647.142338 58.98607985 -0.2679222003)
(1631.589196 73.09710549 -0.5603301711)
(1605.558902 96.16482479 2.067464089)
(1577.994958 126.3274298 -2.421442986)
(1555.921909 145.5454871 1.680547719)
(1529.248163 176.8092171 0.5346599791)
(1501.388343 205.9643924 -0.8300907466)
(1709.402203 13.34211502 -3.266588707)
(1699.305685 22.3391501 -0.8347082047)
(1686.014582 31.72648494 -4.105627566)
(1669.695539 45.76600745 -1.166855647)
(1658.455548 59.6146014 -1.323255156)
(1634.907541 76.36651995 -0.8686282975)
(1613.229916 98.06328206 4.276356349)
(1588.655487 117.4557069 5.089171773)
(1569.457416 143.5830757 5.489108079)
(1548.865549 169.5375364 1.683399188)
(1716.155139 8.468098105 4.086146589)
(1707.972253 12.09089852 2.611732214)
(1700.701876 19.8722546 2.690888373)
(1685.211044 34.03792644 4.568286576)
(1678.080469 40.48160303 3.053967423)
(1662.370193 56.28967091 3.47989975)
(1644.390871 73.51660604 3.045440463)
(1626.544855 90.96485398 -0.2654048215)
(1607.795054 107.5988531 3.195206386)
(1593.971811 129.59094 2.333482598)
(1721.202357 11.13574188 1.701633276)
(1712.470475 16.44669237 1.597291935)
(1703.894789 23.22892528 2.587462539)
(1700.935014 24.98705657 -0.6917059432)
(1693.23561 30.84828093 -1.394787384)
(1679.765566 43.32952701 -2.611235255)
(1667.892429 52.33714892 -1.772826845)
(1659.62085 68.10997695 -3.23547938)
(1651.903542 82.57501658 -4.164077803)
(1627.523364 99.97662001 -3.31685553)
(1721.123058 7.376474231 -1.196126177)
(1719.366499 9.174086042 -0.5140271329)
(1714.51952 14.77726893 -2.331847549)
(1711.337524 20.7460073 -0.8384506959)
(1704.575038 25.00291976 -2.597496532)
(1701.019094 30.49587611 -4.072859949)
(1691.466545 38.07322983 -1.890188417)
(1681.417158 51.99310393 -1.575319929)
(1666.798242 62.76092141 -4.838647704)
(1656.076346 74.62163663 -0.6981967455)
(1727.480835 5.816786245 -1.445650273)
(1724.910445 6.947026129 -0.5813787474)
(1725.518016 9.482497775 1.743689202)
(1722.025702 10.20586315 0.9840489371)
(1715.871509 18.21329166 2.131686519)
(1711.896188 23.28921565 0.7877516058)
(1703.992246 29.71138025 0.3025928708)
(1694.861902 36.37290672 -0.2698414778)
(1685.339723 50.02708938 -0.9650053873)
(1676.526832 60.38035541 0.501510942)
(1734.32415 3.666498641 -0.2447771084)
(1732.377429 6.073061083 -2.054139991)
(1727.693841 8.324321893 -4.010493514)
(1726.255182 12.08669827 -0.8244658914)
(1722.25458 11.81403313 -2.043695733)
(1715.129734 18.97736589 -1.028280746)
(1710.353363 23.93188619 -1.000259403)
(1702.0478 29.38083659 0.4941764714)
(1690.635957 34.77046563 1.23691151)
(1683.539319 42.7983384 -0.5903472304)
(1728.748145 3.16208609 1.671972098)
(1727.458597 0.3763431139 1.524458898)
(1726.660429 1.688992517 0.1140319787)
(1724.311377 4.4124415 1.943561975)
(1723.449101 6.434889873 1.465096245)
(1718.793704 12.77270896 3.550547798)
(1712.349038 14.16277251 4.749834836)
(1708.90139 20.57634787 5.215713745)
(1707.429811 28.08672841 5.076961294)
(1704.127058 35.58705806 4.174532453)
(1730.521504 4.035603384 1.376017981)
(1729.84848 6.872255382 1.598080256)
(1728.01082 5.274095855 2.094180895)
(1726.724239 5.644567257 1.145666938)
(1725.232077 5.308004487 1.462903836)
(1722.87047 4.198689202 -2.249935664)
(1721.166238 11.87208961 -3.021721145)
(1720.342353 14.62399468 -1.715693866)
(1713.519704 16.96010078 -3.080836895)
(1707.764985 24.61065292 -1.775225979)
(1734.015267 3.597631613 1.148187169)
(1732.610227 2.919693541 -1.970656421)
(1730.450242 3.663815555 -2.005687725)
(1729.95173 3.488453847 -2.952712631)
(1732.838127 5.408605465 -3.892248836)
(1729.945625 9.612825643 0.1962940082)
(1726.837668 10.32228353 -3.225225997)
(1723.927303 13.12557969 -3.401142722)
(1719.793912 19.09181845 -2.446274912)
(1716.354029 20.3631436 -3.516247353)
(1734.852853 -2.441273258 -4.360622522)
(1733.080065 -2.410445887 -4.199640099)
(1732.15449 -1.240794178 -3.320123186)
(1732.253387 3.594413054 -1.780465791)
(1730.665553 7.310957352 -1.838063512)
(1730.015164 7.131584448 -2.733153952)
(1729.193833 9.448459455 -2.073772594)
(1726.048685 13.23699222 -2.342875673)
(1726.441363 14.19400386 -2.923339609)
(1724.802558 13.37566859 -2.759413836)
(1735.01513 -0.9308003018 1.566198835)
(1736.194224 3.784455324 1.436660189)
(1736.009174 5.555720299 0.6932815913)
(1736.945873 5.324895412 -0.3498574874)
(1737.280375 4.216412285 0.2327021024)
(1735.441174 5.608875149 0.351678433)
(1734.373765 4.344266498 1.280428544)
(1729.540222 5.992641371 -1.003037997)
(1725.286721 7.768368114 1.739118229)
(1724.100971 10.44083076 2.765791939)
(1738.197742 3.86283798 -2.334173743)
(1738.438993 6.410159865 -1.87874953)
(1734.50156 3.95651902 -2.626452771)
(1734.972893 4.436396142 -1.920652653)
)
;

boundaryField
{
    flow
    {
        type            calculated;
        value           nonuniform List<vector> 
42
(
(1706.435378 -8.965039699 -2.840655976)
(1709.304144 -2.521139466 1.617469778)
(1708.630921 0.5423131369 4.24771301)
(1707.692513 -2.652485631 0.1932106827)
(1707.905554 -2.160637575 1.311417688)
(1711.279805 3.840238555 -1.465331798)
(1708.018689 -0.8647367834 -3.92765993)
(1709.971197 -2.479925424 -3.883997496)
(1706.34487 -1.098968458 -2.912013587)
(1708.947616 -1.660085984 1.567657055)
(1703.09179 4.369401107 -1.053321626)
(1708.970881 1.605073422 1.180129023)
(1704.874645 1.561702962 3.275692398)
(1702.158465 -2.038849585 0.7857082709)
(1711.136408 -1.189240622 -1.025493018)
(1705.296583 -3.751281651 1.247482369)
(1706.705424 2.741310367 -0.3664650316)
(1713.542413 0.9107905956 0.09611716893)
(1705.717891 3.718042428 -1.470801569)
(1710.197299 1.691502678 -1.875216388)
(1709.39605 -4.407485646 0.1409737845)
(1707.947322 4.965398917 0.3659138089)
(1706.435378 -8.965039699 -2.840655976)
(1743.407587 -8.238400732 -3.720770246)
(1736.78866 -10.33654753 -3.265254512)
(1738.142311 -9.2601525 -2.070099901)
(1736.091742 -9.189094532 -2.469755392)
(1737.043619 -9.559932925 -1.44813875)
(1737.746733 -8.209470426 0.482384689)
(1736.134191 -7.736375979 -1.557356785)
(1735.488449 -7.156269191 1.368346892)
(1733.610291 -6.512433777 0.9539181203)
(1734.401469 -4.622331415 0.4243228689)
(1733.324897 -3.84660437 -1.503860642)
(1733.316593 -4.542966575 -1.64065525)
(1733.117539 -6.53946631 -2.894587663)
(1729.552772 -4.009833143 -2.281620984)
(1723.737712 -6.506484035 -2.175267579)
(1711.384022 -8.1121904 0.1826368074)
(1674.503215 -15.28625311 -0.3155924269)
(1568.84123 -20.01862047 -1.401284912)
(1186.532059 10.80659676 1.853417479)
)
;
    }
    obstacle
    {
        type            calculated;
        value           nonuniform List<vector> 10((421.6654579 112.9849189 2.268790083) (338.1320677 90.60221452 -1.644242112) (310.1482336 83.10396872 5.650519958) (277.4815418 74.35095503 12.95478137) (265.2537522 71.07452864 3.013890105) (253.3004629 67.87165461 11.39180815) (216.1694872 57.92243934 9.889376197) (215.2850387 57.68545235 -5.72016947) (213.4681814 57.19862691 -18.94514587) (204.8657282 54.89360627 -2.961263012));
    }
    frontAndBack
    {
        type            empty;
    }
    procBoundary0to1
    {
        type            processor;
        value           nonuniform List<vector> 
21
(
(373.935828 103.4461881 -0.156149416)
(635.8668793 197.1912986 -6.242941937)
(836.3278418 268.3670323 -6.005275452)
(988.3591551 316.1682326 -0.2949462687)
(1099.384077 346.2570963 1.86804263)
(1183.618172 350.5408673 -1.028874904)
(1266.126507 337.0306929 -3.970702186)
(1336.872791 310.0856286 -3.898755887)
(1407.489544 276.0933359 -0.2790030824)
(1468.213548 236.3596818 2.11466834)
(1524.822336 194.3217555 -1.895571671)
(1566.508438 154.9999213 3.410384188)
(1613.162942 117.7453973 -3.094132746)
(1638.913874 95.93045295 -1.637196862)
(1665.392746 69.94045083 -2.321899519)
(1675.341033 54.21952043 3.08995036)
(1694.186264 44.83055407 3.715656405)
(1701.739655 33.86538534 -2.328712181)
(1708.95484 25.21492934 -0.6218403111)
(1720.481248 15.73977532 -4.509238944)
(1724.281713 12.00065947 2.482126575)
)
;
    }
    procBoundary0to2
    {
        type            processor;
        value           nonuniform List<vector> 
31
(
(1708.10677 1.91242592 0.9022287506)
(1742.050992 3.608048459 1.108781258)
(1733.930086 4.331253109 2.190211109)