/*--------------------------------*- C++ -*----------------------------------*\
| =========                 |                                                 |
| \\      /  F ield         | OpenFOAM: The Open Source CFD Toolbox           |
|  \\    /   O peration     | Version:  2406                                  |
|   \\  /    A nd           | Website:  www.openfoam.com                      |
|    \\/     M anipulation  |                                                 |
\*---------------------------------------------------------------------------*/
FoamFile
{
    version     2.0;
    format      ascii;
    arch        "LSB;label=32;scalar=64";
    class       Cloud<dsmcParcel>;
    location    "0.01/lagrangian/dsmc";
    object      coordinates;
}
// * * * * * * * * * * * * * * * * * * * * * * * * * * * * * * * * * * * * * //

6158
(
(0.5617298661 0.0547110633 0.2191350669 0.1644240036) 473 928 2
(0.6589528177 0.07101758402 0.1705235911 0.09950600713) 141 276 2
(0.09761849409 0.451190753 0.02634683358 0.4248439194) 172 278 1
(0.1143384611 0.4428307694 0.3025143922 0.1403163772) 352 632 1
(0.3526742069 0.09048201236 0.2331808842 0.3236628965) 203 1262 1
(0.259464929 0.1346914672 0.3702675355 0.2355760683) 413 810 2
(0.4691937467 0.1254394209 0.1399637057 0.2654031266) 140 273 1
(0.8552123032 0.06010380065 0.07239384839 0.01229004775) 473 926 1
(0.003367223361 0.255540869 0.4983163883 0.2427755193) 413 810 2
(0.2095808659 0.1194179271 0.2757916399 0.395209567) 30 57 1
(0.2273426715 0.3863286642 0.3352149946 0.05111366961) 263 515 1
(0.7676392935 0.05057205112 0.1161803532 0.06560830211) 413 810 2
(0.2374800158 0.3812599921 0.1649144769 0.2163455152) 320 569 1
(0.2152948271 0.3923525865 0.1111737853 0.2811788012) 83 161 1
(0.5674113141 0.216294343 0.03403163905 0.1822627039) 199 389 2
(0.4082149865 0.08063693462 0.2152555721 0.2958925068) 383 692 2
(0.214323003 0.3382980668 0.05454043171 0.3928384985) 82 103 2
(0.1345356139 0.1204064842 0.3123257089 0.4327321931) 171 334 1
(0.1850569236 0.4074715382 0.3428602202 0.06461131796) 173 279 1
(0.04173693823 0.4791315309 0.08422585019 0.3949056807) 321 571 1
(0.3154311126 0.08985380664 0.252430637 0.3422844437) 232 454 1
(0.4778473036 0.2610763482 0.1988659067 0.06221044148) 473 926 2
(0.00853860038 0.1650956427 0.3306350571 0.4957306998) 292 572 1
(0.3615857071 0.3192071465 0.2008692351 0.1183379114) 528 978 1
(0.1948465061 0.2240163226 0.1785604244 0.4025767469) 173 1261 1
(0.5530328358 0.2234835821 0.037495755 0.1859878271) 203 397 1
(0.01896333928 0.4905183304 0.1013605276 0.3891578028) 473 928 1
(0.6837361127 0.1581319437 0.130577834 0.02755410965) 408 800 2
(0.458558381 0.2707208095 0.04364094347 0.227079866) 141 217 1
(0.08004538863 0.4599773057 0.2506434171 0.2093338886) 288 565 1
(0.2290425621 0.3680526096 0.01742610941 0.385478719) 413 1269 1
(0.1628212868 0.4185893566 0.2039283387 0.2146610179) 293 1265 2
(0.2876893163 0.007319242954 0.3488360989 0.3561553419) 113 1259 1
(0.2839508777 0.2599296788 0.09809488239 0.3580245612) 502 985 1
(0.3271080528 0.3364459736 0.1683244496 0.168121524) 16 28 2
(0.4982825674 0.057036513 0.1938222033 0.2508587163) 141 217 2
(0.5589089374 0.2205218666 0.2205455313 2.366468609e-05) 413 808 1
(0.3340276901 0.332986155 0.2591944726 0.0737916824) 171 335 1
(0.1223975452 0.05595573086 0.3828454965 0.4388012274) 323 574 2
(0.5425066298 0.2287466851 0.1453821618 0.08336452325) 262 455 1
(0.05081771584 0.4468426691 0.4745911421 0.02774847302) 469 921 2
(0.8701128641 0.06494356797 0.04231108589 0.02263248208) 83 104 1
(0.1282443799 0.43587781 0.00213510562 0.4337427044) 592 1163 1
(0.1331088068 0.2583179072 0.4334455966 0.1751276894) 52 98 1
(0.02124531948 0.2355634926 0.4893773403 0.2538138477) 383 749 1
(0.8693639855 0.004961713149 0.06531800726 0.06035629411) 533 1046 2
(0.8230974898 0.07304379273 0.01540746238 0.08845125511) 200 391 1
(0.5658679437 0.2170660281 0.0567685073 0.1602975208) 79 154 1
(0.715003145 0.1424984275 0.1350911432 0.007407284343) 263 513 2
(0.5940150922 0.2029924539 0.04053869532 0.1624537586) 472 926 2
(0.1622184756 0.08753861638 0.4188907622 0.3313521458) 441 863 1
(0.1240702564 0.4379648718 0.05920849572 0.3787563761) 473 928 1
(0.05762647251 0.4711867637 0.3593442837 0.11184248) 503 1272 2
(0.6586303434 0.1706848283 0.131495092 0.03918973633) 197 386 1
(0.9199294198 0.03973324068 0.0003020494037 0.04003529009) 413 1269 1
(0.2935999423 0.07319061834 0.2800094105 0.3532000288) 652 1252 1
(0.1983845908 0.09445458001 0.3063531246 0.4008077046) 352 632 2
(0.4050907133 0.2974546433 0.1991951998 0.09825944355) 592 1104 1
(0.1362570856 0.2184890695 0.2133823877 0.4318714572) 623 1164 2
(0.2253904835 0.2384306534 0.1488741049 0.3873047582) 263 1264 1
(0.5249238632 0.2375380684 0.2237081811 0.01382988725) 112 160 1
(0.1025225887 0.0909181602 0.4487387056 0.3578205454) 107 209 2
(0.296216437 0.3518917815 0.04999941059 0.3018923709) 143 1260 2
(0.1108767581 0.2176312175 0.4445616209 0.2269304034) 378 742 2
(0.4849149443 0.1118935034 0.1456490244 0.2575425279) 28 53 1
(0.1643356475 0.4178321762 0.3682632979 0.04956887834) 381 747 2
(0.04377791527 0.4781110424 0.1200476624 0.35806338) 322 631 2
(0.55718773 0.03651251013 0.221406135 0.1848936249) 82 160 2
(0.1157489111 0.4421255445 0.07142549731 0.3707000472) 12 20 2
(0.1067444801 0.44662776 0.298812014 0.1478157459) 52 58 1
(0.2395587382 0.307817753 0.07240287793 0.3802206309) 171 276 2
(0.08497000528 0.4575149974 0.04339155009 0.4141234473) 563 1046 1
(0.05052392676 0.4747380366 0.3832148148 0.0915232218) 352 632 1
(0.748382353 0.1105028129 0.01530601064 0.1258088235) 412 750 2
(0.4684001642 0.2657999179 0.09190209675 0.1738978212) 323 631 2
(0.7035181242 0.01630042892 0.1482409379 0.131940509) 373 732 2
(0.3781248017 0.04116458155 0.3109375992 0.2697730176) 172 337 2
(0.1443476765 0.3071824838 0.1206436779 0.4278261617) 346 678 1
(0.05415368135 0.02329719299 0.4496259663 0.4729231593) 54 61 2
(0.006483628646 0.4961650435 0.4967581857 0.0005931421336) 410 805 2
(0.7447675768 0.02145085683 0.1061653548 0.1276162116) 263 456 2
(0.2326866578 0.3836566711 0.3028356144 0.08082105671) 623 1223 1
(0.6107363452 0.1946318274 0.1836750856 0.0109567418) 32 1256 2
(0.125804065 0.4370979675 0.3580590485 0.07903891896) 532 986 1
(0.455324262 0.272337869 0.1415626429 0.1307752261) 323 574 1
(0.1839343696 0.4080328152 0.01309950698 0.3949333082) 442 865 2
(0.09269932825 0.2609331433 0.4536503359 0.1927171926) 26 50 2
(0.4991093357 0.2504453321 0.2053820194 0.04506331272) 502 986 1
(0.4710893024 0.1563451883 0.2644553488 0.1081101605) 503 987 2
(0.2341400572 0.1814558756 0.3829299714 0.2014740958) 412 809 2
(0.03117208366 0.4844139582 0.2360760607 0.2483378974) 54 102 2
(0.442338117 0.2788309415 0.2565160861 0.0223148554) 473 1271 2
(0.5519126648 0.03184595038 0.1921977172 0.2240436676) 172 278 2
(0.3622182902 0.2639096361 0.05498121876 0.3188908549) 259 449 2
(0.2185508735 0.3397095107 0.3907245632 0.05101505256) 383 749 1
(0.2266009398 0.3866995301 0.2026109129 0.1840886172) 380 687 1
(0.02623004843 0.1256710886 0.3612138871 0.4868849758) 383 1268 1
(0.4994307553 0.05797090574 0.2502846224 0.1923137166) 113 220 2
(0.4475253483 0.2762373259 0.2556676361 0.02056968973) 233 454 2
(0.1306141116 0.4346929442 0.2346821534 0.2000107908) 131 255 2
(0.01699119529 0.4915044024 0.1265718541 0.3649325483) 441 807 1
(0.7295292664 0.1352353668 0.110930887 0.02430447975) 140 271 2
(0.07560576843 0.2637953782 0.1984017376 0.4621971158) 169 330 1
(0.557969524 0.221015238 0.1518048772 0.06921036077) 143 279 1
(0.908038732 0.04598063398 0.03719031982 0.008790314162) 111 214 2
(0.3407450995 0.2767777587 0.05284969157 0.3296274503) 54 1257 1
(0.03127885606 0.484360572 0.03693783374 0.4474227382) 32 59 2
(0.270454232 0.364772884 0.1938221279 0.1709507561) 113 161 1
(0.1655100978 0.4172449511 0.3848267091 0.03241824197) 292 514 1
(0.9446184229 0.02769078856 0.01449096534 0.01319982321) 470 864 1
(0.08348143073 0.4582592846 0.03543593263 0.422823352) 318 621 2
(0.6699634287 0.1650182856 0.02491227324 0.1401060124) 289 508 1
(0.0994260608 0.4502869696 0.3037772483 0.1465097213) 137 265 2
(0.03698425269 0.2840330093 0.4815078737 0.1974748644) 203 395 1
(0.4627682875 0.2400100652 0.2686158563 0.0286057911) 442 865 1
(0.248953698 0.1033427359 0.375523151 0.272180415) 441 863 1
(0.414689698 0.292655151 0.2824557035 0.01019944748) 473 926 2
(0.5589476605 0.09079414032 0.2205261697 0.1297320294) 202 396 2
(0.6491296164 0.1754351918 0.1560606619 0.01937452987) 413 1269 2
(0.5823739802 0.2088130099 0.02069754953 0.1881154604) 50 96 2
(0.04015916409 0.479920418 0.3789637279 0.1009566901) 322 632 1
(0.1619799564 0.02767689244 0.3913331293 0.4190100218) 409 744 2
(0.5653206712 0.1264625642 0.09087710018 0.2173396644) 82 103 2
(0.445419342 0.2724623471 0.277290329 0.004827981859) 261 512 2
(0.2092239897 0.3953880052 0.0311372108 0.3642507944) 383 692 1
(0.1701953147 0.4149023426 0.04404271549 0.3708596272) 231 394 1
(0.1819263438 0.4090368281 0.2307482229 0.1782886052) 170 330 2
(0.2429898505 0.3161959629 0.3785050748 0.06230911186) 228 447 2
(0.3554041561 0.3222979219 0.01156597062 0.3107319513) 171 332 2
(0.1087482382 0.2376294358 0.2079964451 0.4456258809) 173 279 2
(0.07488633764 0.2612024708 0.2013543604 0.4625568312) 352 690 1
(0.2799611544 0.3600194228 0.04312483098 0.3168945918) 350 628 1
(0.3762243732 0.0977789094 0.3118878134 0.214108904) 112 216 1
(0.214021594 0.392989203 0.1990537694 0.1939354336) 593 1162 2
(0.04186445041 0.4786462063 0.0004215685005 0.4790677748) 263 1264 1
(0.1499159101 0.4250420449 0.2399766891 0.1850653559) 411 806 2
(0.2252541792 0.1310555027 0.2563174077 0.3873729104) 199 389 1
(0.1076336338 0.4461831831 0.03015146103 0.4160317221) 202 395 2
(0.2946480055 0.07285482266 0.3526759972 0.2798211746) 262 514 2
(0.06295459661 0.4685227017 0.3723709505 0.09615175121) 411 806 2
(0.02940751785 0.4852962411 0.45096475 0.03433149111) 410 805 1
(0.2736739324 0.2334626593 0.1297003745 0.3631630338) 172 336 1
(0.3583157704 0.2160522994 0.1047898154 0.3208421148) 532 986 2
(0.08480501161 0.4575974942 0.06636705355 0.3912304406) 321 630 1
(0.170751516 0.0400549383 0.3745693037 0.414624242) 46 88 1
(0.04452906749 0.1267220485 0.4777354663 0.3510134178) 261 512 2
(0.5174547191 0.2412726405 0.07270504144 0.168567599) 321 627 2
(0.1551745521 0.4224127239 0.3999459447 0.02246677918) 201 394 1
(0.2534058826 0.3732970587 0.1045112784 0.2687857803) 32 30 1
(0.5291767788 0.2354116106 0.1334073421 0.1020042685) 382 749 2
(0.0385591176 0.4807204412 0.3058118075 0.1749086337) 167 268 1
(0.03372157346 0.3577787592 0.4831392133 0.125360454) 169 328 1
(0.4833637319 0.1658641441 0.09245398993 0.258318134) 412 750 2
(0.1588271352 0.4205864324 0.2615340716 0.1590523608) 503 1272 2
(0.03721414948 0.4813929253 0.007587345227 0.47380558) 562 1101 2
(0.3077314389 0.3461342805 0.3224787479 0.02365553267) 623 1221 2
(0.3214692752 0.3392653624 0.1394014716 0.1998638908) 412 808 2
(0.1637273615 0.05145632896 0.4181363192 0.3666799903) 110 215 2
(0.02982132713 0.1619517942 0.4850893364 0.3231375422) 527 1032 1
(0.1427245494 0.2975182558 0.4286377253 0.1311194695) 442 865 1
(0.1525990409 0.4237004796 0.1514642045 0.272236275) 44 85 1
(0.8659504047 0.06702479764 0.03313664136 0.03388815629) 322 629 2
(0.1508382564 0.4245808718 0.1008287982 0.3237520736) 200 392 1
(0.003765805832 0.4981170971 0.1834813493 0.3146357478) 322 631 2
(0.007738738711 0.1692743995 0.4961306306 0.3268562311) 231 453 2
(0.104929735 0.4475351325 0.203914384 0.2436207485) 352 691 1
(0.5478630319 0.2260684841 0.1770642736 0.04900421043) 53 100 2
(0.4958603171 0.2520698414 0.2254584968 0.02661134462) 54 102 2
(0.7802961752 0.1098519124 0.006444791296 0.1034071211) 502 985 2
(0.3436288418 0.3281855791 0.08175864227 0.2464269368) 231 452 2
(0.4864828054 0.186267384 0.07049121326 0.2567585973) 170 332 1
(0.3789018665 0.1882210553 0.3105490668 0.1223280115) 82 160 2
(0.295618822 0.03703080269 0.352190589 0.3151597863) 623 1223 2
(0.1611940678 0.338068308 0.08133465812 0.4194029661) 80 155 1
(0.3141077039 0.3429461481 0.1836446242 0.1593015239) 533 1044 2
(0.667060478 0.166469761 0.02964192498 0.136827836) 380 687 1
(0.01928193826 0.4716563492 0.0187026817 0.4903590309) 140 273 1
(0.2367297833 0.3816351083 0.3439354648 0.03769964358) 232 454 2
(0.08533887834 0.4573305608 0.2550272573 0.2023033035) 110 214 2
(0.5072892307 0.2463553847 0.2454911123 0.0008642723188) 382 747 2
(0.2783866295 0.3608066852 0.2195304762 0.1412762091) 348 624 1
(0.3481934919 0.2497682414 0.07613501263 0.3259032541) 531 1042 1
(0.01570532253 0.4903316191 0.4921473387 0.001815719654) 29 56 2
(0.1795800384 0.4102099808 0.2394942919 0.170715689) 82 160 1
(0.4158462876 0.2920768562 0.2442148735 0.04786198272) 442 809 1
(0.07319073405 0.1393326551 0.463404633 0.3240719779) 563 1103 1
(0.5985840989 0.2007079505 0.1751889687 0.02551898182) 260 507 2
(0.2175554116 0.262312284 0.1289100102 0.3912222942) 54 61 2
(0.0729761208 0.2336421325 0.2298698071 0.4635119396) 563 1274 1
(0.8597755225 0.07011223876 0.05983801043 0.01027422833) 591 1158 2
(0.6297997685 0.0505399429 0.1851001157 0.1345601728) 413 808 1
(0.8222922569 0.08885387156 0.0476367695 0.04121710206) 292 572 2
(0.1747277037 0.2866018082 0.1260343399 0.4126361482) 353 1267 1
(0.3117818584 0.3441090708 0.01133053297 0.3327785378) 351 688 2
(0.3761244911 0.3119377544 0.1953797385 0.116558016) 531 984 1
(0.3857661858 0.1622599645 0.3071169071 0.1448569426) 563 1105 2
(0.04726131976 0.4763693401 0.3796788786 0.09669046156) 292 570 2
(0.6649123864 0.1047192241 0.1675438068 0.06282458268) 199 387 1
(0.19745446 0.40127277 0.169282752 0.2319900179) 108 208 2
(0.6726773439 0.05622458399 0.1074367441 0.1636613281) 142 277 1
(0.01578733398 0.492106333 0.1335256275 0.3585807056) 443 869 1
(0.1309522563 0.4345238718 0.05969130798 0.3748325639) 113 220 1
(0.1785434268 0.4107282866 0.2758704408 0.1348578458) 291 571 1
(0.4273703386 0.04789243687 0.2384223938 0.2863148307) 141 275 1
(0.4067565893 0.1978144348 0.2966217053 0.0988072705) 105 205 2
(0.3214517345 0.2975389098 0.041735223 0.3392741328) 109 154 2
(0.1598830209 0.2894092224 0.1306492672 0.4200584896) 260 509 1
(0.1162438095 0.4259693612 0.4418780952 0.01590873401) 288 562 1
(0.1583357642 0.4208321179 0.144604865 0.2762272529) 203 338 1
(0.1726907827 0.4136546086 0.2704058236 0.143248785) 321 571 1
(0.3482127087 0.3258936456 0.1716006052 0.1542930405) 502 927 1
(0.4340889482 0.1999204021 0.2829555259 0.08303512377) 171 332 1
(0.2703730258 0.3648134871 0.3453108091 0.01950267803) 262 513 2
(0.08477187847 0.04645907624 0.4111549845 0.4576140608) 140 273 1
(0.1591440642 0.1596404167 0.2607875511 0.4204279679) 440 863 1
(0.1436588803 0.4281705598 0.3444016522 0.0837689076) 473 928 1
(0.08524873686 0.4573756316 0.1565932504 0.3007823812) 531 984 1
(0.442080769 0.2403227708 0.03863684469 0.2789596155) 54 1257 1
(0.2907470317 0.1965332927 0.3546264842 0.1580931915) 532 1042 1
(0.2620056278 0.3689971861 0.1871918082 0.1818053779) 111 214 2
(0.1577162963 0.03785113774 0.3832907141 0.4211418519) 231 452 1
(0.2016355594 0.2802567271 0.3991822203 0.1189254931) 443 867 1
(0.501933491 0.1118032649 0.2490332545 0.1372299896) 262 511 1
(0.3510620692 0.2027726265 0.1216963389 0.3244689654) 383 692 2
(0.3501289872 0.3249355064 0.2685439584 0.056391548) 320 627 2
(0.374739017 0.3126304915 0.2457046757 0.06692581584) 290 566 2
(0.5592867695 0.2203566153 0.07403498052 0.1463216347) 16 30 1
(0.4969845462 0.2515077269 0.1991726529 0.05233507404) 322 573 1
(0.1664465853 0.4167767074 0.06958969971 0.3471870077) 30 58 1
(0.7680158789 0.03878605784 0.1159920605 0.0772060027) 81 158 2
(0.05029813134 0.4331507378 0.04170019655 0.4748509343) 232 396 2
(0.4309028344 0.1969179005 0.08763068228 0.2845485828) 443 810 2
(0.4787645155 0.02980805877 0.2606177423 0.2308096835) 194 380 2
(0.02384588786 0.4880770561 0.4244256026 0.06365145343) 110 214 2
(0.2351434531 0.2626663076 0.1197619658 0.3824282734) 80 155 1
(0.1263983722 0.4368008139 0.05624634274 0.3805544712) 261 509 2
(0.5476468443 0.1545838391 0.07159273875 0.2261765778) 528 1036 1
(0.1480040874 0.4259979563 0.4120694637 0.01392849265) 466 915 1
(0.630986467 0.06043611235 0.1845067665 0.1240706541) 321 630 2
(0.4584944907 0.2272714293 0.2707527547 0.04348132532) 202 393 1
(0.8831250949 0.007993377799 0.05843745257 0.05044407477) 173 338 2
(0.2268267127 0.002084001858 0.3845026418 0.3865866437) 202 395 1
(0.1192920987 0.2078700954 0.4403539506 0.2324838552) 81 158 2
(0.2261186909 0.3869406545 0.3830934923 0.003847162226) 48 93 1
(0.6246262787 0.01286371706 0.1876868606 0.1748231436) 231 450 1
(0.5499043392 0.02524645245 0.2250478304 0.1998013779) 53 100 1
(0.1195916937 0.4402041531 0.2864360695 0.1537680837) 233 1263 2
(0.4180493323 0.03350329473 0.2574720391 0.2909753339) 203 338 2
(0.7117132681 0.04552421104 0.1441433659 0.0986191549) 322 629 1
(0.1313711187 0.1225878843 0.3117265564 0.4343144406) 383 1268 1
(0.1651372157 0.1270034071 0.2904279851 0.4174313921) 81 157 1
(0.6977905367 0.1511047317 0.06837489493 0.08272983672) 472 868 1
(0.7716543975 0.01962642432 0.09454637691 0.1141728012) 561 1101 1
(0.5801389524 0.2099305238 0.2052315009 0.004699022932) 323 631 2
(0.4046755175 0.2976622412 0.251853024 0.04580921721) 561 1101 2
(0.6816551294 0.1591724353 0.1537598171 0.005412618249) 353 1267 2
(0.7880308041 0.064452568 0.105984598 0.04153202996) 52 101 2
(0.4237969184 0.2834437009 0.2881015408 0.004657839859) 261 512 2
(0.2400686789 0.3799656605 0.1000890752 0.2798765854) 409 802 2
(0.2205261631 0.3897369185 0.3856803722 0.004056546244) 203 338 1
(0.9372624573 0.005470913764 0.03136877135 0.02589785759) 110 215 2
(0.7830868956 0.003423617672 0.1050329345 0.1084565522) 31 29 2
(0.007139884369 0.4964300578 0.210234901 0.2861951569) 54 104 1
(0.5425768621 0.228711569 0.1551427178 0.07356885116) 201 391 2
(0.437694627 0.2811526865 0.23459163 0.04656105648) 383 751 1
(0.3184053148 0.1616862523 0.3407973426 0.1791110903) 652 1251 1
(0.02636522233 0.4868173888 0.2910121336 0.1958052553) 318 624 1
(0.1149687494 0.4425156253 0.375837244 0.06667838131) 233 454 2
(0.02326823835 0.4883658808 0.3893923972 0.0989734836) 533 1044 2
(0.6545563408 0.1727218296 0.04263898078 0.1300828488) 112 218 2
(0.3616304911 0.3191847545 0.3113171496 0.007867604849) 315 618 1
(0.7797668977 0.1101165512 0.01207200185 0.09804454932) 109 213 1
(0.06059831692 0.09506142497 0.4697008415 0.3746394166) 231 453 2
(0.8317923567 0.04642175305 0.03768206861 0.08410382166) 230 392 2
(0.1900843826 0.2598439783 0.4049578087 0.1451138304) 618 1214 2
(0.2004946364 0.1361222425 0.3997526818 0.2636304393) 441 866 2
(0.2637143902 0.05342425039 0.3147185545 0.3681428049) 439 803 2
(0.4863010294 0.005519363384 0.2513301219 0.2568494853) 502 985 1
(0.1579436997 0.4210281501 0.1412903976 0.2797377525) 140 273 2
(0.6398896787 0.05806679183 0.1219883688 0.1800551607) 230 450 1
(0.3479510653 0.3260244674 0.08097421738 0.24505025) 200 333 1
(0.4227574857 0.1155313844 0.1730898727 0.2886212571) 80 99 2
(0.03618219695 0.262760151 0.4819089015 0.2191487505) 262 514 2
(0.366673086 0.316663457 0.02420908488 0.2924543721) 200 389 2
(0.7506937887 0.1124915044 0.1246531057 0.01216160127) 50 97 2
(0.5545344692 0.2192092103 0.003523555105 0.2227327654) 232 454 1
(0.6192856221 0.190357189 0.1886078427 0.001749346283) 441 863 2
(0.1247664426 0.4376167787 0.3400222098 0.09759456894) 203 338 1
(0.3453709455 0.2403331106 0.3273145272 0.08698141666) 53 103 2
(0.9802168095 0.009891595238 9.633249978e-05 0.009795262739) 233 1263 2
(0.4201445125 0.1364597408 0.2899277437 0.153468003) 52 101 2
(0.5254984014 0.2372507993 0.05776323412 0.1794875652) 472 927 1
(0.09421969747 0.4393347691 0.4528901513 0.01355538214) 381 748 2
(0.5841724075 0.2034235425 0.004490253808 0.2079137963) 201 335 2
(0.6936638802 0.09148155987 0.1531680599 0.06168650004) 261 509 1
(0.2207516374 0.3896241813 0.1652939551 0.2243302262) 286 560 2
(0.2274428519 0.386278574 0.1884446115 0.1978339626) 323 1266 2
(0.3062213945 0.3468893027 0.1075314179 0.2393578849) 321 571 1
(0.5534699962 0.1042722094 0.1189927925 0.2232650019) 503 1272 1
(0.166649761 0.0661639983 0.3505111212 0.4166751195) 232 454 1
(0.5458816982 0.08427190118 0.1427872497 0.2270591509) 351 688 1
(0.6273601852 0.1863199074 0.06619244525 0.1201274622) 105 146 1
(0.001891193609 0.06155029589 0.4990544032 0.4375041073) 172 337 2
(0.008800708191 0.4955996459 0.03095761778 0.4646420281) 77 150 1
(0.4769725554 0.0509903927 0.2615137223 0.2105233296) 533 1046 2
(0.5374878269 0.1523369974 0.07891908915 0.2312560866) 31 29 2
(0.08036744185 0.4598162791 0.03967062089 0.4201456582) 652 1222 1
(0.2451020273 0.3399681996 0.3774489864 0.03748078676) 53 100 1
(0.4460213053 0.02037317145 0.2769893473 0.2566161759) 259 508 2
(0.4909623456 0.1880491953 0.0664696319 0.2545188272) 168 328 1
(0.1773859849 0.08360819311 0.3276988144 0.4113070075) 258 505 1
(0.20925696 0.39537152 0.3812032811 0.01416823889) 441 866 1
(0.1049351226 0.4475324387 0.06640883299 0.3811236057) 233 456 1
(0.04437885565 0.4778105722 0.0006677046085 0.4771428676) 263 513 2
(0.05193463459 0.399048759 0.07498392367 0.4740326827) 321 629 1
(0.5968763718 0.2015618141 0.09282684067 0.1087349734) 321 627 2
(0.7234009143 0.01171514069 0.1382995429 0.1265844022) 258 503 1
(0.7667480276 0.09298225049 0.1166259862 0.02364373569) 561 1102 2
(0.5174056649 0.2412971676 0.2111509449 0.03014622269) 620 1159 1
(0.1730497786 0.4134751107 0.3214540986 0.09202101212) 112 160 1
(0.2144267016 0.2181701032 0.1746165459 0.3927866492) 83 104 2
(0.07039603411 0.3806752985 0.4648019829 0.08412668444) 293 574 2
(0.1757740528 0.1163431504 0.4121129736 0.2957698232) 470 923 2
(0.284400895 0.2954622968 0.06233725569 0.3577995525) 54 1257 1
(0.8097043767 0.04965616046 0.0454916512 0.09514781167) 349 626 2
(0.1302685413 0.3978460249 0.03701970447 0.4348657293) 286 560 1
(0.1851438182 0.1174005772 0.4074280909 0.2900275137) 288 562 1
(0.3770795245 0.3091528539 0.002307383833 0.3114602377) 620 1159 2
(0.7681635576 0.1067877975 0.1159182212 0.009130423693) 32 61 2
(0.2550081607 0.1604041308 0.2120917889 0.3724959197) 143 220 2
(0.6945760706 0.1158074889 0.03690447583 0.1527119647) 471 924 1
(0.6963013723 0.08355365936 0.06829565451 0.1518493139) 411 806 1
(0.01770874758 0.4911456262 0.2710135314 0.2201320948) 169 331 1
(0.2527276422 0.1135565725 0.3736361789 0.2600796064) 320 628 2
(0.6066493169 0.1966753416 0.04419777748 0.1524775641) 170 330 2
(0.07874756426 0.4606262179 0.02263398152 0.4379922363) 592 1162 2
(0.008126202595 0.4959368987 0.3777513046 0.1181855941) 468 916 2
(0.2465062317 0.09571640533 0.3767468841 0.2810304788) 140 271 1
(0.2078831352 0.3960584324 0.01221446733 0.3838439651) 382 749 2
(0.1815252868 0.1921882828 0.2170490737 0.4092373566) 353 633 2
(0.2416872867 0.3791563566 0.1807435359 0.1984128208) 591 1158 2
(0.6040426619 0.1979786691 0.09898486457 0.09899380448) 170 274 1
(0.6601539458 0.1699230271 0.02042451445 0.1494985127) 108 152 1
(0.4325344457 0.2582645058 0.02546827132 0.2837327772) 319 625 1
(0.1891443073 0.1774481776 0.2279796687 0.4054278463) 263 1264 1
(0.3882673892 0.08587399204 0.3058663054 0.2199923134) 533 1044 1
(0.01550940065 0.4922452997 0.203715278 0.2885300217) 351 689 1
(0.07142014551 0.4642899272 0.3418025976 0.1224873296) 501 983 2
(0.471851093 0.002405255949 0.2640744535 0.2616691975) 533 1044 1
(0.78848998 0.00826249252 0.09749251748 0.10575501) 622 1221 1
(0.08942051313 0.09832567026 0.4552897434 0.3569640732) 472 924 1
(0.4632704615 0.2683647693 0.02377683659 0.2445879327) 83 159 2
(0.5493363963 0.2253318018 0.09381682661 0.1315149752) 202 337 1
(0.07649345353 0.362180265 0.4617532732 0.09957300828) 185 359 1
(0.01343744846 0.0374545138 0.4932812758 0.455826762) 107 206 1
(0.002324249405 0.4988378753 0.005981169296 0.492856706) 113 218 2
(0.3321138988 0.1857700003 0.1481730503 0.3339430506) 345 676 1
(0.04370397708 0.146094542 0.4781480115 0.3320534695) 292 573 2
(0.1690465056 0.1006160052 0.4154767472 0.3148607419) 531 1040 1
(0.1482169872 0.4258915064 0.1528840454 0.2730074611) 293 515 1
(0.2743551595 0.3628224202 0.3391187584 0.02370366179) 413 751 1
(0.2363720594 0.3818139703 0.1549741561 0.2268398142) 289 564 2
(0.4292886758 0.08878411477 0.1965715474 0.2853556621) 409 744 2
(0.6617566907 0.1691216546 0.09035859837 0.07876305627) 413 751 1
(0.2082329405 0.3958835297 0.3689221741 0.02696135565) 501 981 2
(0.5278563698 0.2360718151 0.1258348123 0.1102370028) 349 685 1
(0.02958903043 0.4852054848 0.2318391669 0.2533663179) 171 276 1
(0.4547812555 0.2726093723 0.2112523854 0.06135698689) 261 453 1
(0.02705635342 0.4864718233 0.02011616874 0.4663556546) 440 863 2
(0.01265951039 0.4936702448 0.09390466981 0.399765575) 561 1099 2
(0.7880074228 0.1059962886 0.03299160761 0.07300468099) 531 1042 2
(0.1877700557 0.384444731 0.4061149721 0.0216702411) 203 397 2
(0.5094871098 0.009177219464 0.2452564451 0.2360792257) 499 977 1
(0.185153843 0.4074230785 0.07689993343 0.3305231451) 261 453 1
(0.1873067985 0.3868667672 0.4063466008 0.01947983358) 141 276 2
(0.4399296923 0.2800351539 0.1179112001 0.1621239538) 412 808 2
(0.09255191524 0.4537240424 0.3638096231 0.0899144193) 201 393 2
(0.7407184843 0.1296407578 0.00821238809 0.1214283698) 168 328 2
(0.04888977494 0.4755551125 0.295785671 0.1797694415) 11 2628 2
(0.0009740849767 0.3093445873 0.4995129575 0.1901683702) 411 804 1
(0.7182932857 0.1141750379 0.02667831923 0.1408533572) 203 338 2
(0.112487051 0.11347591 0.4437564745 0.3302805645) 291 568 1
(0.3969838067 0.3015080966 0.1521071628 0.1494009338) 258 505 2
(0.4287832968 0.2856083516 0.1756552812 0.1099530705) 142 277 2
(0.2426311054 0.3786844473 0.1829725286 0.1957119187) 590 1100 1
(0.2950397764 0.3524801118 0.1481163528 0.204363759) 503 1272 2
(0.3161162271 0.002115434324 0.3398264521 0.3419418864) 172 336 1
(0.01013022215 0.4949348889 0.2934623483 0.2014725406) 170 330 2
(0.418952447 0.2905237765 0.2157511118 0.0747726647) 413 810 1
(0.2162043905 0.3231572235 0.3918978047 0.06874058127) 171 335 2
(0.4439403579 0.2058005751 0.2780298211 0.07222924591) 352 691 2
(0.2037894815 0.2086615882 0.1894436711 0.3981052593) 410 746 2
(0.5769282966 0.1745865246 0.03694932715 0.2115358517) 223 436 1
(0.008761043881 0.4956194781 0.224158331 0.2714611471) 319 625 2
(0.2308074964 0.3845962518 0.04340311423 0.3411931376) 562 1103 2
(0.7005749673 0.1149337557 0.1497125164 0.03477876068) 261 509 1
(0.09644232194 0.451778839 0.04161307524 0.4101657638) 440 861 2
(0.6157536741 0.1840297963 0.192123163 0.00809336662) 319 626 2
(0.1500655314 0.1949899028 0.4249672343 0.2299773315) 589 1157 2
(0.2695543589 0.2719731729 0.09324964766 0.3652228205) 15 28 1
(0.1432928694 0.3982377158 0.4283535653 0.03011584952) 348 683 2
(0.2417280734 0.3791359633 0.3772254747 0.00191048858) 107 208 2
(0.3772402499 0.1997445236 0.3113798751 0.1116353514) 52 98 1
(0.5029101471 0.2485449265 0.1175979975 0.1309469289) 320 569 1
(0.2265088365 0.3867455818 0.01661204576 0.370133536) 322 573 1
(0.1092875163 0.4453562418 0.1616820013 0.2836742406) 203 395 2
(0.8538190726 0.07309046368 0.06768418717 0.005406276514) 532 1042 2
(0.135138916 0.432430542 0.203423208 0.229007334) 28 23 1
(0.4295937961 0.285203102 0.1317641388 0.1534389632) 470 920 2
(0.1746104 0.06391939922 0.3487754008 0.4126948) 648 1214 2
(0.3500114772 0.3156762894 0.009317971959 0.3249942614) 293 1265 1
(0.6051313963 0.1974343018 0.1600811133 0.03735318851) 349 626 1
(0.1059106462 0.4470446769 0.268575392 0.1784692849) 139 213 1
(0.1924474464 0.1527165978 0.4037762768 0.251059679) 10 19 2
(0.5529100514 0.2235449743 0.182292644 0.04125233032) 260 510 1
(0.7402155264 0.01250915563 0.1298922368 0.1173830812) 31 60 2
(0.2701816578 0.3649091711 0.1057604342 0.2591487369) 471 925 1
(0.2515293933 0.3742353034 0.03932008725 0.3349152161) 262 514 1
(0.0270813739 0.486459313 0.3459528801 0.1405064329) 262 511 2
(0.1111676454 0.3252006629 0.1192155144 0.4444161773) 142 219 2
(0.4380688608 0.2809655696 0.07108000782 0.2098855618) 349 685 1
(0.1967797444 0.08440878246 0.3172013453 0.4016101278) 533 987 2
(0.2078077098 0.3229076255 0.07318851957 0.3960961451) 258 447 2
(0.223878999 0.0427247715 0.3880605005 0.345335729) 381 748 2
(0.1207375018 0.2366022366 0.2030290125 0.4396312491) 503 928 2
(0.2193213417 0.1452471913 0.3903393291 0.2450921378) 341 666 1
(0.9027157866 0.04864210672 0.01144999774 0.03719210897) 260 451 1
(0.368292209 0.0356971471 0.3158538955 0.2801567484) 199 390 2
(0.5538117065 0.2175973201 0.005496826681 0.2230941468) 440 863 1
(0.4083662663 0.2084775974 0.08733926949 0.2958168668) 653 1223 2
(0.2709445294 0.3645277353 0.2729622989 0.09156543645) 652 1251 2
(0.01971133588 0.4901443321 0.1377347194 0.3524096126) 49 52 1
(0.8420226904 0.07898865481 0.07719505548 0.001793599331) 141 217 1
(0.5734991 0.21325045 0.1266377684 0.08661268162) 258 447 1
(0.2631029709 0.2475009758 0.3684485146 0.1209475388) 499 980 2
(0.1588561663 0.4192059843 0.4205719168 0.001365932543) 470 923 2
(0.8393976708 0.08030116461 0.07488102851 0.0054201361) 380 745 2
(0.9049652158 0.04751739209 0.0075117405 0.0400056516) 141 276 1
(0.3395379564 0.3271179078 0.3302310218 0.003113113995) 621 1220 2
(0.8727412501 0.06362937496 0.06188634616 0.001743028806) 466 856 1
(0.05444960846 0.04671019943 0.4260649963 0.4727751958) 646 1210 2
(0.3406378189 0.01510857539 0.3296810905 0.3145725152) 79 154 2
(0.1587152582 0.05832376933 0.4206423709 0.3623186016) 531 1040 1
(0.7526791763 0.02851472462 0.1236604118 0.0951456872) 170 333 2
(0.02794772688 0.4860261366 0.2923599191 0.1936662175) 12 2 1
(0.1678251015 0.4160874493 0.2783529009 0.1377345483) 173 279 1
(0.06873146057 0.3002728209 0.4656342697 0.1653614489) 321 627 1
(0.2051509544 0.3974245228 0.124540081 0.2728844418) 321 627 2
(0.271274021 0.3643629895 0.1072252645 0.257137725) 290 569 1
(0.1913295419 0.404335229 0.1726258442 0.2317093849) 532 1045 1
(0.5015885351 0.2492057325 0.009774683141 0.2394310493) 409 803 1