/*--------------------------------*- C++ -*----------------------------------*\
| =========                 |                                                 |
| \\      /  F ield         | OpenFOAM: The Open Source CFD Toolbox           |
|  \\    /   O peration     | Version:  2406                                  |
|   \\  /    A nd           | Website:  www.openfoam.com                      |
|    \\/     M anipulation  |                                                 |
\*---------------------------------------------------------------------------*/
FoamFile
{
    version     2.0;
    format      ascii;
    arch        "LSB;label=32;scalar=64";
    class       scalarField;
    location    "0.01/lagrangian/dsmc";
    object      Ei;
}
// * * * * * * * * * * * * * * * * * * * * * * * * * * * * * * * * * * * * * //


6158
(
1.459177331e-20
2.306449775e-21
2.051977469e-20
3.686767531e-21
9.316705833e-21
1.298368829e-21
8.437531755e-21
1.515326408e-21
7.288712266e-22
3.185188745e-21
4.162253521e-20
2.674280924e-21
7.226659563e-21
8.388146901e-21
3.16443284e-22
2.08150206e-20
5.504549057e-21
4.159681836e-21
2.239518228e-21
1.559880338e-21
7.73941588e-21
2.712109143e-22
5.454490765e-21
1.582044232e-21
2.287157717e-21
2.813597109e-21
2.996786454e-21
3.222714861e-22
7.154728167e-22
3.446873088e-20
1.033379473e-20
1.190794036e-20
8.840846728e-21
4.558677641e-22
7.950604726e-21
1.646550522e-21
2.218188876e-21
1.156749999e-20
9.655377624e-21
5.461072285e-22
1.948783349e-21
9.367522004e-21
1.334221806e-20
3.398404843e-21
1.712094406e-20
2.052304698e-22
7.309467434e-21
2.501523743e-21
1.822462986e-21
1.93906564e-21
1.137431993e-21
1.735347121e-21
1.450342913e-20
8.087646126e-22
3.153280305e-22
6.927794154e-21
3.476216721e-22
3.891233581e-21
2.542424723e-21
9.469539399e-21
2.543267976e-20
1.584418417e-20
7.558660806e-21
6.106684084e-21
2.396225516e-21
5.064640674e-21
4.553483216e-21
8.154238981e-23
1.14801492e-20
3.448057892e-21
2.029381736e-21
1.66480133e-21
4.953801495e-21
2.879192132e-22
1.910850412e-20
8.398509643e-21
5.988800626e-23
1.123424625e-20
1.431009449e-20
1.252210287e-21
1.39764986e-21
8.617058416e-23
9.572594806e-21
2.062304462e-21
4.698786349e-22
3.616615555e-21
3.729289503e-22
2.0642903e-21
8.893544486e-21
3.816176604e-21
3.856593721e-21
6.54816219e-21
1.209923057e-21
5.196146107e-21
5.811645846e-21
1.625287203e-21
2.793695766e-21
1.660001465e-21
1.237105603e-20
2.308396264e-21
5.427177585e-21
1.548902051e-22
3.155282033e-21
1.15706352e-20
1.148366947e-20
1.800935066e-21
3.961969063e-21
2.903756273e-21
9.241699667e-21
1.466502009e-21
8.879844487e-21
3.054180379e-21
3.099956954e-20
8.192915954e-21
1.695594074e-21
3.41763903e-21
6.621520894e-21
2.494513455e-22
2.094298358e-21
6.453772472e-22
2.489146983e-21
5.749507532e-21
1.711992908e-20
2.036343795e-21
2.896215526e-21
2.817711728e-21
1.719263742e-21
2.545253308e-21
6.629649551e-22
1.009771265e-20
7.833297607e-22
7.734882327e-21
6.365076664e-21
1.85154343e-21
2.736022264e-20
6.154511472e-21
5.509575346e-22
4.593227554e-21
4.52247892e-21
7.295127707e-21
9.514360067e-21
2.207597972e-21
5.41256246e-22
6.372707046e-21
3.505999163e-20
8.153402767e-22
3.281354505e-22
6.555709414e-21
5.81044915e-21
4.609064205e-21
5.457730478e-21
2.078478594e-21
1.088935076e-20
2.649446628e-21
1.055086051e-21
3.953491211e-21
1.509585133e-21
1.084082008e-21
9.67194766e-21
1.770198699e-21
1.338895903e-21
1.854318381e-21
4.817345038e-22
3.262257562e-20
1.327244735e-20
1.763695479e-20
4.511930728e-21
1.195734921e-21
9.420934925e-21
7.453188996e-21
2.321652599e-20
6.950200921e-21
1.352576533e-21
3.37146303e-21
3.692170751e-22
1.88016328e-21
8.687488129e-21
9.786482166e-21
1.575862867e-21
2.530919153e-21
5.978878262e-21
3.966622762e-21
1.075678621e-20
1.738739809e-20
8.089607171e-22
1.099436496e-20
1.065408904e-20
9.374316847e-22
2.592631839e-21
4.92574814e-22
6.623058684e-21
3.987628297e-21
3.322603687e-20
3.568143838e-21
6.600656887e-21
5.599554941e-21
1.122689522e-22
3.047637676e-21
1.320752945e-21
1.113090777e-20
4.957794924e-21
1.97601535e-21
5.782937864e-21
1.841015248e-21
5.780308292e-22
1.282305982e-21
4.949107137e-21
3.183919684e-21
3.506436789e-22
5.764780297e-21
2.025720355e-21
3.679560974e-21
3.337826812e-22
4.441705472e-21
2.363603099e-25
1.195847831e-20
1.847161047e-21
2.189882672e-21
8.836200603e-21
1.28503106e-20
1.6366861e-20
1.590282918e-20
6.023588933e-21
1.583837448e-21
1.093181644e-20
4.283623311e-21
3.312926809e-21
2.153990545e-21
1.536377164e-20
3.608973112e-21
1.543332209e-20
5.945353699e-21
7.068094352e-22
1.546631547e-21
1.110102239e-20
2.193993684e-22
6.779613379e-21
2.159012209e-21
2.303666922e-21
2.97952703e-21
5.078634701e-21
8.81681916e-21
4.864957531e-21
2.686655107e-20
2.712425131e-21
7.45256483e-22
5.562028007e-21
9.363015203e-21
2.054439303e-21
7.235177336e-21
1.323068617e-22
1.154696114e-20
2.399819012e-22
4.356520516e-21
4.812312769e-22
3.155563871e-21
1.86664167e-20
9.075239133e-21
1.974276616e-21
4.191050615e-21
1.214280103e-20
2.725208693e-21
3.509199357e-21
2.895322009e-21
2.257483385e-21
1.735144897e-20
5.091490086e-21
1.319123317e-20
1.759864104e-21
4.413329078e-21
8.845150412e-22
9.376396159e-22
4.609470806e-22
1.134720224e-21
1.779908235e-21
3.573424566e-21
5.617253991e-21
2.179839642e-20
9.837152931e-21
1.209326609e-20
9.174387546e-21
4.753454786e-21
6.141091997e-22
2.633618095e-22
4.443012969e-20
8.247373191e-21
3.723491169e-21
4.889293824e-22
1.36331925e-21
2.748216796e-20
3.322201683e-21
2.662104745e-21
1.29225186e-20
5.273658865e-21
1.154902118e-20
1.046038674e-21
2.182797239e-21
6.039967002e-21
1.924770418e-21
1.366899865e-20
5.729817631e-21
4.294705236e-21
1.555640342e-22
2.078426109e-20
6.838264178e-21
2.508457556e-21
5.198180225e-21
1.590189101e-22
2.271090771e-21
3.432324545e-21
3.349457048e-21
2.927722126e-21
1.652237436e-22
3.298343977e-21
1.358752511e-21
2.2741494e-22
1.065614064e-21
2.056118753e-20
1.62555408e-21
1.353377741e-21
2.000028213e-21
1.866186704e-22
7.017909055e-22
9.587796471e-21
2.600749149e-21
3.039612676e-21
2.640759895e-21
2.931082758e-21
1.710551721e-20
2.178358438e-21
1.760634331e-20
1.276899209e-21
1.713055293e-21
8.95660328e-21
2.52686918e-21
2.228811733e-20
1.214976698e-20
8.045473886e-22
2.699026586e-21
1.313564183e-21
1.497814878e-20
6.234099276e-22
1.481119716e-21
4.133360336e-20
1.372749928e-21
7.113578737e-22
1.474824924e-21
4.861931646e-21
5.806972075e-21
1.572027353e-21
1.448403867e-21
2.375428553e-21
3.546761458e-21
1.113424217e-21
4.303810868e-21
4.632693886e-21
2.511816012e-21
7.921310191e-21
1.162972226e-21
1.10535218e-20
3.436123304e-22
2.905096658e-23
7.020516766e-23
4.356226755e-21
8.087116046e-22
1.649710161e-21
3.382263005e-21
1.034000955e-20
1.739009771e-21
1.729769025e-22
2.697651966e-21
1.420312318e-21
6.251756995e-22
8.635952512e-21
1.553757697e-21
1.476955601e-21
5.903078083e-22
4.411959422e-21
3.974862948e-21
1.179534539e-20
6.768122141e-21
8.572442203e-22
7.119994847e-21
1.040472882e-21
2.730101334e-22
1.099075752e-20
9.249609999e-21
4.343538904e-21
3.717471561e-20
5.377378479e-21
3.838376994e-21
5.082786032e-21
1.55119222e-21
1.975055839e-21
1.761385505e-21
4.354822781e-21
1.748159194e-21
9.659140082e-22
2.53849639e-21
3.50029437e-21
3.122685071e-21
8.773937466e-21
4.623168798e-21
3.582137629e-21
1.936519336e-22
5.094874137e-21
4.298820874e-21
3.433111517e-21
6.209380902e-22
4.655471984e-21
1.672803927e-21
2.542188858e-22
2.336301573e-20
2.825742334e-20
2.418884681e-21
7.904596762e-22
9.722692235e-22
7.928052404e-21
1.856178249e-21
3.863474841e-21
7.111208525e-21
3.096260467e-21
1.175318592e-20
8.517656564e-22
4.765469332e-21
1.124950232e-21
1.062509519e-21
1.400489957e-21
9.910610525e-21
4.183273421e-21
1.55918634e-21
2.785625071e-21
2.025037387e-21
4.574601427e-22
1.271051213e-21
6.762562259e-21
6.948924252e-22
3.265725739e-21
7.467358334e-21
8.577870883e-21
5.214178573e-21
2.063946389e-20
2.041242935e-21
1.396645328e-22
2.626648584e-21
5.593773111e-21
2.695260177e-21
1.094947269e-21
7.460442868e-22
9.631690875e-21
5.371975229e-21
6.990679633e-22
1.943360995e-20
7.938925216e-22
2.190295503e-21
2.208658218e-21
3.385526598e-21
2.907353207e-21
6.119261893e-21
1.149119879e-21
9.539651851e-21
3.309485177e-21
4.480159441e-22
9.014240174e-22
1.224511821e-21
6.869329426e-21
4.700978756e-21
1.163277722e-20
2.003726857e-20
1.130810165e-20
1.654912482e-20
9.297197785e-21
8.647975335e-22
9.150999782e-21
9.353398597e-22
4.415870464e-21
1.447167137e-21
3.66976343e-22
1.782339588e-21
1.528741467e-20
8.32062376e-22
4.043130301e-21
1.867008566e-20
1.995095941e-20
9.013500868e-22
1.096979045e-21
2.645151737e-23
5.669724245e-21
1.168129189e-20
9.818410736e-22
2.420592539e-21
1.820467013e-20
1.299947062e-21
1.972251913e-21
1.719851534e-22
2.853928717e-21
1.500779505e-21
1.595237466e-20
9.658255089e-21
3.477248547e-22
1.501067707e-20
2.829162523e-21
3.531131041e-21
1.813891086e-20
1.226618492e-21
4.782468937e-22
1.211003124e-21
7.290567457e-22
2.79349887e-21
5.726552996e-21
2.022727094e-21
4.339558316e-22
5.251204986e-21
1.882390099e-21
5.196092948e-21
2.293802661e-22
1.120023179e-20
1.625031814e-21
3.134629531e-21
7.607138781e-21
1.829898543e-22
3.276403858e-21
3.880411666e-21
5.641334121e-21
1.486764629e-20
4.319298524e-21
6.023331692e-21
1.758014973e-21
5.893521878e-21
1.153232469e-20
5.215778259e-22
7.889062135e-21
4.089180532e-21
1.025818105e-21
1.466597425e-20
8.171844033e-21
1.850603328e-20
2.433340934e-22
2.692751986e-21
3.744870013e-22
5.931324446e-21
1.242666825e-20
1.475652199e-20
8.177363442e-22
3.975362757e-21
5.745228359e-22
8.620309079e-21
6.792182664e-21
4.22038646e-22
8.474553119e-21
1.921270368e-21
1.365378685e-21
3.03438577e-21
7.402568697e-22
5.72045807e-21
2.66057754e-21
3.234164093e-20
1.106423338e-20
9.975525575e-21
2.275987238e-21
9.750551914e-22
1.024107806e-20
9.080410442e-21
1.009276324e-20
4.04303461e-20
6.017888165e-21
5.665636336e-21
2.433844685e-21
5.812269855e-22
6.620813971e-22
6.573634877e-22
5.576941573e-22
3.87230304e-22
5.933512663e-21
9.281026393e-22
7.980211995e-22
9.45242411e-22
2.690427186e-21
2.805683598e-22
1.761183911e-21
1.522178692e-21
1.148361624e-20
1.015410058e-21
1.75515047e-22
7.756487803e-21
1.974841896e-21
1.154155239e-20
4.073162572e-22
1.086213391e-20
1.439196694e-21
2.101381521e-21
9.408767379e-21
1.773855957e-22
2.650856712e-21
6.332858467e-21
4.287789599e-22
1.686635106e-20
4.041260012e-22
1.261205378e-21
5.686798532e-21
6.694625898e-21
5.0930273e-21
1.485941904e-21
1.219136724e-20
5.895369861e-21
1.9179113e-21
1.140095401e-21
2.205701913e-21
3.888041501e-21
3.071551303e-21
5.716097892e-21
1.264528825e-21
7.074453373e-21
9.757923456e-22
2.151117266e-21
6.123374356e-21
1.132043806e-20
8.653564773e-21
4.860695987e-21
8.4691335e-21
6.448373826e-22
1.180697674e-21
1.753296356e-20
5.743986061e-21
3.885885651e-21
4.304785805e-22
2.979610716e-21
6.162554631e-21
2.508567997e-20
1.823931451e-22
6.447514473e-21
1.39181287e-20
2.278273883e-21
1.462742487e-21
3.400628596e-21
8.155545279e-21
3.643463794e-21
6.946968177e-21
4.965972592e-21
6.7048983e-22
8.410741316e-22
2.501337751e-21
3.715986258e-21
1.941588797e-21
1.344278063e-21
3.65962627e-21
1.289706971e-20
5.905531609e-21
3.725893678e-21
1.44625541e-22
1.849878768e-21
4.048883629e-21
8.171329242e-22
1.155250793e-20
4.667140802e-22
2.603930708e-21
1.945219296e-21
1.895041732e-21
5.467201185e-21
3.60476827e-21
3.730925766e-21
4.324580919e-21
1.525355945e-21
2.80494392e-21
1.958814082e-21
1.602106992e-21
2.067871777e-21
2.565685506e-21
5.236147965e-22
8.156270333e-21
1.66262502e-22
1.422161614e-20
4.838581447e-21
1.514083744e-21
1.046191257e-20
1.169374506e-20
1.954324025e-21
4.97707471e-22
3.19007002e-21
5.485312395e-21
3.928649898e-24
3.640619175e-21
2.260834889e-21
7.040405735e-22
1.211442301e-20
7.043326653e-21
1.211790203e-20
8.968001482e-21
2.442703269e-21
1.142746467e-20
3.201937914e-22
7.094089946e-22
9.556398367e-21
8.000724716e-21
7.41513457e-21
3.922200113e-22
3.48822907e-21
2.839271566e-21
1.90803977e-21
1.669202008e-22
4.190743933e-21
6.716639967e-22
1.800334755e-21
6.719473427e-21
7.514077461e-23
6.004394471e-21
8.728434025e-21
1.182323347e-21
6.62435049e-21
4.381010638e-21
1.431817643e-22
5.491262724e-22
5.279604049e-21
1.2598154e-20
2.934821141e-21
1.352307434e-22
3.785841222e-21
2.050468126e-21
1.037596946e-22
1.765432376e-20
6.271302203e-22
3.961878426e-21
2.485580399e-21
2.812966342e-21
7.135096676e-22
4.141012914e-21
3.671915333e-22
5.553492337e-21
8.629481651e-22
3.325306964e-21
2.617968321e-21
4.678884066e-21
6.384908832e-23
4.6209598e-22
5.643023682e-21
1.136104778e-20
5.256323185e-21
1.000227509e-20
1.038473275e-20
6.862808172e-21
6.106455386e-22
7.039490875e-21
5.912603382e-21
1.870586653e-21
2.423778661e-22
2.837404471e-21
1.162748665e-21
8.262537453e-21
1.293704828e-21
1.059845417e-20
5.456985878e-21
1.127178999e-21
1.33018845e-21
1.614282537e-21
1.041918447e-20
3.243917227e-21
6.52819864e-21
8.792107095e-21
7.132851481e-21
4.500819633e-22
6.770053326e-22
1.31117744e-21
1.890588897e-21
1.122521184e-20
7.309269514e-22
1.705565258e-21
2.397872404e-21
8.104227442e-21
4.499254538e-21
9.609341265e-22
1.678674279e-21
1.275727882e-20
2.695319039e-21
3.90741813e-21
1.569633416e-21
2.721421935e-22
1.288428784e-20
6.422372045e-21
1.871718363e-20
2.656386903e-21
1.974430365e-22
3.551943472e-21
6.158628036e-21
6.313949803e-22
1.132850056e-20
1.22322741e-21
2.523182183e-21
5.425045578e-21
2.711683646e-21
3.141174694e-21
5.399487381e-21
4.314439657e-21
1.601638549e-22
6.362985551e-21
1.60892006e-21
8.962385153e-21
3.052250013e-21
3.13935564e-22
3.041063437e-21
4.580650199e-22
1.840078986e-21
4.904283287e-21
6.712866089e-21
2.031590949e-21
3.390054138e-22
7.865347521e-21
1.200796913e-20
2.581722414e-21
1.993525735e-21
5.023666392e-21
2.553704085e-21
2.256233564e-21
2.440282809e-22
1.123872338e-20
6.436871858e-22
3.376941419e-21
4.558704144e-21
3.624311489e-21
2.334518235e-21
1.325352541e-21
3.292298252e-21
1.327840979e-20
2.478835982e-21
1.594880166e-22
2.193180859e-21
5.382925612e-21
7.52385337e-21
1.131829847e-21
1.410606745e-20
4.094085599e-21
5.514128147e-22
4.85484244e-21
4.908613171e-23
3.754266533e-22
3.846466853e-22
7.575660079e-21
7.124797328e-22
9.811392506e-21
1.059471308e-20
6.970199289e-21
5.744039493e-21
1.497999202e-20
2.464913109e-21
4.278687239e-21
4.420808533e-21
1.163402531e-20
2.688023742e-22
8.253646204e-21
1.832264191e-21
3.155436954e-22
1.705107692e-21
3.608684406e-21
1.002738896e-20
5.568264648e-21
8.234249639e-22
2.423272992e-21
4.732511263e-21
1.223371717e-20
1.991863592e-21
3.018979866e-20
2.249060964e-21
1.956561161e-21
4.24184429e-21
7.531825232e-21
1.886404781e-21
4.577719818e-21
3.003398191e-22
2.95494034e-21
8.642784299e-21
9.015881816e-21
3.220572696e-21
4.601461708e-22
1.570056177e-21
3.469112066e-21
3.253558621e-21
8.621363054e-22
5.254541926e-21
4.008436939e-21
2.287113262e-21
5.194313382e-22
1.721533959e-20
2.417288679e-21
1.549138282e-22
7.563398232e-21
4.419163891e-21
8.000996924e-22
5.772917899e-22
1.183593653e-21
4.072532848e-21
3.424670345e-21
2.163097756e-21
1.332004117e-20
1.186124865e-21
2.593676335e-21
6.706796903e-22
1.857558794e-21
3.017388618e-20
2.139965614e-20
4.799006634e-21
1.240032954e-21
1.85028462e-21
8.960772638e-23
3.242317351e-21
2.297629984e-21
1.700269355e-21
3.312442287e-20
1.619305448e-21
5.356721453e-22
1.326471122e-21
1.457071287e-20
1.552353181e-20
4.290340412e-21
1.625040148e-20
1.447022963e-22
2.482835254e-21
7.509065944e-21
8.382650797e-21
5.676278956e-22
7.138211106e-21
3.587994022e-21
4.275891093e-22
3.784393436e-21
7.03467232e-22
7.258638071e-21
3.183569126e-21
1.420710602e-21
2.581983285e-21
2.246718317e-21
1.12436278e-20
1.006336739e-20
2.063115337e-21
6.802727126e-21
2.990247725e-21
2.532197151e-21
5.746717575e-21
1.264836951e-20
7.864108128e-22
6.547530942e-21
2.401790118e-21
1.015377227e-20
3.088127882e-21
8.311704088e-21
1.418581366e-20
3.179052603e-21
2.223583571e-22
5.608600653e-22
6.264265982e-22
6.730211622e-21
4.473523011e-21
1.43323642e-20
8.626939465e-23
4.274803554e-21
1.017473474e-20
3.138521948e-21
1.247793231e-21
4.182108538e-21
1.039355625e-21
1.463181681e-21
1.512916202e-21
7.233110899e-21
1.725931209e-21
8.952202837e-21
1.040654853e-21
2.584697869e-21
1.827067775e-20
7.630199992e-21
3.992880736e-21
5.883882208e-21
3.945987019e-21
2.432429379e-21
1.059257471e-21
5.525371635e-21
7.013161855e-21
1.204217985e-21
6.870970115e-21
7.00446855e-22
1.89568778e-21
6.562566112e-21
6.446912432e-22
3.111706166e-21
6.992854388e-21
1.773477447e-23
3.628673025e-22
1.484763119e-21
8.009525422e-21
1.803921944e-21
1.001167425e-21
5.647034203e-21
3.218503543e-21
3.135083665e-21
7.144453598e-21
6.206272344e-21
6.58328948e-22
2.352085953e-21
5.135632636e-21
4.78052686e-21
1.373465079e-20
1.281242858e-20
1.90251386e-21
5.107604931e-22
4.395056591e-21
2.115612098e-21
1.268292169e-21
3.862116727e-22
1.492560901e-21
5.139850617e-21
1.028473236e-21
5.173559871e-21
5.56253081e-21
2.485024618e-20
4.25998083e-21
6.014864781e-22
7.540885531e-21
1.841572094e-21
4.059382336e-21
2.643931033e-21
5.038231012e-22
9.439436469e-21
1.583815025e-22
1.603703674e-20
1.498805294e-21
6.091081637e-22
3.721518045e-21
3.186140513e-20
5.736685931e-22
1.195652091e-21
6.074526909e-21
1.856130721e-21
2.160162441e-21
3.263632148e-21
2.795722453e-21
2.532421873e-22
3.851631606e-21
1.281265113e-20
7.831774047e-21
4.005224745e-21
3.010004479e-21
4.35945362e-21
1.019260875e-20
2.136817105e-20
7.259386326e-22
2.079274856e-22
3.363819794e-22
1.439336858e-21
4.448519495e-21
2.774221607e-21
5.457345163e-22
2.959648392e-21
7.401653525e-22
1.379807738e-20
1.043923563e-20
1.362944836e-20
1.756068616e-20
3.830241566e-21
8.446102628e-22
2.416282989e-21
1.000421976e-20
4.944388845e-21
4.468012692e-21
6.798740426e-24
2.105593253e-21
4.827015258e-21
4.617174644e-22
2.82635591e-21
9.578978249e-21
4.123968232e-22
1.547862766e-21
2.906677264e-21
5.131149487e-21
5.950847345e-21
5.423089799e-21
7.068838152e-21
7.292687543e-21
1.516329384e-21
1.887090867e-20
1.046281813e-21
4.477535661e-21
1.013939378e-21
2.403023453e-21
1.253724859e-21
5.482009137e-21
8.437662988e-21
7.354878548e-22
5.541639188e-21
4.406713419e-21
4.123691583e-21
2.796152554e-21
4.799381903e-21
3.69020252e-21
1.043601114e-21
7.627848404e-22
3.142846972e-21
5.559139701e-21
1.019170118e-21
2.928316767e-21
8.61992179e-21
3.621213709e-20
3.461443192e-23
1.707312325e-21
2.291698179e-20
8.985564285e-22
6.00024426e-21
2.073794771e-21
1.167617485e-20
1.05744992e-21
2.170481464e-21
1.158926499e-21
2.044211693e-22
2.525464939e-22
3.76399284e-21
5.523127206e-21
9.876457062e-21
3.630364181e-21
3.738766061e-22
7.222429128e-21
2.794862758e-23
3.020553172e-21
1.914379198e-21
4.958922512e-21
6.898412202e-20
5.716503851e-21
6.596675855e-21
2.625868003e-20
2.17039657e-21
1.954184791e-20
3.857971301e-21
5.988273105e-22
1.764573917e-20
4.711589022e-21
2.308929029e-21
2.981751106e-21
3.499269833e-21
1.95913063e-21
2.208633767e-21
1.205876988e-20
6.729393778e-22
4.537723197e-21
2.342359985e-21
1.242835283e-21
4.357909657e-21
4.612331955e-21
5.645181779e-21
4.374635215e-21
9.672238313e-21
6.67065819e-22
9.464412368e-21
1.826656679e-21
4.241491021e-21
1.567448402e-21
4.375921626e-22
1.314006071e-22
3.514089541e-21
7.680950031e-21
2.579571846e-21
2.491981632e-22
3.980893513e-21
2.611629233e-21
1.038400214e-20
2.808747127e-21
1.550932369e-21
8.733980816e-21
3.532968488e-21
1.154522896e-20
3.763320348e-21
8.553909766e-22
2.411976774e-21
2.388720881e-21
2.843952419e-21
1.645983323e-22
1.250850659e-21
3.614368316e-21
3.506942105e-21
1.466278673e-21
2.612501771e-22
4.463489264e-21
1.989309008e-22
1.378305762e-21
4.653996863e-21
9.141645712e-21
6.011755525e-21
1.139277535e-21
3.254051206e-21
8.931084426e-22
4.319069127e-21
2.440212789e-22
4.602799925e-21
8.757835366e-22
5.135316769e-21
1.929555724e-21
4.920918191e-21
7.966428685e-21
1.248673973e-20
7.026738462e-21
5.060873658e-21
2.707302097e-21
1.114600445e-22
8.859178181e-21
1.823502783e-20
7.234764968e-21
1.17064376e-20
2.026517592e-21
1.929083443e-22
3.248046374e-21
2.478967163e-21
2.529936163e-21
6.154692357e-22
7.132843389e-22
5.295084791e-21
1.202315221e-20
4.163054159e-21
1.504636562e-21
1.279191094e-21
4.206074285e-21
4.373986462e-21
2.224164552e-21
5.551389811e-21
1.448487225e-21
4.607204597e-21
1.776415819e-21
1.059588131e-21
9.359536508e-22
3.204626467e-21
1.887508402e-21
1.370662544e-20
2.817680246e-21
3.292989075e-21
1.359260808e-20
1.624065615e-21
5.597075105e-21
1.868862345e-20
2.482198414e-21
8.694478306e-21
1.686258627e-21
5.520725416e-21
2.334011269e-21
5.760892662e-21
1.631489501e-21
4.028236774e-21
4.141682896e-21
8.683406587e-22
1.439754724e-23
1.025272497e-21
1.232881038e-21
3.286074576e-21
7.782495515e-21
3.298131841e-21
1.498907877e-20
4.228359112e-21
1.675481491e-21
1.489043728e-21
1.036935588e-21
5.754180087e-21
1.094682889e-21
2.253322148e-21
1.837698536e-22
3.959282849e-21
1.405317906e-21
5.954927605e-21
1.137058499e-21
9.846954807e-21
2.704869505e-21
1.179798832e-21
8.031885333e-21
1.867280501e-22
9.955863843e-22
9.025146139e-22
6.404342901e-21
8.58655635e-22
5.403858786e-21
1.34404227e-20
6.47852049e-21
2.700094717e-21
2.922658846e-21
3.151868221e-21
1.180742624e-21
3.719001633e-21
3.524304197e-22
1.201940863e-20
1.831786704e-21
1.309167082e-20
2.18700935e-21
5.257682967e-21
6.164758085e-21
1.877180806e-21
6.711312869e-21
2.232472595e-21
6.08477904e-23
5.889374447e-21
6.759947652e-22
1.053572422e-21
3.068506106e-23
7.9928134e-21
4.750261981e-21
4.539429743e-21
6.404795035e-22
1.640029879e-21
4.687192374e-22
1.746320896e-21
8.010317933e-21
1.994127966e-21
1.368768763e-21
2.434486921e-21
1.660867529e-22
1.161140977e-20
4.961788139e-21
3.876327531e-21
6.550006276e-21
4.817659632e-22
4.999921872e-21
6.201177144e-21
2.390839728e-21
6.08486933e-21
7.355520935e-22
1.557758316e-22
1.71828087e-21
3.478024582e-21
2.0870772e-21
4.95327093e-21
1.223637214e-20
2.0278771e-21
7.974378577e-21
3.101010622e-21
1.69247073e-21
1.501550685e-20
7.466654629e-21
5.248594665e-21
9.627023736e-21
5.518462316e-21
1.051367832e-20
1.862049174e-21
1.038973584e-20
1.081618744e-20
1.114615659e-21
5.958634987e-22
4.734076841e-21
1.095531526e-21
4.949093517e-22
1.363747612e-21
1.749389436e-21
8.468920909e-21
1.729700252e-20
7.453902377e-21
2.922907433e-22
9.68172157e-21
4.849265572e-21
4.346313398e-21
7.45714643e-22
2.885762091e-21
6.204314432e-22
2.466732806e-21
5.136655686e-21
4.53267667e-21
1.696843963e-21
7.107798971e-21
3.46974232e-21
1.029760264e-21
5.001724666e-21
4.918982599e-22
3.86828725e-21
9.264301659e-22
6.69153422e-21
2.000731355e-21
2.784111867e-21
2.716197285e-21
3.793997958e-23
1.320258579e-21
3.51196376e-22
4.173942577e-21
7.886570423e-21
1.460304308e-21
3.864507542e-21
1.798723666e-21
6.336575672e-22
2.141885698e-21
7.345785588e-22
5.328493584e-21
1.086209669e-21
1.773349329e-21
4.648037468e-21
6.765443478e-21
5.59289245e-22
1.329561187e-22
4.916543535e-21
1.404517515e-20
1.690083848e-21
1.721729724e-21
5.08179437e-22
4.194352364e-22
1.546650574e-21
1.35833329e-20
5.122985896e-21
6.64146543e-21
1.989587859e-21
2.647413951e-22
3.654036693e-22
6.101968285e-21
7.937264181e-21
2.029190332e-22
3.714168596e-21
1.407688629e-21
3.776907158e-21
3.765176243e-21
9.435506775e-21
6.770220236e-21
2.941912366e-21
2.020673319e-20
6.523678587e-21
6.770300349e-22
1.795989788e-20
2.500868766e-21
3.666586252e-22
6.443220542e-22
2.821747344e-21
7.348558391e-22
5.711674065e-22
6.913074406e-21
8.269914177e-21
1.009432452e-20
2.128770666e-22
1.238203134e-20
3.497396058e-21
1.326302191e-20
2.173624396e-21
2.8763224e-21
7.483132126e-21
3.917641353e-22
8.591544982e-21
4.063202607e-21
1.353243156e-21
1.941746878e-21
3.407643641e-21
1.206744504e-20
1.377481286e-21
4.1394191e-21
2.96117273e-23
8.640139828e-21
2.322955092e-21
3.218225043e-21
5.063186979e-22
1.782538029e-21
9.79085514e-21
1.638908391e-21
2.602356574e-21
1.758826435e-21
5.484535023e-21
8.315660298e-22
2.077742308e-21
9.915419792e-22
1.393029623e-21
5.14114034e-21
7.523528724e-22
9.046931829e-22
3.402445766e-20
1.052083818e-20
2.706374794e-21
5.123524689e-21
9.123841877e-22
1.24139993e-20
6.831218838e-21
5.036378888e-21
3.074015018e-21
5.43351878e-21
3.979966414e-22
7.416433691e-21
8.380764633e-22
7.317228099e-21
3.276767318e-21
7.117849234e-21
2.975551713e-21
1.108883796e-20
4.82665734e-21
2.079395004e-21
3.263169316e-21
6.857396181e-21
1.893082082e-21
8.791318538e-22
4.111485737e-21
2.940970667e-21
6.606145286e-22
4.553849227e-21
4.006668509e-22
5.826979523e-21
4.282470763e-21
7.243492943e-21
1.677471357e-21
6.912329005e-21
1.215627317e-21
2.219878877e-21
2.959660707e-21
4.688152664e-21
1.208725492e-20
6.670236697e-21
1.406118035e-21
6.084884787e-22
6.743624176e-21
4.184710232e-21
2.466389208e-21
1.467135852e-20
1.155570257e-21
4.75418433e-21
6.743934099e-21
1.223040727e-20
2.068366317e-21
1.711416167e-21
3.788340377e-21
3.62044206e-21
7.45657039e-21
5.446778718e-21
2.708355719e-21
9.07100089e-21
2.388867133e-21
5.808195751e-21
1.094915695e-21
6.398908785e-21
4.900951941e-22
9.695072482e-21
9.124588852e-22
8.054472216e-21
6.846013409e-21
3.088141404e-21
8.141227803e-21
1.01831847e-21
1.34124662e-21
2.95985383e-21
4.727264147e-22
1.933546136e-21
1.077232607e-21
2.786349023e-20
3.2404474e-21
4.204147783e-21
5.730227399e-21
5.461729199e-21
6.73965162e-21
4.244989886e-21
1.458686896e-22
2.836151234e-21
2.984880597e-21
1.887413398e-21
2.658409078e-21
4.543743786e-21
3.63814625e-21
1.784889281e-21
1.330901936e-21
1.507986777e-21
1.025315956e-20
6.703319018e-21
2.973077726e-21
5.53160978e-21
1.998971552e-20
9.433386775e-21
9.961680313e-21
1.529679534e-20
1.454623663e-21
1.319721218e-21
1.581667547e-22
1.711041505e-22
3.743189367e-21
2.046778143e-20
1.785047215e-21
1.893305202e-21
5.056274051e-21
1.014774956e-20
6.624780004e-22
6.136392472e-22
4.36127853e-21
3.589809987e-21
1.735157355e-21
9.560187109e-21
7.251201594e-21
4.479552966e-21
9.12180089e-21
1.124309028e-20
6.993966307e-21
4.823836023e-21
2.916745386e-21
1.09547606e-21
5.589951752e-21
7.44766405e-23
5.829452977e-21
5.700615054e-21
2.278504844e-22
2.347646332e-21
1.800842395e-21
1.989968659e-22
4.973745946e-21
9.500468473e-22
3.81015311e-22
9.640678006e-21
8.413019429e-22
4.158129536e-22
2.904292823e-21
4.69924876e-21
9.093939174e-21
5.866275774e-21
1.702225264e-21
2.797477105e-21
2.800593242e-21
1.83139906e-20
1.77810407e-21
1.617692149e-21
6.917905747e-21
4.818530865e-22
1.44694111e-21
8.574015389e-21
3.111001259e-21
7.704717139e-21
2.954375876e-21
1.620503397e-20
1.043068423e-20
4.168109504e-21
7.422289656e-21
1.716485196e-21
9.858331661e-21
4.892269761e-22
8.586160404e-22
1.708220154e-21
1.161204793e-20
7.256498846e-22
3.611714848e-21
2.631544341e-21
3.640446131e-22
2.400525829e-21
5.149447995e-21
3.757244447e-21
2.912725242e-21
2.049925631e-22
4.741418899e-23
2.746510819e-20
4.32017327e-21
1.310397656e-21
4.382558223e-21
2.170552691e-20
3.883337941e-21
4.337687513e-22
3.014483094e-21
8.861252113e-21
4.464372243e-22
6.731906105e-21
1.722296817e-21
2.151480395e-21
1.473679708e-20
1.274260007e-20
1.58618638e-20
2.050650134e-20
5.160236695e-21
3.116046995e-21
1.425476025e-20
9.59173001e-21
8.691740857e-21
9.625795561e-22
2.177635256e-22
5.064655258e-21
1.795244518e-21
1.529434036e-20
1.434464836e-20
6.648463594e-22
1.658207624e-21
2.141600127e-22
9.001739664e-22
2.815139285e-21
7.964846721e-21
6.287241521e-21
2.683984007e-21
1.14272092e-20
1.379934354e-21
4.068027883e-22
1.07862716e-22
1.114968673e-20
2.942508142e-21
4.446417573e-21
1.908083716e-21
3.058598391e-22
4.676058963e-21
1.517104555e-21
8.509128224e-21
4.945639931e-21
1.941501145e-21
5.329715261e-22
5.18281108e-21
3.925412187e-21
1.544786819e-21
2.497841112e-21
1.285021368e-21
1.716800577e-20
8.552164026e-21
1.058147396e-20
1.776832337e-20
1.130438967e-21
2.513402276e-21
9.678524795e-21
8.010963562e-22
1.69983561e-20
3.945934007e-21
2.165062601e-21
8.579705758e-23
2.882373647e-21
5.973233223e-21
1.699677697e-21
5.246330154e-22
1.181434749e-20
1.019006675e-20
1.521754695e-22
1.189738814e-20
1.02854719e-20
5.441865424e-21
1.44523315e-21
5.070959807e-22
7.9376738e-22
1.840141917e-20
1.470159189e-21
4.173485235e-22
5.332088678e-21
2.474026612e-21
4.429972503e-21
5.315146645e-21
1.088997456e-20
1.839718455e-21
1.969971462e-21
8.269500916e-21
1.744420531e-21
9.528238408e-21
3.273545815e-20
3.186879944e-21
6.940229557e-22
1.4959414e-21
4.191679712e-21
8.948721155e-21
2.503920884e-21
8.363781697e-21
1.505677291e-20
1.131947987e-20
9.554883955e-22
1.112785336e-21
1.271183469e-20
1.260661855e-21
1.136219043e-22
1.966051865e-20
2.089988088e-21
1.100919587e-20
2.879473032e-21
4.593955882e-21
7.911076371e-22
3.707345701e-21
6.265129422e-21
5.337412421e-21
2.031603871e-21
1.025568081e-22
2.987583405e-21
3.598265405e-22
1.102096698e-20
3.098490141e-22
7.888726488e-22
5.424189498e-21
1.751483005e-21
9.406327374e-22
3.75254807e-21
2.070495559e-21
4.318448564e-21
3.072027696e-21
1.080950478e-21
1.591068092e-21
5.653968952e-22
1.43140087e-21
1.057226621e-20
3.105709505e-21
4.365852821e-21
5.081594223e-22
1.851513507e-23
2.156660475e-21
4.392766584e-21
1.272099742e-21
1.317395317e-20
5.627196825e-21
1.153199262e-20
1.885001946e-21
3.82259049e-21
2.541870179e-21
5.132473458e-21
2.292550232e-21
6.976493872e-21
5.561366624e-21
1.894357885e-21
2.027562165e-21
5.135630092e-21
1.419306803e-21
1.526279285e-21
2.96249708e-21
6.297028449e-21
4.067947313e-22
5.207815646e-21
6.694032787e-21
3.129534664e-21
1.885918572e-21
9.638688914e-22
1.897038661e-21
3.270676185e-22
1.631532352e-21
4.72830127e-22
5.539078248e-21
1.708473644e-21
1.9485973e-21
3.131451468e-22
1.008667407e-20
8.849295172e-22
2.839130983e-21
2.987268684e-22
9.676659082e-22
4.177193063e-21
2.977052789e-21
1.98586569e-20
8.175825542e-22
4.422015226e-21
3.243831747e-21
8.323040022e-21
1.660021552e-21
8.18959173e-24
2.063867818e-21
1.768052164e-22
3.121696777e-21
1.249373075e-20
2.971216956e-21
3.757987654e-21
1.36207414e-20
4.226452239e-22
2.342873187e-21
4.196541707e-21
4.696937722e-21
4.003372226e-21
2.203378828e-21
1.855311235e-21
1.914648644e-21
1.36504575e-20
5.615111303e-21
1.275966985e-20