/*--------------------------------*- C++ -*----------------------------------*\
| =========                 |                                                 |
| \\      /  F ield         | OpenFOAM: The Open Source CFD Toolbox           |
|  \\    /   O peration     | Version:  2406                                  |
|   \\  /    A nd           | Website:  www.openfoam.com                      |
|    \\/     M anipulation  |                                                 |
\*---------------------------------------------------------------------------*/
FoamFile
{
    version     2.0;
    format      ascii;
    arch        "LSB;label=32;scalar=64";
    class       Cloud<dsmcParcel>;
    location    "0.01/lagrangian/dsmc";
    object      positions;
}
// * * * * * * * * * * * * * * * * * * * * * * * * * * * * * * * * * * * * * //

6158
(
(0.3022395907 0.2656075242 0) 473
(0.286504412 0.2032862514 -1.084202172e-19) 141
(0.2901321177 0.2058099344 -2.168404345e-19) 172
(0.2923001196 0.2393548569 1.084202172e-19) 352
(0.3034542267 0.2165305013 0) 203
(0.302783556 0.2555146964 -2.168404345e-19) 413
(0.2801496739 0.2023767088 0) 140
(0.3004333039 0.2643990992 -3.455894425e-19) 473
(0.3028399296 0.2562199104 0) 413
(0.2887602808 0.1818715213 0) 30
(0.298434318 0.2278653516 2.710505431e-20) 263
(0.3014853979 0.2540517679 1.084202172e-19) 413
(0.2764800816 0.2328941124 0) 320
(0.3001415832 0.1951104644 0) 83
(0.2721549294 0.2109758861 6.505213035e-19) 199
(0.3026278346 0.2463915034 0) 383
(0.293784343 0.1899527597 -2.168404345e-19) 82
(0.2890466386 0.2099346776 -2.168404345e-19) 171
(0.3004965679 0.2072274769 2.168404345e-19) 173
(0.2827405765 0.2328446014 2.168404345e-19) 321
(0.2959763602 0.2213893611 2.168404345e-19) 232
(0.2989977738 0.2631732782 -1.626303259e-19) 473
(0.2971474179 0.2329529366 4.33680869e-19) 292
(0.2619862229 0.2723124464 4.33680869e-19) 528
(0.3040564831 0.2108316951 2.168404345e-19) 173
(0.3007010135 0.216198365 -2.168404345e-19) 203
(0.3002175207 0.2670144609 0) 473
(0.2640911037 0.2511297081 1.355252716e-19) 408
(0.2840169905 0.2005266808 -3.252606517e-19) 141
(0.2609796451 0.2307490949 0) 288
(0.303925994 0.2536504197 4.33680869e-19) 413
(0.3041786885 0.230548467 1.084202172e-19) 293
(0.3037022032 0.2007907782 0) 113
(0.2960964843 0.2701995182 0) 502
(0.2984243482 0.1753015967 -3.252606517e-19) 16
(0.2872240338 0.2010243241 2.168404345e-19) 141
(0.2993061395 0.2532923835 -5.620857698e-20) 413
(0.2837729998 0.2094817797 -5.421010862e-20) 171
(0.3039065592 0.2347650563 4.33680869e-19) 323
(0.2927315853 0.223954359 0) 262
(0.2707211538 0.2657364025 1.490777987e-19) 469
(0.3008123975 0.1926869771 1.897353802e-19) 83
(0.2933529795 0.2885752791 0) 592
(0.2824463722 0.1860193592 -1.084202172e-19) 52
(0.2972608191 0.2490653935 0) 383
(0.3014447764 0.2756934841 5.421010862e-20) 533
(0.2787992656 0.2127842715 -2.168404345e-19) 200
(0.2700741993 0.1902646093 2.168404345e-19) 79
(0.2998999358 0.2251265529 6.776263578e-21) 263
(0.2949133238 0.2631960385 -2.168404345e-19) 472
(0.2825571111 0.2598051393 0) 441
(0.3005380979 0.2667391536 0) 473
(0.3045801025 0.2693611873 3.252606517e-19) 503
(0.2542643203 0.2111419675 -2.981555974e-19) 197
(0.3012896314 0.2534068403 -2.168404345e-19) 413
(0.2960596648 0.2987842597 0) 652
(0.295703249 0.2398382107 2.168404345e-19) 352
(0.2926188907 0.2845015794 -1.084202172e-19) 592
(0.3026151684 0.2894278771 -4.33680869e-19) 623
(0.30393993 0.2270487435 -4.33680869e-19) 263
(0.2932615422 0.1962777998 -1.084202172e-19) 112
(0.2579960186 0.1958116155 0) 107
(0.3036696645 0.2027007209 2.168404345e-19) 143
(0.2646185835 0.2481353142 -2.168404345e-19) 378
(0.2724697107 0.1788165446 2.168404345e-19) 28
(0.2889329276 0.2468614757 -3.252606517e-19) 381
(0.2970129498 0.2346578409 -2.168404345e-19) 322
(0.2947756264 0.1934758528 -1.084202172e-19) 82
(0.2671403437 0.1711056862 0) 12
(0.2846230246 0.1828369983 0) 52
(0.2863003198 0.2057724971 0) 171
(0.2978338771 0.2782134135 4.33680869e-19) 563
(0.2926722972 0.2392056798 -1.626303259e-19) 352
(0.2934822491 0.2522647102 0) 412
(0.298961836 0.2362743289 0) 323
(0.2257915825 0.2440041269 -1.084202172e-19) 373
(0.295423456 0.2106169618 2.168404345e-19) 172
(0.2509092343 0.2395997261 2.168404345e-19) 346
(0.3044158298 0.185471671 0) 54
(0.2781344825 0.2548869082 -3.642241673e-19) 410
(0.3017945779 0.2253450388 2.168404345e-19) 263
(0.2986810173 0.2938627812 -5.421010862e-19) 623
(0.3024694846 0.1822526647 -2.846030703e-19) 32
(0.2927669867 0.2726539869 -1.084202172e-19) 532
(0.2999908015 0.235363139 -1.084202172e-19) 323
(0.2902597128 0.258259948 2.168404345e-19) 442
(0.2567379861 0.1783478194 -1.084202172e-19) 26
(0.2918020661 0.2708922726 0) 502
(0.3018110149 0.2713170751 -2.710505431e-19) 503
(0.2949038614 0.2551558872 -3.252606517e-19) 412
(0.2972985814 0.1857756117 2.168404345e-19) 54
(0.3031120772 0.2643262289 3.523657061e-19) 473
(0.2948313145 0.2076022925 -5.421010862e-19) 172
(0.2709268928 0.2214382672 0) 259
(0.298011387 0.2479958845 -2.168404345e-19) 383
(0.2767259417 0.2441757889 -1.084202172e-19) 380
(0.3046999085 0.2501120599 4.33680869e-19) 383
(0.3024524785 0.2000994674 4.33680869e-19) 113
(0.2988824264 0.2188723806 -9.486769009e-20) 233
(0.2128616658 0.1924890815 1.084202172e-19) 131
(0.2829691154 0.2552117246 0) 441
(0.2770953116 0.2006051304 2.710505431e-20) 140
(0.2740315112 0.2076618712 2.168404345e-19) 169
(0.2998299488 0.2051142633 5.421010862e-20) 143
(0.2853943585 0.1964092361 1.76182853e-19) 111
(0.3034997471 0.1882162531 -6.505213035e-19) 54
(0.2972989876 0.1813642997 0) 32
(0.2996857566 0.1963843213 -4.33680869e-19) 113
(0.2931220037 0.2284841217 0) 292
(0.2780239856 0.2631992225 4.878909776e-19) 470
(0.2593975928 0.2335285252 -2.168404345e-19) 318
(0.2694385743 0.2278690149 -1.084202172e-19) 289
(0.2518382567 0.1965058097 0) 137
(0.2973206914 0.2157088428 0) 203
(0.2913204371 0.2585451339 -2.710505431e-20) 442
(0.282887069 0.2594896827 -2.168404345e-19) 441
(0.2987575166 0.2627022981 -6.776263578e-21) 473
(0.2943552847 0.2155302569 1.084202172e-19) 202
(0.3023229793 0.253358279 4.065758147e-20) 413
(0.2720978364 0.1825503669 0) 50
(0.2904820612 0.2387933321 -1.084202172e-19) 322
(0.2734910354 0.2494490511 -8.67361738e-19) 409
(0.2940591728 0.1909609367 1.084202172e-19) 82
(0.2857842046 0.2261430565 2.812149385e-19) 261
(0.2982131723 0.2455501648 2.168404345e-19) 383
(0.282923062 0.2164037223 0) 231
(0.2750120933 0.2053402334 -1.084202172e-19) 170
(0.2633634231 0.2190015454 0) 228
(0.2832920275 0.2074970955 -4.33680869e-19) 171
(0.3025742901 0.2072548543 0) 173
(0.2968942445 0.2432418663 4.33680869e-19) 352
(0.2757136534 0.2386053034 -2.168404345e-19) 350
(0.2909912116 0.198502036 -4.33680869e-19) 112
(0.2979941572 0.2851438146 -1.084202172e-19) 593
(0.304640249 0.2263017877 0) 263
(0.2889879505 0.2516757218 1.084202172e-19) 411
(0.2734604979 0.2135948616 -2.168404345e-19) 199
(0.2967692855 0.2122716158 -2.168404345e-19) 202
(0.2955005118 0.2274178014 2.168404345e-19) 262
(0.2893197777 0.2521890035 1.084202172e-19) 411
(0.2746934795 0.2546378953 3.794707604e-19) 410
(0.2961356996 0.2096961497 -2.168404345e-19) 172
(0.2941664 0.2733443151 -2.168404345e-19) 532
(0.285243791 0.2382816267 0) 321
(0.2431884974 0.1818430492 0) 46
(0.2884244639 0.2274926413 -2.168404345e-19) 261
(0.2839084998 0.2352130286 3.252606517e-19) 321
(0.2827015115 0.2154727226 2.168404345e-19) 201
(0.2989403545 0.1797502668 0) 32
(0.2951607375 0.2469714501 1.626303259e-19) 382
(0.2539369804 0.2015295684 0) 167
(0.266828287 0.2064585154 2.168404345e-19) 169
(0.2940716687 0.2515668286 0) 412
(0.3041939298 0.2690892773 3.252606517e-19) 503
(0.289701568 0.2805000258 -4.33680869e-19) 562
(0.2983506379 0.2899712325 -4.33680869e-19) 623
(0.2959533195 0.2520002418 -1.084202172e-19) 412
(0.2809231601 0.1984114512 -2.168404345e-19) 110
(0.2515734523 0.2757127201 4.33680869e-19) 527
(0.2901029447 0.259053975 0) 442
(0.2236350176 0.1795040544 -2.168404345e-19) 44
(0.2928541998 0.2361258881 -1.626303259e-19) 322
(0.2773608172 0.2149443459 2.168404345e-19) 200
(0.2971656302 0.2349088573 2.168404345e-19) 322
(0.2882405996 0.2220102288 0) 231
(0.2918155579 0.2442575515 -2.168404345e-19) 352
(0.2916441497 0.1853151966 3.523657061e-19) 53
(0.2990662969 0.1860768564 -4.472333962e-19) 54
(0.294202502 0.269019609 0) 502
(0.2882487801 0.2178778485 -2.168404345e-19) 231
(0.2800837031 0.2076029349 0) 170
(0.2942999205 0.1939086981 3.252606517e-19) 82
(0.3033897702 0.2937217705 2.168404345e-19) 623
(0.2813249237 0.1909545313 0) 80
(0.2983748937 0.2742325495 0) 533
(0.2770835362 0.245441161 -1.084202172e-19) 380
(0.2818664249 0.2018975204 0) 140
(0.2962766732 0.2198201245 5.421010862e-20) 232
(0.2816143682 0.1950142867 -1.084202172e-19) 110
(0.2914898012 0.2459348004 1.033380196e-19) 382
(0.261811903 0.2375907108 -3.252606517e-19) 348
(0.2882313623 0.2753618628 -2.168404345e-19) 531
(0.2781437455 0.1815831409 -3.083199928e-19) 29
(0.2915440018 0.1941095427 4.33680869e-19) 82
(0.2930028564 0.2568527956 -1.084202172e-19) 442
(0.2974584241 0.2825094782 2.168404345e-19) 563
(0.2765971634 0.2227714797 -1.355252716e-20) 260
(0.3019710084 0.1855757801 2.168404345e-19) 54
(0.3045215296 0.2821443577 2.168404345e-19) 563
(0.2852107557 0.2856906018 -2.032879073e-20) 591
(0.2995758145 0.2540489368 1.084202172e-19) 413
(0.294042251 0.2306442937 -3.252606517e-19) 292
(0.3041332547 0.2433296423 0) 353
(0.2883703019 0.2396826509 6.505213035e-19) 351
(0.2848596454 0.2730914815 1.084202172e-19) 531
(0.3020915297 0.2825131584 -2.168404345e-19) 563
(0.2897397889 0.2283999726 -2.710505431e-19) 292
(0.2692295271 0.2120631308 5.421010862e-20) 199
(0.2598311863 0.1924741407 2.168404345e-19) 108
(0.2946131599 0.2038787424 -1.084202172e-19) 142
(0.2999724414 0.2615227532 2.168404345e-19) 443
(0.3005343782 0.2008785175 2.168404345e-19) 113
(0.2836468312 0.232302221 1.084202172e-19) 291
(0.2879292391 0.2038290069 0) 141
(0.2407806738 0.1928343107 1.626303259e-19) 105
(0.2708261906 0.1928838411 2.168404345e-19) 109
(0.2813299263 0.2249245878 0) 260
(0.2595222324 0.2280725722 4.607859233e-19) 288
(0.2988842124 0.2124684533 0) 203
(0.2846574422 0.2333644342 4.33680869e-19) 321
(0.2921922478 0.2677075511 0) 502
(0.28359136 0.2080610213 2.710505431e-19) 171
(0.2961482954 0.2254240896 -2.981555974e-19) 262
(0.2816165317 0.2040704172 -2.168404345e-19) 140
(0.281332746 0.2593476633 0) 440
(0.2983648103 0.266598094 -1.084202172e-19) 473
(0.2834575436 0.2722321219 4.33680869e-19) 531
(0.3031130592 0.1880855746 0) 54
(0.2906660435 0.2758909679 -1.084202172e-19) 532
(0.2829367211 0.1952629574 -2.168404345e-19) 111
(0.2889581857 0.2214481832 -2.168404345e-19) 231
(0.2979470397 0.2593741932 1.084202172e-19) 443
(0.2914694271 0.2258714538 0) 262
(0.3019152511 0.2461870621 2.168404345e-19) 383
(0.2806039952 0.2350500057 4.33680869e-19) 320
(0.2757456008 0.2279480367 2.168404345e-19) 290
(0.3004225476 0.1777403832 -2.168404345e-19) 16
(0.2929682963 0.2349255487 -1.626303259e-19) 322
(0.2852187606 0.1821577966 -2.168404345e-19) 30
(0.2863338531 0.1917983682 -5.421010862e-20) 81
(0.2936874609 0.2171491902 0) 232
(0.3016551988 0.2573471435 -2.168404345e-19) 443
(0.2341661587 0.2096065444 0) 194
(0.28184901 0.1958213906 -1.084202172e-19) 110
(0.2810427513 0.1911333019 -4.33680869e-19) 80
(0.2824208443 0.2239745041 0) 261
(0.2646103725 0.2746355317 0) 528
(0.2445092094 0.2643951537 -2.57498016e-19) 466
(0.2866917569 0.2368628704 1.084202172e-19) 321
(0.291304179 0.2142379737 -1.355252716e-19) 202
(0.3013691639 0.2098792138 -5.421010862e-20) 173
(0.2963144619 0.2166347525 6.505213035e-19) 202
(0.2875208348 0.1937612879 -1.084202172e-19) 81
(0.2523495618 0.1831538111 -8.809142651e-20) 48
(0.2843162016 0.2198470782 1.084202172e-19) 231
(0.2916519152 0.187411755 -2.168404345e-19) 53
(0.3043436488 0.219972079 0) 233
(0.3029494659 0.213616273 4.33680869e-19) 203
(0.2922674596 0.2368132922 -2.168404345e-19) 322
(0.3042986995 0.2498164147 0) 383
(0.288929869 0.1931064023 -2.168404345e-19) 81
(0.2927355122 0.2631577697 -2.710505431e-19) 472
(0.286615519 0.2809955674 1.084202172e-19) 561
(0.2993869003 0.2356827114 1.185846126e-19) 323
(0.2880158381 0.2802479772 -5.421010862e-20) 561
(0.3021988649 0.2424761164 -2.337810934e-19) 353
(0.2860619013 0.1861241062 2.981555974e-19) 52
(0.2857830336 0.2262033446 1.795709848e-19) 261
(0.2734039703 0.2502326299 0) 409
(0.3009577856 0.2128612177 3.930232875e-19) 203
(0.2783219522 0.1959176269 -8.131516294e-20) 110
(0.294165765 0.1805189411 1.626303259e-19) 31
(0.2993879679 0.1900908053 0) 54
(0.2840040694 0.2123676695 1.084202172e-19) 201
(0.2991998247 0.2493382166 -1.084202172e-19) 383
(0.2907712596 0.2982198133 -2.168404345e-19) 652
(0.2606723386 0.2366322541 2.168404345e-19) 318
(0.2976173514 0.2180874549 5.421010862e-20) 233
(0.2972685145 0.2730656781 -3.794707604e-19) 533
(0.2946823071 0.1970522857 1.084202172e-19) 112
(0.2376557739 0.2339465211 3.523657061e-19) 315
(0.2704135678 0.1953880504 5.421010862e-20) 109
(0.2886044007 0.2218967133 0) 231
(0.2784123544 0.2178195109 -2.168404345e-19) 230
(0.2639946938 0.2937229811 -1.084202172e-19) 618
(0.2877577005 0.2604333084 -2.168404345e-19) 441
(0.2729066526 0.2553750225 2.168404345e-19) 439
(0.2953243452 0.2710152848 -4.33680869e-19) 502
(0.2813373263 0.2001608386 -2.168404345e-19) 140
(0.2794983408 0.2190826368 0) 230
(0.2762607163 0.2105902206 -2.168404345e-19) 200
(0.2794465139 0.1886302591 -2.168404345e-19) 80
(0.2950397016 0.228092955 1.084202172e-19) 262
(0.275714916 0.2122404841 0) 200
(0.2705983935 0.1841183506 -3.794707604e-19) 50
(0.2950639762 0.2199294431 -3.252606517e-19) 232
(0.2842958847 0.2569748134 4.065758147e-20) 441
(0.3002455919 0.212522322 -5.421010862e-20) 203
(0.2940307758 0.1884368692 -3.252606517e-19) 53
(0.3010595801 0.2204389286 0) 233
(0.2869169882 0.1872661499 2.168404345e-19) 52
(0.2929267667 0.2653191507 0) 472
(0.2858527453 0.2494705029 -8.809142651e-20) 381
(0.2857808259 0.2122614542 0) 201
(0.2845788342 0.2248314209 1.084202172e-19) 261
(0.2506177113 0.2259306534 1.084202172e-19) 286
(0.3039320984 0.2360837059 -5.421010862e-19) 323
(0.283924316 0.2336784448 0) 321
(0.3026880079 0.2705514282 3.252606517e-19) 503
(0.2965440885 0.2219848575 -4.33680869e-19) 232
(0.2874770231 0.2422641167 -1.084202172e-19) 351
(0.2391111776 0.1897813296 1.084202172e-19) 105
(0.2967037702 0.2117953805 -2.168404345e-19) 172
(0.2550340537 0.1899342019 2.168404345e-19) 77
(0.3025913685 0.2768001029 -1.084202172e-19) 533
(0.2939682158 0.179810153 -4.33680869e-19) 31
(0.2901680194 0.2946661673 -2.168404345e-19) 652
(0.2904924033 0.1863499725 -1.626303259e-19) 53
(0.2724628736 0.2249585405 2.168404345e-19) 259
(0.2648266606 0.2059008079 2.168404345e-19) 168
(0.2660231575 0.2246795233 0) 258
(0.2828440167 0.2601784277 7.453889936e-20) 441
(0.3004833444 0.2228922733 0) 233
(0.2973488211 0.2256364235 4.33680869e-19) 263
(0.2893618277 0.2364580363 0) 321
(0.2842106355 0.2351233931 -2.710505431e-19) 321
(0.2618320718 0.2231579161 3.252606517e-19) 258
(0.285925716 0.2811045373 1.355252716e-19) 561
(0.2778973106 0.2901814054 -4.065758147e-19) 620
(0.2926677865 0.1952284469 5.421010862e-20) 112
(0.3023193107 0.1910910429 6.505213035e-19) 83
(0.3016306292 0.2340534866 1.626303259e-19) 293
(0.2803827553 0.2657738377 0) 470
(0.3037147516 0.1882975636 0) 54
(0.2708520322 0.2397607954 -1.084202172e-19) 349
(0.250962954 0.2274794523 0) 286
(0.2597843523 0.2296746764 2.168404345e-19) 288
(0.278145414 0.2897892257 4.33680869e-19) 620
(0.3010550334 0.1827441895 3.388131789e-20) 32
(0.3026046321 0.2021864055 0) 143
(0.2869096347 0.2639477463 0) 471
(0.2869030513 0.2529657766 1.084202172e-19) 411
(0.268444776 0.208721461 4.33680869e-19) 169
(0.2801103534 0.2374279165 2.168404345e-19) 320
(0.2766278455 0.206575145 1.084202172e-19) 170
(0.2968795106 0.283808771 -4.33680869e-19) 592
(0.2591109149 0.2603545963 -2.168404345e-19) 468
(0.2752577713 0.2026091634 2.168404345e-19) 140
(0.2963867478 0.2454967395 0) 382
(0.302642841 0.240298272 -6.505213035e-19) 353
(0.2828594261 0.2849727801 3.252606517e-19) 591
(0.2773721938 0.2057891738 -5.421010862e-20) 170
(0.2617470929 0.1927084027 1.084202172e-19) 108
(0.2726695789 0.2348994198 0) 319
(0.3040782422 0.2274930276 -2.168404345e-19) 263
(0.2986570038 0.276464799 0) 533
(0.2841975996 0.2439943125 0) 351
(0.2892874748 0.2687271542 -1.084202172e-19) 501
(0.2989749637 0.2767039929 4.33680869e-19) 533
(0.2941712356 0.2922429732 -5.963111949e-19) 622
(0.2899001685 0.2658575918 -4.33680869e-19) 472
(0.2989423222 0.1926684169 2.168404345e-19) 83
(0.2923646388 0.2128557901 -1.084202172e-19) 202
(0.1603110528 0.2010352089 -1.084202172e-19) 185
(0.2515111215 0.195069771 -2.168404345e-19) 107
(0.2971888417 0.1980466216 4.33680869e-19) 113
(0.242572819 0.2391810319 2.168404345e-19) 345
(0.2958999915 0.233664902 2.168404345e-19) 292
(0.2825830863 0.2765350618 0) 531
(0.2989088071 0.2289364167 0) 293
(0.3008077564 0.2513875218 3.659182332e-19) 413
(0.2675992306 0.2277717499 -1.084202172e-19) 289
(0.2720054289 0.2501197073 -4.33680869e-19) 409
(0.300385914 0.2524243037 1.626303259e-19) 413
(0.2827321592 0.2670965497 -9.486769009e-20) 501
(0.2695481307 0.2415550868 2.168404345e-19) 349
(0.283819177 0.204903516 2.168404345e-19) 171
(0.2852798208 0.2230243502 5.421010862e-20) 261
(0.2818367597 0.2552927228 0) 440
(0.2819881593 0.2798344358 0) 561
(0.2865531191 0.2744820095 5.421010862e-20) 531
(0.3011540174 0.2172453952 -6.776263578e-20) 203
(0.2686382425 0.2699962691 -2.168404345e-19) 499
(0.2832303392 0.2220790926 2.168404345e-19) 261
(0.2858973494 0.2045343983 -3.794707604e-19) 141
(0.2955012915 0.2521824232 -2.168404345e-19) 412
(0.2892068401 0.2132784839 5.421010862e-19) 201
(0.2638736791 0.2047219301 -1.084202172e-19) 168
(0.2615198807 0.1679328629 0) 11
(0.2819437056 0.2533707532 2.168404345e-19) 411
(0.3011890431 0.2142508287 -1.084202172e-19) 203
(0.2823679229 0.2317471535 2.168404345e-19) 291
(0.2651852496 0.221877864 0) 258
(0.2955438246 0.2027901827 0) 142
(0.27663728 0.2837432013 -1.084202172e-19) 590
(0.3036741545 0.2688228073 2.168404345e-19) 503
(0.2959737459 0.2108358907 2.168404345e-19) 172
(0.2743585379 0.2049128838 0) 170
(0.2993435002 0.2548930464 -5.421010862e-20) 413
(0.2862725487 0.2100787538 -1.626303259e-19) 171
(0.293917787 0.2434601906 4.33680869e-19) 352
(0.2795723889 0.2499293916 -2.168404345e-19) 410
(0.2263987835 0.2134610104 0) 223
(0.2742865705 0.2333426509 -4.33680869e-19) 319
(0.2962992718 0.2788171751 0) 562
(0.2846051254 0.2246828095 -1.355252716e-19) 261
(0.2746868907 0.2573147694 2.168404345e-19) 440
(0.2705681625 0.2356859006 -2.710505431e-19) 319
(0.2722615721 0.2882208297 2.168404345e-19) 589
(0.2961514193 0.1764001003 2.168404345e-19) 15
(0.2631186735 0.2422144295 -2.168404345e-19) 348
(0.2581576628 0.193231563 -1.812650507e-19) 107
(0.2833750963 0.1857906169 4.33680869e-19) 52
(0.2771292926 0.2336944034 0) 320
(0.290548256 0.2339824954 2.168404345e-19) 322
(0.2975957395 0.2137587085 4.33680869e-19) 203
(0.2928080505 0.2747001436 -2.270048299e-19) 532
(0.268764194 0.1749926645 2.168404345e-19) 28
(0.2759542821 0.2625194288 -2.168404345e-19) 470
(0.2655466824 0.2947798707 0) 648
(0.3034643874 0.2317111839 -2.168404345e-19) 293
(0.2702219203 0.239132563 -2.168404345e-19) 349
(0.2691494605 0.1977544793 4.33680869e-19) 139
(0.2571819974 0.1723442992 2.168404345e-19) 10
(0.2767377507 0.2250409334 -1.626303259e-19) 260
(0.2942601242 0.1818460658 1.084202172e-19) 31
(0.2849425377 0.2656979177 -2.168404345e-19) 471
(0.2930689079 0.227325376 -2.168404345e-19) 262
(0.2896630214 0.2230214461 -1.084202172e-19) 262
(0.2942777712 0.2007908182 2.168404345e-19) 142
(0.269965874 0.2418384243 1.084202172e-19) 349
(0.3034059111 0.2732017204 4.33680869e-19) 533
(0.2634465228 0.2203029042 0) 258
(0.2883801591 0.2492607466 2.168404345e-19) 381
(0.3025363674 0.2674907058 2.168404345e-19) 503
(0.2065744482 0.2372801632 -4.33680869e-19) 341
(0.2778414053 0.2236008518 1.084202172e-19) 260
(0.2726426957 0.2138479797 -4.33680869e-19) 199
(0.2798267929 0.2578394753 -1.084202172e-19) 440
(0.3016531115 0.2956403899 -6.505213035e-19) 653
(0.2905907119 0.2957055377 -1.626303259e-19) 652
(0.2602045274 0.1791603981 -2.168404345e-19) 49
(0.2857314467 0.2018043972 -2.541098842e-21) 141
(0.2622267723 0.2212378664 -2.168404345e-19) 258
(0.2714301209 0.270842925 1.084202172e-19) 499
(0.278139495 0.2657313582 -4.565507586e-19) 470
(0.2787370682 0.2464578366 -3.388131789e-20) 380
(0.2856875093 0.2025061263 2.710505431e-20) 141
(0.2857717517 0.2934659992 8.300922883e-20) 621
(0.2476318751 0.2616606162 1.804180178e-19) 466
(0.2508963131 0.2943397093 -4.33680869e-19) 646
(0.2729051014 0.1912654653 -2.168404345e-19) 79
(0.2825437842 0.2768001802 0) 531
(0.2788506821 0.2077657296 -5.421010862e-20) 170
(0.2690341042 0.1690297786 2.168404345e-19) 12
(0.2999394708 0.2071167878 -1.084202172e-19) 173
(0.282201468 0.2364174036 0) 321
(0.2827204347 0.2348306405 -2.168404345e-19) 321
(0.2773113836 0.2315270333 0) 290
(0.2920534706 0.2772960606 0) 532
(0.2704326586 0.2530659335 2.168404345e-19) 409
(0.2723085646 0.2243961278 4.33680869e-19) 259
(0.2852133088 0.2881292225 2.168404345e-19) 591
(0.2959243956 0.2447787626 0) 352
(0.293468915 0.172913104 0) 15
(0.2812891265 0.2371963081 0) 320
(0.2840372616 0.2827702455 1.084202172e-19) 561
(0.284728175 0.2061402867 1.084202172e-19) 171
(0.2878880579 0.2694313642 0) 501
(0.3040793098 0.1959910038 -2.168404345e-19) 83
(0.287817488 0.2279157813 0) 291
(0.2883577183 0.2381052424 2.168404345e-19) 321
(0.3047645053 0.2817821101 0) 563
(0.2889176294 0.2639475823 2.168404345e-19) 471
(0.2836994594 0.2522232914 0) 411
(0.3016420736 0.2208020271 0) 233
(0.2814986927 0.1900802331 5.421010862e-20) 80
(0.2459110785 0.2096880319 -5.421010862e-20) 196
(0.2959482223 0.2164068715 0) 202
(0.2902901688 0.2593550495 -1.084202172e-19) 442
(0.2986649692 0.2115852554 1.084202172e-19) 173
(0.2710372845 0.2617423152 2.168404345e-19) 469
(0.2763329671 0.2073127857 1.626303259e-19) 170
(0.2481235236 0.2716498084 0) 526
(0.2557929882 0.2563371452 -2.439454888e-19) 437
(0.2563128788 0.2115701351 -1.084202172e-19) 197
(0.2633223278 0.2466841914 0) 378
(0.2847561006 0.1849389663 -1.626303259e-19) 52
(0.2817745641 0.2368340923 0) 320
(0.267081246 0.2239945495 -1.084202172e-19) 259
(0.2519808483 0.2365290443 -1.965116438e-19) 347
(0.2674680319 0.1793041987 2.168404345e-19) 28
(0.2484282272 0.2228255299 -5.421010862e-20) 256
(0.3025131745 0.2158681691 -1.084202172e-19) 203
(0.2970921846 0.2344045077 2.168404345e-19) 322
(0.2705544306 0.258680247 2.371692252e-20) 439
(0.2833028054 0.2076355495 -3.388131789e-20) 171
(0.263034603 0.1999285653 -4.065758147e-20) 138
(0.2664302198 0.2472771394 4.33680869e-19) 378
(0.2705330093 0.2482528037 2.676624113e-19) 379
(0.2623139214 0.2052547803 -1.694065895e-20) 168
(0.2445718342 0.2312003822 1.084202172e-19) 316
(0.2677065734 0.2434112229 0) 379
(0.2918280122 0.2067291333 -1.084202172e-19) 172
(0.2845943077 0.2862171824 8.131516294e-20) 591
(0.2640731949 0.2537279903 0) 408
(0.2856061375 0.2579246494 1.355252716e-20) 441
(0.2829971727 0.2171631058 -2.168404345e-19) 231
(0.2965644859 0.2527616095 -5.421010862e-20) 412
(0.292149636 0.2188899351 -3.794707604e-19) 232
(0.2845891946 0.2595583678 0) 441
(0.2839714558 0.2653606716 -1.626303259e-19) 471
(0.295682598 0.2611190147 0) 442
(0.2815612817 0.2430740014 2.168404345e-19) 350
(0.2845166484 0.2559250472 -4.33680869e-19) 441
(0.2926929379 0.2162220388 4.33680869e-19) 202
(0.2741292969 0.2185567523 0) 229
(0.2689339142 0.2356521546 -2.625802136e-20) 319
(0.2804395704 0.1796691579 2.168404345e-19) 29
(0.2203463833 0.1998509652 3.252606517e-19) 162
(0.2816187276 0.2015971207 -2.710505431e-19) 140
(0.3007648478 0.1901310894 2.168404345e-19) 54
(0.2748257055 0.2343408567 2.168404345e-19) 320
(0.3011062172 0.2288274983 0) 293
(0.2969514372 0.1871339034 4.33680869e-19) 53
(0.2904986595 0.2685649683 -1.084202172e-19) 502
(0.2909917734 0.2189953643 1.084202172e-19) 232
(0.2934238835 0.2604147301 2.710505431e-20) 442
(0.2966283029 0.2868831659 -2.168404345e-19) 592
(0.2981201203 0.203679927 2.168404345e-19) 143
(0.298110378 0.2392412213 0) 323
(0.2940210565 0.2534519596 2.168404345e-19) 412
(0.2573491271 0.2789594228 -2.168404345e-19) 557
(0.2698238436 0.2002283463 0) 139
(0.2395904278 0.1951181588 -1.897353802e-19) 135
(0.30096507 0.2037535991 -7.792703115e-20) 143
(0.3031477944 0.2013750954 0) 113
(0.2649442733 0.2117870188 0) 198
(0.2519416674 0.216615885 0) 227
(0.2676380492 0.1932147722 -2.168404345e-19) 109
(0.2744167945 0.2013682626 -2.710505431e-19) 140
(0.2623798795 0.2001478265 -3.252606517e-19) 138
(0.2586609471 0.2667344192 0) 497
(0.2970743533 0.1929499105 -4.33680869e-19) 82
(0.2614353077 0.2610392541 -1.084202172e-19) 468
(0.2806289147 0.2725266625 -4.33680869e-19) 530
(0.2680102625 0.2106804984 2.168404345e-19) 199
(0.2879416216 0.2341318401 -2.168404345e-19) 321
(0.2726504762 0.1991942085 0) 139
(0.2887240195 0.2205084013 -2.168404345e-19) 231
(0.262923126 0.2084386204 -4.33680869e-19) 198
(0.2929149183 0.2532645501 1.27901975e-19) 412
(0.2877697281 0.238945161 -2.168404345e-19) 351
(0.2998890506 0.273919618 0) 533
(0.2662216353 0.2085321853 0) 168
(0.2827020158 0.2388593281 0) 351
(0.2740576222 0.2523865006 0) 409
(0.2421545567 0.2164465772 2.168404345e-19) 225
(0.2662390737 0.1902208457 2.168404345e-19) 78
(0.2607331425 0.2144527882 0) 228
(0.2873023538 0.2302968537 4.743384505e-20) 291
(0.2759794045 0.2503909735 9.825582188e-20) 410
(0.2699198013 0.2654296965 -2.168404345e-19) 469
(0.2921464984 0.2663412092 -2.168404345e-19) 472
(0.2513852425 0.2407907157 0) 346
(0.2256899702 0.2791462674 -1.084202172e-19) 553
(0.2646347953 0.212150706 3.252606517e-19) 198
(0.2890923067 0.2611568878 0) 471
(0.2976870587 0.2400714794 1.897353802e-19) 353
(0.2975224342 0.2829788085 -2.168404345e-19) 563
(0.298559837 0.2106844947 0) 173
(0.2750255589 0.2423395642 -4.33680869e-19) 350
(0.2777250163 0.2301988719 -5.421010862e-20) 290
(0.3033800721 0.2475799275 0) 383
(0.2668284048 0.2127142504 0) 199
(0.2485849902 0.2014779162 -2.168404345e-19) 166
(0.2993710849 0.2299820641 1.084202172e-19) 293
(0.2785834271 0.2114762987 -1.084202172e-19) 200
(0.263080802 0.1818279452 5.421010862e-20) 49
(0.2916805561 0.2378076435 -1.084202172e-19) 322
(0.2951898856 0.2021389448 0) 142
(0.2538972707 0.2914220623 1.626303259e-19) 617
(0.2937895285 0.2259498005 2.439454888e-19) 262
(0.2694758666 0.2682045237 2.710505431e-20) 499
(0.2853985452 0.2444896056 3.523657061e-19) 381
(0.2982616342 0.2514195623 -5.421010862e-20) 413
(0.2755852568 0.2007820363 2.168404345e-19) 140
(0.2874794599 0.1753333162 -1.084202172e-19) 14
(0.2576762345 0.1989504846 -8.470329473e-20) 137
(0.2860733636 0.2451366378 4.33680869e-19) 381
(0.2377912654 0.2659885911 5.421010862e-20) 495
(0.284295823 0.186713297 1.626303259e-19) 52
(0.2879521212 0.2852139428 1.084202172e-19) 591
(0.2848165172 0.1863957759 5.421010862e-19) 52
(0.2631879884 0.293537197 -2.439454888e-19) 618
(0.2636260887 0.2734147164 0) 528
(0.2982422692 0.2690809072 0) 503
(0.255832615 0.2024117453 0) 167
(0.2313114027 0.2094091849 -3.252606517e-19) 194
(0.2955806597 0.2199979866 0) 232
(0.2049089979 0.215662063 2.168404345e-19) 250
(0.2383963057 0.1741902887 -1.084202172e-19) 24
(0.2697018535 0.2073606366 1.084202172e-19) 169
(0.2531953299 0.2125741193 1.084202172e-19) 197
(0.2887064707 0.2581123899 4.201283418e-19) 441
(0.2537322297 0.2111450917 1.084202172e-19) 197
(0.3029110816 0.1806799293 2.168404345e-19) 32
(0.2762249762 0.2336333462 2.032879073e-20) 320
(0.2382727192 0.2330790443 1.084202172e-19) 315
(0.2745779739 0.2692075271 -5.421010862e-20) 500
(0.2925177858 0.2268681472 1.084202172e-19) 262
(0.2496080308 0.2343253778 0) 316
(0.2504531036 0.2511765863 -2.168404345e-19) 406
(0.2517065939 0.1708529597 -6.505213035e-19) 10
(0.2462668034 0.2595556948 1.084202172e-19) 466
(0.2615177861 0.2170848742 -5.421010862e-20) 228
(0.2559549136 0.2377021347 0) 347
(0.2363257709 0.2163793071 -2.168404345e-19) 225
(0.2729639021 0.2494875092 2.168404345e-19) 409
(0.2456134962 0.2227153364 2.439454888e-19) 256
(0.268792304 0.2261995779 -2.168404345e-19) 289
(0.2870877922 0.2133994974 -4.065758147e-20) 201
(0.2739162153 0.2273970894 -2.168404345e-19) 289
(0.259603133 0.2324091347 -2.168404345e-19) 318
(0.2681778308 0.1756850924 -4.065758147e-20) 28
(0.2706330516 0.2047952392 -2.168404345e-19) 169
(0.253157626 0.2295715657 -1.626303259e-19) 287
(0.277115185 0.2127346315 -3.523657061e-19) 200
(0.3005248501 0.2385666717 2.168404345e-19) 323
(0.293339048 0.2300570787 -5.94617129e-19) 292
(0.2651404161 0.2762917513 4.33680869e-19) 528
(0.3017499875 0.2296627562 -2.168404345e-19) 293
(0.2720661866 0.2674761914 1.084202172e-19) 499
(0.2814762322 0.2475250747 4.33680869e-19) 380
(0.2784811913 0.2807471118 -3.794707604e-19) 560
(0.2798984233 0.2648389158 0) 470
(0.3042793528 0.2018411024 0) 143
(0.266026803 0.203804825 2.168404345e-19) 168
(0.2630792679 0.2112260732 -2.168404345e-19) 198
(0.2616241816 0.2568015805 -3.252606517e-19) 438
(0.2982155356 0.2699523476 0) 503
(0.2769131385 0.2191605814 2.303929617e-19) 230
(0.2711204909 0.2443967197 0) 379
(0.2896046441 0.268944726 0) 502
(0.298739859 0.2008433143 4.33680869e-19) 113
(0.2892676457 0.2439643014 -4.33680869e-19) 351
(0.2731437851 0.2499459527 2.168404345e-19) 409
(0.2772477954 0.2817403101 3.252606517e-19) 560
(0.2627534511 0.2587509882 0) 438
(0.2578811626 0.213025292 -2.168404345e-19) 197
(0.2969630454 0.2040016584 0) 142
(0.2813824039 0.1972928176 6.505213035e-19) 110
(0.2650330791 0.2949265511 0) 648
(0.2684139218 0.2412102417 -1.084202172e-19) 349
(0.258693271 0.1934625086 2.168404345e-19) 107
(0.2570956024 0.2695595167 0) 497
(0.2820166998 0.280381408 3.388131789e-19) 561
(0.2925520351 0.2498359168 -4.33680869e-19) 382
(0.2821317564 0.2466246604 4.33680869e-19) 381
(0.2916521872 0.2703830903 4.33680869e-19) 502
(0.2919634116 0.2764441909 2.168404345e-19) 532