/*--------------------------------*- C++ -*----------------------------------*\
| =========                 |                                                 |
| \\      /  F ield         | OpenFOAM: The Open Source CFD Toolbox           |
|  \\    /   O peration     | Version:  2406                                  |
|   \\  /    A nd           | Website:  www.openfoam.com                      |
|    \\/     M anipulation  |                                                 |
\*---------------------------------------------------------------------------*/
FoamFile
{
    version     2.0;
    format      ascii;
    arch        "LSB;label=32;scalar=64";
    class       vectorField;
    location    "0.01/lagrangian/dsmc";
    object      U;
}
// * * * * * * * * * * * * * * * * * * * * * * * * * * * * * * * * * * * * * //


6158
(
(1278.216787 -532.760392 -42.29537872)
(1052.223046 -379.1608039 -454.2924745)
(824.1946216 166.7805568 -416.5093501)
(1367.312637 446.2230933 47.01985077)
(228.3975176 134.8392585 164.010109)
(1302.327044 -4.692482496 404.9928406)
(379.5086421 161.7422553 408.9404514)
(1202.700263 413.6841831 203.8574241)
(1440.004869 810.2596436 -201.2809031)
(408.9140974 119.1427394 -355.3484674)
(1315.548639 470.568428 -373.9067227)
(508.5528809 779.5791768 -209.1659237)
(2408.28722 -248.0121036 1070.245344)
(861.7218804 339.0096912 569.1336215)
(1266.280785 853.018483 -126.8283324)
(1713.750601 -251.6170831 -539.9339176)
(1303.471794 -655.7411681 -211.6778709)
(612.6204843 120.0901104 -675.9771448)
(908.0195563 -673.9599197 -102.1804138)
(1225.020442 -380.896352 174.5480558)
(1241.71499 -275.7042681 158.0003621)
(2437.371654 -157.8552665 381.1127149)
(1285.714328 418.0366997 49.70645426)
(1185.590585 -41.50000542 -600.2117524)
(1489.798802 197.2360489 395.485025)
(1657.362097 163.3715878 -91.0072883)
(1254.199275 1072.35839 815.2104538)
(1302.976365 -85.83451983 -441.8186528)
(946.0634 1445.777863 559.73047)
(1657.132992 467.5840219 -374.0195054)
(1064.602682 271.8244402 -137.0017846)
(1787.502924 -627.416782 -90.89670942)
(1708.154743 -291.2821403 -411.8176859)
(1250.232789 88.00402579 -12.25495407)
(2035.365655 -169.3315756 -449.7755738)
(1245.014076 854.4841845 -22.56731767)
(1669.038897 -259.6679986 79.46373752)
(1385.074377 -119.9085462 98.24845542)
(1387.261186 691.698265 720.0126451)
(1529.053232 944.7554213 -515.558592)
(1209.0464 151.0214812 504.0886389)
(742.5556823 742.8015792 -1119.438518)
(857.6505292 -51.85007378 171.2784941)
(1797.784929 370.8897649 -452.2976477)
(769.4028892 625.1251797 567.802158)
(1229.064067 646.2500172 52.75364649)
(2127.673859 -354.9125126 -563.391739)
(984.0561554 171.2291172 310.1030727)
(1333.982488 -120.958579 -110.2992523)
(2128.706696 -32.50402767 161.3855854)
(1345.387125 350.1050143 -322.7073304)
(1572.879719 526.7061673 -56.10141777)
(1742.938211 -211.1513614 110.7657869)
(1074.246246 677.0999033 -616.4244027)
(1146.257942 611.299994 -369.3421979)
(2138.354002 355.4959918 227.8760644)
(1215.774998 44.18226613 -170.0032886)
(1512.358225 560.0967898 -361.863703)
(1523.463757 40.3460934 -344.9366644)
(1325.764915 -156.6388308 -3.017487937)
(1904.603019 -276.0489607 796.3519259)
(1293.451047 359.9967314 -564.7200065)
(1486.016594 834.4402208 324.3148926)
(1641.809427 537.7257549 -64.93994738)
(1668.967803 667.0829317 240.0725792)
(1636.059056 -42.79704423 44.07300335)
(1596.091957 482.8684068 -539.9230442)
(1285.538137 255.6397241 254.634615)
(1212.078562 -3.676522449 635.7591219)
(1521.844055 179.893483 -23.30688953)
(1226.947325 368.1711872 333.3358721)
(1258.003339 484.1936307 -140.2369677)
(1233.015688 240.5146705 76.29740974)
(1079.224657 -40.43048036 11.14345621)
(1125.86528 393.6995356 76.90466592)
(1478.969212 80.77619731 91.62443523)
(1490.107822 -155.7014452 551.0438042)
(941.2323126 -193.446203 -67.00199777)
(2453.812579 104.9613561 456.8013268)
(1573.132461 379.0422603 -481.5920353)
(1388.828261 -186.8804675 579.4045311)
(1330.029693 1044.587359 177.9796534)
(1209.990612 84.39043965 -218.6207148)
(1905.045107 -255.44478 -145.6078397)
(1511.03055 183.7262393 -152.5691274)
(1390.335646 319.1694278 172.5045019)
(1392.807081 627.0237803 529.5213957)
(1592.172005 105.9511655 168.9794801)
(1405.580679 131.8288528 -86.53984813)
(665.7177997 1157.113031 283.2241407)
(1546.905576 808.0366015 225.1584647)
(2014.643281 188.4779033 -129.208617)
(1412.556236 109.1467996 -160.0365725)
(1282.02025 -554.5336646 -290.7893872)
(1412.953442 701.0925377 -393.9848839)
(1792.553523 10.63926244 -362.7867411)
(1514.740943 148.9752005 -153.6120514)
(1795.498216 16.21222365 -749.4014968)
(1929.18523 -300.4415896 -537.2602048)
(930.5777171 74.06678889 361.044837)
(1242.123693 357.3981265 -231.3035036)
(1923.04849 272.9544384 599.2610363)
(1012.235952 21.60330446 -86.44004636)
(1316.772153 415.623226 -60.9275776)
(2110.632777 383.8361207 370.8377425)
(1198.408855 702.7227217 122.597065)
(1772.629696 583.2576331 93.55703381)
(990.5991996 -112.7474036 242.6808288)
(986.1983145 -478.6481608 102.6723992)
(1843.403858 -217.4948709 -32.30248686)
(1496.911839 -456.4503749 81.57014755)
(939.3396634 1147.904566 -30.31193741)
(161.1007578 288.491785 257.1507701)
(2096.037953 -359.5915281 568.8262176)
(1249.978042 186.9577924 -291.0631683)
(1422.46102 42.49006634 -97.09419656)
(2139.589428 234.7847443 508.1664483)
(1193.566454 502.831715 435.9478353)
(1169.112723 432.6707032 381.1125691)
(1431.320466 487.13165 -134.7493958)
(1896.578839 123.7644311 -257.5005634)
(2203.031841 -392.1342096 50.33857833)
(1414.73663 110.0868667 562.9886993)
(1489.497277 -176.2067106 135.6794695)
(596.9476376 1042.188637 318.4351272)
(2453.910149 -99.07451602 414.9257414)
(1268.38154 397.0836001 -493.3893586)
(1260.141947 221.3067176 526.7381771)
(1410.62262 1213.672395 224.9851239)
(655.9516188 561.8999179 -558.2622542)
(1679.237333 717.4145415 93.09770221)
(2025.979828 208.9095083 203.1375824)
(1905.568587 -295.9865144 228.0208228)
(1351.621564 351.1418515 56.19444177)
(1220.774029 237.5140385 11.7408842)
(603.9377586 388.0361416 0.8547526126)
(1074.958797 433.9365708 493.7674778)
(1803.38225 6.026679781 276.6002164)
(364.9285745 1000.970082 -10.05916833)
(1440.848823 -90.55772454 203.850263)
(1661.48742 795.0142361 326.7300994)
(1463.711525 464.6495607 -106.7103893)
(1643.000405 481.1977036 -299.8825177)
(1374.489353 406.0149248 -1018.402271)
(597.2515974 422.9789062 1344.582283)
(687.2284423 553.8098387 9.175555226)
(1462.646736 25.93270532 -73.92804854)
(1497.744335 47.53294152 157.8660348)
(1070.066133 648.0019287 127.1017539)
(1799.559394 -111.0907512 211.838084)
(1404.007169 41.73132219 439.2807269)
(582.3750458 530.3770618 148.6902132)
(1477.890635 159.9990963 -112.6517106)
(1696.26405 431.9380161 -91.71938115)
(1395.697974 88.31737799 476.8765589)
(1840.671307 759.940381 -353.3343316)
(1411.205647 118.5899258 565.721039)
(447.5348714 96.80848605 -312.1163072)
(1086.986185 732.1848957 130.5896229)
(1664.110058 80.30473847 -219.8475028)
(1549.520642 324.6771412 789.3657626)
(1799.038277 3.629127436 -722.3480114)
(1274.701593 216.1437639 -136.2517125)
(1548.625169 741.4025843 561.9189242)
(930.3057794 780.5099507 381.8849803)
(1517.781296 -169.0686393 382.4680899)
(1534.550301 79.99744988 332.3885829)
(999.8700081 -292.004834 -787.7659754)
(250.6530669 -105.3316437 374.2014054)
(1418.012766 574.5653938 -859.571665)
(1297.805441 -166.7912815 224.5798168)
(1457.124761 1151.592202 66.93272329)
(1523.294202 112.6996167 -6.706151033)
(1798.293697 292.1551365 612.0461337)
(2146.123428 -14.12595467 -337.2432009)
(1173.767141 342.5350929 -302.7811229)
(1465.792745 1165.954272 -299.4807411)
(503.3136318 452.6987087 -553.560594)
(2092.32106 236.035696 -823.3420434)
(2086.93892 297.3639135 -42.57088202)
(1951.082771 1159.739232 -526.5369125)
(1752.859814 -115.475251 40.0125362)
(955.8965264 306.8455438 -156.4355848)
(979.8873557 810.7210317 391.4667887)
(1667.185262 -92.23749282 333.4696464)
(1748.973909 104.751927 50.53236762)
(1228.719823 225.657541 -257.3556169)
(1979.394943 332.8904859 341.4845327)
(1595.934476 319.406957 -31.79859895)
(1346.680527 249.9699234 -525.5019008)
(1403.06362 280.0719413 549.4344582)
(1116.938041 1068.842404 1102.418742)
(1936.258908 83.88407192 -257.763664)
(966.9458845 367.3162905 -33.16314355)
(1450.485374 360.2004085 84.03233264)
(1458.077425 -78.18994036 82.37789789)
(1007.704792 737.5204925 323.0991285)
(823.2241743 -38.29046514 64.56085934)
(1333.963654 -101.9113614 142.7962555)
(2122.851229 1110.392047 64.86621495)
(1902.615175 229.0803185 -550.4869473)
(891.5640106 510.3185905 -261.8577597)
(1727.04262 354.0970613 433.3287939)
(1858.755101 -66.25367062 950.9655786)
(910.2495168 -338.6737677 756.5435338)
(1031.052204 589.37886 -473.3822767)
(897.7829219 491.5903195 -247.4961959)
(1770.369334 -15.56025395 -53.11292237)
(1605.106316 309.1414094 409.8455752)
(1254.579475 237.6447125 -404.7078553)
(1485.024171 392.5891973 -174.495959)
(827.5281838 606.9123388 -344.0374542)
(1007.422256 -507.081557 -258.9702161)
(1815.076414 -143.1248813 185.302804)
(1543.228039 -4.811806991 -364.7316041)
(1870.105061 -235.7012624 590.7949135)
(1512.598497 81.2764211 422.4988921)
(1677.445857 -304.8608352 588.4757745)
(1398.379578 575.3181777 -246.7765141)
(1243.57468 573.1092641 -429.6652912)
(1394.063998 558.7500595 173.165938)
(1523.996594 -120.5616307 87.4511253)
(1904.992348 620.9088389 711.0810163)
(1614.065907 406.1674646 -40.48219215)
(1141.216456 802.028998 319.0444631)
(646.9331452 234.6479643 788.3549469)
(740.2270404 255.7912016 215.9572872)
(1472.170481 -135.0830964 -108.3212079)
(1101.184159 -223.0286916 -215.5241887)
(1480.072392 405.669888 -627.9505028)
(943.2844567 336.960123 230.4952117)
(1288.287789 -88.53659055 -702.2657807)
(1234.905921 -74.0735312 406.4161009)
(1139.593257 300.7864015 -108.4577442)
(386.8233399 -703.6789613 50.21717876)
(1256.818516 -126.7691159 -230.7951962)
(1405.107681 -261.4652393 -450.7978049)
(876.6323222 21.64341539 88.02917093)
(785.7777979 559.0037018 107.4905366)
(1503.724998 -224.9544238 394.3310117)
(2045.852967 -63.57097892 347.768072)
(1629.990126 383.1480007 583.7201094)
(559.7507241 1125.299482 -1220.8591)
(622.0763503 248.0475699 385.480205)
(1316.885168 544.3440699 122.0887248)
(1671.68626 -178.8005599 131.4193161)
(2102.132428 375.9638057 -103.3793687)
(1788.374155 57.35201471 417.7011117)
(1725.613785 -419.1811985 461.1509432)
(1859.979746 348.3662124 -26.43752557)
(1012.768553 165.2642683 387.1820359)
(1868.672798 26.11402477 166.6466068)
(1913.612292 168.1784371 -622.4874899)
(1999.423776 776.7498373 -706.7540104)
(2073.112505 628.4532375 -475.96507)
(1807.020604 485.5676415 100.179418)
(1546.255893 895.6124526 -245.9471818)
(1603.358004 375.8591909 -155.5230997)
(838.7358084 342.791611 205.9315311)
(1477.104935 699.3902857 -540.031532)
(596.0210801 595.3722322 -61.78070797)
(2056.563999 124.1655824 -266.9775415)
(931.5287417 -148.2281453 124.632399)
(1397.114622 339.8444784 10.75476306)
(1232.790564 -136.2782174 98.71048506)
(1905.931159 96.41973287 89.43813969)
(1806.244771 91.31610645 741.7356753)
(1290.678493 505.4278221 -278.8066955)
(1564.845513 -280.7324417 234.6141338)
(1073.523711 816.8345097 1135.312047)
(1608.310022 -83.05861276 863.8869322)
(1709.134349 495.8024319 135.7686573)
(1664.394845 -174.6102785 -124.5274749)
(1700.162104 633.3121776 -254.7907375)
(1342.164469 162.6283519 30.79740182)
(1624.997376 -426.1983722 593.9632812)
(1585.361583 338.2239061 68.46743395)
(1988.557497 224.602191 -302.3782494)
(1516.123243 -394.7972871 25.7773471)
(1374.878107 133.0606613 -702.959223)
(961.9127258 338.6598452 -585.3664866)
(1402.541215 -562.3537244 213.0638629)
(1524.161028 40.7810524 21.12387906)
(1521.997355 -26.57898032 -202.9879324)
(1341.600585 480.1172726 -389.2990699)
(1449.449585 -191.9283044 577.331027)
(1456.938161 7.148836112 -409.1553675)
(948.9973248 -1.784606706 -18.60718019)
(1446.855344 -333.15877 527.5955057)
(802.82616 -43.17799354 67.01527128)
(1185.613089 313.0234031 355.4423345)
(1148.459752 405.2509263 16.27333778)
(1345.696376 160.2037513 -563.8868866)
(1254.838947 1076.985713 -426.2839747)
(1349.097854 1739.245662 -179.7602124)
(1548.145764 384.860807 -286.4169169)
(1716.858213 403.3491712 88.3457406)
(1960.505685 582.1174226 -11.04184224)
(1417.087767 65.97279879 16.02434864)
(2574.908849 -147.5226505 -78.21836281)
(1431.507261 144.794401 71.77117327)
(1240.704941 44.49416693 -147.2826657)
(1092.589225 158.1964544 459.0840878)
(1255.788524 120.3650245 612.3560687)
(1907.851982 -492.7128599 129.4916731)
(1615.230727 715.5712453 -434.5024024)
(1559.843052 -69.24488494 636.7357643)
(1703.728201 -52.23783891 -198.0196551)
(1711.71784 -37.04043083 25.72669021)
(1529.13349 344.697427 529.8381612)
(1683.426517 -526.332763 350.8010551)
(1392.398251 -151.424695 453.8938468)
(1570.248705 944.6347268 1040.988979)
(2048.204346 86.80708618 -75.3328015)
(1647.115243 82.54046919 -59.54500731)
(854.9912245 -36.99004823 100.904561)
(585.7215499 1361.296189 -58.88162723)
(1940.876145 56.2382225 516.5755794)
(1705.085718 297.5690748 -31.35171878)
(1299.380628 594.9905516 454.3475671)
(697.6067706 1116.745017 -327.1851147)
(1922.59218 5.2047975 179.3064242)
(1546.47985 -362.2758931 30.69744262)
(1862.361053 -450.9403198 50.79088085)
(2007.881234 263.4354068 -33.73843605)
(1227.584132 64.55551354 -90.43122372)
(1154.717464 -997.6748048 -275.5506517)
(1791.206406 193.9109449 24.79924155)
(1569.212092 -31.95021292 -517.862255)
(1366.360308 -12.65335589 513.8732111)
(1637.210881 247.312372 365.9242949)
(2019.505108 -274.3874601 485.3442884)
(1577.663165 209.7220833 80.22703979)
(1078.691571 416.7861328 -149.4734571)
(874.1798393 1076.032154 80.34209781)
(1553.362921 14.84251274 -581.6114726)
(1259.48709 96.24413191 308.2912548)
(1434.081597 178.305225 -237.0334457)
(2009.762604 -133.8726869 -372.9269133)
(1836.051659 159.4338442 -972.5802715)
(1676.664331 -127.2265789 -146.1848347)
(838.4830717 44.07093373 -172.4801014)
(700.2559857 184.444747 -79.65959718)
(867.8382422 523.6444405 -226.2783293)
(1667.470751 -365.5874441 107.7565249)
(1879.657208 -478.3698703 16.5545442)
(1583.287182 -6.183891058 -458.6406797)
(2170.46446 94.81520428 -139.5503761)
(1811.582798 -108.631144 357.0634369)
(1617.190602 155.8143772 -135.333068)
(1656.737374 -85.40053849 89.74954859)
(1596.461512 -311.9717869 -68.15172661)
(1826.987208 -600.5672534 -354.4298686)
(1069.470995 -203.5036003 139.0404853)
(958.7011538 582.6245149 606.2926304)
(1566.363237 -193.9536527 374.4145251)
(2133.820382 -50.63380076 764.5019771)
(2555.57585 538.1274966 250.0774512)
(2078.904968 230.5287708 471.58048)
(1779.894994 8.330934606 -322.8268883)
(1168.601468 -812.04994 231.1040931)
(1774.618724 250.0951995 -323.7369746)
(973.581106 283.9141132 -215.2700761)
(1195.812188 1183.417672 -153.9995036)
(1440.906754 284.5796658 180.6656417)
(1606.833532 -170.5302785 -123.9989102)
(1510.032724 273.1031136 785.520193)
(941.022467 471.8430559 -738.0633211)
(1260.128456 295.1087122 95.5415118)
(1656.776051 269.4248241 310.1339403)
(2462.774933 477.5771344 44.36127451)
(1617.200627 262.0715255 712.2809058)
(1602.061616 926.1971399 329.8208978)
(1203.296888 565.5022875 445.5089709)
(2171.879201 20.02735706 98.81626937)
(887.104692 -256.1069009 -161.614235)
(2075.880333 896.2883033 -692.7600916)
(1425.9438 78.38826379 -451.5572992)
(1053.812598 -187.1649587 -210.4988798)
(1204.89142 -124.8003196 -42.25945096)
(1959.309631 -200.8499131 -950.4201868)
(1114.210406 370.9665956 612.1350849)
(1894.110187 -207.7680447 87.30720029)
(1383.424189 1299.127098 824.6517774)
(1453.813997 142.881151 -23.34035251)
(1418.070027 620.1410953 -406.9314985)
(1761.595478 785.8173892 -360.9010762)
(2436.78506 203.0449205 126.4950519)
(1204.412859 140.8125643 -137.4623911)
(1547.183087 367.8871745 -255.2585868)
(1633.931146 366.5616514 -302.2537296)
(1740.910515 -137.2044332 351.4784812)
(1496.383938 587.4724199 294.9650292)
(1512.071794 215.8187692 137.4730304)
(2195.406423 287.3959087 -276.8093732)
(1923.678536 -518.2437786 -156.1571852)
(1681.692093 444.4970603 62.83465698)
(1352.045788 632.7042475 115.8370067)
(1282.534839 77.87189667 -377.3463179)
(1902.775701 227.3309204 344.6842949)
(1306.252732 1137.663576 -483.7268312)
(1568.200409 107.7830648 268.7751293)
(1122.884312 223.7497773 184.3435428)
(1721.759785 -285.7398835 119.005617)
(1674.688424 172.9238657 -18.18247508)
(1287.075727 150.1434066 -194.0131321)
(2010.37996 103.754508 533.8852318)
(1253.238048 306.7725005 728.247993)
(1583.361293 -20.69572456 -124.4179375)
(1386.633832 75.37938015 -197.7611514)
(1163.724077 739.3261557 261.3450428)
(2129.154585 1.568620334 463.9523246)
(988.2923384 89.39728011 -606.1370442)
(727.4315496 -273.6848986 413.9981999)
(1376.410229 172.4437574 347.8630872)
(1711.996469 296.331216 -41.07806866)
(1634.335184 327.4087529 -57.04508581)
(2453.990483 65.91986289 -662.4719116)
(1267.734525 390.134982 -466.2797335)
(1857.567454 1101.627387 442.5092468)
(1714.931654 -207.3701863 -578.8250176)
(1677.12696 68.10252717 -753.1036606)
(1647.463723 486.8650557 15.64127723)
(1536.891414 288.036808 33.09376007)
(2231.218268 206.2075837 -550.4679897)
(1444.084917 -247.8206279 -308.025649)
(1715.09254 53.97861885 -173.4344433)
(1962.634066 -947.9895262 251.5590857)
(1845.370695 -325.8883498 -58.03726717)
(1604.137868 8.996896903 365.7595299)
(1588.649898 -2.614195172 227.8290813)
(1014.784795 650.3393749 245.2791325)
(2256.031899 567.3817916 326.3303178)
(1720.572161 218.3266131 85.45546021)
(1185.555693 380.906027 0.7781428292)
(1705.582286 -69.27654742 40.08582143)
(2017.955997 -244.0802167 -442.300022)
(2062.314851 898.9214827 -211.2943978)
(1459.521481 -178.5136944 -446.3390588)
(1435.50698 -203.450944 -138.794604)
(1596.346784 -35.15371466 68.2674703)
(1657.304447 534.8827082 -155.0203158)
(1667.03908 -210.1550022 -453.8141742)
(1062.550931 201.1569101 -274.0651226)
(1642.237465 -35.90673455 -143.7651541)
(1865.945439 -70.76745572 310.2344116)
(1558.177839 212.166831 -280.7913552)
(1796.228292 -114.27291 -214.4052041)
(1700.59491 -18.35737267 11.28689804)
(1203.981204 134.007637 -64.19902769)
(1951.339539 -304.7379144 130.5868537)
(1958.240787 677.1923681 -145.3614544)
(1536.886022 1290.823849 -654.9872462)
(2336.351032 318.3444959 26.16764924)
(809.6194963 157.871249 427.927247)
(1277.258728 189.5174805 -160.6343346)
(1869.317617 -119.1774266 -28.27163906)
(1724.532809 472.3499863 -527.880898)
(1903.009585 184.3470879 52.59632396)
(406.2119056 212.5799744 605.738957)
(2427.434133 -191.1713024 -341.1000953)
(1319.842542 -109.2427595 274.3258567)
(1870.859554 31.02025954 44.99578748)
(1490.343572 -182.5182396 -325.9659874)
(1584.931739 -61.3263478 247.4334417)
(1475.968453 -28.15117719 -126.2743086)
(1643.726479 83.27986855 549.7509006)
(1623.049982 169.3240777 -404.3438173)
(929.9284817 430.7982453 -169.3319077)
(1941.995037 3.940789387 340.5418664)
(1236.473003 647.6164892 -740.068999)
(2208.743819 86.62510694 -222.8346124)
(962.3912361 543.6169313 -36.59698903)
(1626.382061 120.5760281 333.6021708)
(1399.637939 -17.59300559 -21.6771576)
(1291.909911 348.3132966 -106.3533877)
(1805.853456 20.73336802 -605.379858)
(2023.485302 727.9550253 -887.5975601)
(1774.351325 -110.6587756 -86.48803708)
(1194.25563 213.4282198 587.3184019)
(1444.447142 -452.0962893 1.06170789)
(1707.633516 238.3149336 99.84108916)
(1308.048068 294.8699985 -239.7298768)
(522.9590424 1318.633593 48.21334321)
(968.1763303 159.1689366 93.90386262)
(1612.202031 52.3629254 58.44561864)
(1732.647124 -35.26892434 -366.6079678)
(1165.166353 -315.3641141 -361.8676195)
(346.3630307 1272.853634 318.3934248)
(1513.165093 115.1291673 12.66325894)
(1382.227529 -56.08041119 -217.4171294)
(1399.833892 1192.735573 -121.5131212)
(1596.490861 658.1219938 41.19003309)
(1816.1776 385.6373357 -191.0459494)
(2821.5536 -336.9583008 -218.0413964)
(1551.573951 476.5395294 578.6127999)
(1697.663003 -73.13193175 185.603918)
(1954.904758 1242.53085 -39.64289224)
(1837.57816 -61.28295649 294.7311553)
(1651.745818 71.91533821 757.2001604)
(1237.924265 1278.483491 -301.4738164)
(1596.9949 -45.2092295 152.9254261)
(1917.948909 74.14902913 304.7786092)
(1891.547627 874.6736182 63.35871636)
(1761.287564 -192.0179646 417.9266652)
(1072.654622 51.3544687 -1006.333481)
(2256.23429 -184.8081738 -17.41975971)
(1615.030855 -639.4928588 -551.5680015)
(1558.788332 -239.210367 101.6767752)
(1198.932105 89.66520681 -125.6668045)
(2015.77021 204.5532634 99.80457319)
(1381.564783 280.2938627 -0.8317074352)
(1456.148205 535.6176773 28.34497171)
(1247.598736 249.6386366 372.9146827)
(1575.926203 -362.8850877 406.3653717)
(1887.12273 -388.9994733 162.6211808)
(1115.67291 677.0274397 -45.96025479)
(1907.424419 8.273398681 252.3497019)
(2336.954341 298.6425393 83.6573074)
(1157.021178 234.5668973 -98.06070976)
(1755.133244 241.9733766 -28.193154)
(1976.097759 -93.34983081 -239.4824631)
(1589.263609 115.1156048 240.2646353)
(473.6315274 377.1718855 4.949977333)
(634.0539081 285.0825156 -348.5576685)
(1409.688674 720.8218153 758.4144047)
(1351.842511 125.9978286 -690.5677448)
(1104.286291 -250.9761971 -946.0252782)
(1364.588981 52.9646645 67.72090292)
(819.3518365 929.3474551 118.5652602)
(1069.98684 -271.4328326 -224.111669)
(1564.667187 289.4141729 -121.9134445)
(764.759727 -205.6848702 299.953073)
(1037.826967 941.0597713 -351.8870844)
(1889.806847 259.3018866 -195.5048615)
(2026.620327 446.0142803 -184.2517571)
(1898.066597 -256.4574213 -304.7860282)
(1595.191967 42.48854993 67.34672157)
(1875.902693 530.9148923 -64.17217934)
(1582.439772 204.6424009 99.34056841)
(1521.895884 -177.6031429 150.3699459)
(1429.504053 706.2389469 -293.0419243)
(1430.480696 16.64150091 631.7895529)
(1296.936576 141.5148468 384.4065508)
(1925.900031 133.3730923 36.31280065)
(1105.780295 46.32309731 10.46747283)
(1487.768136 -127.5144945 -79.09706108)
(1905.158048 57.7270797 -7.503738685)
(2841.051205 -468.4271573 -603.9260174)
(1416.619117 -67.36336649 -74.25040017)
(1359.032354 0.1015428678 -50.07410821)
(1906.952185 -320.7621134 191.1966652)
(1704.414325 -304.2566457 389.833496)
(2199.526286 87.85176852 172.9061464)
(1372.917396 -320.9391648 -15.84665258)
(1327.89353 572.5584432 78.317593)
(1534.471853 -317.7045945 74.55487824)
(1437.335644 -709.1300524 -60.02436578)
(1526.556564 -94.11832053 148.5697363)
(1644.201715 864.4621248 420.4327253)
(1710.977427 14.98586638 -235.5934194)
(1395.165498 286.8185553 260.7892186)
(1786.424259 -588.9618825 -234.5501171)
(1912.954253 819.606537 92.09388598)
(2516.185839 299.0237369 823.0886461)
(1289.524204 999.5367236 360.0770715)
(1778.647151 -28.31298784 -227.2225256)
(1841.628686 328.105652 192.2260807)
(750.8737798 168.2479342 -998.2910654)
(1830.638026 468.8545785 -769.9873767)
(1607.320036 -178.8412183 -452.5721353)
(1110.103975 437.9292976 218.6574368)
(1414.907319 106.8836266 647.4449217)
(1597.376469 -302.5109562 -26.06899259)
(1213.997581 121.9600663 -286.6913786)
(1975.213476 -12.26303029 126.3904308)
(1518.482016 541.2320938 -345.4155438)
(1049.811224 550.7294704 1.844855688)
(1475.198005 -20.98847319 -270.1961976)
(1805.064869 -156.0204471 234.1444792)
(1255.163032 440.7367894 134.4769247)
(1369.26431 729.884321 683.2010405)
(2045.255197 -200.7736626 -3.411612168)
(1553.435691 -227.5720143 62.28337798)
(1485.280777 1197.000366 -141.2344922)
(2066.719463 193.6599246 113.369146)
(1671.799809 -234.1753263 -351.4272863)
(1548.400664 -42.49014065 -558.197285)
(1434.081137 546.0445719 -86.46652108)
(2133.041154 41.05860834 -293.5699613)
(1093.696119 -115.5056923 -47.26526207)
(1387.842322 772.3145594 -266.6927787)
(930.9613179 -334.9172399 84.73244794)
(1490.566126 357.6400502 -14.07557229)
(1908.244499 628.0877045 -1062.051814)
(758.0815949 227.8042825 257.1633767)
(2120.854973 642.9107947 -154.133814)
(1792.295407 197.5944861 -291.7577799)
(1458.998142 265.4887096 319.2294637)
(1689.479431 612.8482687 -178.63071)
(2195.759741 -132.8010443 272.0624906)
(966.2058624 -110.9766817 -293.3870679)
(1876.202547 25.2030853 -116.7437996)
(745.4882079 146.6223004 -102.9459805)
(1793.535126 162.2458784 -193.3509722)
(1954.983804 116.5688432 -164.6546129)
(1537.547241 190.0462328 7.884691954)
(1482.776891 -114.2519807 -242.6586175)
(1792.621417 -553.2098363 74.96890401)
(1563.996996 -66.11735835 337.4480755)
(1645.024513 -489.5238896 -137.0484277)
(1038.554013 -143.3829255 282.2990721)
(1147.532784 -76.00763186 -340.1944191)
(1488.375746 297.5272228 398.4570134)
(1501.617603 -139.4458538 -425.2705851)
(1851.397903 -176.1650104 309.085453)
(1720.45517 -134.6862682 -26.42561091)
(1170.889774 -85.2028427 108.0278682)
(1500.528193 -390.777515 117.8395443)
(2084.133533 -474.6207893 119.7824238)
(1043.406172 635.7325782 393.2399027)
(2446.446982 842.7609282 346.3984999)
(1443.03649 651.5056357 913.2332517)
(1617.249475 -115.5652124 189.9960993)
(1828.548206 -66.3127676 114.542876)
(1606.912148 72.72554823 -111.9648914)
(1323.981099 179.2547266 293.357311)
(1478.634116 604.8606537 364.577408)
(1789.044076 565.3102777 349.6904141)
(1936.64765 22.11604629 300.0112319)
(1902.418924 140.6312685 94.1215541)
(2066.458519 -128.8890254 -288.374161)
(1300.531799 -400.5437608 -534.7143724)
(1204.777693 2.470067273 -143.3871946)
(2074.937071 581.5875954 59.22313122)
(1341.125605 -80.84276504 -501.4363606)
(1502.688383 94.38312295 -289.0493513)
(1955.429445 -417.319965 236.6594804)
(1220.89854 113.210556 -381.2985448)
(1513.02034 -164.3057408 125.4737182)
(1414.530827 31.18645601 446.6564997)
(1774.347283 -221.794798 -73.79657936)
(1632.757332 151.635594 444.5766749)
(1505.002787 -155.893725 -207.6108004)
(710.7567886 -64.25262716 -821.6227564)
(1625.397936 456.2869014 -315.402242)
(1941.135441 414.1497497 -162.5815648)
(1995.534053 -313.8297239 300.9775077)
(1921.816198 -411.8042459 183.7441429)
(1877.889245 -265.2034146 375.2660366)
(1893.761491 -134.3605834 548.5147987)
(2036.146479 221.4819805 303.2187874)
(1760.926829 114.2823454 -128.4687051)
(1289.967395 690.2059552 -248.6465639)
(1376.702232 373.2966134 86.4060048)
(1404.728273 637.2763275 -205.976009)
(1861.772141 465.1619597 560.4330601)
(1435.816026 -124.2102042 181.9831004)
(1712.529213 -11.30117511 -386.2265797)
(1873.171025 87.52465023 -202.4434713)
(1248.836659 -172.6008554 -319.7334527)
(2250.148357 399.3536166 -227.1828739)
(2198.378865 62.65735202 512.7734821)
(1699.161744 -91.15718139 136.8903853)
(2288.864572 -2.456861128 -68.79228271)
(1534.186747 -556.138805 282.9332875)
(1833.93832 97.63311227 386.6986461)
(1125.418347 348.5613745 152.0317732)
(1749.958483 -7.723718367 -427.2640138)
(1554.467858 1032.41662 -432.862142)
(1751.853329 122.5748009 -666.2559771)
(1728.00673 137.9476659 -54.84983101)
(1806.21459 377.0734075 -34.05516319)
(1688.422428 -94.95872066 -50.83600077)
(2043.152324 40.56006485 -258.504957)
(1675.143628 -137.8555763 -234.2612817)
(2187.018266 551.5490421 -22.71291421)
(1567.662147 -14.74711831 296.3595539)
(1468.18952 -90.01535194 99.08225464)
(1290.184953 384.7502615 273.2184588)
(1795.27981 291.4922771 115.6667251)
(1505.156573 -194.5551199 264.0191535)
(1899.460156 223.1682397 425.5006867)
(1016.3536 226.7378209 -855.4716918)
(1790.530739 378.094135 422.9079457)
(901.9430763 968.6410794 -577.4264571)
(1652.409008 123.2765893 -106.4716372)
(1183.687772 422.089433 354.741216)
(1888.445739 114.8705024 -336.8296742)
(1687.655164 925.7436903 -732.7063778)
(1700.287711 -179.5095872 -604.9545151)
(1423.874081 238.487433 523.9923701)
(1497.630138 255.3632008 -620.3497283)
(1209.386616 -471.5077768 -120.6057931)
(1511.470318 282.3349523 146.4135218)
(1767.520333 482.5941009 55.74799491)
(1927.65174 -795.8054597 68.0859809)
(2031.533663 -47.14588957 -94.38657224)
(1931.656977 -137.4129826 122.0618086)
(1620.320924 307.6620225 -170.771428)
(1988.489748 -356.007145 -354.9149753)
(1768.551763 31.4028335 215.5980409)
(1436.24232 -543.7319482 -190.4860002)
(1693.736916 14.1172813 39.4524287)
(993.5710977 872.4415852 180.4002102)
(1490.758073 -24.20053021 383.9083744)
(1800.500647 -130.8801965 91.38072563)
(1405.730134 619.7457092 135.235141)
(1563.949669 486.7599452 199.1182661)
(1401.201991 176.4599268 144.0551393)
(1166.666489 990.9760332 268.6164431)
(1666.585208 213.6716025 466.2806779)
(1297.095466 537.2006255 -365.3593759)
(1040.101646 1058.971802 -828.2825924)
(1904.523366 371.3127043 163.8488224)
(1202.982462 1287.700416 347.4728691)
(1615.495744 213.4444107 -383.8269352)
(1416.617327 -89.1069458 -358.8670534)
(1573.160451 162.2524516 -206.1937076)
(1475.205376 700.4370838 -520.4980155)
(1808.882994 198.0889604 -110.9470559)
(1490.356219 120.2558299 -332.913619)
(2055.355282 98.82605197 -127.4521167)
(1879.385839 -660.1706486 -310.1032209)
(1932.437101 -51.93054762 -272.8886708)
(1570.550375 188.9580809 -12.87906715)
(2016.920665 528.0245248 -175.4312847)
(1603.350409 550.7573072 47.40803878)
(1631.36226 4.00030076 419.5185993)
(1876.102299 -362.2849548 -66.49386161)
(1982.552484 156.1393094 397.6954325)
(2588.877351 87.81810477 -128.8673214)
(1913.721051 18.35564918 455.7333394)
(1710.682537 -67.1405622 -125.7736202)
(2320.736312 -325.9415533 -242.6404429)
(1443.046275 -658.1297221 -161.1701411)
(1753.565753 10.77071155 309.094793)
(1168.817889 692.9612489 513.5414157)
(1630.671493 -155.8245412 125.3426878)
(1853.745247 251.8272089 -82.36419373)
(1792.434965 51.29887551 -195.1094393)
(1696.250331 -253.0957128 -195.7197708)
(1793.109564 716.4571651 331.9790727)
(1910.556677 270.832226 -103.9727687)
(1399.420392 6.157079721 154.0903494)
(1786.057542 -1040.518765 -23.37031011)
(1404.301436 249.6523513 357.8791752)
(1120.219809 388.7159901 -129.0797316)
(1555.602697 -232.764906 357.4851739)
(1923.498416 -9.39519381 -156.6126976)
(1682.620522 -100.03644 -277.8337921)
(1080.25788 -262.0364168 578.7938369)
(1512.492784 -90.68138527 -205.6821948)
(972.4990118 -174.7406345 3.707539186)
(934.0046914 395.0478697 -25.76738368)
(1625.533543 314.488536 -481.7702854)
(1550.442976 -337.8348768 -223.4346056)
(1456.904104 736.6129759 -195.689352)