/*--------------------------------*- C++ -*----------------------------------*\
| =========                 |                                                 |
| \\      /  F ield         | OpenFOAM: The Open Source CFD Toolbox           |
|  \\    /   O peration     | Version:  2406                                  |
|   \\  /    A nd           | Website:  www.openfoam.com                      |
|    \\/     M anipulation  |                                                 |
\*---------------------------------------------------------------------------*/
FoamFile
{
    version     2.0;
    format      ascii;
    arch        "LSB;label=32;scalar=64";
    class       volScalarField;
    location    "0.002";
    object      dsmcSigmaTcRMax;
}
// * * * * * * * * * * * * * * * * * * * * * * * * * * * * * * * * * * * * * //

dimensions      [0 3 -1 0 0 0 0];

internalField   nonuniform List<scalar> 
654
(
7.980335999e-16
7.764202088e-16
7.586741795e-16
8.185395861e-16
7.535697644e-16
7.771698907e-16
7.464374148e-16
7.40410441e-16
8.40417898e-16
7.788348036e-16
7.834647386e-16
8.169040204e-16
7.795626007e-16
7.718159604e-16
7.453396717e-16
7.971564263e-16
7.977650323e-16
8.053215001e-16
8.211519486e-16
7.301020917e-16
7.168260656e-16
7.378939604e-16
7.790339257e-16
7.811076335e-16
7.985668469e-16
7.82263502e-16
7.462281904e-16
7.272345125e-16
7.805788069e-16
7.464911298e-16
7.737920169e-16
7.863328433e-16
7.620180559e-16
7.177626811e-16
7.811862649e-16
6.98463776e-16
7.731761726e-16
7.682004693e-16
7.254783891e-16
7.691987643e-16
7.508230326e-16
7.668439052e-16
7.236922473e-16
7.393511622e-16
7.445625824e-16
7.707781906e-16
7.874335778e-16
7.323103537e-16
7.411809033e-16
7.235572622e-16
7.492623145e-16
8.25612385e-16
7.885946527e-16
7.299901957e-16
7.778929176e-16
6.499257812e-16
6.992722844e-16
7.473423118e-16
7.017822869e-16
8.236928249e-16
6.768001755e-16
6.791524088e-16
7.905387882e-16
7.419604998e-16
7.96002977e-16
7.669851737e-16
6.996415059e-16
7.464369014e-16
7.034385486e-16
7.483952767e-16
7.812899213e-16
7.935106557e-16
7.901581055e-16
7.879088938e-16
7.777776797e-16
7.577643298e-16
7.851626217e-16
7.470665345e-16
7.550383265e-16
8.098893667e-16
7.501962275e-16
7.808460943e-16
7.222650676e-16
8.117885275e-16
6.847267215e-16
7.015088475e-16
6.644737875e-16
6.895734959e-16
7.631919199e-16
6.369232675e-16
7.705432606e-16
7.056736598e-16
6.770279178e-16
6.177576959e-16
7.430277498e-16
7.362568252e-16
6.877518884e-16
7.038889091e-16
7.437620102e-16
7.278962317e-16
7.563772555e-16
7.615869871e-16
7.275081384e-16
7.27098647e-16
7.929113111e-16
7.137370128e-16
7.634357396e-16
7.897886731e-16
8.523151854e-16
7.348444139e-16
8.476150242e-16
7.357514302e-16
7.527814468e-16
7.660355334e-16
7.914683143e-16
6.626793466e-16
8.668047777e-16
6.542881818e-16
6.453979404e-16
7.292745429e-16
7.628297732e-16
6.877903848e-16
7.108383235e-16
6.949929178e-16
6.996306377e-16
6.995935554e-16
6.910795004e-16
6.951244268e-16
7.261254945e-16
7.507247578e-16
7.098678054e-16
6.755723058e-16
7.01389678e-16
7.078082128e-16
7.404353858e-16
7.864114595e-16
7.129996003e-16
7.593048261e-16
7.924521288e-16
7.304518079e-16
7.97024637e-16
7.691975017e-16
7.253594032e-16
8.019041272e-16
7.337702345e-16
6.239171255e-16
6.697338044e-16
7.14569641e-16
6.478923552e-16
6.882264106e-16
7.053025808e-16
6.22421921e-16
7.900941958e-16
7.229892772e-16
7.411805916e-16
6.428412889e-16
8.530392231e-16
6.831197058e-16
7.220454366e-16
7.087231689e-16
7.969678024e-16
7.134710029e-16
7.311806513e-16
7.14180215e-16
7.136507166e-16
7.342400038e-16
8.267208508e-16
7.525162991e-16
7.683202713e-16
7.997891142e-16
7.503721456e-16
7.537399249e-16
7.277677083e-16
7.887130803e-16
5.677315819e-16
7.75759303e-16
6.775004469e-16
5.612176051e-16
6.321234115e-16
6.603858964e-16
7.300891297e-16
6.137800345e-16
7.12940056e-16
6.264087846e-16
7.080657012e-16
6.963675105e-16
6.934025594e-16
6.863852616e-16
7.251442357e-16
7.470087562e-16
7.365049067e-16
7.624933934e-16
6.948632126e-16
8.020256074e-16
7.073055438e-16
7.523515797e-16
7.595260866e-16
8.065400032e-16
7.575303193e-16
7.738557342e-16
7.569620164e-16
7.290876175e-16
7.660419462e-16
7.134169187e-16
6.062148316e-16
6.361786967e-16
6.766980366e-16
5.87420837e-16
6.836891921e-16
7.70853229e-16
6.350163392e-16
6.724468195e-16
6.559460569e-16
6.860518711e-16
6.273725942e-16
6.347853172e-16
7.214576011e-16
6.953715011e-16
7.58604973e-16
6.892185189e-16
7.746791011e-16
7.478780631e-16
7.379146488e-16
7.167716286e-16
6.47594121e-16
7.13025732e-16
7.815061775e-16
7.160700682e-16
7.441657201e-16
7.484960173e-16
7.651140004e-16
7.445798955e-16
7.31038938e-16
6.848426607e-16
5.530617898e-16
5.937162634e-16
6.128879683e-16
6.310824309e-16
7.428048945e-16
6.467945897e-16
5.846600558e-16
6.835793304e-16
7.041987318e-16
7.29426917e-16
5.98200024e-16
5.974088193e-16
7.927192131e-16
7.548111514e-16
6.218660351e-16
6.881135146e-16
7.206961021e-16
6.837680985e-16
6.691270132e-16
7.561948064e-16
6.833846857e-16
7.012277525e-16
7.731438624e-16
6.917267604e-16
7.463902278e-16
6.994040162e-16
7.347086624e-16
6.894868912e-16
7.832119317e-16
7.030897975e-16
7.099477119e-16
6.106238645e-16
6.854493504e-16
6.926316907e-16
6.93067852e-16
6.127728312e-16
5.919141768e-16
8.167280312e-16
6.993951946e-16
6.7135675e-16
7.122962357e-16
6.962133266e-16
7.195637379e-16
6.098650685e-16
7.485995858e-16
6.897340305e-16
7.42448352e-16
6.475942525e-16
6.049903205e-16
6.700777459e-16
7.081460265e-16
6.759851886e-16
6.647278885e-16
7.322790263e-16
6.983815972e-16
6.917448749e-16
7.295650041e-16
7.330894199e-16
7.489265412e-16
7.335907641e-16
5.977737896e-16
7.220392638e-16
5.881036947e-16
6.852075882e-16
7.054848047e-16
6.456811402e-16
6.554550406e-16
7.726980826e-16
6.081564849e-16
6.457555764e-16
7.04676338e-16
7.209674548e-16
7.202922611e-16
6.756207537e-16
6.668012675e-16
6.462629437e-16
6.999789529e-16
6.558801315e-16
7.41563275e-16
8.236326513e-16
7.335419105e-16
7.24942972e-16
7.231163924e-16
6.739087594e-16
6.835927104e-16
7.048522199e-16
8.058054556e-16
7.239101039e-16
7.478157844e-16
8.102582565e-16
5.560299498e-16
5.85650476e-16
5.940540728e-16
6.508948626e-16
6.312927568e-16
6.413712825e-16
6.504137881e-16
5.978537884e-16
7.237820614e-16
6.0828398e-16
7.181702844e-16
5.720177496e-16
6.145254448e-16
6.303196815e-16
6.428169367e-16
6.568255709e-16
7.404307331e-16
6.951495767e-16
7.415412176e-16
6.575109467e-16
7.405446655e-16
6.105985646e-16
6.610435792e-16
6.793073947e-16
6.95677326e-16
7.39573484e-16
6.682841497e-16
7.172262996e-16
7.532297207e-16
7.410195004e-16
5.894030853e-16
5.997650229e-16
6.499295387e-16
6.774791772e-16
6.372364555e-16
7.040995731e-16
5.702716667e-16
6.012602657e-16
6.891191643e-16
7.222934949e-16
5.663548403e-16
5.891050307e-16
6.694801556e-16
5.87691618e-16
6.662740283e-16
6.889751822e-16
7.280282386e-16
7.177127139e-16
6.049559909e-16
6.512984514e-16
7.111077167e-16
6.855123112e-16
6.358459007e-16
7.062196465e-16
6.954866839e-16
6.936337438e-16
6.792777186e-16
7.743663123e-16
7.432168175e-16
7.190056788e-16
5.624613813e-16
6.054791454e-16
5.593588735e-16
5.555220985e-16
7.581511416e-16
6.314067262e-16
5.962597124e-16
5.858372035e-16
5.858372035e-16
6.047860738e-16
6.442894632e-16
5.49901005e-16
5.989480227e-16
6.113165407e-16
5.586324599e-16
6.987949917e-16
6.254553165e-16
6.744391541e-16
7.187791721e-16
7.250222875e-16
6.552897886e-16
6.924893861e-16
7.057366519e-16
6.579675867e-16
6.545421174e-16
7.462224167e-16
7.347271085e-16
7.016267229e-16
7.02310028e-16
7.130445785e-16
6.30590047e-16
6.475427186e-16
5.801195073e-16
5.929109814e-16
5.705548922e-16
5.946483229e-16
5.801907929e-16
5.927770464e-16
6.283598251e-16
5.977809354e-16
6.094785912e-16
5.761893506e-16
6.864459296e-16
6.40473552e-16
6.185720507e-16
6.262175552e-16
6.766572042e-16
7.001836653e-16
6.097251945e-16
5.996459068e-16
6.975367817e-16
6.545289546e-16
6.830233742e-16
6.367735655e-16
7.226907944e-16
6.368813213e-16
6.923303605e-16
6.811293053e-16
7.081910164e-16
6.514864655e-16
5.558112165e-16
5.781729169e-16
5.52735163e-16
5.558344722e-16
5.384133028e-16
5.799095581e-16
7.173888634e-16
5.902844364e-16
5.45992576e-16
6.197441859e-16
5.987043268e-16
5.672609442e-16
6.77544909e-16
6.901972293e-16
6.63910792e-16
6.151033526e-16
5.748902985e-16
6.458442258e-16
6.301450807e-16
6.551263063e-16
5.70195496e-16
6.762951461e-16
6.695672057e-16
6.694805611e-16
6.83927936e-16
6.415983974e-16
7.212709723e-16
6.843656838e-16
7.087253529e-16
7.118802431e-16
5.74208551e-16
5.892689761e-16
5.548414306e-16
6.457391279e-16
6.729712846e-16
5.687002847e-16
6.047990397e-16
6.085144185e-16
5.916507905e-16
5.94647449e-16
6.45608456e-16
5.825144672e-16
6.557697395e-16
5.649897698e-16
5.835104906e-16
6.92783865e-16
5.981151182e-16
6.672039525e-16
6.232856496e-16
6.343697636e-16
6.241804965e-16
5.876874779e-16
6.166102309e-16
6.676709048e-16
7.566156779e-16
7.566156779e-16
6.341835528e-16
6.239917264e-16
6.656890932e-16
6.607894188e-16
5.397851151e-16
6.248232258e-16
6.677695979e-16
6.305156261e-16
5.789675792e-16
6.155900055e-16
5.682375602e-16
5.682375602e-16
6.09891535e-16
5.860419064e-16
5.726520384e-16
5.55020098e-16
6.968164227e-16
5.801493516e-16
7.766104371e-16
6.240689206e-16
7.277776014e-16
6.072099017e-16
6.435469057e-16
5.468351717e-16
5.762499274e-16
7.152679061e-16
6.830133668e-16
5.583483342e-16
7.906143848e-16
6.651683604e-16
6.893758896e-16
6.500577013e-16
7.201442949e-16
6.330137552e-16
5.592456921e-16
5.750476473e-16
6.103020201e-16
6.455145347e-16
6.868512737e-16
5.771698457e-16
5.991683494e-16
5.613566584e-16
5.572736349e-16
6.225505745e-16
6.011358947e-16
6.719033704e-16
5.607386954e-16
5.549385504e-16
6.272631566e-16
6.341077286e-16
5.914331366e-16
5.860570041e-16
5.904597564e-16
6.236350824e-16
6.842053109e-16
6.519250135e-16
6.235955742e-16
6.560681785e-16
6.478887912e-16
6.310011446e-16
6.93784794e-16
6.483704429e-16
6.212799521e-16
6.301562738e-16
5.725863478e-16
5.61355323e-16
5.804043369e-16
6.253831573e-16
6.157471992e-16
6.283519662e-16
6.198731634e-16
5.602486371e-16
6.140228978e-16
6.622199637e-16
6.285176066e-16
6.79895438e-16
5.423802877e-16
5.501860511e-16
5.603062471e-16
6.071758702e-16
7.002708516e-16
5.599073173e-16
5.486685307e-16
7.453306644e-16
6.850648666e-16
6.115615265e-16
6.305039197e-16
5.871851038e-16
6.03914195e-16
5.860135112e-16
6.050451626e-16
6.011283993e-16
6.236317385e-16
6.778716854e-16
5.846818725e-16
5.882077102e-16
5.5645843e-16
6.214661249e-16
5.448721638e-16
5.992298122e-16
5.675637574e-16
5.890369666e-16
5.831144922e-16
5.971978032e-16
5.660323607e-16
5.833489386e-16
7.140667935e-16
6.216059517e-16
6.226885105e-16
6.449134702e-16
5.352492578e-16
5.713033447e-16
5.789122846e-16
6.783900925e-16
5.516737951e-16
6.407131818e-16
5.544346183e-16
6.550200499e-16
6.489319404e-16
5.830725243e-16
6.172244491e-16
7.04374288e-16
6.448518672e-16
6.773586846e-16
5.781621167e-16
5.664481677e-16
5.737298679e-16
5.67213758e-16
5.552866842e-16
6.336952962e-16
5.792964362e-16
5.561672187e-16
5.686205188e-16
5.785807332e-16
5.904434524e-16
5.691730153e-16
7.015880133e-16
5.475325327e-16
5.525691918e-16
6.791072652e-16
5.670592331e-16
5.684096652e-16
7.097820828e-16
5.671595337e-16
5.892635678e-16
6.481307862e-16
5.856521887e-16
6.500920694e-16
6.096708978e-16
6.372545664e-16
5.744813542e-16
6.971477648e-16
5.97211816e-16
5.772891594e-16
)
;

boundaryField
{
    flow
    {
        type            zeroGradient;
    }
    obstacle
    {
        type            zeroGradient;
    }
    frontAndBack
    {
        type            empty;
    }
    procBoundary3to1
    {
        type            processor;
        value           nonuniform List<scalar> 
36
(
7.681826634e-16
7.861651072e-16
7.806183599e-16
8.550175374e-16
7.782082636e-16
7.782082636e-16
7.567959894e-16
7.634846041e-16
8.479082261e-16
7.632829173e-16
8.263047111e-16
7.797976353e-16
7.797976353e-16
7.299449645e-16
7.78392521e-16
7.260764185e-16
7.916027984e-16
7.383477438e-16
7.383477438e-16
7.955951648e-16
7.313310547e-16
7.476516988e-16
7.173704806e-16
7.585163218e-16
7.487583433e-16
7.487583433e-16
6.930268517e-16
6.862707241e-16
6.659481866e-16
7.618253115e-16
7.884482978e-16
7.14807086e-16
6.850848941e-16
6.850848941e-16
6.966554078e-16
6.966554078e-16
)
;
    }
    procBoundary3to2
    {
        type            processor;
        value           nonuniform List<scalar> 
19
(
6.553724077e-16
6.930314524e-16
6.355903735e-16
6.128112124e-16
5.629496397e-16
5.517708854e-16
5.437654385e-16
5.843099207e-16
5.959201386e-16
5.958687047e-16
6.261642539e-16
6.586513849e-16
5.675495935e-16
5.75415477e-16
5.805987508e-16
5.930087405e-16
5.755887171e-16
6.049944151e-16
6.047924544e-16
)
;
    }
}


// ************************************************************************* //
