/*--------------------------------*- C++ -*----------------------------------*\
| =========                 |                                                 |
| \\      /  F ield         | OpenFOAM: The Open Source CFD Toolbox           |
|  \\    /   O peration     | Version:  2406                                  |
|   \\  /    A nd           | Website:  www.openfoam.com                      |
|    \\/     M anipulation  |                                                 |
\*---------------------------------------------------------------------------*/
FoamFile
{
    version     2.0;
    format      ascii;
    arch        "LSB;label=32;scalar=64";
    class       volScalarField;
    location    "0.002";
    object      dsmcRhoNMean;
}
// * * * * * * * * * * * * * * * * * * * * * * * * * * * * * * * * * * * * * //

dimensions      [0 -3 0 0 0 0 0];

internalField   nonuniform List<scalar> 
654
(
15.89
16.332
16.564
16.406
16.325
16.417
14.252
14.884
15.281
15.842
16.081
16.448
16.526
16.354
16.432
16.232
16.207
10.816
11.489
11.813
12.254
12.925
13.694
13.866
14.172
14.681
15.263
15.547
15.988
16.071
15.968
15.993
15.745
9.225
9.506
9.464
9.773
9.899
10.073
10.159
10.528
10.966
11.469
11.99
12.386
13.17
13.438
13.705
14.121
14.677
15.182
15.465
15.743
15.577
15.7
8.966
8.908
8.825
8.912
8.975
8.908
9.065
8.972
9.117
9.289
9.372
9.469
9.785
10.012
10.231
10.529
10.733
10.999
11.457
11.851
12.597
13.046
13.517
13.894
14.203
14.458
14.581
15.112
15.277
9.15
9.098
9.08
8.971
8.817
8.674
8.855
8.893
9.013
9.204
9.256
9.312
9.471
9.58
9.644
9.811
9.784
9.977
10.254
10.543
10.928
11.435
11.91
12.146
12.612
13.181
13.74
14.107
14.256
14.533
9.015
8.884
8.719
8.841
8.948
8.945
9.04
8.959
8.966
8.925
8.913
8.98
9.01
9.046
8.935
9.095
9.232
9.441
9.777
10.026
10.274
10.565
10.986
11.536
12.186
12.586
13.241
13.696
14.054
14.27
9.071
9.117
9.169
9.146
9.17
9.001
8.89
8.866
8.683
8.557
8.62
8.654
8.612
8.752
8.998
9.053
9.163
9.271
9.247
9.474
9.82
10.015
10.1
10.629
10.919
11.208
11.787
12.239
12.762
13.22
9.056
9.087
9.098
8.932
8.875
8.917
8.936
8.817
8.892
8.787
8.59
8.555
8.618
8.579
8.588
8.617
8.709
8.673
8.959
9.052
9.209
9.382
9.837
9.791
10.044
10.604
10.967
11.569
12.077
12.406
8.959
8.79
8.734
8.61
8.688
8.651
8.668
8.512
8.522
8.531
8.606
8.452
8.346
8.405
8.422
8.428
8.57
8.74
8.672
8.705
9.06
9.265
9.492
9.856
10.079
10.333
10.741
10.926
11.143
11.514
8.902
8.865
8.879
8.734
8.676
8.517
8.407
8.487
8.561
8.509
8.431
8.362
8.377
8.241
8.154
8.18
8.083
8.326
8.629
8.826
8.671
8.737
9.005
9.236
9.526
9.658
9.968
10.266
10.866
11.257
9.05
8.893
8.655
8.739
8.719
8.727
8.655
8.588
8.433
8.267
8.379
8.501
8.435
8.361
8.433
8.582
8.563
8.343
8.278
8.148
8.537
8.645
8.665
8.764
8.892
9.164
9.353
9.704
9.946
10.462
8.864
8.862
8.758
8.692
8.5
8.414
8.362
8.274
8.266
8.331
8.166
8.11
8.23
8.262
8.236
8.118
8.188
8.214
8.198
8.337
8.257
8.177
8.289
8.398
8.536
8.726
8.949
9.096
9.437
9.692
8.884
8.801
8.743
8.724
8.699
8.606
8.462
8.267
8.24
8.244
8.178
8.038
7.919
7.884
7.985
7.973
8.054
8.091
8.009
8.041
7.941
8.074
8.137
8.233
8.367
8.426
8.556
8.778
8.871
9.188
8.735
8.729
8.656
8.632
8.369
8.49
8.461
8.532
8.401
8.345
8.297
8.359
8.21
8.275
8.175
8.074
7.997
7.93
7.825
7.815
7.79
7.892
7.915
7.954
8.102
8.298
8.427
8.555
8.636
8.749
8.939
8.733
8.624
8.693
8.702
8.624
8.564
8.551
8.681
8.608
8.489
8.439
8.479
8.39
8.344
8.283
8.211
8.138
8.184
8.142
8.054
8.089
7.978
8.061
8.038
7.947
7.917
8.151
8.301
8.467
9.1
9.177
9.152
8.85
8.774
8.688
8.596
8.42
8.31
8.311
8.344
8.149
8.022
7.928
7.895
7.97
7.991
7.965
8.001
8.028
8.071
7.887
7.897
7.739
7.688
7.746
7.773
7.84
7.748
8.099
8.934
8.846
8.856
8.896
8.81
8.79
8.68
8.692
8.446
8.392
8.254
8.243
8.247
8.226
8.086
7.977
7.851
7.838
7.805
7.706
7.743
7.76
7.762
7.713
7.842
7.74
7.802
7.817
7.779
7.735
8.76
8.608
8.604
8.504
8.407
8.366
8.441
8.471
8.498
8.293
8.265
8.218
8.206
8.101
8.212
8.147
8.011
7.945
7.86
7.809
7.741
7.62
7.563
7.585
7.535
7.55
7.487
7.636
7.785
7.761
8.751
8.646
8.577
8.516
8.555
8.518
8.377
8.282
8.306
8.305
8.309
8.162
8.064
8.026
7.95
7.845
7.839
7.832
7.873
7.829
7.714
7.721
7.635
7.547
7.665
7.629
7.478
7.319
7.38
7.441
8.917
8.866
8.635
8.702
8.596
8.564
8.598
8.617
8.453
8.46
8.398
8.389
8.386
8.18
8.091
8.101
8.009
7.828
7.662
7.52
7.533
7.488
7.486
7.41
7.438
7.462
7.512
7.725
7.686
7.658
9.122
9.052
9.088
9.035
8.961
8.741
8.573
8.408
8.405
8.211
8.072
8.032
8.068
8.095
8.039
7.904
7.877
7.817
7.807
7.773
7.711
7.776
7.699
7.61
7.504
7.55
7.511
7.259
7.228
7.267
9.037
8.875
8.864
8.755
8.652
8.689
8.675
8.508
8.34
8.299
8.256
8.238
8.125
7.961
7.896
7.864
7.828
7.895
7.832
7.791
7.721
7.529
7.55
7.657
7.686
7.479
7.488
7.462
7.469
7.389
8.576
8.57
8.473
8.508
8.389
8.36
8.307
8.316
8.315
8.388
8.301
8.136
8.004
7.912
7.862
7.897
7.74
7.575
7.503
7.528
7.517
7.565
7.419
7.302
7.144
7.149
7.139
7.188
7.195
7.228
)
;

boundaryField
{
    flow
    {
        type            calculated;
        value           nonuniform List<scalar> 
55
(
15.89
16.417
16.207
15.745
15.7
15.277
14.533
14.27
13.22
12.406
11.514
11.257
10.462
9.692
9.188
8.749
8.467
8.099
7.735
7.761
7.441
7.658
7.267
7.389
7.228
8.576
8.57
8.473
8.508
8.389
8.36
8.307
8.316
8.315
8.388
8.301
8.136
8.004
7.912
7.862
7.897
7.74
7.575
7.503
7.528
7.517
7.565
7.419
7.302
7.144
7.149
7.139
7.188
7.195
7.228
)
;
    }
    obstacle
    {
        type            calculated;
        value           nonuniform List<scalar> 0();
    }
    frontAndBack
    {
        type            empty;
    }
    procBoundary3to1
    {
        type            processor;
        value           nonuniform List<scalar> 
36
(
15.482
16.8
16.682
16.544
16.332
16.332
15.023
15.306
15.968
16.193
16.316
16.381
16.381
11.619
12.159
12.606
13.172
13.543
13.543
9.539
9.414
9.825
9.933
10.064
10.518
10.518
9.18
9.132
9.178
9.173
9.114
9.091
9.11
9.11
8.941
8.941
)
;
    }
    procBoundary3to2
    {
        type            processor;
        value           nonuniform List<scalar> 
19
(
9.28
8.961
9.097
9.181
8.937
9.217
8.915
8.918
8.993
8.834
8.944
9.037
9.033
8.886
8.706
9.026
9.04
9.095
8.724
)
;
    }
}


// ************************************************************************* //
