/*--------------------------------*- C++ -*----------------------------------*\
| =========                 |                                                 |
| \\      /  F ield         | OpenFOAM: The Open Source CFD Toolbox           |
|  \\    /   O peration     | Version:  2406                                  |
|   \\  /    A nd           | Website:  www.openfoam.com                      |
|    \\/     M anipulation  |                                                 |
\*---------------------------------------------------------------------------*/
FoamFile
{
    version     2.0;
    format      ascii;
    arch        "LSB;label=32;scalar=64";
    class       volScalarField;
    location    "0.002";
    object      iDof;
}
// * * * * * * * * * * * * * * * * * * * * * * * * * * * * * * * * * * * * * //

dimensions      [0 -3 0 0 0 0 0];

internalField   nonuniform List<scalar> 
654
(
7.122429502e+20
5.218736435e+20
4.711679067e+20
3.076593339e+20
3.104967035e+20
5.982840727e+20
3.648909471e+20
4.205999001e+20
4.772740863e+20
3.477102242e+20
4.317238265e+20
4.08340988e+20
5.493406677e+20
4.711679026e+20
4.475044857e+20
5.363124879e+20
5.697943602e+20
3.749882808e+20
2.52050902e+20
1.524862848e+20
3.075261144e+20
2.584356495e+20
2.345727537e+20
3.680249126e+20
3.446979483e+20
4.814449258e+20
3.50775609e+20
4.08340988e+20
6.866758407e+20
5.543151844e+20
5.314115768e+20
6.209934127e+20
7.692223863e+20
3.336383991e+20
3.842932387e+20
1.452497938e+20
1.464077987e+20
4.181558467e+20
2.975601965e+20
2.749914059e+20
1.008203616e+20
2.541438101e+20
3.587804668e+20
3.101227794e+20
4.952091425e+20
2.891624313e+20
3.446979512e+20
2.942163435e+20
6.745684789e+20
4.900091899e+20
3.570714403e+20
4.711679026e+20
6.153186623e+20
4.798585418e+20
5.413046422e+20
1.581968524e+20
1.82141302e+20
2.752595399e+20
1.61780529e+20
1.630114445e+20
2.815906879e+20
1.655303355e+20
2.14481828e+20
1.681282932e+20
2.420829934e+20
2.684142998e+20
3.443636385e+20
1.735767827e+20
2.749914081e+20
2.52050902e+20
4.320444702e+20
3.331532851e+20
2.584356474e+20
3.648909471e+20
2.102999483e+20
5.037893048e+20
2.94216341e+20
4.317238265e+20
4.900091856e+20
3.021373672e+20
6.928939743e+20
4.195354554e+20
7.056743262e+20
3.703663307e+20
2.467729225e+20
2.259955002e+20
2.504442866e+20
9.175317928e+19
2.773380498e+20
1.862987924e+20
1.642612322e+20
2.128247139e+20
3.336383965e+20
2.88219929e+20
4.357493813e+20
2.44012996e+20
1.721818165e+20
1.983734627e+20
2.99990627e+20
3.780763592e+20
2.795581911e+20
2.306445858e+20
3.10122782e+20
1.824454766e+20
4.205999036e+20
7.424263565e+20
4.546979854e+20
2.968101333e+20
2.994500631e+20
2.746703387e+20
7.483254989e+20
5.873496375e+20
5.92766434e+20
6.267737962e+20
2.467729225e+20
2.937941524e+20
1.593736392e+20
2.064446549e+20
2.542265456e+20
2.095861414e+20
2.581247953e+20
3.31060671e+20
3.336383991e+20
2.642016016e+20
1.936663917e+20
2.196116981e+20
1.229870137e+20
2.479668304e+20
2.499921872e+20
2.268458118e+20
1.779006656e+20
2.818989382e+20
2.584356495e+20
2.606363908e+20
3.680249095e+20
3.977284019e+20
5.616857467e+20
2.968101307e+20
2.994500579e+20
4.944066053e+20
4.157363883e+20
5.034425464e+20
3.66950653e+20
3.988560521e+20
2.019051199e+20
2.48595052e+20
1.366059755e+20
2.293829499e+20
1.61780529e+20
1.630114445e+20
1.877271239e+20
2.837662873e+20
1.668191995e+20
1.681282919e+20
2.178746923e+20
1.708090998e+20
2.459740275e+20
1.735767813e+20
9.999687487e+19
1.764356329e+20
3.049725721e+20
2.306445858e+20
1.550613897e+20
3.127636689e+20
1.840124563e+20
1.856065891e+20
4.279510451e+20
4.587065656e+20
4.355637243e+20
1.922692354e+20
4.157363846e+20
5.034425464e+20
4.516315688e+20
3.988560521e+20
1.346034123e+20
2.033959516e+20
1.366059765e+20
2.523212449e+20
6.933451245e+19
1.630114433e+20
1.642612334e+20
1.655303355e+20
1.906505138e+20
1.921466208e+20
3.873327864e+20
1.464077976e+20
4.42753246e+20
1.487800982e+20
2.749914081e+20
2.268458137e+20
2.287294254e+20
2.562717599e+20
4.134970393e+20
2.085091144e+20
3.417374217e+20
2.916674947e+20
3.209632811e+20
3.237928699e+20
2.722273253e+20
3.021373699e+20
3.325891106e+20
4.475044857e+20
4.234045957e+20
3.988560485e+20
3.813763348e+20
2.259955002e+20
1.138383121e+20
9.175317928e+19
1.155575216e+20
1.397240964e+20
1.877271253e+20
2.601190987e+20
2.383131422e+20
1.681282919e+20
2.904995898e+20
2.928155997e+20
2.705714302e+20
3.967469286e+20
1.499953123e+20
1.764356329e+20
1.01657524e+20
2.56271762e+20
2.842792145e+20
1.824454736e+20
2.891624289e+20
1.856065875e+20
4.012041048e+20
1.888791741e+20
2.450045928e+20
4.669395676e+20
3.04873346e+20
2.51721271e+20
1.411348652e+20
5.128149242e+20
2.243390221e+20
1.355973021e+20
2.276766275e+20
1.835063586e+20
1.848920318e+20
9.314939619e+19
2.815906837e+20
2.601190947e+20
1.668191983e+20
1.921466194e+20
2.662912886e+20
1.464077976e+20
9.838961021e+19
2.479668304e+20
1.499953123e+20
1.26025451e+20
1.779006656e+20
1.025087048e+20
5.168712991e+19
2.606363908e+20
2.365874438e+20
2.121218161e+20
2.139755226e+20
2.428446524e+20
2.722273277e+20
2.197362709e+20
3.325891106e+20
3.91566425e+20
3.66950653e+20
3.133868981e+20
2.467729243e+20
2.259955018e+20
1.366059765e+20
2.752595399e+20
1.155575207e+20
1.397240943e+20
1.173294524e+20
4.729438158e+19
1.668191995e+20
2.642016016e+20
1.452497949e+20
1.708090998e+20
1.229870137e+20
1.735767813e+20
9.999687567e+19
3.024610873e+20
1.779006656e+20
2.818989359e+20
3.359663444e+20
2.345727537e+20
1.314374688e+20
3.977284019e+20
1.604816419e+20
2.428446545e+20
3.266727933e+20
2.19736269e+20
2.771575922e+20
2.796903061e+20
3.104967063e+20
2.848971775e+20
2.019051184e+20
3.163937003e+20
1.366059755e+20
1.835063599e+20
1.848920332e+20
2.561608414e+20
2.815906858e+20
1.418831437e+20
1.429878853e+20
2.642016016e+20
2.420829896e+20
1.708090985e+20
3.197662332e+20
1.735767799e+20
1.999937497e+20
1.26025451e+20
3.049725697e+20
2.56271762e+20
1.033742607e+20
5.212727859e+19
2.365874438e+20
1.856065891e+20
1.872285822e+20
1.349136958e+20
1.905591294e+20
1.922692354e+20
8.314727692e+19
2.796903036e+20
2.258157844e+20
3.418766161e+20
6.730170662e+19
1.355973021e+20
1.593736381e+20
1.605680637e+20
1.61780529e+20
2.794481886e+20
3.285224668e+20
4.729438158e+19
2.14481828e+20
2.40183276e+20
3.147078914e+20
1.708090985e+20
1.229870128e+20
1.487800982e+20
1.999937497e+20
2.520509041e+20
1.270719051e+20
1.793902334e+20
1.292178248e+20
2.085091144e+20
2.1029995e+20
3.181827188e+20
2.139755207e+20
2.158619132e+20
1.905591277e+20
2.19736269e+20
2.49441833e+20
3.076593339e+20
2.540427574e+20
1.994280242e+20
2.467729225e+20
1.355973001e+20
2.276766258e+20
2.981978349e+20
2.773380498e+20
1.862987938e+20
2.11193016e+20
2.601190987e+20
2.621444564e+20
2.88219929e+20
2.904995875e+20
2.440129979e+20
1.475844165e+20
2.231701474e+20
1.74994531e+20
1.764356314e+20
1.779006656e+20
2.306445858e+20
1.809049547e+20
1.303181954e+20
2.1029995e+20
3.181827242e+20
2.407224629e+20
2.428446524e+20
1.361136627e+20
1.922692337e+20
2.217260718e+20
3.076593339e+20
1.975888131e+20
3.13386901e+20
1.570373143e+20
2.259955018e+20
1.82141302e+20
2.064446549e+20
1.848920346e+20
2.328734922e+20
2.346589031e+20
1.418831437e+20
7.149394266e+19
1.921466194e+20
3.147078865e+20
7.320389936e+19
2.705714302e+20
1.239834152e+20
2.249929703e+20
2.520509061e+20
1.016575232e+20
1.537630559e+20
2.842792145e+20
2.867000299e+20
7.886248126e+19
1.590913621e+20
1.337347016e+20
2.968101307e+20
2.450045949e+20
8.240110161e+19
2.217260718e+20
1.118761204e+20
1.975888113e+20
1.424485887e+20
2.692068265e+20
1.355973011e+20
2.276766258e+20
1.376297699e+20
2.080035373e+20
1.862987924e+20
1.877271239e+20
1.18235953e+20
2.383131404e+20
1.441099645e+20
2.178746923e+20
9.760519915e+19
1.967792204e+20
1.983734643e+20
1.999937497e+20
1.008203608e+20
2.033150464e+20
1.537630572e+20
2.325920846e+20
3.648909501e+20
3.154499251e+20
1.590913608e+20
2.674694032e+20
1.349136969e+20
2.177818622e+20
1.373351681e+20
2.771575922e+20
3.356283643e+20
1.411348652e+20
4.558354881e+20
2.243390205e+20
3.615928029e+20
2.276766258e+20
2.293829482e+20
2.311150415e+20
2.561608414e+20
1.173294524e+20
2.364719061e+20
1.906505138e+20
1.681282932e+20
1.936663932e+20
1.708090985e+20
1.475844165e+20
2.727635156e+20
9.999687567e+19
2.772559945e+20
1.779006671e+20
1.02508704e+20
1.292178237e+20
1.824454736e+20
2.1029995e+20
2.651522679e+20
2.94216341e+20
1.618964349e+20
2.722273277e+20
3.021373699e+20
2.217260718e+20
1.957832125e+20
3.387236766e+20
8.546915325e+19
1.794712164e+20
2.033959502e+20
1.821413007e+20
2.752595399e+20
1.386690249e+20
1.397240943e+20
2.815906858e+20
3.074134802e+20
2.383131422e+20
1.441099645e+20
1.69458094e+20
7.320389993e+19
3.443636385e+20
1.983734643e+20
2.749914081e+20
3.024610849e+20
2.033150448e+20
1.281358799e+20
2.584356495e+20
1.563818345e+20
2.102999483e+20
2.651522679e+20
3.477102242e+20
1.618964349e+20
2.177818603e+20
1.098681345e+20
2.217260738e+20
3.076593339e+20
2.258157864e+20
2.848971827e+20
2.692068284e+20
2.937941545e+20
2.276766275e+20
1.605680649e+20
1.386690249e+20
2.328734905e+20
2.581247953e+20
2.601190987e+20
3.336383991e+20
4.803665484e+19
1.210414948e+20
1.464077976e+20
2.951688306e+20
1.239834152e+20
1.499953123e+20
1.26025452e+20
1.270719051e+20
2.050174096e+20
1.550613897e+20
2.345727537e+20
1.840124578e+20
1.325761351e+20
3.209632838e+20
2.428446524e+20
2.450045928e+20
3.296044035e+20
1.662945553e+20
1.118761214e+20
1.975888113e+20
1.424485887e+20
2.019051184e+20
1.581968501e+20
1.593736381e+20
1.835063599e+20
1.61780529e+20
2.328734922e+20
2.346589049e+20
2.128247155e+20
1.906505138e+20
2.401832742e+20
2.420829915e+20
2.196116998e+20
3.689610383e+20
1.487800971e+20
3.249898433e+20
2.772559923e+20
2.795581889e+20
2.56271762e+20
2.067485213e+20
1.563818358e+20
1.840124547e+20
2.916674947e+20
2.139755226e+20
2.968101307e+20
1.633363966e+20
1.922692354e+20
1.385787949e+20
2.517212732e+20
2.258157844e+20
8.546915403e+19
2.692068246e+20
1.355973011e+20
2.504442884e+20
3.440744223e+20
2.080035389e+20
1.630114445e+20
1.642612334e+20
1.18235953e+20
9.532525615e+19
2.40183276e+20
1.69458094e+20
2.196116981e+20
1.96779222e+20
2.975601965e+20
1.74994531e+20
2.520509041e+20
2.287294291e+20
2.306445858e+20
2.584356495e+20
5.212727816e+19
2.628749375e+20
2.386370411e+20
2.674694009e+20
1.349136969e+20
2.177818622e+20
1.648022018e+20
3.048733487e+20
2.237522409e+20
1.693618383e+20
2.564074597e+20
2.243390221e+20
2.259955018e+20
1.366059755e+20
1.146914749e+20
1.848920332e+20
1.862987938e+20
2.815906858e+20
3.310606685e+20
1.191565711e+20
1.921466194e+20
2.662912906e+20
2.196116981e+20
1.721818179e+20
2.727635134e+20
2.499921892e+20
1.512305424e+20
1.27071903e+20
5.125435198e+19
2.067485196e+20
1.303181965e+20
1.840124563e+20
1.856065875e+20
2.674694032e+20
2.698273915e+20
8.166819831e+19
8.240110088e+19
3.880206256e+20
8.390709107e+19
3.104967063e+20
1.424485913e+20
1.570373143e+20
2.033959516e+20
1.593736392e+20
2.064446549e+20
1.155575207e+20
2.095861414e+20
3.754542478e+20
2.364719079e+20
2.621444564e+20
1.921466194e+20
3.147078865e+20
1.464077987e+20
1.96779222e+20
1.239834152e+20
2.499921872e+20
1.26025452e+20
2.287294291e+20
1.793902334e+20
2.067485196e+20
1.824454736e+20
1.577249625e+20
2.121218161e+20
2.942163435e+20
1.349136958e+20
2.722273253e+20
2.472033026e+20
1.385787961e+20
1.957832125e+20
1.975888113e+20
1.709383065e+20
)
;

boundaryField
{
    flow
    {
        type            zeroGradient;
    }
    obstacle
    {
        type            calculated;
        value           nonuniform List<scalar> 0();
    }
    frontAndBack
    {
        type            empty;
    }
    procBoundary3to1
    {
        type            processor;
        value           nonuniform List<scalar> 
36
(
5.128149242e+20
6.592088013e+20
4.434521436e+20
5.034425464e+20
5.64539461e+20
5.64539461e+20
3.127636689e+20
4.731748836e+20
4.507588516e+20
5.349388018e+20
4.587065696e+20
7.622365242e+20
7.622365242e+20
3.999875027e+20
3.780763592e+20
3.049725697e+20
3.587804638e+20
3.359663444e+20
3.359663444e+20
2.14481828e+20
2.88219929e+20
2.178746923e+20
2.928155975e+20
4.181558434e+20
2.727635134e+20
2.727635134e+20
2.033959502e+20
3.415149387e+20
2.752595399e+20
2.311150432e+20
2.794481907e+20
3.285224668e+20
1.418831447e+20
1.418831447e+20
2.019051199e+20
2.019051199e+20
)
;
    }
    procBoundary3to2
    {
        type            processor;
        value           nonuniform List<scalar> 
19
(
1.781653177e+20
2.004359824e+20
2.895186412e+20
2.672479746e+20
2.895186412e+20
1.55894653e+20
1.336239892e+20
2.004359824e+20
1.55894653e+20
1.781653177e+20
1.781653177e+20
6.681199412e+19
1.55894653e+20
1.113533227e+20
1.113533243e+20
2.449773118e+20
1.336239882e+20
1.781653177e+20
1.336239882e+20
)
;
    }
}


// ************************************************************************* //
