/*--------------------------------*- C++ -*----------------------------------*\
| =========                 |                                                 |
| \\      /  F ield         | OpenFOAM: The Open Source CFD Toolbox           |
|  \\    /   O peration     | Version:  2406                                  |
|   \\  /    A nd           | Website:  www.openfoam.com                      |
|    \\/     M anipulation  |                                                 |
\*---------------------------------------------------------------------------*/
FoamFile
{
    version     2.0;
    format      ascii;
    arch        "LSB;label=32;scalar=64";
    class       volScalarField;
    location    "0.002";
    object      iDofMean;
}
// * * * * * * * * * * * * * * * * * * * * * * * * * * * * * * * * * * * * * //

dimensions      [0 -3 0 0 0 0 0];

internalField   nonuniform List<scalar> 
654
(
4.527016192e+20
4.485915971e+20
4.590838357e+20
4.58859912e+20
4.60805335e+20
4.677156963e+20
3.714589841e+20
3.91263057e+20
4.05179184e+20
4.237250286e+20
4.339094283e+20
4.477595047e+20
4.539201937e+20
4.532635223e+20
4.595871068e+20
4.581802265e+20
4.617328598e+20
2.703915496e+20
2.895812814e+20
3.002200805e+20
3.140354171e+20
3.34028077e+20
3.569154765e+20
3.645023884e+20
3.757737941e+20
3.926718308e+20
4.118375477e+20
4.232318227e+20
4.391429336e+20
4.454199664e+20
4.466094767e+20
4.514339841e+20
4.485706101e+20
2.198438737e+20
2.283182205e+20
2.291073414e+20
2.384739028e+20
2.434896898e+20
2.497769883e+20
2.539670629e+20
2.653591918e+20
2.786941022e+20
2.939180838e+20
3.098643438e+20
3.228242336e+20
3.462062928e+20
3.563116207e+20
3.665668171e+20
3.810232596e+20
3.995480489e+20
4.170045082e+20
4.286242125e+20
4.40316441e+20
4.396915592e+20
4.472885727e+20
2.026275684e+20
2.028143398e+20
2.024304533e+20
2.05969725e+20
2.090039593e+20
2.09034154e+20
2.143617845e+20
2.138145512e+20
2.189750928e+20
2.248708925e+20
2.286889834e+20
2.329128066e+20
2.426355455e+20
2.502921798e+20
2.578732779e+20
2.675880133e+20
2.750564776e+20
2.842533686e+20
2.986111129e+20
3.115330859e+20
3.340123091e+20
3.489405804e+20
3.647256852e+20
3.782326458e+20
3.901142752e+20
4.007144432e+20
4.078164316e+20
4.265660167e+20
4.352374181e+20
2.052702037e+20
2.056107061e+20
2.067303747e+20
2.057794428e+20
2.037741321e+20
2.019944656e+20
2.077904587e+20
2.102944645e+20
2.147916334e+20
2.210646856e+20
2.240720152e+20
2.272249018e+20
2.329619978e+20
2.375522216e+20
2.410924672e+20
2.47287144e+20
2.486543038e+20
2.556823369e+20
2.649999172e+20
2.747889514e+20
2.872697342e+20
3.032016209e+20
3.185560592e+20
3.277323526e+20
3.433331087e+20
3.620429734e+20
3.808145317e+20
3.945591112e+20
4.024037278e+20
4.140410718e+20
2.02241627e+20
2.007744038e+20
1.985112515e+20
2.02797466e+20
2.068017391e+20
2.083053372e+20
2.1213165e+20
2.118551823e+20
2.136715633e+20
2.143635722e+20
2.157685686e+20
2.191236721e+20
2.216225988e+20
2.243107948e+20
2.233680192e+20
2.292402954e+20
2.346255636e+20
2.419461705e+20
2.526725345e+20
2.613140454e+20
2.700777086e+20
2.801333711e+20
2.938418864e+20
3.112728789e+20
3.317362187e+20
3.457000852e+20
3.669843678e+20
3.830638398e+20
3.967018828e+20
4.06548276e+20
2.034979269e+20
2.06040099e+20
2.087566982e+20
2.09793646e+20
2.11932493e+20
2.096094303e+20
2.086117664e+20
2.096559919e+20
2.069273014e+20
2.055248277e+20
2.086755387e+20
2.1116885e+20
2.118328325e+20
2.1702057e+20
2.2494297e+20
2.281816835e+20
2.328719732e+20
2.375895505e+20
2.389754451e+20
2.469269166e+20
2.581431887e+20
2.655499986e+20
2.701440972e+20
2.867995345e+20
2.972450191e+20
3.078505129e+20
3.26685651e+20
3.423129625e+20
3.602326301e+20
3.766340721e+20
2.031614169e+20
2.053621125e+20
2.071401957e+20
2.048848508e+20
2.051145993e+20
2.076532915e+20
2.096911974e+20
2.084972812e+20
2.11908046e+20
2.110490447e+20
2.079492897e+20
2.087531181e+20
2.119804152e+20
2.127307438e+20
2.146932921e+20
2.17192264e+20
2.213338406e+20
2.222644974e+20
2.315324984e+20
2.359280629e+20
2.42081532e+20
2.487658578e+20
2.631096497e+20
2.641879991e+20
2.734251256e+20
2.912604246e+20
3.039587314e+20
3.235737122e+20
3.408971535e+20
3.534434384e+20
2.009853284e+20
1.986500447e+20
1.988527636e+20
1.974987184e+20
2.007927495e+20
2.014588596e+20
2.034023403e+20
2.01284888e+20
2.030904598e+20
2.049003512e+20
2.083366225e+20
2.062397874e+20
2.052899233e+20
2.08416121e+20
2.1054342e+20
2.12428502e+20
2.178012453e+20
2.2398152e+20
2.241153953e+20
2.268839782e+20
2.381646914e+20
2.456635762e+20
2.538819575e+20
2.659418771e+20
2.743779212e+20
2.83816856e+20
2.976949645e+20
3.055896229e+20
3.145331607e+20
3.280306132e+20
1.997065975e+20
2.003450138e+20
2.021540775e+20
2.00343067e+20
2.005154085e+20
1.983383518e+20
1.972777398e+20
2.006937052e+20
2.040198795e+20
2.04371948e+20
2.041001685e+20
2.040436672e+20
2.060524412e+20
2.043494649e+20
2.038436294e+20
2.061776379e+20
2.0542444e+20
2.13371869e+20
2.23004122e+20
2.300376785e+20
2.279388583e+20
2.316635384e+20
2.408561976e+20
2.492125788e+20
2.593237524e+20
2.652766131e+20
2.762706879e+20
2.871300656e+20
3.067142919e+20
3.207087556e+20
2.03026815e+20
2.009777998e+20
1.970541211e+20
2.004577599e+20
2.015092047e+20
2.032286951e+20
2.030972822e+20
2.030820745e+20
2.009694728e+20
1.985595128e+20
2.028413386e+20
2.074354511e+20
2.074790922e+20
2.073250669e+20
2.108184131e+20
2.163100876e+20
2.176233428e+20
2.138075293e+20
2.139330307e+20
2.12366533e+20
2.244163342e+20
2.292241356e+20
2.317622379e+20
2.36476728e+20
2.420645398e+20
2.517078962e+20
2.59225496e+20
2.71411473e+20
2.807454765e+20
2.980594271e+20
1.988541077e+20
2.002772123e+20
1.993991889e+20
1.9937966e+20
1.964477853e+20
1.959397563e+20
1.962217762e+20
1.956568551e+20
1.969896433e+20
2.000966857e+20
1.976849693e+20
1.978945413e+20
2.02436623e+20
2.048701937e+20
2.058935654e+20
2.046149223e+20
2.0809295e+20
2.105016253e+20
2.118655472e+20
2.172925608e+20
2.170558359e+20
2.168150113e+20
2.217053883e+20
2.266010434e+20
2.323732469e+20
2.396773354e+20
2.480283271e+20
2.544063001e+20
2.663779447e+20
2.761223469e+20
1.993027872e+20
1.988986426e+20
1.99057674e+20
2.00113684e+20
2.010469746e+20
2.004109259e+20
1.985683653e+20
1.954913262e+20
1.963700292e+20
1.980070928e+20
1.97975472e+20
1.961376477e+20
1.947868308e+20
1.954970491e+20
1.996187615e+20
2.009601858e+20
2.046874247e+20
2.073494826e+20
2.069811117e+20
2.095777236e+20
2.087489879e+20
2.140839393e+20
2.176398515e+20
2.221488915e+20
2.277726031e+20
2.314372253e+20
2.371360359e+20
2.455121485e+20
2.504014779e+20
2.617635267e+20
1.959601344e+20
1.972714721e+20
1.970768873e+20
1.980033623e+20
1.934201782e+20
1.977095949e+20
1.985449009e+20
2.017578318e+20
2.002068708e+20
2.004329423e+20
2.008562565e+20
2.039704649e+20
2.019446766e+20
2.051925522e+20
2.04368613e+20
2.035058983e+20
2.032388033e+20
2.032235073e+20
2.022258958e+20
2.036873394e+20
2.047795763e+20
2.092581716e+20
2.117020326e+20
2.146207072e+20
2.20558579e+20
2.27921443e+20
2.335607009e+20
2.392750547e+20
2.437681415e+20
2.492565451e+20
2.005366504e+20
1.973618717e+20
1.963483235e+20
1.994025983e+20
2.011163106e+20
2.008300997e+20
2.009618846e+20
2.022071269e+20
2.068796387e+20
2.067497624e+20
2.055042499e+20
2.059225689e+20
2.085613779e+20
2.080441707e+20
2.085934826e+20
2.087737655e+20
2.086774808e+20
2.085539582e+20
2.115037356e+20
2.122101494e+20
2.117194747e+20
2.144816713e+20
2.133870899e+20
2.175078603e+20
2.18816326e+20
2.182805182e+20
2.194256638e+20
2.279755644e+20
2.343121033e+20
2.412224402e+20
2.041485101e+20
2.07396072e+20
2.08369648e+20
2.030039107e+20
2.027803374e+20
2.023204885e+20
2.017127946e+20
1.991093449e+20
1.980382196e+20
1.996163192e+20
2.019940481e+20
1.98846192e+20
1.973203633e+20
1.965881031e+20
1.973688318e+20
2.008845689e+20
2.03086317e+20
2.041204584e+20
2.067743632e+20
2.092388963e+20
2.121663621e+20
2.091255937e+20
2.112205877e+20
2.088194201e+20
2.092883695e+20
2.127596425e+20
2.154345964e+20
2.19277198e+20
2.187025872e+20
2.307382262e+20
2.004244809e+20
1.999156209e+20
2.016304198e+20
2.040590707e+20
2.036123516e+20
2.046957997e+20
2.036839294e+20
2.055413808e+20
2.012792799e+20
2.015618053e+20
1.998153012e+20
2.011399141e+20
2.028547805e+20
2.039775163e+20
2.021436842e+20
2.010610062e+20
1.995283053e+20
2.008658054e+20
2.017090228e+20
2.008464027e+20
2.035440641e+20
2.057581599e+20
2.07609749e+20
2.081178671e+20
2.134806704e+20
2.125948403e+20
2.162383515e+20
2.186339103e+20
2.195776233e+20
2.203679668e+20
1.965209819e+20
1.945369266e+20
1.958929689e+20
1.950672606e+20
1.942984154e+20
1.948219621e+20
1.980755816e+20
2.003153532e+20
2.025185082e+20
1.991839893e+20
2.000815925e+20
2.005298832e+20
2.018462869e+20
2.008779293e+20
2.052935857e+20
2.053458716e+20
2.03594603e+20
2.036079132e+20
2.031304205e+20
2.035309576e+20
2.034914874e+20
2.020460282e+20
2.022871096e+20
2.046640765e+20
2.051232896e+20
2.073761039e+20
2.075078893e+20
2.135715158e+20
2.197469872e+20
2.211087035e+20
1.963190796e+20
1.953957123e+20
1.952782434e+20
1.953425201e+20
1.97718918e+20
1.983616392e+20
1.965737646e+20
1.958460341e+20
1.979428959e+20
1.994722092e+20
2.011467561e+20
1.991634073e+20
1.983534542e+20
1.990181781e+20
1.987437888e+20
1.977339343e+20
1.992233328e+20
2.00712044e+20
2.034663869e+20
2.04052232e+20
2.027817285e+20
2.047240678e+20
2.042128893e+20
2.036387324e+20
2.086622449e+20
2.095459995e+20
2.072584474e+20
2.047053332e+20
2.083150611e+20
2.119919898e+20
2.000431046e+20
2.003676105e+20
1.965987664e+20
1.99609043e+20
1.986664897e+20
1.994328587e+20
2.017597264e+20
2.037678415e+20
2.014460991e+20
2.0319505e+20
2.033012962e+20
2.047025055e+20
2.062738178e+20
2.028368657e+20
2.022686786e+20
2.041864357e+20
2.035437759e+20
2.006095353e+20
1.980133963e+20
1.959985675e+20
1.980236888e+20
1.985460182e+20
2.002275952e+20
1.999420971e+20
2.024826864e+20
2.049590049e+20
2.082007814e+20
2.160607595e+20
2.169525149e+20
2.181742605e+20
2.046420545e+20
2.045711282e+20
2.069125176e+20
2.072474937e+20
2.071021902e+20
2.035547195e+20
2.011730791e+20
1.988255786e+20
2.003021945e+20
1.97214488e+20
1.954093907e+20
1.959912399e+20
1.984518454e+20
2.007291492e+20
2.009687193e+20
1.992210346e+20
2.001890792e+20
2.003276363e+20
2.017607116e+20
2.025926666e+20
2.027028643e+20
2.061824035e+20
2.059246918e+20
2.053386467e+20
2.042793867e+20
2.073761039e+20
2.081730657e+20
2.030271895e+20
2.040245612e+20
2.070347789e+20
2.027351743e+20
2.005710079e+20
2.018125611e+20
2.008247726e+20
1.999607339e+20
2.023437774e+20
2.035666e+20
2.011902977e+20
1.987531606e+20
1.993280993e+20
1.998637178e+20
2.010179076e+20
1.998538957e+20
1.974063937e+20
1.973938326e+20
1.98212831e+20
1.989437713e+20
2.023265544e+20
2.024068007e+20
2.030618138e+20
2.029657393e+20
1.996331425e+20
2.019393994e+20
2.066068337e+20
2.092339241e+20
2.054259445e+20
2.075356032e+20
2.087049045e+20
2.108272636e+20
2.105105283e+20
1.92393144e+20
1.936781451e+20
1.929104065e+20
1.951590138e+20
1.938824083e+20
1.94682238e+20
1.949311523e+20
1.966500386e+20
1.981573777e+20
2.014657304e+20
2.009530897e+20
1.985289751e+20
1.968776116e+20
1.961913562e+20
1.965438576e+20
1.99044599e+20
1.96707309e+20
1.941258597e+20
1.939042678e+20
1.96207075e+20
1.976030906e+20
2.005876924e+20
1.984355502e+20
1.970279613e+20
1.944792012e+20
1.963618234e+20
1.978628051e+20
2.010413902e+20
2.030930711e+20
2.059236799e+20
)
;

boundaryField
{
    flow
    {
        type            calculated;
        value           nonuniform List<scalar> 
55
(
4.527016192e+20
4.677156963e+20
4.617328598e+20
4.485706101e+20
4.472885727e+20
4.352374181e+20
4.140410718e+20
4.06548276e+20
3.766340721e+20
3.534434384e+20
3.280306132e+20
3.207087556e+20
2.980594271e+20
2.761223469e+20
2.617635267e+20
2.492565451e+20
2.412224402e+20
2.307382262e+20
2.203679668e+20
2.211087035e+20
2.119919898e+20
2.181742605e+20
2.070347789e+20
2.105105283e+20
2.059236799e+20
1.92393144e+20
1.936781451e+20
1.929104065e+20
1.951590138e+20
1.938824083e+20
1.94682238e+20
1.949311523e+20
1.966500386e+20
1.981573777e+20
2.014657304e+20
2.009530897e+20
1.985289751e+20
1.968776116e+20
1.961913562e+20
1.965438576e+20
1.99044599e+20
1.96707309e+20
1.941258597e+20
1.939042678e+20
1.96207075e+20
1.976030906e+20
2.005876924e+20
1.984355502e+20
1.970279613e+20
1.944792012e+20
1.963618234e+20
1.978628051e+20
2.010413902e+20
2.030930711e+20
2.059236799e+20
)
;
    }
    obstacle
    {
        type            calculated;
        value           nonuniform List<scalar> 0();
    }
    frontAndBack
    {
        type            empty;
    }
    procBoundary3to1
    {
        type            processor;
        value           nonuniform List<scalar> 
36
(
4.410778142e+20
4.614461609e+20
4.623542912e+20
4.627196382e+20
4.610029238e+20
4.610029238e+20
3.915540499e+20
4.02356376e+20
4.233951378e+20
4.331132009e+20
4.402503758e+20
4.459355894e+20
4.459355894e+20
2.904659246e+20
3.064686967e+20
3.203736844e+20
3.375611621e+20
3.499994002e+20
3.499994002e+20
2.273269063e+20
2.261085343e+20
2.378465391e+20
2.423781108e+20
2.475482593e+20
2.608115122e+20
2.608115122e+20
2.074638692e+20
2.079142947e+20
2.105276714e+20
2.120018291e+20
2.122409008e+20
2.133284104e+20
2.154259081e+20
2.154259081e+20
2.005815196e+20
2.005815196e+20
)
;
    }
    procBoundary3to2
    {
        type            processor;
        value           nonuniform List<scalar> 
19
(
2.066717685e+20
1.995674264e+20
2.025962368e+20
2.044669712e+20
1.990329305e+20
2.052687166e+20
1.985429773e+20
1.986097879e+20
2.002800877e+20
1.96739052e+20
1.991888251e+20
2.01259997e+20
2.011709143e+20
1.978971252e+20
1.938884083e+20
2.010150196e+20
2.01326809e+20
2.025516955e+20
1.942892789e+20
)
;
    }
}


// ************************************************************************* //
