/*--------------------------------*- C++ -*----------------------------------*\
| =========                 |                                                 |
| \\      /  F ield         | OpenFOAM: The Open Source CFD Toolbox           |
|  \\    /   O peration     | Version:  2406                                  |
|   \\  /    A nd           | Website:  www.openfoam.com                      |
|    \\/     M anipulation  |                                                 |
\*---------------------------------------------------------------------------*/
FoamFile
{
    version     2.0;
    format      ascii;
    arch        "LSB;label=32;scalar=64";
    class       volScalarField;
    location    "0.002";
    object      internalE;
}
// * * * * * * * * * * * * * * * * * * * * * * * * * * * * * * * * * * * * * //

dimensions      [1 -1 -2 0 0 0 0];

internalField   nonuniform List<scalar> 
654
(
3.769671796
2.245524284
1.25296001
0.9341819636
1.048360588
2.027807043
1.5878965
1.23325227
1.486193573
1.40378351
1.258876904
2.716068733
1.677997199
2.146860699
1.959675211
1.796060148
3.583406115
1.59849538
0.9084525964
0.4269491765
0.7695398471
0.7782686918
0.7727241245
0.8483149831
1.794784016
1.535260747
1.722347435
2.519483036
1.553453321
2.025392505
1.952724057
3.069994411
2.763072532
0.6468398732
0.8139322104
0.3555416251
0.1852990617
1.059104103
0.6376287443
0.9625843807
0.1595343619
0.729621466
1.274202009
1.580871453
1.240868279
1.446083934
1.133732566
1.235905574
2.1255884
2.658934828
1.656451402
1.785032624
2.768868779
1.707183128
2.819035859
0.5157639667
0.2925601762
0.8072435711
0.4699916051
0.1765818002
0.4622510244
0.3109733124
0.4077975513
0.3227700017
0.6573009779
0.7805770398
0.5181548956
0.2967204187
0.6100378387
1.12557124
1.434744536
0.6505424006
0.366357442
1.748797291
0.6736526561
1.681218433
1.482235823
1.483500084
1.925244881
0.9868973998
2.713187581
3.430329828
3.920426926
1.975706162
0.7416401058
0.2527210114
0.7326649374
0.3538226422
0.5779235493
0.1957898976
0.1415920387
0.5935279665
0.7340105389
0.8945268333
0.9242617893
0.3826625687
0.9751924106
0.4529137141
1.281417495
1.395009336
0.9299213492
0.3499793145
1.381870103
0.2301737405
1.165732978
1.767283935
2.164586823
0.8432436246
1.007107389
0.7668797385
1.924140517
2.972719068
2.25316305
2.59111311
0.5885114431
0.9143369178
0.13577971
0.3486834808
0.419709084
0.5507307455
0.8951823641
0.6204463444
0.6212351859
1.016488629
0.7445746411
0.7415627275
0.1972187298
0.501341169
0.3284740591
1.281413142
0.4089171278
0.5162775409
0.4983924627
0.4865234471
0.984483369
1.910148674
1.321188046
1.186186766
0.8533865009
1.736660484
1.384330293
2.074845447
1.035048837
2.472093527
0.7187507566
0.6831831451
0.1305012913
0.5605042993
0.3602037319
0.2807391537
0.3396799271
0.6709905497
0.3664144462
0.2783867658
0.4065370224
0.6580830789
0.5179105282
0.194002266
0.200770708
0.2443161954
1.443388594
0.5414242776
0.714561264
0.4019252508
0.4653625113
0.7006080611
1.092537526
1.248804182
1.692265888
0.7667894142
2.311195894
1.041298601
1.078125584
0.9223373092
0.1909025177
0.5097957708
0.4153039392
0.4238160994
0.1340072775
0.1964226865
0.1603740554
0.2537140196
0.4379764743
0.3931265718
0.672093956
0.1419478992
0.674941649
0.4136514077
0.4699898946
0.4560153467
0.5420149257
0.4718847873
1.470527718
0.5999401666
0.4194106874
0.6175117383
1.11751959
0.9515656011
1.044550089
0.9131234286
0.7542893003
1.18228853
2.209955135
0.7860725935
0.9237706934
0.561951715
0.2088841337
0.07829562581
0.2772722426
0.3888730256
0.5912821208
0.6618109034
0.6982806289
0.4961465132
0.915502665
0.4991118344
0.6305485735
0.7895948723
0.2218891319
0.345645804
0.1709928735
0.6867219199
0.6419166572
0.3097146528
0.8186733755
0.3308372925
1.194682016
1.047070362
0.7525385389
0.814076171
0.7772850094
1.531917675
0.4016377485
2.343974871
0.2680376874
0.274122275
0.5893318563
0.2610423005
0.2992771132
0.1476917995
0.7174070222
0.3925690311
0.4994928335
0.3465446465
0.3404986594
0.4607726698
0.2426068518
0.3536146379
0.4518775395
0.3093530039
0.3205431928
0.1066374842
0.08862356072
0.5457060719
0.7175009574
0.4334472533
0.4432185909
1.004870259
0.6267542795
0.2132691902
0.568061654
1.542481253
1.079003507
1.282958916
0.1979595246
0.4530152295
0.3814366783
0.4492880887
0.07500439116
0.4281964233
0.4989072356
0.08004187158
0.2386470533
0.5474203929
0.1218236613
0.7356407642
0.1615652369
0.2516287337
0.17704047
0.8068074081
0.5044699081
0.75439582
0.5119701891
1.168629332
0.292276753
0.9497369562
0.3337112539
0.3446872608
1.04076696
0.483848157
0.4879607279
0.3876296376
0.6351386437
0.8249633044
0.299121737
0.6142964857
0.2832244795
0.4059422647
0.2629905787
0.5524251214
0.4738539305
0.2190099412
0.5113876225
0.3486268406
0.2145507635
0.4684122116
0.5119808919
0.4278954676
0.2671388142
0.07932184689
0.6491482231
0.6642261812
0.2418205055
0.157903902
0.7101474968
0.4182492699
0.4920553833
0.2499036702
0.3664813298
0.6085207852
0.1349851105
1.507698758
0.596148355
1.779263447
0.05934321
0.1848433411
0.4236472705
0.2425496873
0.3845376292
0.3298055182
0.6030326422
0.03885240679
0.585759109
0.4371413908
0.9482933168
0.4693871225
0.1001828057
0.3960449497
0.2468983436
0.7167467102
0.3363268386
0.4125529445
0.2047881021
0.1861320776
0.2688453935
0.6944191844
0.3750016009
0.3320048283
0.3727327705
0.3638601769
0.7210101649
0.9138346157
0.7277603671
0.3449040093
0.453694227
0.2500859421
0.8152428875
0.5452507552
0.5520286994
0.395640023
0.4082322671
0.4745809372
0.6076702576
0.636871949
0.6445130628
0.6374626728
0.1409107788
0.3494688721
0.3799794081
0.4845846372
0.3438433865
0.438884027
0.5484697985
0.2578098081
0.3022188382
0.983356812
0.4406128103
0.9918682106
0.08810188158
0.3416700346
0.8630203536
0.7240627656
0.3013332518
0.6235639584
0.2618463898
0.3675566909
0.3936882063
0.5853248746
0.3001196519
0.5257423809
0.5025830326
0.2996570338
0.1572287982
0.4584480694
0.6816656919
0.1392675983
0.6744795171
0.2767831904
0.5912326656
0.5200172273
0.2880212205
0.2086189829
0.3467888878
0.5796095517
0.09023595203
0.1095573658
0.2110127223
0.5965660716
0.4332004872
0.106487375
0.4203357542
0.2181632435
0.5757684157
0.2058884654
0.7349188896
0.240021092
0.4352097324
0.3172074982
0.3662639935
0.2254856822
0.5162190797
0.2525981433
0.6381788679
0.08640121112
0.4357514581
0.1667790442
0.3812129138
0.4236821547
0.2587534889
0.1820471042
0.3697862728
0.2601647978
0.5830751304
0.7488348574
0.4137816425
0.3518154813
0.5405685282
0.3555040747
0.6781191349
0.3531793796
0.8034960428
0.7420833381
0.312597034
1.431219933
0.3143182386
0.7465873723
0.4882555131
0.3484240169
0.3921732851
0.3808930495
0.2307617262
0.283688076
0.3874472428
0.307933362
0.296929535
0.2624780484
0.123693036
0.6447652171
0.1452354447
0.5253395743
0.4646176688
0.1125547367
0.247205293
0.3180484998
0.3737435026
0.4086834583
0.4172684229
0.6115707655
0.3382357515
0.920735709
1.331160077
0.423030986
0.7291304867
0.2783193217
0.3101345551
0.6695909557
0.1972330905
0.8810177127
0.3615631468
0.329142441
0.7691636918
0.6990196859
0.3182456082
0.217823476
0.4243063011
0.1803909188
0.3629992312
0.547420463
1.005286008
0.4111475596
0.6117175044
0.5554008963
0.7777954313
0.2322370287
0.4160925322
0.5674034274
0.8693310845
0.3839122962
0.3243353162
0.1891549552
1.313496194
1.174218313
0.371148237
0.7765872965
0.8574167675
0.9018103198
0.2831092433
0.154542281
0.4102847019
0.3781691021
0.6461659039
0.3290859756
0.6409245632
0.1805575153
0.3371055619
0.1067872668
0.6850158135
0.1852558335
0.3227202695
0.2967369423
0.1401715253
0.5674243335
0.4292635567
0.3240782424
0.269882117
0.3775166096
0.8209230776
0.563107249
0.5478938606
0.615509802
0.1187999027
0.2048272019
0.5221689271
0.3163108852
0.2848644535
0.2984923236
0.2456080144
0.1376751908
0.7192632731
0.5843211074
0.3838111685
0.3321725856
0.277216122
0.7029877279
0.6267051121
0.446671377
0.8875426082
0.1418503107
0.825133592
0.4859699052
0.7606977043
0.6871845352
0.4793962295
0.2337428257
0.6651106228
0.7003505529
0.4215806404
0.993717718
0.1838127897
0.4920858626
0.4795335698
0.5616501331
0.4182173579
0.1528437024
0.4824588358
0.3023909866
1.038754571
0.474900995
0.4913947268
0.3075645671
0.3361958599
0.1231652223
0.1438567514
0.4774467989
0.367852766
0.3961428119
0.2616450204
0.3727109554
0.3460431381
0.4801329617
0.3379518594
0.2990216369
0.3818868529
0.1175935771
0.8372363946
0.3572788061
0.5689576866
0.2213723836
0.3748059072
0.3386372818
0.5364457127
0.4285431228
0.4543131949
0.9339655024
0.5667792371
0.759224367
0.348441806
0.1047527608
0.5549493526
0.4661681331
0.4439461519
0.4036447624
0.2058715549
0.4008341636
0.8795234917
0.5276228867
0.2422926554
0.4201182456
0.3251310603
0.181706351
0.2878262201
0.01073908485
0.5780529946
0.3160853576
0.3852593144
0.2756552339
0.5107005069
0.3255007823
0.1996441718
0.2560283891
0.6988170438
0.2166736285
0.705519351
0.4105201651
0.2490078775
0.4773243248
0.2594951628
0.3938133564
0.2856532397
0.3093198601
0.8475094654
0.3304483242
0.5721915824
0.3581160921
0.456813135
0.1856061569
0.2363276717
0.2889084029
0.4269130796
0.5814183119
0.4514975962
0.5646139271
0.394539349
0.2596491237
0.4227795378
0.4761551289
0.5553131217
0.2351806015
0.5478579645
0.4553544924
0.06965588457
0.45115494
0.162320546
0.5566971655
)
;

boundaryField
{
    flow
    {
        type            zeroGradient;
    }
    obstacle
    {
        type            calculated;
        value           nonuniform List<scalar> 0();
    }
    frontAndBack
    {
        type            empty;
    }
    procBoundary3to1
    {
        type            processor;
        value           nonuniform List<scalar> 
36
(
2.395728684
3.766477832
1.078085215
3.7512009
3.184619903
3.184619903
0.8773693951
2.33695005
2.029694562
3.028576885
1.78051125
3.287217788
3.287217788
2.222440581
1.308082291
0.7188973798
1.797015961
1.45046767
1.45046767
0.6257994116
1.006874202
0.6664582059
1.319823621
0.8111388754
0.4541428414
0.4541428414
0.5247291257
0.8087191227
0.545003246
0.6610613633
0.7524140897
0.4881514328
0.5234623313
0.5234623313
0.5829707654
0.5829707654
)
;
    }
    procBoundary3to2
    {
        type            processor;
        value           nonuniform List<scalar> 
19
(
0.5161268928
0.5015782033
0.4664262389
0.3719941455
0.4513667632
0.3500291015
0.3153778073
0.3635222061
0.1987617324
0.2823399709
0.3321818117
0.1777604428
0.2469755237
0.2532361328
0.2777676973
0.7814857096
0.5254910055
0.2223249243
0.2702630937
)
;
    }
}


// ************************************************************************* //
