/*--------------------------------*- C++ -*----------------------------------*\
| =========                 |                                                 |
| \\      /  F ield         | OpenFOAM: The Open Source CFD Toolbox           |
|  \\    /   O peration     | Version:  2406                                  |
|   \\  /    A nd           | Website:  www.openfoam.com                      |
|    \\/     M anipulation  |                                                 |
\*---------------------------------------------------------------------------*/
FoamFile
{
    version     2.0;
    format      ascii;
    arch        "LSB;label=32;scalar=64";
    class       volScalarField;
    location    "0.002";
    object      internalEMean;
}
// * * * * * * * * * * * * * * * * * * * * * * * * * * * * * * * * * * * * * //

dimensions      [1 -1 -2 0 0 0 0];

internalField   nonuniform List<scalar> 
654
(
2.090201531
1.936131906
2.032206665
2.071174146
2.069139518
2.121428446
1.324886291
1.441308254
1.534541796
1.620726452
1.708840498
1.827146382
1.886166494
1.901580741
1.969274841
1.987319919
2.036932827
0.7874192231
0.8595641842
0.9194477362
0.9781053347
1.083531887
1.189612935
1.285157041
1.350629278
1.462038686
1.549476161
1.638529046
1.73780289
1.802441412
1.810886948
1.88782967
1.93045742
0.516213193
0.5369645169
0.5436171134
0.5780388285
0.6047317855
0.6394959465
0.6801049218
0.7286489936
0.7780254428
0.8717576472
0.9631402443
1.009588957
1.144311527
1.215441015
1.295356412
1.38015262
1.495815295
1.597266525
1.671473492
1.747910692
1.747536018
1.820725776
0.4266260633
0.4361622048
0.4293744145
0.4372246736
0.4472204466
0.4557407776
0.4740877251
0.4924041103
0.5089956444
0.5239019374
0.548927939
0.5782720948
0.6207808253
0.6693909362
0.6884286093
0.7368187074
0.7764951712
0.8320098986
0.9069458388
0.9608183449
1.059561938
1.147535885
1.268312986
1.322798395
1.414563074
1.520529591
1.594012238
1.733672357
1.780959924
0.4293296716
0.4217849974
0.4319585607
0.4351924128
0.4331788951
0.436085279
0.4508820403
0.4712858661
0.4844515265
0.5187406814
0.5366516882
0.5501211819
0.5738650233
0.5874317994
0.6238233806
0.6503876963
0.6676740409
0.6973571909
0.7383559226
0.8000256552
0.8581061987
0.9365530635
1.015009467
1.07871031
1.193856194
1.270696966
1.363350057
1.453090555
1.530355133
1.601075738
0.4234203354
0.4268859403
0.4244124588
0.4336548383
0.4515634393
0.4520709288
0.4647329649
0.4707689803
0.4850006243
0.4875188465
0.4945213058
0.4902004758
0.5080333357
0.5208648947
0.5216982067
0.5549126844
0.5839733014
0.62664775
0.667745996
0.6913943473
0.7635659579
0.8265444525
0.8925602446
0.964159638
1.063407063
1.147524111
1.272236879
1.328602378
1.396664818
1.490357392
0.433305778
0.4344122905
0.4473028781
0.4531636136
0.4673186679
0.4642938383
0.4582749339
0.4540478867
0.4386206428
0.4365073049
0.4493192333
0.4629987508
0.4646724248
0.4809759408
0.5087941416
0.5214073645
0.5393297669
0.5721674714
0.5964683561
0.6350271401
0.6681833907
0.7215039582
0.7520983494
0.8416887229
0.9042724355
0.9672278172
1.065735616
1.165221619
1.259726256
1.353469596
0.4277112066
0.4352036204
0.4419789888
0.4345818146
0.4205709088
0.4290452056
0.4421905307
0.434732568
0.4463273718
0.4476217795
0.4439382627
0.4536442754
0.4611886361
0.4736864177
0.4786606452
0.4999341854
0.5161702368
0.5298012352
0.5570017234
0.581983036
0.6094971801
0.6335452893
0.7138528657
0.726602668
0.7955482953
0.8819601437
0.9392100643
1.042700198
1.140225273
1.223685977
0.4190348169
0.4104071574
0.4072376855
0.4059420257
0.412717779
0.4160140654
0.4202120364
0.4220946833
0.4302627103
0.4419823824
0.4559977802
0.4516364287
0.4474066194
0.4538751594
0.4693860337
0.4718312804
0.4889537815
0.5085118253
0.5178017685
0.5391538241
0.5791032443
0.6181608541
0.650549332
0.7153485411
0.7578603424
0.8206159207
0.8823142557
0.9227286559
0.9782462492
1.052996222
0.4107054016
0.4101036118
0.4110699501
0.4105076532
0.4128179805
0.4080308487
0.4119581648
0.4242743371
0.4349558601
0.4339253645
0.4410068656
0.445469795
0.4576138578
0.4558164902
0.4503949708
0.4525313196
0.4567920473
0.485864414
0.5054831085
0.5278905778
0.5390656165
0.5533127491
0.5984071148
0.6392989675
0.6908242983
0.7187374978
0.767941448
0.8384653387
0.9220223639
0.9745507728
0.4072833954
0.4107102994
0.4098194417
0.4183038888
0.4254925068
0.4315913852
0.4263819705
0.4354397448
0.430023816
0.4297198896
0.4295693169
0.4408458606
0.4437566344
0.4408340417
0.4628246546
0.4827140442
0.4860499117
0.4826606097
0.495460478
0.4998946959
0.5362286235
0.5519452988
0.5560255732
0.5831193475
0.6261454862
0.6649975837
0.7016943579
0.7655158733
0.7894584752
0.8857162076
0.4246235403
0.4239620845
0.4215686259
0.417495569
0.409230749
0.41623539
0.415234218
0.4193191998
0.4100246327
0.4221574379
0.4245721192
0.4273951133
0.4306522435
0.4479067713
0.4516945962
0.4534762769
0.4684158136
0.477287549
0.4902147155
0.5077553803
0.5119106294
0.5147417029
0.5293052381
0.5405751811
0.561819696
0.6020865833
0.648495929
0.6768630828
0.7304447835
0.7674164611
0.4161698771
0.4161422589
0.4228476572
0.4268244925
0.4300147115
0.4199045437
0.4220437756
0.4184465694
0.4232605811
0.4257467088
0.4299257713
0.4259176886
0.4261424263
0.4278323409
0.439285171
0.4493327358
0.4585562316
0.4555329394
0.4590509785
0.4700040675
0.4774265973
0.4976865343
0.5121616082
0.5251655942
0.5459720787
0.5621363804
0.5765162885
0.6158029783
0.6394664718
0.7072244878
0.4116060429
0.4159064848
0.4149382145
0.4197233696
0.4049144464
0.4179929473
0.4162300997
0.4201906657
0.4189121526
0.4218254616
0.4206797741
0.4277881944
0.4268022769
0.4251906924
0.4257120979
0.4274441178
0.429363131
0.4385623237
0.4405305333
0.4409519752
0.4419200557
0.4523637472
0.4689850456
0.4941746715
0.512725194
0.5397331334
0.5610834976
0.5849661455
0.612337155
0.6386897545
0.4179851967
0.4050969821
0.3980526706
0.4036326585
0.4133505449
0.4139525368
0.4117954911
0.4160299347
0.4297906067
0.4290771043
0.426230019
0.4289889033
0.4291433759
0.4270013716
0.4309022551
0.4359603503
0.4411569237
0.4421792808
0.451407937
0.4625804188
0.4668471243
0.4781328504
0.4645677341
0.4734962198
0.4802803394
0.4819409641
0.4897189311
0.5221019761
0.5477663914
0.5720386564
0.4165274647
0.4318490778
0.4371543001
0.4264290223
0.4236726499
0.4211067041
0.4229813546
0.4245925219
0.4180922694
0.4195789337
0.4128400558
0.4052400747
0.4042597268
0.4119439799
0.4207966525
0.4265400102
0.4297580713
0.4377236349
0.4379353357
0.4461490752
0.4564807882
0.4552989416
0.4624674532
0.4551026266
0.4648689485
0.47650999
0.493758053
0.4945025739
0.4979579966
0.5513685456
0.4210669951
0.4180772059
0.4158807008
0.4207102859
0.4266718058
0.4335299693
0.4309227438
0.4301495875
0.417898381
0.4222053432
0.4277921896
0.4390853722
0.4362052878
0.4345674559
0.4242836618
0.4209966118
0.4142104812
0.4231068828
0.4240667976
0.4298179874
0.4282508353
0.4288720157
0.451195086
0.4523266779
0.4701068102
0.460147625
0.467575116
0.4931662022
0.4992125438
0.5085476389
0.4120035777
0.4065393359
0.4127545924
0.4094268191
0.4051957819
0.4004072351
0.4057432685
0.4112965208
0.4248634602
0.418637078
0.4132848652
0.4065882736
0.413563206
0.4185225512
0.4327958074
0.4363512572
0.4291401647
0.43107874
0.4273176805
0.4211209543
0.4206927895
0.4204747236
0.4157669124
0.4361633602
0.4437357375
0.4577365229
0.4639062258
0.471368574
0.4876766595
0.4825148323
0.4175760732
0.4153053397
0.4106474333
0.4092817274
0.4152356674
0.4217198069
0.4247099129
0.4210008228
0.4184132764
0.4119869677
0.421447709
0.4201040497
0.4197492276
0.4225111119
0.416629429
0.4156864508
0.4228326443
0.416964967
0.4284427538
0.4351308084
0.4273957319
0.427532638
0.4264889471
0.4219375567
0.440026364
0.4380464999
0.4515560674
0.4556852693
0.4653097616
0.4776030346
0.4083520163
0.415095731
0.4062240269
0.4130430207
0.4089834833
0.4128590907
0.4127185739
0.4187718021
0.4190319619
0.4266826037
0.426681155
0.4238454975
0.4327224755
0.4197216199
0.4207517084
0.4219546277
0.4190459983
0.4070722072
0.3965159029
0.3982110401
0.4153769688
0.4152203265
0.4166338497
0.4190954502
0.4284191436
0.433144365
0.4361531163
0.4449470534
0.4591900752
0.4669359406
0.4265587563
0.4244679905
0.4304695367
0.4263323772
0.4244160169
0.4194291072
0.4202698682
0.4125799288
0.4108934233
0.4057459736
0.4056785881
0.403307262
0.3961900893
0.4052189613
0.4018241189
0.3984101913
0.3986880474
0.4090625635
0.4190784153
0.4233108642
0.4231495429
0.4338601388
0.4369091472
0.4350598888
0.4303073368
0.4437848675
0.4443752227
0.4425275116
0.4400015266
0.4532631008
0.4169339129
0.4111496154
0.4113549954
0.4036380253
0.4071677344
0.4106307677
0.4090428009
0.4003667173
0.4006454861
0.4004175158
0.4058973672
0.4129122633
0.4090561217
0.4072360356
0.4100459419
0.4145491594
0.4177342181
0.4257237132
0.4215260704
0.4250789252
0.4230213639
0.4161789994
0.419557219
0.4337595863
0.4409257212
0.4298576077
0.4347675153
0.4396042365
0.456816119
0.4496961087
0.3950289862
0.3960150612
0.3948457026
0.3996415452
0.3977577255
0.396047023
0.3973072666
0.4007861379
0.4038664244
0.4147247484
0.4073473101
0.4077333318
0.4062809669
0.404729134
0.4075678383
0.4092242069
0.4080385853
0.4051934493
0.4119476649
0.4155963409
0.4149253957
0.4176830688
0.4187565055
0.406948228
0.4010261787
0.4114774397
0.420235381
0.4323635831
0.4266359559
0.4406906602
)
;

boundaryField
{
    flow
    {
        type            calculated;
        value           nonuniform List<scalar> 
55
(
2.090201531
2.121428446
2.036932827
1.93045742
1.820725776
1.780959924
1.601075738
1.490357392
1.353469596
1.223685977
1.052996222
0.9745507728
0.8857162076
0.7674164611
0.7072244878
0.6386897545
0.5720386564
0.5513685456
0.5085476389
0.4825148323
0.4776030346
0.4669359406
0.4532631008
0.4496961087
0.4406906602
0.3950289862
0.3960150612
0.3948457026
0.3996415452
0.3977577255
0.396047023
0.3973072666
0.4007861379
0.4038664244
0.4147247484
0.4073473101
0.4077333318
0.4062809669
0.404729134
0.4075678383
0.4092242069
0.4080385853
0.4051934493
0.4119476649
0.4155963409
0.4149253957
0.4176830688
0.4187565055
0.406948228
0.4010261787
0.4114774397
0.420235381
0.4323635831
0.4266359559
0.4406906602
)
;
    }
    obstacle
    {
        type            calculated;
        value           nonuniform List<scalar> 0();
    }
    frontAndBack
    {
        type            empty;
    }
    procBoundary3to1
    {
        type            processor;
        value           nonuniform List<scalar> 
36
(
2.096061336
2.073415195
2.078165946
2.124833065
2.108111179
2.108111179
1.492083511
1.566896507
1.652223086
1.774673555
1.819970533
1.877607473
1.877607473
0.8898091683
0.9322196745
1.006283658
1.115568218
1.200702066
1.200702066
0.5550427292
0.5713805149
0.6006742781
0.6318983052
0.6579391896
0.7464301091
0.7464301091
0.4531970701
0.4544334427
0.463279476
0.4724687135
0.4790590755
0.4916854737
0.5005207585
0.5005207585
0.425058787
0.425058787
)
;
    }
    procBoundary3to2
    {
        type            processor;
        value           nonuniform List<scalar> 
19
(
0.4307777879
0.410924368
0.4314305033
0.4298953423
0.4114716872
0.42466768
0.3978204086
0.4178202541
0.4198495515
0.4112293164
0.4178128966
0.4139810604
0.422601286
0.4132783754
0.4134833517
0.413952409
0.4193585533
0.4146870176
0.394176029
)
;
    }
}


// ************************************************************************* //
