/*--------------------------------*- C++ -*----------------------------------*\
| =========                 |                                                 |
| \\      /  F ield         | OpenFOAM: The Open Source CFD Toolbox           |
|  \\    /   O peration     | Version:  2406                                  |
|   \\  /    A nd           | Website:  www.openfoam.com                      |
|    \\/     M anipulation  |                                                 |
\*---------------------------------------------------------------------------*/
FoamFile
{
    version     2.0;
    format      ascii;
    arch        "LSB;label=32;scalar=64";
    class       volScalarField;
    location    "0.002";
    object      internalT;
}
// * * * * * * * * * * * * * * * * * * * * * * * * * * * * * * * * * * * * * //

dimensions      [1 2 -2 0 0 0 0];

internalField   nonuniform List<scalar> 
654
(
668.840422
625.2161761
641.2424552
653.8571801
650.4571248
657.041561
516.6710621
533.6228625
548.6280329
554.0793966
570.491055
591.1190115
601.931291
607.7296138
620.7045004
628.3155981
639.0462975
421.8512075
429.9859096
443.6430775
451.1836935
469.89965
482.8216057
510.742761
520.6622232
539.3560015
545.0111133
560.8183665
573.2459758
586.1892835
587.3673514
605.780035
623.4129358
340.1426809
340.6837474
343.7166046
351.125646
359.773042
370.8785956
387.9224551
397.7687238
404.4011852
429.6510293
450.2609919
453.0278084
478.801733
494.140328
511.896935
524.7132422
542.3196665
554.8595156
564.8969004
575.0435485
575.7373515
589.6619929
304.9967765
311.5270553
307.2604859
307.5018065
309.9656269
315.8253865
320.3743555
333.6036626
336.7175443
337.4917487
347.709447
359.6543067
370.6212088
387.4172423
386.7220791
398.8782787
408.9434727
424.0033341
439.9687036
446.7694905
459.5261977
476.3884186
503.7400591
506.6185027
525.2630764
549.6753712
566.2045169
588.7449154
592.7537635
302.9782057
297.1609938
302.6803252
306.3555317
307.9389578
312.7363436
314.3284807
324.640705
326.7227429
339.9204834
346.9375269
350.7105588
356.8379799
358.2158139
374.8214228
380.993158
388.9689272
395.0944735
403.6141868
421.7460714
432.7106309
447.4528396
461.5626106
476.7952417
503.7125014
508.426605
518.6092595
533.4908825
550.9048904
560.1635563
303.2826457
307.9994243
309.7058404
309.7619506
316.3085883
314.3783141
317.3543151
321.8956778
328.8076919
329.4479596
332.0039305
324.0640308
332.0661184
336.3731421
338.3333035
350.6550446
360.548806
375.1898929
382.8244385
383.2740974
409.5474405
427.4130384
440.0177887
448.6979269
464.3581249
480.8490154
502.1885584
502.4238723
510.0048782
531.036901
308.4472406
305.4194934
310.3899649
312.9025476
319.419909
320.8695468
318.2245649
313.7189683
307.056059
307.6618318
311.9104062
317.6116053
317.7605847
321.047174
327.6544536
331.0112692
335.4930794
348.8528106
361.5601248
372.5377196
374.9569468
393.5852487
403.2975201
425.1277604
440.6878786
455.129824
472.5696418
493.0961222
506.5700749
520.5653979
304.9690696
306.9860033
309.0890645
307.2614668
297.0222984
299.3026984
305.4749743
302.0425853
305.1072117
307.2374962
309.251301
314.7957513
315.1586689
322.5574462
322.9651375
333.4378375
337.8248069
345.2941871
348.4905286
357.3362885
364.7173636
368.9209258
393.0233285
398.4100647
421.4776284
438.6457034
447.604571
466.8019086
484.5222064
501.5294708
302.0175303
299.2765285
296.6625517
297.746134
297.7498487
299.1355588
299.2670765
303.77016
306.8955451
312.4702351
317.0614985
317.2217164
315.7047899
315.4652338
322.9497022
321.751323
325.2024802
328.8783369
334.6865325
344.2351861
352.2289271
364.5080533
371.1887417
389.6524079
400.1164609
418.8400011
429.33689
437.4030468
450.5346014
465.0062986
297.9095331
296.5250954
294.5639691
296.8201216
298.2340677
298.0112761
302.4972491
306.2382336
308.8297275
307.5672934
313.0029176
316.2580145
321.712401
323.11932
320.0683917
317.9460843
322.1163882
329.8559545
328.3523701
332.4232053
342.5860397
345.9866884
359.9028793
371.6040531
385.8972697
392.4801869
402.6611205
423.0121506
435.4655871
440.189878
290.5960464
296.0287592
301.268298
302.284186
305.874608
307.6338616
304.1172951
310.6010175
309.9622566
313.5026061
306.7772738
307.857817
309.8253282
308.0134691
318.0199347
323.2656503
323.5353877
327.0131828
335.4884492
340.9878073
346.1321397
348.8045113
347.5349525
357.2032832
374.7058544
382.7098376
392.1179007
408.5755714
407.3454995
430.4652796
309.3256247
306.6492307
306.2607158
303.3314337
301.764064
307.7250406
306.5436546
310.4531553
301.517798
305.6194209
311.1173423
312.8543053
308.1655085
316.7052397
317.7960678
321.0433421
326.0773101
328.4513491
335.175606
338.4979745
341.6402875
343.9112684
345.8408914
345.5736305
350.2331357
363.8969204
378.7497619
385.4067921
397.2240423
402.6020231
302.4848782
303.0793865
307.716938
308.9718718
309.8362089
303.5117984
307.8887621
310.0694059
312.2331551
311.4705218
314.578104
314.5655169
316.9141138
317.0149934
318.7803806
323.8951424
324.5247591
318.2462013
321.2747547
324.8649789
331.3054878
336.7582169
340.8905782
342.4510593
347.2284858
351.8478304
352.176542
363.3416605
369.9365902
391.3763287
304.270895
305.4061687
304.995996
307.0697136
303.2549447
306.2581158
303.6834633
301.6910294
303.1031014
304.8667682
303.397967
303.8140876
306.154549
300.1708771
301.7506353
304.2627193
306.0303639
312.6106544
315.562687
313.598268
312.6104343
313.1495306
320.907868
333.5456331
336.7496101
343.036468
347.9958975
354.1438518
363.8815738
371.1844524
301.9350584
297.3323415
293.670108
293.2256
297.7265874
298.5851077
296.8344417
298.0399766
300.9439167
300.6330482
300.4482123
301.7786486
298.0677054
297.3172566
299.2432964
302.494489
306.2414081
307.1329071
309.1701432
315.7675462
319.4186565
322.927326
315.3750272
315.3464588
317.9519446
319.8344675
323.3001235
331.751913
338.646864
343.5216158
295.5587537
301.6323156
303.9111928
304.2907487
302.6571834
301.5078952
303.7625122
308.9065349
305.8225621
304.4836873
296.0667618
295.217098
296.7802322
303.5479657
308.8446654
307.5810647
306.5418519
310.6417759
306.8030657
308.8758653
311.6681139
315.381237
317.169433
315.7074679
321.7598432
324.4360883
332.0053965
326.6791989
329.8262285
346.1535865
304.3314478
302.9396772
298.7852205
298.6576366
303.5541849
306.8008739
306.4707634
303.156329
300.758574
303.4323525
310.1348049
316.2256596
311.4957156
308.6180327
304.0482654
303.3172763
300.7204542
305.1339128
304.5477138
310.0037355
304.7797969
301.9374898
314.8205086
314.8395151
318.9953726
313.5384906
313.2312379
326.7549549
329.3394893
334.2947653
303.6955724
302.7240476
305.2245515
304.0453044
302.0939692
297.7216394
296.7336386
297.4316615
303.9002522
304.4595931
299.2187225
293.7123083
296.8024811
301.8095928
305.3894734
307.8198726
305.3369061
306.6961684
304.7349689
299.7248658
299.4782044
301.4643591
297.7337817
308.7123177
313.3688565
319.744626
323.8485721
319.7155012
321.4810954
316.1194577
308.1197203
307.8923398
304.6222709
303.5092754
304.2235461
307.9730464
312.9775894
311.3970985
306.2047583
299.1902792
303.512836
305.5580423
306.5466231
307.5330444
303.6706206
304.5306854
307.4501481
300.9348831
305.0327903
308.9049604
305.3147308
302.5149004
302.5317983
300.1471315
305.478902
302.8218713
315.606428
322.4647378
323.5697337
326.357821
295.7042162
300.1007954
299.3168851
299.7515753
298.2136716
299.8827851
296.3233893
297.7064091
301.324668
304.185292
304.0252909
299.9375323
303.886736
299.751143
301.3308864
299.3541371
298.2292727
293.9451362
290.0764259
294.3112055
303.8586926
302.9450232
301.4234377
303.6372864
306.4978082
306.1343505
303.4610968
298.3175716
306.6014486
310.0274793
301.9467592
300.5709495
301.3714144
297.992564
296.8612227
298.4858778
302.6249906
300.5953375
297.1596794
298.0312477
300.7343622
298.0888833
289.1977197
292.4325515
289.6369294
289.6954315
288.4956255
295.7980231
300.8881545
302.678862
302.3990266
304.8207668
307.347094
306.9196875
305.1410273
309.9989171
309.2229338
315.742084
312.4051102
317.1417783
297.9096116
296.9464447
295.2670466
291.152945
294.9680872
293.9733979
291.0774952
288.2685956
292.0065606
290.998627
294.1905181
297.5564931
296.4945239
298.8349473
300.9160395
302.9637536
304.1698078
304.8044858
301.6794572
303.2408542
301.9158857
301.9909421
300.9653762
304.1240759
305.2669111
303.1207894
303.4665826
305.1234685
313.8781226
309.4508692
297.4306848
296.1948375
296.4955352
296.6391125
297.184816
294.6909653
295.25119
295.2331053
295.2391194
298.1983033
293.6409114
297.5080449
298.9348468
298.8346804
300.3909392
297.8223709
300.4880008
302.3607556
307.7521359
306.8339777
304.1744157
301.6400384
305.6951057
299.1973183
298.7073853
303.5535883
307.6627028
311.5372823
304.3047599
310.0087516
)
;

boundaryField
{
    flow
    {
        type            calculated;
        value           nonuniform List<scalar> 
55
(
668.840422
657.041561
639.0462975
623.4129358
589.6619929
592.7537635
560.1635563
531.036901
520.5653979
501.5294708
465.0062986
440.189878
430.4652796
402.6020231
391.3763287
371.1844524
343.5216158
346.1535865
334.2947653
316.1194577
326.357821
310.0274793
317.1417783
309.4508692
310.0087516
297.4306848
296.1948375
296.4955352
296.6391125
297.184816
294.6909653
295.25119
295.2331053
295.2391194
298.1983033
293.6409114
297.5080449
298.9348468
298.8346804
300.3909392
297.8223709
300.4880008
302.3607556
307.7521359
306.8339777
304.1744157
301.6400384
305.6951057
299.1973183
298.7073853
303.5535883
307.6627028
311.5372823
304.3047599
310.0087516
)
;
    }
    obstacle
    {
        type            calculated;
        value           nonuniform List<scalar> 0();
    }
    frontAndBack
    {
        type            empty;
    }
    procBoundary3to1
    {
        type            processor;
        value           nonuniform List<scalar> 
36
(
688.3909811
650.8960532
651.1060482
665.2015962
662.424261
662.424261
552.011098
564.125619
565.2872867
593.5583998
598.8403004
609.9287001
609.9287001
443.7599289
440.6345443
454.9985184
478.7293542
496.9519012
496.9519012
353.6893433
366.0621867
365.8378171
377.6593079
385.0102371
414.5804233
414.5804233
316.4397399
316.6156178
318.7720771
322.83443
326.9688578
333.8759055
336.5662471
336.5662471
306.9760402
306.9760402
)
;
    }
    procBoundary3to2
    {
        type            processor;
        value           nonuniform List<scalar> 
19
(
301.9385357
298.2762247
308.47919
304.5691942
299.4755825
299.6904066
290.2544772
304.7440534
303.6703004
302.7888592
303.8528188
297.9678514
304.3070563
302.5168675
308.9246626
298.3103379
301.738199
296.5725524
293.8920052
)
;
    }
}


// ************************************************************************* //
