/*--------------------------------*- C++ -*----------------------------------*\
| =========                 |                                                 |
| \\      /  F ield         | OpenFOAM: The Open Source CFD Toolbox           |
|  \\    /   O peration     | Version:  2406                                  |
|   \\  /    A nd           | Website:  www.openfoam.com                      |
|    \\/     M anipulation  |                                                 |
\*---------------------------------------------------------------------------*/
FoamFile
{
    version     2.0;
    format      ascii;
    arch        "LSB;label=32;scalar=64";
    class       volScalarField;
    location    "0.002";
    object      linearKE;
}
// * * * * * * * * * * * * * * * * * * * * * * * * * * * * * * * * * * * * * //

dimensions      [1 -1 -2 0 0 0 0];

internalField   nonuniform List<scalar> 
654
(
23.05375317
17.24602903
17.49408952
8.908186909
9.443166489
22.64120537
14.62588138
13.69839734
15.75435376
9.073601043
14.05013853
14.09241259
18.33568617
10.68654812
14.30898144
15.37783461
14.80981488
16.10156179
12.19184566
5.551920806
10.06879701
9.373476246
7.962108047
13.97711072
11.91835453
19.45214179
10.98934539
15.66765594
20.9129681
21.13239417
14.47269278
18.04984059
26.28851134
13.89706376
12.56292454
5.258891411
5.31206055
15.77266918
11.13055866
9.391474848
2.287195263
9.067186766
11.58478727
10.35236769
16.42800717
9.044180895
10.19265464
8.548767145
23.0005398
16.54968931
12.15935744
16.43546928
23.39197822
16.51979304
17.67697538
5.41456446
6.756819973
11.72140004
6.096792751
7.485383025
11.58627964
7.52149196
8.590040117
8.363124327
7.227090401
9.257994645
13.48179053
8.685326325
10.50491371
9.064248868
15.11601741
14.45698393
9.118643434
11.702436
8.266853299
19.91358487
12.93750102
15.43395824
21.33742298
15.3927056
21.45336383
16.59757345
23.20131273
15.18925717
8.637339126
8.043950171
10.39876862
3.054165202
9.340510001
7.003102077
5.692156916
9.017151193
13.54938817
11.7916421
13.92275272
10.24256243
6.751627211
8.426138546
9.305793213
14.15236084
10.2231319
9.427041418
11.81619905
5.981800801
15.68306191
29.94313561
14.70041034
12.13501853
9.980003753
8.861068763
22.75128662
20.44398977
18.04431412
19.75456046
10.43322287
11.42183551
5.507250334
8.265947027
10.28895973
7.788061144
9.812035684
13.62197216
12.78132472
9.823544015
7.277775575
8.422100903
3.87800701
9.568812643
7.815342608
8.051793174
7.500223052
12.88072906
11.76833106
9.451523132
14.17521281
15.30586728
21.36619538
11.81181157
8.907152228
18.01175666
13.18388413
17.76256752
10.24282501
15.54251754
7.834379429
8.149388618
5.126229713
8.245839514
6.751426044
6.246449585
7.300373694
12.26820425
6.17676151
6.662472775
9.899211232
6.603647987
10.08658782
6.979614517
4.164902339
6.391869228
9.598363546
8.027481374
4.349134027
11.7571913
6.808740792
4.474188329
16.51188861
16.38497064
15.72426443
6.9655332
14.36668941
20.21639026
16.36921846
13.6836035
3.5559062
8.4657729
6.365667868
9.331488369
2.959821081
6.061486877
5.983860273
6.825366352
7.846793045
6.562960134
15.80195931
4.902439662
18.36354772
6.263169769
11.84895091
8.890742842
8.631151216
8.200667773
17.60071973
8.545349424
11.23314196
9.968586873
13.71054577
11.67340144
11.79784499
13.39670344
11.49919866
14.01612811
16.89094826
13.23235903
14.69805606
7.393183539
4.575511739
3.082137405
4.765826288
5.679463665
6.506979919
9.05903891
8.427870131
6.240327421
11.67661
12.19848889
11.35921646
15.57589621
6.210010788
6.994851693
4.036861269
10.29711187
13.22569589
6.675857937
10.2257968
7.015600712
15.66935727
5.015859403
7.876314826
17.07818049
11.57652966
8.779777844
6.128888576
18.4751619
7.870770923
5.895410165
9.242367361
7.104931913
6.08010686
4.307005309
11.14887093
8.786959447
6.349697077
6.069292239
10.15921499
5.633424148
2.813865106
10.72159094
5.342927939
4.952758784
5.947553776
4.3306086
1.835577394
9.350816745
7.934072127
7.698640138
7.894644781
10.32888961
8.945121948
8.518867858
8.887257662
14.25106937
11.32221172
10.12297116
9.794604074
8.699435029
7.274188172
13.3242771
5.802213215
5.352784721
4.638624758
2.428499309
7.433918547
10.69920292
5.418654777
5.847915275
4.194821953
6.019763464
3.411719471
12.04658673
6.326288577
9.154249499
14.58608031
8.350246613
3.859708849
14.86759833
5.193642547
10.90786632
13.74072834
8.220917417
11.47940211
9.664820154
13.32857698
11.02936134
7.458118351
13.69862981
4.814383745
6.641536376
6.768805497
9.672267791
9.211589565
6.800778847
4.85688226
10.67655047
8.972938552
6.889179835
11.559736
7.687928737
7.380452973
5.203376227
12.63349892
9.499466887
4.043781437
2.253866631
7.584845268
8.098221367
8.076446777
5.401682788
7.197030767
4.576680284
3.234036617
11.84387767
7.820156124
11.39806723
2.147645085
6.215065981
5.93755318
5.609581159
6.227012334
12.47747108
11.95320489
2.046904551
9.556412084
10.24106931
14.12622618
6.189926483
4.678898615
6.175383122
8.324406727
8.363987796
4.444884704
6.616999087
6.56420547
8.843210777
8.337796018
11.93586341
10.20177947
8.421751727
6.706834529
9.350951149
10.94064855
10.93411338
10.6508491
4.837515705
10.52659291
5.882764613
10.19790152
11.85668672
10.17490452
7.334335679
6.149770521
9.574814713
9.251000972
11.12666664
10.26193451
8.890255751
5.17556252
8.534483964
7.278877838
7.054192728
6.988074766
9.877989537
6.861284587
7.408690094
8.253721366
11.70664777
8.955401929
8.869784762
5.961884819
7.364662993
10.36144946
12.78938752
7.351817129
12.5447966
5.766666606
7.706295378
7.090784185
8.408821641
6.016800087
10.04617099
9.034971795
5.952279268
3.022694928
8.73765854
12.03374163
2.279746671
11.97901333
4.691924325
7.7068231
8.872576204
5.259542921
6.196029226
10.67475509
9.63924772
1.904367219
5.71786004
3.656094633
13.81781463
9.793957094
2.495876331
10.2371328
4.016149373
6.925224226
5.813099467
10.99970587
6.129141131
9.408472893
4.620914857
9.521366118
8.142365058
7.753392821
4.480741082
8.787133697
6.217599077
9.715962784
3.368335391
9.279074979
6.58568688
7.696581796
2.805203202
9.585943889
6.133949046
8.738186692
13.1856473
10.79469357
6.555088189
9.812243542
4.866302807
9.424507484
4.586829892
11.27449567
15.01664662
4.766991069
15.89664363
8.693449985
14.79281483
8.845059947
8.639367933
10.08619709
11.24717087
3.876171223
9.670395552
7.119511254
6.721889717
6.755861738
7.159104904
5.613738317
12.2488443
3.169958039
12.79638562
7.045568498
3.474168564
4.881217388
9.79006884
9.097207771
8.932029865
13.18832886
6.518229645
10.11905083
13.46224077
7.61832865
7.218064868
11.81730958
3.459062744
7.345176294
7.600491921
8.052869041
11.96887242
6.202972262
5.334029045
12.10854476
13.02242916
9.353303237
5.403742327
5.532097474
3.202931996
13.25692645
6.603602842
11.54126817
10.80439981
9.310192263
6.169150781
9.279987665
6.182644708
9.016624139
9.511343854
14.05619197
6.552812777
9.165893562
4.57457544
9.144466582
11.7982368
6.745302373
11.83715828
9.624725562
10.81198187
8.65039243
7.358985009
5.30063462
8.776514201
11.48660914
8.721660241
13.02952757
2.084684076
4.697703585
5.556833153
9.998692366
4.111078175
4.328800264
6.366975818
5.386283162
8.994105683
7.246244867
10.50141353
6.527074731
3.95579132
12.09119196
7.768085373
8.106844443
14.66171338
5.624292539
4.100121168
6.274041983
6.598987571
9.168207401
4.968230948
7.262081075
7.872704844
6.739207217
7.799937588
8.592801791
7.886163709
6.76227155
9.02827308
8.702350502
7.329847725
12.91178283
4.721617468
12.59994065
10.7077203
10.34147478
9.971031595
7.717714995
4.954246474
8.379318802
10.34077259
8.839239303
13.15025673
7.40909698
6.295698097
6.573129672
11.54522295
9.210621471
2.393399657
10.56063808
5.847429482
10.48358878
12.4019353
7.701276818
5.490362776
6.340631029
4.100757503
3.457265897
9.942947495
7.152065274
8.453719727
10.18272004
11.23386694
6.690498984
10.56043006
7.405582478
9.168405207
9.449019431
1.648409608
10.1401949
8.287879342
11.13652146
4.883629608
8.232532771
7.300412502
10.45877683
9.393257932
7.545282507
10.11722938
8.149423389
9.50651855
4.608139159
4.645182697
6.809485339
7.557991131
11.25121542
14.27577604
3.728858904
7.548234761
11.87545934
8.631332761
5.519369165
9.367209405
9.48586965
6.208463346
4.596327491
0.9353608362
8.911343392
4.786427304
6.090623876
7.634842529
9.474205442
11.32447465
3.502921351
2.470512344
16.72716665
4.022397685
9.485663473
8.144676843
6.16042297
9.040944695
6.037554835
8.656131308
5.114052801
9.411721989
15.01987305
11.45121532
10.88226518
7.434342737
12.15217088
4.530961067
8.780707463
4.158718373
10.56909295
4.902682111
8.157945797
7.495788209
8.379025829
6.419113068
6.582576223
6.837474796
11.29564177
5.636728826
9.414340952
10.18260487
5.727235492
7.380804237
7.797626509
7.607113342
)
;

boundaryField
{
    flow
    {
        type            zeroGradient;
    }
    obstacle
    {
        type            calculated;
        value           nonuniform List<scalar> 0();
    }
    frontAndBack
    {
        type            empty;
    }
    procBoundary3to1
    {
        type            processor;
        value           nonuniform List<scalar> 
36
(
16.48452383
17.96018002
11.80293742
14.58492271
13.53619869
13.53619869
9.531338479
16.51264981
13.95566747
14.19106179
18.21575248
23.34869372
23.34869372
12.43307133
12.87980689
11.88585541
12.28126408
11.47582099
11.47582099
8.287482367
8.586191809
6.411845511
11.5544306
13.513478
11.30506735
11.30506735
8.530582531
13.80605044
11.53249514
7.872481697
7.675164222
12.76168307
6.487293156
6.487293156
8.342283699
8.342283699
)
;
    }
    procBoundary3to2
    {
        type            processor;
        value           nonuniform List<scalar> 
19
(
6.802988526
8.58061957
12.07633121
10.43225296
11.56157294
5.642137706
5.946961389
6.99124694
5.811314884
6.224716695
7.415453498
2.035211325
6.121879332
4.509879328
4.196662487
9.621843928
5.532391639
7.307376444
4.82377857
)
;
    }
}


// ************************************************************************* //
