/*--------------------------------*- C++ -*----------------------------------*\
| =========                 |                                                 |
| \\      /  F ield         | OpenFOAM: The Open Source CFD Toolbox           |
|  \\    /   O peration     | Version:  2406                                  |
|   \\  /    A nd           | Website:  www.openfoam.com                      |
|    \\/     M anipulation  |                                                 |
\*---------------------------------------------------------------------------*/
FoamFile
{
    version     2.0;
    format      ascii;
    arch        "LSB;label=32;scalar=64";
    class       volScalarField;
    location    "0.002";
    object      linearKEMean;
}
// * * * * * * * * * * * * * * * * * * * * * * * * * * * * * * * * * * * * * //

dimensions      [1 -1 -2 0 0 0 0];

internalField   nonuniform List<scalar> 
654
(
14.00918
14.78007583
14.97506123
14.85686979
14.84602932
14.95205633
12.93036926
13.53616318
13.86682511
14.37229664
14.58882737
14.74901838
14.96519928
15.00164413
15.18502474
15.01032882
15.00012476
10.04825784
10.68352175
10.95360917
11.37379074
11.87748943
12.54530736
12.7741649
13.09359196
13.6873671
14.16486514
14.48848098
14.82068196
15.03228418
14.9851597
15.10651724
14.99532946
8.40127185
8.700069164
8.740485609
8.995276166
9.195248999
9.363234599
9.493810241
9.888829235
10.35553493
10.77730567
11.35240864
11.69028625
12.33369355
12.60874023
12.90714858
13.30908031
13.88117254
14.27983576
14.60167253
14.89067976
14.88394889
15.07888832
7.902799109
7.915822126
7.884266901
8.005454982
8.131399805
8.137163155
8.297723559
8.251844801
8.439601485
8.635473572
8.816325871
8.886648867
9.23116891
9.450145451
9.71345735
9.951649108
10.20841545
10.45495967
10.95181827
11.24464074
12.04333428
12.43470733
12.9532671
13.30455747
13.75271682
13.99429044
14.1744147
14.73104804
14.92105568
7.985591948
8.005847219
8.001939921
8.007356459
7.962428834
7.89763216
8.10109978
8.202501047
8.322779903
8.548091554
8.601412459
8.712286721
8.883331705
9.074337485
9.114497265
9.381000439
9.424670547
9.563078685
9.894481883
10.19382126
10.61642132
10.97972052
11.53395635
11.79946365
12.28632895
12.91229019
13.5206009
13.9123058
14.07818244
14.49070025
7.924682207
7.899945782
7.818554857
7.961147291
8.105829713
8.108444836
8.263931255
8.244296341
8.365368399
8.348095091
8.365824726
8.534855261
8.60240425
8.650446297
8.571041141
8.700606649
8.854357686
9.179478098
9.504511818
9.817098124
10.02882464
10.34426312
10.73456093
11.32920898
11.95049538
12.33130807
12.98707202
13.49926184
13.92842406
14.25299068
8.020427549
8.086388425
8.191824824
8.227439719
8.288169171
8.253708231
8.217480139
8.251635078
8.092411342
7.995610997
8.098327791
8.155118624
8.136166799
8.357839964
8.641621129
8.75878094
9.007061967
9.117082865
9.15260547
9.340346121
9.766000018
10.00759501
10.15572181
10.60313517
10.84812428
11.21434616
11.79757326
12.28785984
12.90398541
13.43710942
7.948571921
8.038824641
8.164567432
8.01392546
8.014508104
8.081025722
8.129265771
8.094610429
8.242240533
8.264438388
8.133537332
8.202308852
8.346373171
8.303813911
8.358707408
8.46044644
8.536174571
8.572723587
8.922082413
9.00256468
9.201256123
9.320533938
9.805128801
9.815003758
10.16124815
10.70447636
11.07994967
11.66612866
12.17944407
12.60752573
7.88421745
7.772040906
7.778242303
7.711407383
7.805434998
7.869857625
7.976195224
7.927826873
7.983347622
8.060273982
8.130392068
8.079957781
8.02015877
8.121283394
8.19014468
8.246844879
8.465277926
8.624602529
8.638749058
8.701115487
9.071016268
9.309297796
9.584186405
9.999033425
10.2038575
10.50322549
10.97679193
11.19172157
11.51193968
11.8377023
7.865941673
7.874473232
7.954855614
7.909477111
7.947440834
7.86686129
7.815374979
7.899771761
7.992117736
7.963175538
7.918013926
7.899431277
7.994286746
7.976706014
7.961865543
8.040315052
7.956569137
8.273844542
8.581519799
8.815078893
8.779149469
8.962773527
9.154236221
9.375711386
9.633191639
9.81205957
10.27252169
10.56228606
11.15315485
11.6194368
8.007556999
7.923481924
7.757523416
7.879895768
7.897231268
7.978895791
7.939846281
7.875998102
7.810967193
7.796851512
8.004648764
8.089981212
8.072064994
8.031305519
8.168535317
8.343985078
8.38714148
8.22211031
8.258910064
8.165873605
8.588825248
8.763394172
8.897855543
9.107026952
9.300776752
9.569573083
9.72038274
10.14694992
10.45147029
11.01732795
7.781130288
7.866114465
7.873038432
7.80773993
7.654097122
7.651071138
7.702435899
7.704823664
7.746548927
7.811808962
7.710169933
7.7837703
7.971873583
8.015815113
8.044666893
7.985363617
8.098608831
8.188588804
8.177650007
8.376763834
8.335184636
8.324508541
8.411556288
8.578056186
8.792909092
9.102057368
9.476551148
9.694342316
10.06495499
10.28306972
7.830196231
7.816181693
7.797660364
7.796647302
7.881974355
7.821523603
7.744153555
7.624185795
7.68198347
7.764678043
7.748653249
7.686295002
7.655972346
7.716949087
7.797809822
7.817428927
7.924631933
8.044513585
8.017661371
8.113230026
8.104346403
8.286106597
8.42808278
8.577650012
8.721290304
8.793153564
8.963446582
9.288473671
9.483491627
9.866705693
7.608556531
7.697251696
7.688612003
7.735730234
7.5794032
7.757120384
7.784998655
7.874218899
7.83824421
7.833914153
7.829306705
7.964620786
7.871698734
8.001270958
7.974729006
7.931350653
7.966613423
7.938199571
7.901917654
7.964486989
7.963451159
8.142658921
8.195036887
8.265464638
8.459305776
8.703778306
8.881448097
9.020510809
9.193946068
9.456044616
7.868633087
7.750954334
7.742258656
7.858607647
7.913299336
7.893959135
7.904804349
7.944399723
8.128337022
8.135856127
8.09178815
8.079941241
8.154950154
8.103886532
8.161811548
8.14682409
8.175870621
8.187004295
8.234438149
8.336530211
8.28665502
8.370481285
8.33202936
8.449385064
8.455097079
8.493742243
8.520195281
8.859710697
8.966708514
9.198042027
8.006936974
8.077791926
8.153135999
7.93557737
7.936650989
7.94688952
7.924478113
7.848808522
7.779639916
7.812205048
7.918031393
7.816217478
7.76744737
7.724420076
7.7834795
7.889487185
7.951025515
7.948415472
8.082802778
8.173198851
8.291229016
8.159368625
8.24385675
8.201409821
8.198320861
8.315655205
8.351786839
8.449891897
8.398518433
8.75257149
7.895107861
7.860143515
7.943115451
8.045814288
8.035199412
8.020603319
7.974998504
8.007592171
7.822352183
7.823689968
7.758496855
7.813937456
7.902876995
7.95579044
7.862776998
7.842986506
7.827177365
7.865340536
7.890898814
7.838031905
7.912580993
8.026993109
8.090060381
8.130423953
8.360353423
8.259874896
8.399011698
8.43352199
8.430350488
8.439581342
7.681929098
7.636520705
7.658415625
7.624286948
7.590412695
7.59715413
7.701220891
7.800034099
7.90081382
7.741240663
7.815201966
7.80890503
7.870079656
7.847327896
8.053113113
8.00541965
7.943348256
7.938843437
7.922366208
7.924497125
7.954512975
7.88679196
7.8862799
7.953211313
7.950939239
8.012323813
8.013242705
8.286979769
8.546054515
8.551358482
7.765684279
7.662073585
7.637596942
7.628969891
7.722042751
7.740884845
7.678131625
7.668006339
7.761671849
7.800719826
7.879551863
7.822591183
7.743844661
7.72950162
7.719346176
7.725143437
7.845053087
7.863075196
7.997785138
7.957592471
7.91054434
7.949911248
7.904858682
7.909448415
8.119507953
8.133582464
8.09462796
8.050092555
8.166603078
8.300263088
7.832094036
7.827522797
7.729670487
7.81487119
7.803743012
7.851788679
7.919736483
7.970456216
7.897269066
7.974862915
7.972134008
7.972280998
8.049451255
7.943861049
7.933091864
7.987084794
7.918752464
7.874842398
7.771746345
7.694272427
7.79185313
7.824944175
7.913182174
7.916592699
7.983931693
8.036936571
8.115406429
8.407698998
8.401381012
8.470849012
8.016798431
8.02441973
8.069731564
8.107026937
8.096142219
7.942942262
7.883955122
7.80417145
7.840112495
7.728576696
7.658712995
7.701371664
7.804350284
7.890998974
7.925142792
7.863300198
7.918159272
7.922564624
7.951110019
7.986403675
7.982342658
8.119820151
8.126500608
8.067121631
8.040528971
8.0938573
8.132779022
7.950469879
7.983552523
8.087052633
7.965451754
7.878804101
7.948065369
7.898469776
7.911632616
8.009179695
8.071097321
7.995035798
7.951973597
7.961825461
7.966043915
8.028379175
7.942973959
7.883998761
7.847253757
7.856660222
7.860184588
7.960759747
7.973445498
8.013734903
7.987421767
7.832407615
7.949908605
8.117367826
8.208927609
8.071044093
8.161961646
8.213184233
8.291845928
8.264991012
7.598862498
7.706842417
7.687486361
7.746674344
7.688554407
7.707815018
7.731217981
7.712457021
7.804173163
7.921334301
7.875731369
7.772582749
7.763773585
7.730949715
7.727107862
7.854895406
7.752341723
7.687045953
7.622051627
7.725031934
7.777954234
7.87262903
7.839484881
7.820015809
7.722354459
7.78565882
7.756466158
7.85087867
7.928788489
8.037410281
)
;

boundaryField
{
    flow
    {
        type            calculated;
        value           nonuniform List<scalar> 
55
(
14.00918
14.95205633
15.00012476
14.99532946
15.07888832
14.92105568
14.49070025
14.25299068
13.43710942
12.60752573
11.8377023
11.6194368
11.01732795
10.28306972
9.866705693
9.456044616
9.198042027
8.75257149
8.439581342
8.551358482
8.300263088
8.470849012
8.087052633
8.264991012
8.037410281
7.598862498
7.706842417
7.687486361
7.746674344
7.688554407
7.707815018
7.731217981
7.712457021
7.804173163
7.921334301
7.875731369
7.772582749
7.763773585
7.730949715
7.727107862
7.854895406
7.752341723
7.687045953
7.622051627
7.725031934
7.777954234
7.87262903
7.839484881
7.820015809
7.722354459
7.78565882
7.756466158
7.85087867
7.928788489
8.037410281
)
;
    }
    obstacle
    {
        type            calculated;
        value           nonuniform List<scalar> 0();
    }
    frontAndBack
    {
        type            empty;
    }
    procBoundary3to1
    {
        type            processor;
        value           nonuniform List<scalar> 
36
(
13.60006085
14.82591901
14.66341025
14.66191437
14.34202711
14.34202711
13.49047531
13.6480948
14.1514149
14.35344437
14.51654499
14.71301402
14.71301402
10.53248247
10.99120421
11.52151675
11.93838327
12.25080085
12.25080085
8.590900088
8.50928249
8.925757918
9.071405769
9.217983844
9.658796619
9.658796619
8.075753792
8.073282727
8.108011832
8.195542169
8.214426271
8.237392086
8.264363651
8.264363651
7.796808617
7.796808617
)
;
    }
    procBoundary3to2
    {
        type            processor;
        value           nonuniform List<scalar> 
19
(
8.038214191
7.808068576
7.965869312
8.002590015
7.797664376
8.064420212
7.796497085
7.800465454
7.850902307
7.641260952
7.827661615
7.891784786
7.952370001
7.732221155
7.626456036
7.876724251
7.855985771
7.940606671
7.724700478
)
;
    }
}


// ************************************************************************* //
