/*--------------------------------*- C++ -*----------------------------------*\
| =========                 |                                                 |
| \\      /  F ield         | OpenFOAM: The Open Source CFD Toolbox           |
|  \\    /   O peration     | Version:  2406                                  |
|   \\  /    A nd           | Website:  www.openfoam.com                      |
|    \\/     M anipulation  |                                                 |
\*---------------------------------------------------------------------------*/
FoamFile
{
    version     2.0;
    format      ascii;
    arch        "LSB;label=32;scalar=64";
    class       volVectorField;
    location    "0.002";
    object      momentumMean;
}
// * * * * * * * * * * * * * * * * * * * * * * * * * * * * * * * * * * * * * //

dimensions      [1 -2 -1 0 0 0 0];

internalField   nonuniform List<vector> 
654
(
(0.01448607542 0.004299992149 1.427449826e-05)
(0.01486417185 0.004554686376 1.784141531e-05)
(0.01515378275 0.004567686862 4.345001354e-05)
(0.01511926861 0.004524573991 -1.803274048e-05)
(0.01516681648 0.004542815627 9.699546264e-05)
(0.01533489686 0.004540972773 1.697245052e-05)
(0.01299671549 0.003202775087 7.71171915e-05)
(0.01362207501 0.003422317504 4.493766644e-05)
(0.01398751948 0.003690250425 -5.095442052e-05)
(0.01453787429 0.003964569511 -2.736590221e-05)
(0.01471782153 0.004195643448 2.590261713e-05)
(0.0149434277 0.004318476291 -5.189923172e-05)
(0.01517951454 0.004424229672 -7.367970972e-05)
(0.01518180583 0.00442689561 1.786657708e-05)
(0.01537304495 0.004558058248 -3.246549098e-05)
(0.01531370495 0.004491405062 -2.287266937e-05)
(0.01533161279 0.004523328861 -4.615521474e-05)
(0.01028644933 0.001369057709 1.319807102e-05)
(0.01085838404 0.001654137598 1.402663725e-05)
(0.01115657938 0.001900751864 4.840322637e-05)
(0.01152573335 0.002148412049 1.723435388e-05)
(0.01205863353 0.002415748837 -1.754339395e-05)
(0.01268126596 0.00282292069 -3.552713777e-05)
(0.01286459689 0.003014096382 1.439828493e-06)
(0.01320686737 0.003210183217 3.187242805e-05)
(0.01373832604 0.00353928383 2.164270186e-05)
(0.01423385975 0.003799071045 2.400293477e-05)
(0.01454850381 0.004092334744 2.853139705e-05)
(0.01491632008 0.004240771044 2.418974102e-05)
(0.01509649637 0.004408287171 -3.607336684e-05)
(0.01513302707 0.004397010724 -2.183071661e-05)
(0.01529446241 0.004428234888 -3.411733625e-05)
(0.01519680164 0.004430241417 -1.292236652e-05)
(0.008801249955 0.0004785517513 -2.16709207e-05)
(0.009121376801 0.0005114593857 -1.127359567e-05)
(0.009131681935 0.0005536452942 -8.249354561e-06)
(0.00935493742 0.0007112886529 2.478280698e-05)
(0.009547527545 0.0008107598321 1.866372392e-05)
(0.009691219162 0.0009340347983 -7.805447222e-06)
(0.009772787125 0.001046975253 -2.818383401e-06)
(0.01012643166 0.001273686645 -3.744015309e-05)
(0.01058679023 0.001419154062 1.987754155e-05)
(0.01097803678 0.001719614091 1.300384321e-05)
(0.01148809981 0.001974801427 -3.556602316e-05)
(0.0118068825 0.002238750021 -4.901270929e-05)
(0.01242261736 0.002686770396 -6.157338686e-05)
(0.01269559452 0.00290705585 -6.007824699e-05)
(0.01303992576 0.003049810247 -0.0001062771771)
(0.0134208501 0.003311175236 -5.114517738e-05)
(0.01394946041 0.003627825769 -6.099357984e-05)
(0.01433830909 0.00395457933 2.693047851e-05)
(0.01472428414 0.004051318109 1.648110495e-05)
(0.01501945041 0.004299922092 2.576694492e-05)
(0.01503550323 0.004340603909 5.325919625e-05)
(0.01525029027 0.004369942306 9.624339525e-05)
(0.008371651286 5.260175972e-05 5.124002535e-05)
(0.008383453108 7.129010714e-05 2.867598096e-05)
(0.008341075712 0.0001014870818 3.519616856e-05)
(0.008456786914 0.0001375874672 9.690709381e-06)
(0.008554657698 0.0002182023809 -1.389627054e-05)
(0.008557693669 0.0002471282005 -3.509531614e-05)
(0.00871707835 0.0002902282391 -1.646629525e-06)
(0.008672842439 0.0002968248301 -6.587811271e-06)
(0.008838167994 0.0003703460165 -2.566174556e-05)
(0.009017397624 0.0004740839193 -3.80838998e-05)
(0.009170815429 0.0005514003461 -2.544680055e-05)
(0.009247227117 0.0006302909943 1.063080013e-05)
(0.009583263109 0.0007424813214 7.258119437e-06)
(0.009797259721 0.0008436940529 -1.670326268e-05)
(0.0100394793 0.0009602106451 -4.796675577e-05)
(0.0102384018 0.001169397998 -7.737822576e-05)
(0.0104907778 0.001305099132 -4.570041613e-05)
(0.01070107863 0.00158789617 6.130798031e-06)
(0.01114824081 0.001847325277 2.681236521e-05)
(0.01144179635 0.002132224941 4.924341717e-05)
(0.01215453008 0.002511528296 -2.200732062e-05)
(0.01259015447 0.002687195589 3.561274575e-05)
(0.01309489572 0.002909864252 -1.200515559e-05)
(0.01339656175 0.003212591188 -3.916168438e-05)
(0.01376021412 0.003545184083 2.228252481e-05)
(0.01402127672 0.003816094093 6.620375137e-05)
(0.01420541541 0.003928215789 7.417360824e-05)
(0.0147802845 0.004124771703 4.87758022e-06)
(0.01503820933 0.004271697613 7.773877513e-06)
(0.008462564873 0.0001037722078 -5.114320238e-05)
(0.008479229154 0.0001113458548 -3.658598784e-05)
(0.008492178793 0.0001089825279 -2.66518376e-07)
(0.008476482192 0.0001066436237 -2.491698132e-05)
(0.008415041561 0.0001099243128 -4.223788366e-07)
(0.008312879436 0.0001589770821 -6.393093848e-07)
(0.008530178526 0.0001541296782 -6.599077941e-07)
(0.008616681996 0.0001987318002 -1.159565591e-05)
(0.008754294406 0.0002167600156 1.364743776e-05)
(0.008982827663 0.0002529463708 1.614745991e-05)
(0.009023282003 0.0003374310939 4.662616916e-06)
(0.009149182072 0.0003855541689 2.063310783e-05)
(0.009301152 0.0004863450553 -1.018255462e-05)
(0.009466192736 0.0005595716551 3.562364392e-06)
(0.009505053975 0.0006808812026 3.697509333e-05)
(0.009739481925 0.0008121095612 2.415878049e-05)
(0.009737087673 0.0009270977679 -3.615123643e-06)
(0.009882377092 0.001095631823 -2.222553684e-06)
(0.01018744609 0.001281372039 -3.066872477e-05)
(0.01046505966 0.001453267942 -3.765671627e-05)
(0.01082018821 0.001654111506 1.044525374e-07)
(0.0111795883 0.00193162096 -3.08032383e-05)
(0.01168393065 0.002283361944 -5.275115673e-05)
(0.01194967505 0.002490664525 5.40383706e-05)
(0.01237189153 0.00277542393 4.272470161e-05)
(0.01295217405 0.00309521499 -5.649388664e-05)
(0.01352927865 0.003352796237 -2.984726348e-05)
(0.01397598573 0.003589097195 -3.912611388e-05)
(0.01413664573 0.003814584514 -3.50865967e-05)
(0.01454375883 0.003954029955 3.662357794e-05)
(0.008390042761 6.152468544e-05 -2.193231444e-05)
(0.008346645643 6.60475408e-05 -9.195595404e-06)
(0.008251697209 9.394475607e-05 -1.152966719e-05)
(0.008407090019 0.0001004906832 -3.50869825e-06)
(0.008545837516 0.000114420079 -1.765170205e-05)
(0.008573907151 7.732844467e-05 7.088025011e-06)
(0.008734665207 0.0001067590607 1.984458715e-06)
(0.008708967416 8.22557277e-05 1.285778472e-05)
(0.00878185884 0.0001535829551 1.33382798e-05)
(0.008792365015 0.0001732631245 2.051057942e-05)
(0.00882355169 0.0002118971381 -2.207616794e-05)
(0.00891125178 0.0003033461344 -6.188320797e-05)
(0.008990054426 0.0003565572904 -5.135321463e-05)
(0.009013743544 0.0004525557716 -4.02041619e-05)
(0.008925832997 0.0005385573378 8.339589995e-07)
(0.009068626629 0.0006008259972 3.095591309e-05)
(0.009217880895 0.0007282255907 1.989107694e-05)
(0.009484070132 0.00090751856 -3.093348748e-05)
(0.009829250998 0.00100921361 -4.074195068e-06)
(0.01011866186 0.001142916541 2.930519367e-05)
(0.01032432377 0.001360976853 4.575778255e-06)
(0.01059772849 0.001572065199 4.662438953e-06)
(0.01098189142 0.001837707726 -1.316193061e-05)
(0.01154842658 0.002095956573 -3.693616672e-05)
(0.0121969267 0.00228225705 5.340066946e-05)
(0.01255379529 0.00261329629 2.810477002e-05)
(0.01313155366 0.003042066716 2.327558457e-05)
(0.01362988257 0.003263336718 -1.333771716e-05)
(0.01407348775 0.003471625524 -0.0001260256556)
(0.01437409694 0.00367979404 -9.632895479e-05)
(0.008469419799 5.425154309e-05 1.959327975e-07)
(0.00855549285 4.033519281e-05 -2.728528094e-06)
(0.00867263481 2.609656253e-05 -1.895078734e-05)
(0.008710250558 3.059966942e-05 -2.088941018e-05)
(0.008775917829 6.491485263e-05 -1.427828381e-05)
(0.008695455193 0.0001026818461 -1.679429673e-05)
(0.008651716599 0.0001045412154 -2.378986856e-05)
(0.008693553493 0.0001289369339 -3.574803681e-05)
(0.008523074962 0.0001475980442 -5.63714009e-05)
(0.008431125637 0.000146150175 -5.780949315e-05)
(0.008542343542 0.0001341193269 -4.161597145e-05)
(0.008607958985 0.0001873450499 -2.276787561e-05)
(0.008601308045 0.0002621289989 -8.997304063e-06)
(0.008795908887 0.0003830880721 -1.342732946e-05)
(0.009052147667 0.0004600933356 -2.65591876e-05)
(0.009158835411 0.0005323856394 -1.08493205e-05)
(0.009358572007 0.0006014901909 1.551773007e-05)
(0.009469598982 0.0006600911492 5.341566357e-05)
(0.009472622991 0.0007947584665 -3.187271303e-05)
(0.009667876111 0.0009652150954 -4.911900665e-05)
(0.01005049713 0.001108866705 -1.906300265e-05)
(0.01026155989 0.001276625313 2.988466952e-05)
(0.01038316286 0.001371148496 2.182582197e-05)
(0.01082517274 0.001643422205 -4.29378853e-05)
(0.0110952814 0.001902700588 -4.633539931e-05)
(0.01140957135 0.002135243157 7.872153151e-06)
(0.01196801853 0.002406312865 -3.160093221e-05)
(0.01240954903 0.002734099313 6.027852791e-05)
(0.01296865474 0.002994352702 6.139979885e-05)
(0.01350185447 0.003301733193 -5.137905761e-05)
(0.00843245961 -1.020175077e-05 -2.427511346e-05)
(0.008524926483 3.487507003e-07 -1.62071652e-05)
(0.008625750682 8.541841703e-06 -2.624649885e-05)
(0.008507087432 4.045282814e-05 -2.682429034e-05)
(0.008501153901 4.873287598e-05 -9.087820362e-07)
(0.008578551094 5.918654814e-05 -1.918289949e-06)
(0.008628073376 9.485140147e-05 -2.124968575e-05)
(0.008587349194 7.76855214e-05 -5.186560635e-06)
(0.008702502796 0.0001317665941 -2.229393834e-05)
(0.008700273153 0.0001352354184 -1.165455284e-05)
(0.008563096082 0.0001919917887 -1.628154619e-05)
(0.00862491041 0.0002054781975 -3.340089721e-05)
(0.008746612655 0.0002255178409 -2.584598131e-05)
(0.008721022753 0.0002477928768 -7.232239887e-06)
(0.008761204088 0.0002991383107 -2.550459693e-05)
(0.008834534969 0.0003462051261 -2.492360006e-05)
(0.008918427007 0.0004809304706 -3.053996086e-05)
(0.00893168665 0.0005727133528 -3.218027432e-05)
(0.009252296825 0.0006475792748 -2.824429638e-05)
(0.009317340998 0.0007184287406 -1.217155891e-05)
(0.009525735697 0.0008430567176 -4.375701068e-05)
(0.009638293232 0.001037862631 -2.205216187e-05)
(0.01008864529 0.001253581272 1.205234631e-05)
(0.0100857372 0.001341910578 7.257416272e-07)
(0.01038917322 0.001524273369 5.412083777e-06)
(0.01090911814 0.001793306664 -5.670284025e-05)
(0.01127465425 0.002002543386 -1.77529282e-05)
(0.01185840396 0.002257726009 -3.34347538e-05)
(0.0123787812 0.002536553328 4.38905809e-05)
(0.01275348679 0.002865432487 1.039300855e-05)
(0.008353330513 -3.041777633e-05 -1.33177942e-05)
(0.00824368436 -3.339132087e-05 -4.933886817e-06)
(0.00824681438 -3.113964531e-07 6.961818397e-06)
(0.00819402587 -2.15486712e-05 1.796380772e-05)
(0.008292830581 7.085373055e-06 2.902408874e-05)
(0.008338963822 1.559236576e-05 2.153340264e-05)
(0.008433556201 3.614273398e-05 2.407572027e-05)
(0.008356384955 9.756694767e-05 2.984822329e-05)
(0.008411538013 0.000119192366 3.750724424e-05)
(0.008492822479 0.0001270787218 2.686561708e-05)
(0.008584744663 0.000126765094 2.636422118e-05)
(0.008524138776 0.0001291144739 2.860215227e-05)
(0.008456712192 0.0001648120929 -2.507555557e-06)
(0.008558196193 0.0001738153252 -2.397471477e-05)
(0.008618331493 0.0002633646438 -3.505158666e-05)
(0.008693412789 0.0003178422237 -5.233200104e-05)
(0.008880791086 0.0003801755183 -2.813673522e-05)
(0.009043512104 0.0004375260901 -3.537249166e-05)
(0.009026834709 0.000500532787 -1.059229866e-05)
(0.009081108859 0.0005985055985 -1.772908872e-05)
(0.009453727891 0.0006778536826 -1.741987532e-05)
(0.009684954165 0.0007995822929 -4.357062106e-05)
(0.009915614633 0.001011749579 -5.799754019e-05)
(0.01031940214 0.001174858686 -4.739259787e-05)
(0.01052843886 0.001271871648 -8.073841176e-05)
(0.01084574949 0.001400660855 -6.602492127e-05)
(0.01125333593 0.001701882625 -0.000113276213)
(0.01144579922 0.001976545519 -0.0001183720243)
(0.01166499556 0.002245661599 -9.86000834e-05)
(0.01204328806 0.002414103486 -7.714552451e-05)
(0.008324661254 1.88087163e-05 1.693929765e-05)
(0.008344452713 1.05920733e-05 1.015497789e-05)
(0.008417068991 4.496437746e-06 2.747551564e-05)
(0.008352517542 -1.867768429e-06 2.210624265e-05)
(0.008385688064 -1.620497431e-05 -1.658042373e-05)
(0.008292840719 -9.337595574e-07 1.594852147e-05)
(0.008246926766 2.025787933e-05 5.705140212e-06)
(0.008351464566 2.770189089e-05 1.141566391e-05)
(0.008451402947 5.404887629e-05 -1.102637013e-05)
(0.008428328479 9.957027787e-05 2.019071276e-06)
(0.008396276109 0.0001203575416 -4.676877479e-06)
(0.008374405469 0.000146682687 1.268137167e-05)
(0.008475711157 0.0001594778493 3.796813375e-05)
(0.008413727748 0.0001800184848 1.555737644e-05)
(0.008382642096 0.0001718105227 -1.106002288e-05)
(0.008428953266 0.0001999396727 -4.803158729e-05)
(0.008361263019 0.0002251561035 -2.663927789e-05)
(0.008671360333 0.000315061429 -2.934523194e-05)
(0.009011762194 0.0003778342543 -4.181664445e-05)
(0.009226046844 0.0004898644975 -3.149423854e-05)
(0.009169471221 0.0005019535594 -3.768206713e-05)
(0.009321538721 0.0006115706642 -4.61222e-05)
(0.00954567502 0.0007084086114 -3.460521134e-05)
(0.009761660391 0.0008176307107 -7.495579371e-05)
(0.01001498268 0.001041266462 -4.92976093e-05)
(0.01020859866 0.001206183841 -7.110121085e-05)
(0.0105743877 0.00141254012 -3.054464373e-05)
(0.01089274471 0.001642359709 -1.148055818e-05)
(0.01144844388 0.001947562685 -3.3581733e-05)
(0.0118984425 0.002143775052 -5.909629805e-05)
(0.008465612339 -6.080195167e-06 -4.873805464e-05)
(0.008380748102 3.430645912e-06 -4.158648887e-05)
(0.008216198112 1.452268418e-05 -3.389234676e-05)
(0.008348974951 7.093228866e-06 -1.966714278e-05)
(0.00837394212 1.981623321e-05 -1.075339086e-05)
(0.008449649022 2.83215324e-05 -9.266776579e-06)
(0.008420544803 9.048574192e-06 -1.467654418e-05)
(0.008372820102 1.554701454e-05 -8.859383479e-06)
(0.008295026176 4.346039206e-05 -2.226618652e-05)
(0.00824082989 7.923443594e-05 6.167098328e-06)
(0.00843270165 9.646438603e-05 1.610812546e-05)
(0.008563752489 0.0001196707026 2.480552095e-06)
(0.008538540263 0.0001412813493 -1.186775586e-05)
(0.008521369519 0.0001472126724 -3.564455835e-05)
(0.008641637628 0.0001864443716 -2.969694367e-05)
(0.008825727641 0.0002078330637 -2.798490985e-05)
(0.0088797087 0.0001942700327 -4.317686612e-05)
(0.008698413357 0.0001892475877 -6.206361193e-06)
(0.008701779066 0.0002504982879 -2.663002645e-05)
(0.008588985176 0.0003459130863 -3.500949848e-06)
(0.009016605733 0.0004296389217 1.878444884e-05)
(0.009183307517 0.0004725880401 3.81121104e-05)
(0.009284366297 0.0005356455763 2.000889549e-05)
(0.00944656447 0.0006933857865 2.777974915e-05)
(0.009604997715 0.0008327196162 1.004487245e-05)
(0.009870161721 0.0009927270014 -2.428257737e-05)
(0.01005398236 0.001135133789 -6.172281689e-05)
(0.01044827325 0.001297623747 -5.118746168e-05)
(0.0107376641 0.001423582714 -6.727596906e-05)
(0.01127928767 0.001779952481 -4.100720372e-05)
(0.008258374285 -1.155821123e-05 2.989343679e-06)
(0.00833133104 -1.612899187e-05 -1.829991968e-05)
(0.008316623041 -1.011040067e-05 -2.576262519e-05)
(0.008266753157 1.242479266e-05 -4.803852703e-05)
(0.008124720225 1.032174536e-05 -6.112907025e-05)
(0.008124623155 3.354044938e-06 -4.001753714e-05)
(0.008158316303 1.110310747e-05 -3.587409305e-05)
(0.008142322454 4.382854259e-05 -4.431589279e-05)
(0.008197245423 3.405944333e-05 -2.985368011e-05)
(0.008282162414 4.042738481e-05 -2.290277658e-05)
(0.008176718526 4.440053924e-05 -2.879003e-05)
(0.00821570524 5.362210514e-05 -3.178860817e-05)
(0.008406137004 7.587679128e-05 -1.164365174e-05)
(0.008468725748 9.029843715e-05 -5.4010368e-06)
(0.008506392365 0.0001128469337 9.659934853e-06)
(0.008419164094 0.0001579950173 5.396838702e-06)
(0.008545871989 0.0001761096138 5.782708254e-06)
(0.008638519632 0.0001676325035 -5.148149329e-06)
(0.008639635917 0.0001936586145 1.620414228e-07)
(0.008834309608 0.0002414887679 4.704004058e-06)
(0.008783057562 0.0002923988128 -2.676997796e-05)
(0.008758330631 0.0003751060304 -4.091414185e-05)
(0.008849159468 0.0004970054575 -4.242855327e-05)
(0.009027915513 0.000539163408 -2.752950133e-05)
(0.00920818505 0.0006019799367 1.943075716e-05)
(0.009479602152 0.0007413116179 4.592207789e-05)
(0.009789815146 0.0008919558619 3.217752861e-05)
(0.009999579724 0.001015548332 1.56164344e-05)
(0.01035895336 0.001248533515 1.13111627e-05)
(0.01058189851 0.001436541527 5.147315925e-05)
(0.008308762171 2.721871649e-06 -2.951950308e-05)
(0.008289401615 1.316320669e-05 -1.432616981e-05)
(0.008279591219 1.879299241e-05 6.750897769e-06)
(0.008288362815 2.042674932e-05 -8.072970616e-06)
(0.008354125625 3.022588238e-05 5.9985568e-06)
(0.008308283774 3.538219655e-05 6.170490032e-06)
(0.008228498555 2.273437562e-05 -1.125510423e-05)
(0.008095879056 3.028194535e-05 -9.512951995e-06)
(0.008143633324 2.468830984e-05 -2.903443007e-05)
(0.008218506626 3.373421736e-05 -4.693467322e-05)
(0.008206113671 4.607978561e-05 -4.388576764e-05)
(0.008126323887 4.511671709e-05 -4.374752649e-05)
(0.00808662606 1.363321363e-05 -2.767170978e-05)
(0.008130448593 2.957211469e-05 -2.474346123e-05)
(0.008251004942 3.230359701e-05 -8.403244656e-06)
(0.008273021576 6.008314502e-05 -1.559814581e-05)
(0.008378782071 0.0001219103494 -1.719323655e-05)
(0.008501634877 0.0001510168374 1.522685372e-05)
(0.008460645522 0.0001589210124 1.673629947e-05)
(0.008557801157 0.0001883107887 3.523704025e-05)
(0.008525453565 0.0002433426398 4.840395647e-05)
(0.008716726931 0.0002752839453 2.590403781e-05)
(0.008832655916 0.0003454044307 4.832005641e-05)
(0.008981572007 0.0003952121897 4.050471484e-05)
(0.009136650219 0.0005293916224 2.520964592e-05)
(0.009216758745 0.0005925116155 5.352163885e-05)
(0.009400616499 0.0006719014118 5.043051437e-05)
(0.009679744196 0.0008275204092 5.349437391e-05)
(0.009851399062 0.0009541480033 5.406028072e-05)
(0.01020853173 0.001146888003 3.052664454e-05)
(0.008114854315 2.418481627e-05 -9.303396167e-06)
(0.008186926702 2.043120925e-05 -1.236471064e-05)
(0.008176718598 1.139760155e-05 -2.324252524e-05)
(0.008226836483 4.493536642e-06 -2.873245149e-06)
(0.00804764644 2.358061043e-05 -2.484672685e-06)
(0.008228184061 3.248326157e-05 2.900573711e-06)
(0.008252205262 3.477013835e-05 1.136920895e-06)
(0.00837133722 4.662537912e-05 -2.702010545e-07)
(0.008312172993 3.79506881e-05 -9.935450865e-06)
(0.008310406041 3.475798116e-05 -1.300948066e-05)
(0.008318307171 1.284199472e-05 -2.236729752e-06)
(0.00846328037 7.192541893e-06 6.201081785e-06)
(0.008349088803 5.124562869e-05 5.998259027e-06)
(0.008483453725 4.747022702e-05 1.92134855e-05)
(0.008450943377 5.818754292e-05 7.928976962e-06)
(0.008404693606 5.080422513e-05 1.759233655e-05)
(0.008417276623 4.029372139e-05 1.326704101e-05)
(0.008386450361 9.206208779e-05 -1.367243731e-05)
(0.008345875914 0.0001240687415 -6.896535018e-06)
(0.00839606592 0.0001753356429 1.395600501e-06)
(0.008401247995 0.0001825914418 -3.705774149e-06)
(0.008574283777 0.0001948132603 -2.020777059e-05)
(0.008641356412 0.0002291670608 -2.057636774e-05)
(0.008707591872 0.000302633751 -1.279471015e-05)
(0.008901010045 0.0003355278936 9.986917233e-06)
(0.009150176805 0.0004248788202 -1.238925682e-05)
(0.009312880363 0.0005576557119 2.322808264e-06)
(0.00946714039 0.0006694586241 -1.320168222e-05)
(0.0096111679 0.0007893957762 -1.36053197e-05)
(0.009820103092 0.0008985929939 1.322980409e-05)
(0.008349881046 -4.582251261e-06 5.173982606e-05)
(0.008215826486 -7.237802903e-06 2.539385174e-05)
(0.008191353515 2.997568596e-05 1.621109443e-05)
(0.008311721176 1.769350034e-05 3.721884339e-06)
(0.008369754349 2.173064221e-06 -1.770120778e-05)
(0.008365550923 8.323891137e-06 -1.454420259e-05)
(0.00837562001 -2.429511717e-06 -1.01230235e-05)
(0.008420545529 -2.781551077e-06 1.076497119e-05)
(0.008615257855 -5.787781521e-06 4.386200186e-06)
(0.008610960388 4.310195868e-05 1.864512556e-05)
(0.008552377024 3.200215232e-05 8.504608367e-06)
(0.008557209159 2.456063799e-05 -1.938341273e-05)
(0.008650121081 2.707617616e-05 -7.210200906e-06)
(0.008603936388 4.145875125e-05 -2.878905674e-05)
(0.008644383546 7.062061226e-05 -5.239948155e-05)
(0.008627910538 9.813072516e-05 -4.915455866e-05)
(0.008642904574 9.541044641e-05 -2.509693495e-05)
(0.00864922152 0.0001145171639 -1.662283145e-05)
(0.008718835721 9.410832496e-05 -2.587729051e-05)
(0.008791800141 0.0001029271631 -4.267955453e-05)
(0.008720979892 0.0001753792171 -4.143800054e-05)
(0.008815580193 0.0001969768 -1.703421447e-06)
(0.008761994967 0.00022544105 2.457866511e-05)
(0.008900499846 0.0002254935387 -2.328169285e-07)
(0.008922518059 0.0002719961051 1.382689004e-06)
(0.008904603297 0.000349591387 -2.274418083e-05)
(0.008919028604 0.0003815553386 -1.426871205e-05)
(0.009252840725 0.0004901301672 -3.146069068e-06)
(0.009374781257 0.0006220934945 1.063256144e-05)
(0.009598784895 0.0007494296161 1.773256603e-05)
(0.008490013583 4.65981114e-05 -3.500035531e-05)
(0.008598395215 3.587851402e-05 -4.699574116e-06)
(0.00866134429 1.686307815e-05 -9.679423178e-06)
(0.00844154871 1.203253272e-05 -3.752067406e-05)
(0.008430150617 7.449534702e-06 -2.317284287e-05)
(0.008424664227 -1.114956505e-05 -2.858017528e-05)
(0.008391400592 -1.627015749e-06 -3.935602458e-06)
(0.008303539722 -2.469166224e-05 -1.335906859e-05)
(0.008235928161 -6.521666488e-06 -2.284193258e-05)
(0.008285285644 -2.864532947e-05 -2.501455197e-05)
(0.00838081007 1.751391078e-05 -2.439354392e-05)
(0.008266041967 4.74539828e-05 7.589910003e-07)
(0.008209360249 5.704252376e-05 -2.543549839e-05)
(0.008174246078 4.227909485e-05 -3.584279177e-05)
(0.008217552427 2.928388964e-05 -3.247482637e-05)
(0.008346400501 6.052149104e-06 -4.318077362e-05)
(0.008413678775 4.724933581e-05 -5.224088088e-05)
(0.008435274857 5.459134838e-05 -5.873343282e-05)
(0.008555005831 9.995782983e-05 -3.535401864e-05)
(0.008643517587 0.0001021489192 -4.037042862e-05)
(0.008762676778 0.0001150224732 -4.031249226e-05)
(0.008615976899 0.0001309574034 -4.518066729e-05)
(0.008695659265 0.0001558754294 -5.770697965e-05)
(0.008614371485 0.0002154772805 -4.661764153e-05)
(0.008614262572 0.0002347530208 -3.706239585e-05)
(0.008721169314 0.0002873323933 -1.676496109e-05)
(0.008780652627 0.0003553855315 6.468725821e-06)
(0.008876544581 0.0004119725001 4.60015137e-06)
(0.008806677172 0.0004826616962 1.512416177e-05)
(0.009197295292 0.0005718157729 -2.498594503e-07)
(0.008358621422 -7.711823609e-06 -4.504779694e-06)
(0.008333022979 1.365524725e-06 1.041037222e-05)
(0.008406410903 3.581106788e-06 1.89563488e-05)
(0.008512078713 1.675316467e-05 2.635569262e-05)
(0.008499110485 1.958992208e-05 9.906260615e-06)
(0.008513237895 3.839032773e-05 1.141681333e-05)
(0.008463136583 6.127952959e-05 1.490462485e-05)
(0.008517187995 4.687067455e-05 1.509807754e-05)
(0.008335137061 3.88847894e-05 1.023717355e-05)
(0.008331677783 2.151424315e-05 1.33426285e-05)
(0.008267367006 2.02931941e-05 7.032844833e-06)
(0.008320973442 -1.229373775e-05 6.919171505e-06)
(0.008401492095 -5.802837831e-06 1.4299577e-05)
(0.008444113418 7.09122119e-06 -2.386549897e-06)
(0.008354960941 1.240453502e-05 1.602133673e-06)
(0.008321375461 2.614490862e-05 -8.897296371e-06)
(0.008273764108 2.606207222e-05 -1.239883668e-06)
(0.008312560484 3.326374835e-05 -2.560948007e-05)
(0.00833553974 4.471277238e-05 -5.535038858e-05)
(0.008298815264 4.968279452e-05 -5.415914201e-05)
(0.008385682952 9.382575869e-05 -5.334297011e-05)
(0.008478612723 0.0001139857147 -3.528590721e-05)
(0.008546376006 0.00015872102 -4.687158829e-05)
(0.00857282492 0.0001700519354 -1.69547093e-05)
(0.008789810121 0.0002384357212 -1.465625545e-05)
(0.008716333757 0.000252437742 -1.67972634e-05)
(0.008842750414 0.0002950253771 6.517332292e-06)
(0.008884770602 0.0003466450334 2.84049089e-06)
(0.008881772027 0.0003758874353 -3.824993486e-05)
(0.008883014559 0.0004998157215 -3.566997579e-05)
(0.008175137549 -2.032762557e-05 4.048125178e-05)
(0.008110711631 -1.718631296e-05 3.626907388e-05)
(0.008146674226 -6.645462571e-06 6.206584242e-06)
(0.008101971561 8.21801482e-06 4.394429219e-07)
(0.008065406084 5.602579548e-06 1.080637487e-05)
(0.008079720906 -1.149440657e-07 7.697653195e-06)
(0.008201442159 2.983218779e-06 3.897827213e-06)
(0.008296124858 2.175463393e-05 4.66039567e-06)
(0.008391408455 3.37822432e-05 -1.239866585e-06)
(0.008239289223 2.78548343e-05 1.247049289e-05)
(0.008293512625 2.391796593e-05 9.076352978e-06)
(0.008300488497 4.730237852e-06 1.167540428e-06)
(0.008363107133 -1.88896881e-05 1.980256491e-06)
(0.008330540198 5.363491233e-06 3.642142993e-06)
(0.008530912881 3.976019781e-06 -3.070862176e-06)
(0.008500864018 2.14452059e-05 1.07158786e-05)
(0.008433443067 2.980814218e-05 1.100033748e-06)
(0.008432087773 5.543335324e-05 9.10319921e-06)
(0.008406790911 5.896867096e-05 5.480641021e-05)
(0.008403424692 5.219939262e-05 5.826803163e-05)
(0.00841767498 4.414122565e-05 4.749679587e-05)
(0.008349034978 6.427319017e-05 5.141401642e-05)
(0.00834583367 9.357401575e-05 7.328816875e-05)
(0.00840766072 0.0001438214236 5.337775461e-05)
(0.008421229586 0.0001470549473 2.851516111e-05)
(0.008465881421 0.0002018868665 3.145747857e-05)
(0.008472724435 0.0002239662361 4.153777575e-06)
(0.008738323664 0.0002504908987 7.981890033e-06)
(0.008970124432 0.0003188912105 -1.380222613e-05)
(0.008987306644 0.0003176578221 -4.694135707e-05)
(0.008207736569 1.100968661e-05 -4.186939908e-05)
(0.008133233792 -1.184884217e-05 -2.752205407e-05)
(0.00811243081 -2.097724679e-05 -1.234282397e-05)
(0.008111858714 -2.863301204e-05 -7.17771154e-06)
(0.008209281356 -1.221983335e-05 -7.822284968e-06)
(0.008233887836 -1.505334587e-05 -1.778311541e-05)
(0.008163276836 -1.436130315e-05 -2.014089399e-05)
(0.008144290031 -1.450656463e-05 -1.302306098e-05)
(0.008236128977 -1.997195266e-05 3.581549432e-06)
(0.00828644468 -2.007903807e-05 -7.218470245e-06)
(0.00835751474 2.298948508e-06 7.362455701e-06)
(0.008290435536 -5.647791657e-06 7.567412481e-06)
(0.008230672592 5.627411485e-06 1.575611606e-05)
(0.008231705385 6.784930068e-06 2.68100986e-05)
(0.00821806376 1.345834821e-05 3.525096176e-05)
(0.008203107115 2.760052671e-05 3.074597347e-05)
(0.008289397801 2.524287249e-05 4.206661252e-05)
(0.008331856511 1.218198468e-05 4.270165017e-05)
(0.008453259541 4.412622704e-05 3.154612074e-05)
(0.008438579802 5.564323702e-05 2.987881872e-05)
(0.008388523982 7.545725655e-05 4.18024059e-05)
(0.008447785965 9.295635985e-05 3.220343641e-05)
(0.008410745212 0.0001009766022 -1.935448962e-05)
(0.008386132347 0.0001220914216 -3.384823214e-05)
(0.008590642409 0.0001331049028 -1.069173047e-05)
(0.008597345198 0.0001149467765 3.523426134e-06)
(0.008523959222 0.0001872525883 -1.266846693e-05)
(0.008454108863 0.0001861030787 -4.337502872e-05)
(0.008576915981 0.0002107319873 9.97750655e-07)
(0.008710824103 0.0002337611124 -1.161504944e-05)
(0.008316114076 2.800101254e-05 -3.957551385e-05)
(0.008318174674 4.255712695e-06 -2.808381637e-05)
(0.008197302291 5.758861356e-06 -3.777809742e-05)
(0.008300340716 -3.603365735e-06 -1.858962158e-05)
(0.00827555665 -1.197679222e-06 -7.689156116e-06)
(0.008320414345 -2.884013646e-05 1.602042495e-05)
(0.008404968742 -5.320134892e-05 2.225165033e-05)
(0.008468517882 -3.910032163e-05 1.283946985e-05)
(0.008387579588 -2.522764312e-05 1.026193068e-05)
(0.00846359398 -3.156496981e-05 1.173899762e-05)
(0.008470192336 -2.239159329e-05 3.601462128e-06)
(0.008485278323 2.576635128e-05 7.195085975e-06)
(0.008564206965 1.4351112e-05 4.875941466e-06)
(0.008438697867 1.542915347e-05 -7.1678432e-07)
(0.008422299286 1.087433033e-05 -5.556273899e-06)
(0.008484737395 -6.802852271e-07 -2.267864524e-06)
(0.008431482157 1.685876271e-05 -6.088435321e-06)
(0.008350564207 1.744128536e-05 1.982135425e-05)
(0.008247210864 2.007205717e-05 7.943088081e-06)
(0.008160657597 7.083102091e-05 -8.52746196e-06)
(0.008244461339 8.161257704e-05 -1.898950944e-05)
(0.008270952782 6.145680441e-05 -1.455249632e-05)
(0.008351286505 7.161413485e-05 -1.611793179e-06)
(0.008358729711 3.830292692e-05 -7.252433086e-06)
(0.008426804735 7.73436256e-05 -1.420423328e-05)
(0.008484488407 0.0001059170627 -1.437431465e-06)
(0.008592322683 0.000117270324 -1.91822435e-05)
(0.008891581084 0.0001416291529 7.869107713e-06)
(0.008887263245 0.0001671191012 2.058860832e-05)
(0.008932462818 0.0002246721121 -3.891277024e-06)
(0.008509708428 -6.914312154e-06 1.514358019e-06)
(0.00850895829 1.253655262e-05 -7.869914198e-06)
(0.008579296793 8.426781894e-06 -1.784373993e-05)
(0.008607829571 1.842227577e-06 -1.456430742e-05)
(0.008595055254 -9.363838355e-06 -3.062351063e-05)
(0.00844898519 -8.062066647e-06 -4.276754559e-05)
(0.008367704977 2.155383205e-06 -4.037689501e-05)
(0.008276236371 -3.848454944e-06 -3.387629671e-05)
(0.008323400518 -4.435179168e-06 -3.419297908e-05)
(0.008202208607 -2.144617164e-05 -3.438844237e-05)
(0.008135516417 -3.15649865e-05 -2.13102922e-05)
(0.008170740475 -2.875414629e-05 -9.629881688e-07)
(0.0082702708 -1.547855745e-05 1.459202538e-06)
(0.008358103107 1.735998083e-05 6.543250797e-06)
(0.008377013741 2.755793061e-05 1.725051815e-05)
(0.008319287378 2.027269723e-05 2.827906762e-06)
(0.008369292498 4.602416702e-05 -1.336084716e-05)
(0.008372620058 5.069550861e-05 -3.5693423e-05)
(0.008421588355 4.935140744e-05 -4.454462059e-05)
(0.00844224255 3.21629253e-05 -4.596238725e-05)
(0.008442496283 2.111991454e-05 -1.581983189e-05)
(0.008585048252 4.508935194e-05 1.632307557e-06)
(0.008582463185 1.848811505e-05 -1.275418439e-05)
(0.008534422078 3.253585994e-05 -1.029621276e-05)
(0.008503896039 2.53601236e-05 -2.326147619e-05)
(0.008570746343 8.136635247e-05 -8.201767599e-06)
(0.008606390602 9.275298879e-05 1.010855264e-05)
(0.008385418046 0.0001019696884 -8.952873403e-07)
(0.008431130863 0.0001432709012 -7.674419782e-06)
(0.008524226752 0.0001755974443 1.238281942e-05)