/*--------------------------------*- C++ -*----------------------------------*\
| =========                 |                                                 |
| \\      /  F ield         | OpenFOAM: The Open Source CFD Toolbox           |
|  \\    /   O peration     | Version:  2406                                  |
|   \\  /    A nd           | Website:  www.openfoam.com                      |
|    \\/     M anipulation  |                                                 |
\*---------------------------------------------------------------------------*/
FoamFile
{
    version     2.0;
    format      ascii;
    arch        "LSB;label=32;scalar=64";
    class       volVectorField;
    location    "0.002";
    object      momentum;
}
// * * * * * * * * * * * * * * * * * * * * * * * * * * * * * * * * * * * * * //

dimensions      [1 -2 -1 0 0 0 0];

internalField   nonuniform List<vector> 
654
(
(0.0222359758 0.008460258978 -0.002679223441)
(0.01775766456 0.004674970888 -0.0003871884674)
(0.01626623243 0.006331074717 -0.0005971283555)
(0.009071868177 0.003083488859 0.00200240785)
(0.008464519242 0.004262460245 0.001012229528)
(0.0202308825 0.0083555507 -0.0006251485152)
(0.01294952806 0.004074668134 0.0001749338856)
(0.01464703303 0.002205553961 -0.00186854432)
(0.01565275551 0.004483675371 0.0004745067051)
(0.00991512406 0.004481626612 -0.0008561755699)
(0.01457819999 0.003204653395 0.001293443588)
(0.01333836965 0.003809435187 -0.001124178309)
(0.01818637384 0.006379568562 -0.003438708227)
(0.01350029682 0.003779233142 0.0006755897065)
(0.0135525301 0.00597713103 0.0007070665575)
(0.01564003994 0.006897995145 -0.001256932937)
(0.01540419492 0.006019991083 0.0001243233142)
(0.01479969821 0.004512954404 -0.0006333518492)
(0.01166474373 0.001440903525 0.0005106034052)
(0.005768614539 0.0008120881557 5.067468493e-05)
(0.01079666206 0.001995893559 -0.0001362071718)
(0.01024633297 0.001150044656 -9.933537382e-05)
(0.007719907277 0.002267266598 0.0002792290868)
(0.01297115743 0.003568084269 0.0006741964941)
(0.01038286223 0.004512975598 0.0009065499181)
(0.01814248443 0.006585756277 0.0006056496776)
(0.0117022928 0.003701023115 0.001255846277)
(0.01399130628 0.005191346744 -0.0006246995166)
(0.02134002947 0.008077587196 0.002279542587)
(0.01999206342 0.004898935627 0.001995248763)
(0.01546665836 0.006745514964 0.002051967329)
(0.02013329238 0.004785777117 -0.0004906298674)
(0.02739637432 0.005869203639 -0.001709003495)
(0.01402631014 -3.508594784e-07 0.00139493404)
(0.01290369306 0.002474963608 -0.0003414700366)
(0.005876464971 0.0001415374861 0.0002361556301)
(0.005489165043 0.0007774319965 -0.0001332193315)
(0.01615928923 0.001953500923 -5.649455732e-05)
(0.0106959447 0.002515123839 -0.00100080837)
(0.00972931326 0.001836442124 0.0008784314566)
(0.003155633828 0.0002561721305 -0.000359657907)
(0.00950214073 0.001700451448 0.000186079589)
(0.01167706053 0.00306759727 -0.0002985041916)
(0.01000091028 0.002387147981 -0.001412354146)
(0.01725425626 0.003034216874 -0.001092772239)
(0.009023334909 0.004074956598 -0.0001428606977)
(0.01125969519 0.002878679987 2.760396243e-05)
(0.009468988926 0.002847995119 0.0001074224802)
(0.02340219422 0.007420424188 -0.001114760973)
(0.01600848704 0.006687616307 -0.002232372016)
(0.01256094745 0.002824600466 0.0004002933042)
(0.01602086436 0.005889899229 -7.922340628e-07)
(0.02177939664 0.004750290665 0.003194797986)
(0.01656983319 0.006400164074 -0.0006351465084)
(0.01755098503 0.007661262207 -0.00156526574)
(0.006108121247 8.482711532e-05 0.0004862363398)
(0.007396965393 -0.0006782535882 -6.393473654e-05)
(0.0116865623 -0.000207057806 -0.0001385701804)
(0.006643821784 -0.0005598629901 -0.0001296733873)
(0.007384064402 9.399800368e-05 -0.0006107781264)
(0.01210413455 -6.977817433e-05 -0.0002364752511)
(0.007398786301 -0.0001157460205 -0.0007076604253)
(0.009068807387 -0.0006459289336 0.0004188461646)
(0.007929623309 0.001045933094 0.00036900703)
(0.008597967289 0.0008243036002 -0.0002586202206)
(0.009818222482 0.0008695522268 -0.0003657999209)
(0.01395830397 0.0003632262172 -0.0007723928815)
(0.008063319483 0.0002391938122 0.0007631548008)
(0.01118383186 0.0002454431994 -7.220738712e-05)
(0.008212396945 0.00103289091 -0.0002373806669)
(0.0158386529 0.003850893164 0.001067351434)
(0.01383554764 0.0007616646704 0.0009311958605)
(0.0093439408 0.001717293003 0.002428065704)
(0.01251715216 0.002196144667 -0.0002049647143)
(0.008862058614 0.0005195991167 -0.0006671900266)
(0.01951233933 0.003506488208 -0.001894960873)
(0.01219856738 0.001727996126 -0.0002353823826)
(0.01520606835 0.002778859778 0.001253046581)
(0.01949098502 0.006138914407 -0.0004160545822)
(0.0127526311 0.002772395959 -0.0003502874242)
(0.02370260244 0.003415258686 0.001379018277)
(0.01534898092 0.003410588477 -0.0001673928768)
(0.02253972583 0.008245817835 -0.0006372962742)
(0.01389944007 0.004949660315 -0.001219492884)
(0.009696211961 -0.0002713558942 -5.783577604e-05)
(0.008435710957 0.001129306455 -0.0001025824437)
(0.01077675096 0.0002619689056 0.0001289735986)
(0.003488634059 9.886018028e-05 9.299351008e-05)
(0.01096833292 -0.0007001649484 -0.0001177125679)
(0.007546281368 -0.0005812926543 0.0002025578374)
(0.006428538212 -0.0002467749459 0.0002467815595)
(0.00920886515 0.0009092500999 -0.0001476040816)
(0.01357145641 0.0003270167692 0.0009208790498)
(0.01220725864 0.00102340597 0.0007437722013)
(0.01549115314 0.001101325658 0.0001967542879)
(0.01052156206 0.000756569358 0.0003925523242)
(0.007066018506 0.0009698726774 0.0001145651164)
(0.008663219304 -0.0008842424456 0.00035101303)
(0.0102276303 0.002589440964 -0.0003721180585)
(0.01517869357 -0.0002423668994 0.0005902738566)
(0.0107536491 0.0001197402687 0.001126056511)
(0.008969609406 0.001958106928 -0.0005027500172)
(0.01226682441 0.0014229633 -0.0005087399636)
(0.006013454413 0.001642618933 0.0002175930382)
(0.01593694959 0.003094653267 -0.0001689747105)
(0.02976888839 0.0002192931822 -0.0001380651264)
(0.01614961699 0.00270227049 0.001102600888)
(0.01146682367 0.002122583182 -0.0009854449764)
(0.00973401082 0.004283802185 0.0002836999272)
(0.008642233584 0.003389673569 0.001125429003)
(0.02239715057 0.009439517692 0.0002707385017)
(0.02065513643 0.005447921145 -0.0006899256349)
(0.01981104061 0.003743972401 0.002246579015)
(0.0212333769 0.006448061647 0.0001609602581)
(0.0108126239 0.0005108774672 0.0002106465817)
(0.01236797324 0.0009203131326 -2.193294385e-05)
(0.006121463429 0.000123896694 -0.0001345012062)
(0.008860656487 0.0001885602484 0.0004356607034)
(0.01071773997 0.00024987965 0.0004623430834)
(0.008498849698 0.0001381625045 -0.0003355144188)
(0.01064992387 0.001169714757 -0.0004686699252)
(0.01394405785 -0.0001870011065 -6.835953741e-05)
(0.01353279344 -0.0006189369399 0.0006488033132)
(0.01047066771 0.0008774763492 -0.0003519026603)
(0.007757058435 0.0002685249931 0.0008567208131)
(0.008987600527 0.000876746385 0.0006741346448)
(0.004613696521 0.0003385137738 -0.0007004939859)
(0.01018889554 0.0001424642037 -0.0009000330423)
(0.008648296215 0.001958359112 -0.0001794171874)
(0.008574067984 0.0007282178971 6.378464709e-05)
(0.007528286803 0.000357083297 -0.000304811741)
(0.01220816472 0.001152194834 0.001259186887)
(0.0113991869 0.0005972601513 0.0007628706467)
(0.009454169384 0.00246469742 0.0002524413962)
(0.01462847688 0.001574476196 0.0006126908575)
(0.01488821579 0.004197941174 -0.000429069004)
(0.02052914744 0.003533979867 -0.001630145753)
(0.01131368698 0.003465233356 0.0001923529888)
(0.009318306458 0.004006632997 -0.0006023218748)
(0.01815116273 0.00318015754 5.075578326e-05)
(0.01388494366 0.004939076114 0.0006650088611)
(0.01839521406 0.003645087107 -0.002159626108)
(0.01145866081 0.001517228744 0.0009704381148)
(0.01431285255 0.004855787388 -0.001111573348)
(0.008457189756 -0.001060485407 -0.0005723016)
(0.009290706592 -0.0004619166672 -5.083140088e-05)
(0.005645999258 -8.048586041e-05 0.0001619618722)
(0.009237798975 -0.0006669473884 -0.0001515201258)
(0.006901342559 0.0003205006197 -0.0006257513741)
(0.006755902255 0.000843408046 0.0007535922436)
(0.007950619927 -0.0001836043154 0.0001061134608)
(0.01252561385 -0.00108901965 -0.0005271566664)
(0.006927071262 0.0001700324796 -1.531462797e-05)
(0.007091062844 -2.295221275e-05 -0.0001229100993)
(0.009841061198 -0.0001094848212 0.0001587741324)
(0.007036737049 5.5818003e-05 -0.0003089586186)
(0.01085689969 -3.771546811e-05 0.001042306518)
(0.007433406577 0.0003240076488 0.0001572484733)
(0.004259610719 0.0003510916076 -0.0008469128827)
(0.006904086984 0.0003276728065 -0.0006023005333)
(0.009814166686 0.003240250589 0.000780321858)
(0.008480962259 0.0006165122092 0.0004641200271)
(0.005201475491 -9.056249869e-06 2.126025778e-05)
(0.01268190162 0.001302151128 4.041700692e-05)
(0.007429677436 0.000928105995 0.001014149226)
(0.005449754144 0.0001648393999 -0.0009037253314)
(0.01685960039 0.002626357425 0.002027876737)
(0.01619694766 0.005593273984 0.0001802736774)
(0.01644624374 0.002012550762 0.0001165545763)
(0.007121280577 0.00214353917 0.00039701664)
(0.01462171701 0.0021635938 -0.0005576469085)
(0.01902286261 0.006910577212 0.000681505696)
(0.015957914 0.00386249536 -0.0002845998134)
(0.01253882205 0.005635009413 -0.0008634980011)
(0.004504822226 -0.0003649720329 0.0001666758785)
(0.008706328912 0.0001402279152 0.0001896997951)
(0.006221842113 -0.0005891676413 -0.0001352080793)
(0.01017875911 1.319937857e-05 -1.427646733e-05)
(0.002933570509 -0.0006235655624 3.880379239e-05)
(0.006594986418 -0.0006084830707 -0.001090397078)
(0.006564030578 0.000281060348 0.0004037746904)
(0.007041993338 0.0007000556532 0.0002368223547)
(0.008189511716 -0.0002506904339 0.0008289267019)
(0.007224675599 0.0002664397839 -0.0006811931562)
(0.01619380422 0.000629255713 -0.0008290333345)
(0.005708161356 0.0001558078124 -0.0002862876941)
(0.01857603809 0.001427235002 -0.0007023664074)
(0.006338750913 -0.0003783490743 -0.0003103078873)
(0.01156177053 0.0007442151416 0.000672448825)
(0.009556249599 -0.0009003484864 3.657456101e-06)
(0.009204796738 0.0002669936809 -0.001069708681)
(0.009305725354 -0.0002990301123 0.0004822585268)
(0.01755836898 0.002810989073 -0.0009201967447)
(0.008356400466 0.00123228321 -0.001601838715)
(0.01277408201 0.0008046435233 0.0006798569134)
(0.01083884839 0.0005699928427 0.0009236283773)
(0.01264195046 0.0008393997451 -0.001166121898)
(0.01183123198 0.002892036081 0.001385278544)
(0.01180553714 0.001984685464 0.0001863297101)
(0.01270079294 0.00250121577 -0.0004142410477)
(0.01259731388 0.0002030973226 0.001259807925)
(0.01520854936 0.002557612701 -0.00124277941)
(0.01416077388 0.007668802759 0.0005236388988)
(0.01367031969 0.003934261627 -7.49542404e-05)
(0.01575204424 -0.0003259340163 -0.0007747869889)
(0.008381529453 -1.635978219e-05 -0.0003737264685)
(0.004862348296 -0.0003630191009 0.000274394677)
(0.003613151773 0.0002758491096 0.0002175525337)
(0.005173692533 0.0004070829912 -0.0001881586644)
(0.006063009525 0.0001033454966 0.0002567100202)
(0.007303773757 -8.078421884e-05 -0.0005488030008)
(0.01030490653 0.0002276795199 -1.44802305e-05)
(0.008304991266 0.0003309349304 0.0003814550891)
(0.006758557263 7.671684627e-05 -7.095448279e-06)
(0.01164507806 0.0003096766207 0.0003214447006)
(0.01271839686 0.0004587189342 -0.001241868095)
(0.01186185902 0.0003895913922 0.0009073148329)
(0.01622416993 0.0004660308311 3.363968976e-05)
(0.006384826899 -0.0009017234212 0.0008886253672)
(0.007409029484 0.0005659878822 0.000482595978)
(0.004075994692 0.0003714578474 -0.0001042748008)
(0.01065531641 0.0003362262474 0.0003926671157)
(0.0123796802 0.001443854936 -0.0001405089235)
(0.007428675104 -6.980541279e-05 0.0003378900934)
(0.01107138697 -0.0008043591103 0.0002420484445)
(0.007480833767 -0.0006422023569 -0.0003594283254)
(0.01595042291 0.002591867534 0.0004782846616)
(0.005343550356 0.002126008849 -0.0006928315975)
(0.008410730165 0.001084257293 -0.000993103838)
(0.01761461436 0.00265096142 0.0006438607403)
(0.01193400294 0.0006378512247 4.09176319e-05)
(0.008904522399 0.002526141798 0.0002151186355)
(0.005888366432 0.0006078857158 6.541394528e-05)
(0.01866672279 0.005799742252 -0.002572522807)
(0.008768513429 4.032889049e-05 -0.001231596264)
(0.005860997077 0.0001282253436 -0.0001544105339)
(0.009534547309 -0.0008060251055 -0.0002156311648)
(0.007727849388 -0.0005019661942 -0.0004815552247)
(0.007157927272 5.57638854e-05 0.0002850844225)
(0.004257086164 0.0002850316592 -0.0005952763192)
(0.01163731743 -0.0004710981133 0.0003762256859)
(0.01000582785 0.0006745286077 -0.0001507552122)
(0.00692554241 0.000378038563 -0.0006240065707)
(0.007152833672 -5.710371802e-06 0.0002113585468)
(0.01085401831 -0.001182335434 -5.832895348e-05)
(0.006185128329 0.0003251271702 -0.0005457230538)
(0.003202506902 -4.957634908e-05 0.0004407955167)
(0.01070107916 0.0003571017161 0.001014528416)
(0.0057108967 0.0007445094461 -0.000431946231)
(0.005169512651 0.0004314088253 0.000196227668)
(0.006708605879 -0.0001534742962 -0.0001248027691)
(0.004420404131 0.0001121758158 -0.0001898239803)
(0.002021514941 -0.0004282357415 -0.0004233167229)
(0.01007598064 -0.0008065511533 5.071697821e-05)
(0.008579661348 0.000497954327 0.000682730404)
(0.007738708633 0.00193246145 -0.0003073039344)
(0.00867431514 0.0005355120557 0.0006518526819)
(0.009584875705 0.001831855374 -4.85355655e-05)
(0.01037900184 0.0004322591917 9.735773573e-05)
(0.008975456189 0.001080343825 -0.0006123137033)
(0.01013717266 0.002056837856 0.0006377435143)
(0.01520754983 0.002111890364 -0.0001389480138)
(0.01154806646 0.005348497923 9.210532918e-05)
(0.01021036116 0.002204794173 0.0006127870705)
(0.01021115796 0.0008773892738 -0.0002082987479)
(0.009317346931 0.0002533798038 -0.000128989803)
(0.006645452738 0.0006651541099 -0.0002295260198)
(0.01294072398 -0.0005831399334 0.0004771066008)
(0.005692929091 0.0001792540742 0.0003403967576)
(0.005664259897 6.275757553e-05 -0.0009856214209)
(0.00499664575 0.0001671237796 0.0003010575961)
(0.002278004091 0.0001673408177 9.317253792e-05)
(0.007523035677 7.830351398e-06 -0.0001586188735)
(0.01111256666 0.00121125592 0.0002674983369)
(0.005720324941 0.0002302298677 6.651108401e-05)
(0.006469800615 0.0003261363312 0.001118482199)
(0.004763901913 -0.0003669221488 -3.175523952e-05)
(0.006676192698 0.0005721295801 -0.0003469947933)
(0.003842957868 0.0005218976755 4.411507278e-05)
(0.01269724597 0.0004515688819 0.0002705285068)
(0.007100256731 0.0005317182413 -0.0001173177164)
(0.01068747794 0.0002572073248 -0.0003586221592)
(0.01427953243 0.001740319308 0.0006531202891)
(0.009296112137 0.0005254422397 -0.0003524433642)
(0.004633705436 0.0004995169947 8.431746688e-05)
(0.01596573199 0.0006781491507 -0.001252512866)
(0.006080979754 3.616142186e-05 0.001045384867)
(0.01099552597 0.0007757564078 -0.0006867747057)
(0.01362557881 0.001466356378 -0.0003635382052)
(0.008782640489 -0.000845907935 -0.001013356273)
(0.01095331206 0.001179150451 -0.0008154091435)
(0.01036890514 0.0006506591437 -9.392126434e-05)
(0.01286645158 0.0007602764599 -0.001420831657)
(0.01073059959 0.002451212463 -0.001072472807)
(0.008236943183 -0.000306239612 0.00076126562)
(0.01384312683 -0.0007072650328 -1.590187766e-05)
(0.005455772227 -0.0002488473677 -0.0007337806665)
(0.007419964317 -0.0003286363677 -0.0001490721894)
(0.007467119001 0.0001094507653 -0.0004439225344)
(0.01059495424 0.0002972501802 -0.0004768338889)
(0.01046294456 -0.001102263233 0.001770789353)
(0.006500398958 -0.0002286950227 -0.0003783787483)
(0.00550197869 -0.000114413913 4.598679687e-05)
(0.01133932585 0.000414006752 0.0007293098177)
(0.009591895446 -0.0003330335933 -2.200793788e-05)
(0.007164106441 -0.0002023035522 -0.0004278476799)
(0.01268262513 -0.001165448624 -0.0008801779675)
(0.007721284036 0.000158475204 -0.0007409679909)
(0.008204381371 0.0003756314856 0.0002629415281)
(0.005563914275 -0.0001295821631 0.0004422888038)
(0.01305003124 -0.0002649206614 -5.417495743e-05)
(0.01039483254 -0.0006346261114 -0.0005846409658)
(0.004194743881 -0.0009539062582 -0.0001215259564)
(0.002324912932 2.588504904e-05 -0.0002232422666)
(0.008450070515 0.001815220045 0.000146429712)
(0.008280611948 0.0004635545748 -0.0001357555581)
(0.007763837719 0.0008110787334 -0.0003997237566)
(0.005364387962 0.001009318495 -0.0005811885663)
(0.007756192323 -0.000528979543 -0.0004287559029)
(0.004844680101 0.002238174634 -0.001119762611)
(0.003269141634 -0.0004142435868 -0.0002411476341)
(0.01140395994 0.002466580141 0.000305279544)
(0.008598473844 0.001170883693 -0.0003948657054)
(0.01107013322 0.00389843782 -0.001423865086)
(0.002566359267 4.953056044e-05 8.505888233e-05)
(0.006137797844 -0.0004957436399 -0.0005465182161)
(0.006502143561 -0.0002749337959 -0.0001622594457)
(0.006296704172 -3.612185149e-05 -6.829724575e-06)
(0.006820338598 -3.608827842e-05 -0.0001742037099)
(0.01234452891 -0.001069539929 0.0004096045073)
(0.01318230107 0.0003913148844 0.0004667677114)
(0.002114536502 -0.000319456201 -0.0002835191376)
(0.009486233528 -0.0005875853116 -0.0003691382493)
(0.01058814305 -0.0005754866116 -7.72262888e-05)
(0.01365793539 0.0005492822465 0.0005861537207)
(0.006851142104 6.882391558e-05 0.000294721996)
(0.005037197135 0.0002641140859 0.000617245326)
(0.006324391868 -0.0004280226155 -0.0002921510192)
(0.008511081425 0.001100772988 0.0003841707536)
(0.00949511477 -0.0007772573404 -0.0004732834992)
(0.004905212283 0.0003435635252 0.0002914962743)
(0.007044958443 0.0003857201769 -0.0001713488657)
(0.006154417741 -6.894761209e-05 -0.0002019263373)
(0.008860353367 -0.0001389073571 0.0002198307148)
(0.008776102197 0.001060251338 -0.0006660022321)
(0.01281583534 0.001025717016 -0.0006728562693)
(0.009720861111 -0.000296985418 -0.0001306164451)
(0.00897362558 -0.0002402721123 -0.000567566886)
(0.007612086723 -0.0004458273627 -0.0003004394184)
(0.009430118788 0.0001831714138 0.0007150483585)
(0.01075738665 0.0008914067719 0.0007256537792)
(0.01230625653 -0.0003552062541 7.451840045e-05)
(0.01028413953 0.001799571077 -0.0001855697799)
(0.005933964111 0.001666752958 -1.571972176e-05)
(0.01065796739 0.0005957305065 0.0002514140068)
(0.006008124045 -0.0001196428244 0.0001349813003)
(0.009867657252 0.0002676469911 0.0009467758996)
(0.01258123516 -0.0002946836269 0.000126884309)
(0.01136012617 -0.0004339789084 0.0002913241236)
(0.007846205212 -0.0006695557637 0.0007453291206)
(0.007245088077 2.595849473e-05 0.0004002597651)
(0.01062833507 0.0003640304505 -0.0008254960004)
(0.01029704784 -0.0003071118217 -0.0006579125183)
(0.01191389035 0.0002954953627 0.000448610083)
(0.01133831199 -0.0004021471155 -0.001030329035)
(0.009784449991 0.0003081825402 0.0003227661334)
(0.005737968532 -0.0002008715967 0.0007243800322)
(0.009176612841 -0.0004031806574 -0.0001441637624)
(0.007755365273 1.922513859e-05 -0.0002067048208)
(0.007672752448 0.00067686079 -0.0003186850952)
(0.007389425355 0.0002443874111 -0.0004613431488)
(0.009999709196 -0.0004330243461 3.400160066e-05)
(0.007105364696 -0.0001551457745 0.000336093004)
(0.006653397297 -0.0002007118961 0.0005483602538)
(0.008352896641 0.001337100496 0.0004425858681)
(0.01255115962 0.0005666407597 0.0006473117164)
(0.009776736294 -0.0001957267851 -7.186553372e-05)
(0.00929363102 0.0001471258937 -0.001127767941)
(0.005914133644 0.0005084597659 0.0002063825106)
(0.007837039497 -0.0006522419876 -0.0003467413387)
(0.009405727795 0.001424257433 0.0007154539291)
(0.01307935175 0.001771206353 -0.001092211474)
(0.007289699459 0.002105762432 0.0002333483144)
(0.01268608824 0.001786095426 -0.0006103366924)
(0.006221957146 -0.0008668245118 -5.349912596e-05)
(0.008845830847 2.696482191e-08 -0.0003976447328)
(0.007649285424 -0.000291843403 0.0002742350757)
(0.008720641126 -0.0001475016528 0.0006553571239)
(0.007032292559 -0.0003816207047 -6.581412005e-05)
(0.01028365064 -0.0006841632322 -0.0004746503938)
(0.009775425008 -0.0005715342281 -0.0003060146145)
(0.006122082075 -0.0003720734736 -0.0001615773979)
(0.003013516498 5.770872852e-05 0.0001620883965)
(0.008785810698 -0.0003435801859 0.0001653912895)
(0.012814847 -0.0005501510374 -0.0006745261822)
(0.002629715526 0.0005424189898 0.0004949947599)
(0.01219584774 0.0004495271623 0.0003447694067)
(0.005019387663 -0.0001904247776 0.0002527876623)
(0.008409345774 0.0002452137259 -0.0001548037499)
(0.009875622989 0.0004810642369 -9.659531518e-05)
(0.004895592292 -0.0003556983866 -6.506944293e-05)
(0.006644391714 4.782241227e-05 0.0003835854487)
(0.01177730371 0.0002278755383 -0.001494327657)
(0.0106246327 0.0008840128906 -0.0005069218394)
(0.002559554058 0.0003752819073 -0.0001620900298)
(0.006290683286 0.0001676125445 -0.0003531582645)
(0.00447167551 -0.0007338382142 0.0006666532015)
(0.01338823943 0.000104573304 -0.0002544047877)
(0.01027510918 0.000261678502 0.0007394528214)
(0.003073779362 2.027608381e-05 0.0003009074472)
(0.0096305487 0.001244781219 0.0007189333458)
(0.004620683069 7.507759255e-05 -3.4713078e-05)
(0.007844525204 0.0001471807625 0.0002363948029)
(0.006344036984 0.0006181085208 8.992033932e-05)
(0.01127606272 0.0004303314391 -0.001066755766)
(0.005983213154 -0.0002412906555 -0.0001143545753)
(0.009568174398 0.0001167935191 0.001018237682)
(0.005164882238 -0.0002850400611 2.254801006e-05)
(0.009182224334 0.001168029136 0.0004521707086)
(0.008235682015 6.323052291e-05 -0.0003383671694)
(0.008249754136 -0.0001456857137 0.000738031817)
(0.00476527681 -0.0003986470715 0.0003676915962)
(0.009606359308 -0.0004047908871 0.0001735476155)
(0.006326959986 0.0004346313677 -0.0003844672144)
(0.009622167953 0.0003520982246 0.0005958657252)
(0.003715012718 0.0001869696757 -0.0002250438832)
(0.008834565635 0.0004255871605 0.0003820121931)
(0.007586675622 5.452570375e-05 0.001051707627)
(0.008387077107 0.0004185333904 0.0001483161156)
(0.003604413623 0.0004442103675 0.0002871966514)
(0.00918689709 -4.515639423e-05 -1.99305978e-05)
(0.006451447576 8.824349875e-05 0.0003254635774)
(0.00955211616 -0.0005265888116 0.0003604324996)
(0.01444631004 -0.000410472261 -0.0002328425875)
(0.01214694318 -0.0002284658689 0.0001449113958)
(0.006932853957 -0.000197933028 -0.0004343468041)
(0.01044302523 0.0004036078987 -0.0004120938391)
(0.005138496772 0.0005497484578 -0.0001735055846)
(0.009215171074 0.0002731765811 -0.0001929119646)
(0.005167601713 0.0005634080378 0.0003248049627)
(0.01145296389 0.001247051608 -0.001002940811)
(0.01413695338 0.001226866094 -0.0008789397067)
(0.004847036012 0.001303723093 0.001394583974)
(0.01652278099 0.004029636904 -0.001824969267)
(0.009378998802 0.000653796004 0.000202123478)
(0.01539925882 -0.0004466865066 0.0004763987172)
(0.009567175331 0.0007052102914 0.0002659115161)
(0.009497966916 -3.08147148e-05 0.0006012261876)
(0.01031185852 -0.0002342979589 -0.0005189363382)
(0.01117775559 0.0006219554571 0.0003558979286)
(0.004529918535 -0.0005837846618 0.000396288971)
(0.01020897109 -0.0003086854188 -7.1176552e-05)
(0.00774503883 0.001064714509 0.0005297002202)
(0.006854743256 3.06703505e-05 -3.422418874e-05)
(0.007429460083 -8.576086397e-05 0.000519193075)
(0.007344615935 0.0004530477488 -0.0003853894028)
(0.006142069627 0.0002261340701 0.0003060800706)
(0.01237928561 0.0006858000277 -6.409587444e-05)
(0.003718155902 0.0002241475471 0.0005777863153)
(0.01273479002 -4.496774284e-05 -0.0008634671492)
(0.007410889664 -0.001225713011 0.0002063351973)
(0.003936021028 -8.437498094e-05 -0.0003771162174)
(0.005173250686 0.0001333236189 -0.0008791536229)
(0.008987025907 0.0002376043313 0.0004675554715)
(0.009387795149 -0.000164493007 -0.0009187467088)
(0.01037688408 0.0001760270658 0.0002900239682)
(0.01286799078 -6.590988992e-05 -0.001334678827)
(0.006877584436 -0.0004243688328 -0.00052092485)
(0.01077158258 0.0006576468185 0.0009697898014)
(0.01315196096 0.0001958137951 0.0004651602428)
(0.008554621635 7.666367655e-05 0.0001506061537)
(0.007841523183 -0.001197871286 0.0005506586782)
(0.01264305423 0.001864189946 -0.001737321774)
(0.003715225729 -0.000169431944 0.0001272852677)
(0.007605020713 1.347149493e-05 0.0001665495352)
(0.008149625431 -0.0005577711177 -0.0004229153223)
(0.008076859057 -0.000950952052 -0.0002913331915)
(0.01192434025 -0.0004113778275 -0.001094415262)
(0.006216978378 9.17791802e-06 -0.000256556376)
(0.005555732095 3.570237732e-05 -2.986932736e-05)
(0.01234942311 -0.0001312385644 0.0007197529709)
(0.0133450466 -0.0002525696568 0.00114430849)
(0.01003081238 0.0003441939163 0.0002273167205)
(0.005863025796 0.000461343011 0.0002104186974)
(0.006046693734 -0.0002660059665 0.0007278320896)
(0.003284338753 -0.0002855051873 0.0004672863332)
(0.0138814962 2.034065663e-05 -0.0003834287673)
(0.007615022923 -0.0002063264118 0.0004186790142)
(0.01181160427 3.290217304e-05 0.000383269981)
(0.01183198327 0.0004036074863 0.0004433398332)
(0.009259757661 0.0004238222713 -0.0005708512289)
(0.006164325552 -0.0001291092674 3.324618948e-05)
(0.0104828775 -1.50181338e-05 -0.0001055419112)
(0.006522006691 -5.281161669e-05 0.0007424709928)
(0.009280390944 0.0005048995987 -0.0002803463003)
(0.01039756243 6.253138076e-05 0.0005310850015)
(0.01451510904 0.00133834 0.001343058864)
(0.006857957591 -0.0002972974026 0.0006436570774)
(0.009350122751 0.0008731107853 0.0003783508881)
(0.004647460519 -0.0001865191704 0.0001371389404)
(0.008402791684 0.001960856144 0.0003379069573)
(0.01219495628 0.0009510906721 -0.0004472030999)
(0.007510019427 0.001519053358 0.0006898806014)
(0.01182429445 0.001428906821 0.000598112239)
(0.01056929891 0.0004105749752 8.664441743e-05)
(0.01170002288 0.0004441697904 0.0001467512382)
(0.009562180248 -0.0002489855345 0.0002524264998)
(0.006475830895 0.001196896967 -0.0002118265552)
(0.005621143665 -0.0001369843695 -0.0004634992159)
(0.009569085108 0.0003469432053 -0.0001192960884)
(0.01156586366 0.0002376561852 -0.0002092227749)
(0.009648210088 -0.0003820833982 -0.000558775088)
(0.0140433387 0.001271186116 3.671656727e-05)
(0.002128759839 2.522672668e-05 0.0001561007275)
(0.005077716873 -0.0002220512669 0.0004710635181)
(0.005913614589 0.0001355422014 -0.0004004165372)
(0.01150067399 0.0003266273275 0.0009455295163)
(0.004764589046 0.0002532906927 0.0003266270038)
(0.005304434362 0.00051606972 0.0005785789024)
(0.005974525989 0.000479344664 0.0008585251118)
(0.005409679895 -0.0007534071326 0.0007765663436)
(0.009126413272 -4.480907612e-05 0.0001177754908)
(0.007241987214 0.0005538137018 -0.0006523170692)
(0.01027455058 -0.0003888821585 -0.0006435328094)
(0.007332629389 -0.0004548125719 -0.0002786150164)
(0.004650718977 0.0002138311143 0.0004213927903)
(0.01313406425 -5.19733222e-07 -5.427231833e-05)
(0.008700613465 0.0001652190664 0.0006839007752)
(0.009451257779 0.000351129154 0.00034803002)
(0.01456136752 2.931367399e-05 -0.0009431833514)
(0.006044873287 0.0001165065419 -0.000763552997)
(0.004258827748 0.0001836792604 0.001215150453)
(0.007169767302 0.0002341617922 0.00060822051)
(0.006502562299 0.0003487658127 0.0001137185679)
(0.008991275625 0.0004258718038 0.0004627664623)
(0.005922306406 -0.0001391432688 -0.0001512818671)
(0.007053218137 -0.0003332307235 -0.0008202139065)
(0.008150121787 0.0004838842416 -5.331686434e-05)
(0.007104864991 0.0001745288727 -0.000428482521)
(0.008907355388 0.000566828624 -0.000929181239)
(0.009547608688 0.0009294040811 0.0006116863611)
(0.008604313572 0.0001529969646 -0.0007301367549)
(0.007689862277 -2.031148355e-05 0.0001821033162)
(0.009720110323 0.0001606132681 -0.0001670354633)
(0.009543656892 -0.0006841013591 -0.0004696494712)
(0.008704370552 -0.0001345230201 -0.0003512347174)
(0.01443473586 7.270237096e-05 -0.0002218825556)
(0.005533906372 -0.000703710576 0.0006353110596)
(0.01311958899 0.0003572165003 0.001070170165)
(0.01141304417 -0.0008708825881 0.0001638415724)
(0.01132435531 -0.0003257398987 -0.0007574448375)
(0.01046690853 0.0003045921286 -0.0001284043576)
(0.008486655739 0.0006596556301 -0.000183055094)
(0.005788073767 0.0003957440478 -0.0001605826942)
(0.008375539688 0.0002855146883 -0.0003579038038)
(0.01100916377 0.0006855658792 0.0009822787656)
(0.009210420691 0.0005429378471 -0.0003562295527)
(0.01313093598 0.0005858001178 0.0003527333785)
(0.007319352533 -0.0006421550434 0.0001702185928)
(0.007191619778 -1.082373566e-05 0.000579107119)
(0.006419414244 -0.0008538812077 0.0004185331006)
(0.01152745025 -0.0001956777877 -0.0005327159496)
(0.009690844958 0.0007100577221 0.0004216604765)
(0.003009518977 -4.498651049e-05 -0.0001359390571)
(0.01121827736 -6.168348272e-05 0.0001693921035)
(0.005869000893 -0.0002771466992 0.0005057262361)
(0.01082302343 3.52397593e-05 0.0005107107137)
(0.01374157554 0.0007135068217 0.0005413096943)
(0.0082443671 -4.729471015e-05 -0.001067222321)
(0.006357423695 0.0002326555456 -0.000112571256)
(0.006664015256 5.002944559e-05 2.89559791e-05)
(0.00470932646 -0.0005390765543 -0.0001631532876)
(0.003806031599 -0.0009507963304 0.0002499133878)
(0.01021401123 -0.0002683578459 0.0003546638498)
(0.007495666421 0.0008784834955 0.0001594690055)
(0.008982475053 -6.185098179e-05 0.0008891946755)
(0.009476553433 -9.315894627e-05 0.0004326412766)
(0.01237681938 -0.0005293410488 -0.0006481654142)
(0.007011175214 0.0003365197292 0.0003490165726)
(0.01096906716 -0.0005266328146 0.0003560720008)
(0.008566115388 0.0009296692288 0.0002561410491)
(0.009582014058 0.0001056025579 -0.0001635491298)
(0.01003262393 0.0001164915492 0.0004250607777)
(0.001850567613 -0.0002446056351 -9.352966874e-06)
(0.01104132771 0.0002566090556 -0.0003080928338)
(0.009450936838 -0.0007265900948 0.0002401748858)
(0.01171128649 -0.0002722953275 0.0007341795025)
(0.005305758069 -0.0002821433565 0.0002811787176)
(0.008945624895 -0.0003755123061 0.0004271100994)
(0.007377084108 -0.0001237241045 0.0009926860222)
(0.01181110117 0.000602157004 -4.089805291e-05)
(0.009489321121 0.0006162540196 -5.952410577e-05)
(0.007594429097 0.0001291438536 0.0004763144231)
(0.0106523937 0.0002494579323 -0.0002282197774)
(0.008874100156 -0.0003361448237 -0.0001264938533)
(0.009937275777 -0.0002364031111 0.0002342849741)
(0.004907701409 9.496663639e-05 -0.0003681247478)