/*--------------------------------*- C++ -*----------------------------------*\
| =========                 |                                                 |
| \\      /  F ield         | OpenFOAM: The Open Source CFD Toolbox           |
|  \\    /   O peration     | Version:  2406                                  |
|   \\  /    A nd           | Website:  www.openfoam.com                      |
|    \\/     M anipulation  |                                                 |
\*---------------------------------------------------------------------------*/
FoamFile
{
    version     2.0;
    format      ascii;
    arch        "LSB;label=32;scalar=64";
    class       volScalarField;
    location    "0.002";
    object      overallT;
}
// * * * * * * * * * * * * * * * * * * * * * * * * * * * * * * * * * * * * * //

dimensions      [1 2 -2 0 0 0 0];

internalField   nonuniform List<scalar> 
654
(
714.9236741
707.5517853
711.0383534
709.1380666
702.1209162
703.5675324
654.9355638
661.4065074
663.0598944
659.2227384
673.2520883
688.0077562
685.2400825
690.3165207
693.3588215
685.2469995
690.4765379
541.1410639
571.4247151
573.2413042
594.4550707
610.917014
628.8066873
646.9219334
646.0938755
659.306136
664.4530672
668.0344984
679.8488594
684.2258939
673.9894969
677.4749139
680.3939068
408.8828867
409.7343545
424.2052171
455.7777598
462.01918
486.6511352
511.6095902
531.7051285
541.4888596
569.5100039
592.5296051
605.416155
626.6356743
631.925011
630.3958381
642.4138659
654.3582997
665.6917973
661.7770385
666.1178888
659.4149571
668.3158946
320.5650075
323.9420243
328.2535641
338.0519846
353.3874169
355.9673811
371.0276744
380.2908216
395.5692226
411.2508609
421.7532572
441.9725945
456.9005834
477.6498264
488.4819154
520.8554794
527.3452534
548.5467483
568.7640031
581.5794843
603.194582
607.2736005
621.5274064
634.7644909
647.0208406
653.3215014
661.0113452
671.4819031
664.0085523
319.725789
318.2516948
323.4424109
326.1169576
326.3013662
342.5545936
347.4742304
358.4091348
365.7923277
377.7632329
398.6579891
398.5137239
420.2594234
430.2039976
452.2665147
462.3989633
482.2918255
496.5146549
509.1967732
531.3485397
559.6755713
585.3620664
595.1345139
601.2382385
627.0488022
634.9486007
646.565624
641.5852928
648.6076866
651.0995285
315.330345
316.688744
318.2301306
321.7132992
333.6866461
334.4753766
336.845693
343.0456863
359.7143985
358.493858
361.1194015
387.7452002
392.0870395
412.1803025
420.3496924
436.6383504
451.6272514
474.4950342
484.2228959
496.0607405
520.5293718
544.691154
557.6486391
570.5679429
584.455855
598.1517805
622.3057687
626.798837
625.7178519
635.2924058
312.0009305
312.5121625
314.069005
315.9039042
323.1756898
332.7642617
333.7059453
331.1651322
342.2234119
345.0134306
348.9281408
356.9339817
358.028182
371.8698343
397.3053651
405.4548393
415.6344958
434.4132321
451.0677598
469.9462752
490.3622412
511.1764744
525.5537763
551.7836819
559.0185546
575.8849173
594.4929677
612.1459519
629.0122299
629.9221924
307.5847362
308.7787385
312.4483849
308.4856879
310.1488549
313.0391483
323.0641593
318.3842388
334.74746
335.5179455
337.7866643
337.7235484
348.918725
359.9596107
370.774395
390.0652661
405.0269815
414.5070334
433.5052339
457.1585744
460.4817076
483.5661774
512.9320867
520.0096939
540.9107308
564.9861303
576.6476103
593.5379395
602.9412002
614.4007778
308.1889383
308.3615586
308.515184
301.5130247
309.5383956
312.9312231
315.1899861
321.1070206
328.5658267
330.7892985
338.0665714
333.2124098
339.2724561
347.0067397
357.7125847
354.4576432
371.8075681
388.8766451
400.8936568
416.3377759
434.4515551
451.1390276
473.8534307
492.3715343
509.094815
517.581512
543.3262139
551.6439887
578.4614787
583.848763
304.689012
301.2187564
305.1473399
307.9910792
304.9348498
305.8731014
306.8913738
314.6969843
321.9271481
326.0560712
328.0860768
335.2528584
332.9080628
343.1701928
347.0979848
364.8165721
367.4252234
379.0281341
383.8233221
403.526256
406.2421755
413.6302925
436.5157342
459.5913769
485.1325688
485.0322926
512.6904527
523.254639
548.2004796
558.4125295
300.022251
301.3819825
300.7535382
303.79815
308.1968053
309.4144842
309.4665726
316.4466991
315.082518
318.7444537
320.9254095
324.7974155
331.0910066
325.8703033
340.749471
352.3131689
350.6346797
359.4308505
372.8706295
386.4345979
400.7214655
410.3175463
417.8426911
435.1849823
456.8909719
476.8267512
487.0055491
508.2337715
518.9501086
538.2828925
307.3003161
309.0281583
308.7165931
311.3354163
308.6371269
308.8701262
308.3007648
314.0243626
309.5664404
316.2541777
318.1854638
321.4837532
322.6854863
329.7645122
330.5092479
346.5073715
351.2265195
351.6949193
360.5085002
371.323948
381.123498
385.904784
404.2379854
406.0169119
429.1248223
445.2785087
468.044758
477.9358327
496.3723887
512.0503917
298.615567
300.2413324
304.4073169
309.7901038
309.6553365
307.2449643
308.1949077
311.3693157
311.4126855
312.4853095
316.1517961
320.6448765
320.3358344
324.2738497
326.1127746
331.9648036
342.544151
339.6022998
349.7921295
354.7770869
363.9351263
371.4481747
387.597363
396.0951947
406.8371089
420.6329627
426.0798579
447.9434435
457.7151453
483.6197226
301.3651459
302.8972631
301.7581763
302.0400246
301.7495631
302.6582694
306.0206191
302.4591558
307.8265398
311.0404489
309.739126
306.0099282
316.4687267
312.6540051
315.6375517
319.5123945
321.9874663
332.3957558
334.4232506
339.6029295
346.101505
352.4195956
357.8561378
375.4731978
386.0142544
397.0904145
413.9979459
424.5043333
438.8022342
454.2495889
297.7937746
296.9322939
297.471281
299.1742468
302.7918031
299.6343692
299.0224647
301.6340326
304.0597648
306.7939054
309.4597067
307.6539313
306.9878499
310.1394332
312.8672962
319.0736973
321.6704259
320.8617939
327.1700471
328.507885
345.0471723
348.0169851
350.8419294
354.3635141
358.4152739
369.4985317
376.0061156
387.8706913
410.045311
424.770221
299.0436735
300.1516833
300.9812233
298.6992608
302.3465623
304.2717343
306.1650607
305.5117108
307.2610506
306.5472341
308.7747912
306.9744266
308.9346335
310.3269054
315.4189155
313.8386965
317.1709656
318.4705662
319.7155515
325.9795572
328.3176062
336.1187338
341.3798964
345.8197762
349.0251923
362.0757133
371.5498007
380.0401409
390.1737158
406.4263751
304.1663422
302.0378211
303.4172654
303.1006285
303.2177275
304.2454742
306.81903
304.8507092
301.1222143
306.6614269
306.7021571
311.7774728
311.3381688
312.9203161
311.3995283
310.5390769
314.040937
318.60035
322.8026108
318.9183555
320.789091
327.3006563
332.8101932
336.5208627
346.5035434
343.6685617
352.6676003
366.7307669
376.4768621
384.885321
296.9594924
296.5346448
298.3373677
302.0501478
301.7443178
299.2900458
299.1046772
302.4843648
306.4716831
304.9723926
304.7448344
300.9230404
302.5153348
305.3573087
307.6085892
309.0706717
306.8987456
308.9367985
311.2219835
314.3808999
314.694271
316.2577696
318.5837248
332.8158538
332.5132883
350.746128
349.4210253
349.1128391
363.0844133
364.683808
306.4825737
304.0955709
304.6027284
304.6572141
304.3695254
304.457167
306.1386426
303.0951155
301.829424
300.356979
304.5708642
304.1055999
301.2800108
303.5156368
303.5014231
304.7715173
312.594645
307.6111299
313.1907596
315.4647953
314.2209106
311.3830215
313.086182
319.4742082
327.7705057
336.7232487
346.1216199
349.1112446
356.7808869
362.7599865
300.7897296
302.5619125
299.3590964
300.3287411
300.6460952
300.0437766
298.1169695
300.7618657
298.8132978
300.3403534
296.8328594
300.471189
301.5832264
300.6146821
303.1306988
302.7012993
303.4381831
300.893714
298.5284642
300.8041014
312.1066581
312.8529235
312.4993251
309.0138901
318.7624398
326.465108
323.3791634
327.7037935
337.1748378
345.9314807
301.9248251
302.9013248
302.075447
302.0217727
303.7851966
300.1053493
302.4350315
301.8654027
302.6514734
302.353771
302.5581288
301.8828303
300.0948907
301.116559
300.6334909
297.9576972
298.7837762
301.9528841
302.1812056
308.1095459
308.227774
311.9780713
313.5561489
315.0822807
310.4793345
322.8842121
322.6678339
332.3698927
329.3026332
341.8400779
299.4694478
298.410931
299.950657
296.1243858
299.4164092
302.5174159
299.99747
294.7583084
297.4386741
298.9852839
301.4186061
301.4088354
301.9995753
302.5653038
305.3535537
306.0296951
304.3724276
307.8123819
304.6008925
305.8894051
311.9526416
309.3201661
308.753453
310.8745254
315.3068476
312.0106185
314.9500952
319.9434419
325.7289111
327.2500725
300.070169
302.0417738
303.2487586
298.54381
298.4095756
297.9396159
300.4330432
300.8773295
300.9709092
301.9446459
298.9460511
300.8862568
300.6061765
298.0120725
294.3866467
295.9381415
300.2073934
303.3841747
304.6127207
302.1053256
303.3231158
310.2855904
317.3247918
309.4949038
311.5073634
306.6202722
310.3860385
317.7665441
315.90515
321.1980516
)
;

boundaryField
{
    flow
    {
        type            calculated;
        value           nonuniform List<scalar> 
55
(
714.9236741
703.5675324
690.4765379
680.3939068
668.3158946
664.0085523
651.0995285
635.2924058
629.9221924
614.4007778
583.848763
558.4125295
538.2828925
512.0503917
483.6197226
454.2495889
424.770221
406.4263751
384.885321
364.683808
362.7599865
345.9314807
341.8400779
327.2500725
321.1980516
300.070169
302.0417738
303.2487586
298.54381
298.4095756
297.9396159
300.4330432
300.8773295
300.9709092
301.9446459
298.9460511
300.8862568
300.6061765
298.0120725
294.3866467
295.9381415
300.2073934
303.3841747
304.6127207
302.1053256
303.3231158
310.2855904
317.3247918
309.4949038
311.5073634
306.6202722
310.3860385
317.7665441
315.90515
321.1980516
)
;
    }
    obstacle
    {
        type            calculated;
        value           nonuniform List<scalar> 0();
    }
    frontAndBack
    {
        type            empty;
    }
    procBoundary3to1
    {
        type            processor;
        value           nonuniform List<scalar> 
36
(
728.90644
715.3152088
707.961743
721.1649594
715.7392045
715.7392045
680.0035903
670.2656117
686.4536612
693.3880524
700.3815886
698.3508434
698.3508434
583.3319308
590.980935
604.2934207
627.1590017
631.5582668
631.5582668
432.641545
452.778978
481.8814799
492.5076267
501.2550457
522.1634946
522.1634946
337.185503
332.9211188
342.7591272
358.8272797
375.0664659
372.5547717
385.8175352
385.8175352
325.0367033
325.0367033
)
;
    }
    procBoundary3to2
    {
        type            processor;
        value           nonuniform List<scalar> 
19
(
310.9419627
310.6522651
307.6457728
303.1068922
302.8390254
303.136987
296.1077409
304.9496102
304.0711907
300.1725841
300.8009883
298.6172732
304.8973985
296.5518957
303.8971894
299.5184447
300.7810919
300.0920769
298.5112369
)
;
    }
}


// ************************************************************************* //
