/*--------------------------------*- C++ -*----------------------------------*\
| =========                 |                                                 |
| \\      /  F ield         | OpenFOAM: The Open Source CFD Toolbox           |
|  \\    /   O peration     | Version:  2406                                  |
|   \\  /    A nd           | Website:  www.openfoam.com                      |
|    \\/     M anipulation  |                                                 |
\*---------------------------------------------------------------------------*/
FoamFile
{
    version     2.0;
    format      ascii;
    arch        "LSB;label=32;scalar=64";
    class       volScalarField;
    location    "0.002";
    object      p;
}
// * * * * * * * * * * * * * * * * * * * * * * * * * * * * * * * * * * * * * //

dimensions      [1 -1 -2 0 0 0 0];

internalField   nonuniform List<scalar> 
654
(
2.330227107
2.361085188
2.400865167
2.363022648
2.343048405
2.37179698
1.915799789
2.016544796
2.067995137
2.133314228
2.221855306
2.326284221
2.32125007
2.332270278
2.353452085
2.287436899
2.310152325
1.158526082
1.330803391
1.367100373
1.49576034
1.62548026
1.789095019
1.856258698
1.892924757
2.003955765
2.115435446
2.160613547
2.27641635
2.304853777
2.255988616
2.260208288
2.224535742
0.690084351
0.7183532985
0.755783118
0.8651771882
0.891169263
0.9722017191
1.041518344
1.137565954
1.217595942
1.344711751
1.470344693
1.575593917
1.733170726
1.780291204
1.795126006
1.896132305
2.01085317
2.129018824
2.149237909
2.209295496
2.170847184
2.225497741
0.4629205075
0.4651320817
0.478268274
0.509621493
0.5516358539
0.5522832798
0.5990151019
0.607255712
0.657266544
0.7147339698
0.7437492018
0.7988652582
0.8616403161
0.9292351359
0.9903438883
1.112351329
1.151194109
1.239323337
1.349440801
1.444020226
1.611672469
1.673001511
1.762586502
1.880454391
1.961063945
1.998378324
2.038855165
2.13973058
2.137774538
0.4688827611
0.4716779366
0.4813415781
0.4819791344
0.4762296772
0.5053838012
0.530124108
0.5529894411
0.5810029115
0.6149914939
0.6699892068
0.6750938174
0.7438550944
0.7841853886
0.8386459426
0.8819987417
0.9346588489
0.9957081659
1.060270309
1.146540586
1.277745386
1.417644021
1.504566547
1.547947179
1.681058074
1.797718678
1.923981893
1.94379237
1.982701742
2.034268797
0.4514538161
0.4469582094
0.4438815511
0.4615405534
0.4929117505
0.5002363465
0.51230485
0.5223217484
0.5609810648
0.5591559721
0.5668006747
0.6507476545
0.6610783019
0.7165071921
0.7324755801
0.7816940931
0.829836365
0.9030826279
0.9625217344
1.030490432
1.108426391
1.204537819
1.290243487
1.400615672
1.521791686
1.614086888
1.779408745
1.876761291
1.92480434
1.978013278
0.4416261334
0.4512260101
0.4561393174
0.460408178
0.4764766573
0.4929796541
0.4954328059
0.4961311663
0.5223465429
0.5248307174
0.538195076
0.5585358304
0.5628136198
0.6078756552
0.6890550604
0.7168459557
0.7540517886
0.8060525967
0.8425706788
0.9117645604
1.010942302
1.080776124
1.132085513
1.259621365
1.308954804
1.394936129
1.524003278
1.63409381
1.767203257
1.827348885
0.4338252141
0.4394394533
0.4499850361
0.4374676532
0.4515486494
0.461863475
0.4846259274
0.4739337125
0.5185929756
0.5162925699
0.5122103529
0.508712066
0.5435268136
0.565230304
0.5967560029
0.6414397586
0.6873031321
0.7067954856
0.7834705153
0.8529457065
0.876224713
0.9616777518
1.076838997
1.096216051
1.171269309
1.30533608
1.390495749
1.514519479
1.604683962
1.68267873
0.4333057039
0.4311714618
0.434355132
0.4145015504
0.4399517301
0.4479905959
0.457475286
0.462244538
0.480898365
0.4851689133
0.5063469325
0.4895803404
0.5030721767
0.5295089878
0.5535952847
0.551768092
0.6057411952
0.6631275082
0.6885195534
0.7273700424
0.8044083749
0.863019994
0.9504347064
1.029645659
1.101886731
1.14304953
1.272739614
1.324392489
1.441192519
1.501522999
0.426282662
0.4209227484
0.4356854619
0.4362570508
0.4282767741
0.425971262
0.4219317846
0.4438061399
0.4656998773
0.4773995885
0.476426007
0.4900622311
0.4841556281
0.5029586133
0.5137876349
0.5637155986
0.5638791971
0.6065787839
0.6478080001
0.7160775532
0.7060058404
0.7336090331
0.8107128976
0.8915845423
0.9869054979
1.001217442
1.117681715
1.169621516
1.31984979
1.4107791
0.429302143
0.4230887359
0.4086523837
0.4217956199
0.4308763991
0.4357548919
0.4388817281
0.4490984364
0.4418630766
0.4416949425
0.4625878697
0.4812744364
0.4945206456
0.4834290428
0.5179563651
0.5550056985
0.553902399
0.5624062798
0.5874725526
0.6109378138
0.6771784501
0.7141748066
0.7435026427
0.7952890914
0.8550354262
0.9375605629
0.9846965173
1.076718742
1.149951818
1.255454921
0.419989838
0.4294437825
0.4272028276
0.4358562734
0.4247653393
0.4188168349
0.4192010933
0.4273583933
0.4282664616
0.4466407298
0.4406481935
0.4470431507
0.4644709807
0.478689004
0.4818107374
0.5134231841
0.5286279525
0.5335813588
0.5519662139
0.5898216746
0.610512755
0.6194965032
0.678265297
0.6981592429
0.772740646
0.826503443
0.9033143131
0.947700256
1.034313569
1.115123273
0.407297308
0.4096476225
0.4152678258
0.4287083829
0.4295963303
0.4285125195
0.4227431993
0.4213703383
0.4214068784
0.4280585514
0.433510312
0.4396366473
0.4338108567
0.444159505
0.4561254585
0.4679908469
0.5009921535
0.5064809491
0.526962367
0.5421305062
0.5557946386
0.583132234
0.6291171338
0.6622754745
0.7021835511
0.7452961728
0.778150319
0.8547792901
0.8923541486
0.9850337737
0.4050547323
0.4102120457
0.4075966146
0.4082651786
0.4015644007
0.4098042642
0.4215689624
0.4219737235
0.4297924203
0.4360623677
0.43533378
0.4329413166
0.450766832
0.454661183
0.458365044
0.4631500148
0.4666763754
0.4848232766
0.4844132781
0.5018940999
0.5208275082
0.5469104522
0.5589806889
0.5977064348
0.6377400596
0.6814804822
0.738445072
0.7786656805
0.8224636878
0.876903987
0.4084301875
0.4041885818
0.4066397837
0.4172801033
0.425071084
0.4163769961
0.416854529
0.4243914242
0.4372070619
0.4437321951
0.4475369047
0.4429087697
0.4505480257
0.4576929805
0.4635992404
0.4757840922
0.4782007823
0.4751217471
0.495209598
0.4936867991
0.5292761584
0.5400466273
0.5516427875
0.5711371251
0.5821497249
0.6066677077
0.6227796191
0.6692989421
0.740246493
0.7975331659
0.424712892
0.4283160252
0.4301300509
0.4133692939
0.4229479483
0.4275403177
0.4285571646
0.4168155369
0.4213698829
0.4243182177
0.4423738426
0.4321385885
0.4318532928
0.4272767757
0.4357255297
0.4410030283
0.4545939809
0.4561094779
0.4686544649
0.4873241726
0.4971232378
0.5051949577
0.5213032582
0.5274490865
0.5305225429
0.5686475888
0.5917753756
0.6291255888
0.64980823
0.7113770941
0.4206862672
0.4160028354
0.4266263131
0.4311414741
0.4258836054
0.4275117206
0.4317388956
0.4341565243
0.4187404999
0.4296937364
0.4199006754
0.4287913849
0.4358375849
0.4446642537
0.4413808417
0.4377027357
0.4447897314
0.4542284223
0.4664317833
0.4504180834
0.4657423489
0.4889150859
0.4941659063
0.5042422912
0.537671941
0.5338455443
0.5656893283
0.5937243274
0.6182971992
0.6368162126
0.3967729251
0.3926860388
0.3972320494
0.4049490291
0.4044141416
0.4039228305
0.4111467282
0.4229415448
0.4308550479
0.4198122578
0.4260060968
0.4232247295
0.4268303127
0.4267219763
0.4380373328
0.4393063823
0.4327986811
0.4363276264
0.4424784831
0.4554411137
0.4563174716
0.4548638366
0.4642930175
0.4929210529
0.4889171501
0.5317045097
0.5249595558
0.5436045733
0.5928615229
0.6060600023
0.4138781963
0.4067697891
0.4106035262
0.4118617163
0.4155677469
0.4136957499
0.4092425195
0.4022940457
0.4084488223
0.4146645564
0.4238962797
0.4167758388
0.4077300856
0.413312104
0.4162425368
0.4162343461
0.4346245898
0.4323822616
0.447540279
0.4505313719
0.4481746356
0.4484209272
0.4512870458
0.4672199013
0.4935428441
0.5197798064
0.5243224351
0.518443659
0.5449086452
0.5663899611
0.4200567286
0.4207693759
0.4063195067
0.4143685311
0.414543373
0.4132284951
0.4168820651
0.4259351183
0.4132113056
0.4176937383
0.4098575821
0.425102359
0.4272556339
0.4217368808
0.4249402056
0.4298179486
0.4312445162
0.4231101938
0.4157715618
0.4128528139
0.4341686802
0.437853485
0.4421493926
0.4314638815
0.4569914141
0.481087112
0.4838655848
0.5179973532
0.5355052011
0.5570616543
0.4265071125
0.4299529389
0.4321455669
0.4359398996
0.4409144411
0.4232218801
0.4198301925
0.4154852933
0.4235495931
0.4155539297
0.4097789015
0.4118624641
0.4210712857
0.4252744377
0.4272506856
0.4173483041
0.4223843209
0.4232486129
0.4220800279
0.4359693161
0.4367432364
0.4508388001
0.4516199469
0.4543440697
0.442854064
0.4745285175
0.4765773431
0.4813686161
0.4796665624
0.5120949788
0.4205723128
0.4145291415
0.4222300463
0.4151249006
0.4174016844
0.4305216641
0.4299344395
0.4153889629
0.4130673062
0.4187337379
0.4225184666
0.4218219406
0.4217144499
0.415708581
0.4201239727
0.4215411041
0.418198001
0.4327256482
0.4283294348
0.4312667634
0.4464592506
0.4330132191
0.4376520127
0.4498060643
0.4650950959
0.4508688171
0.4621876582
0.4751905033
0.4855620494
0.4928059809
0.4008716515
0.4090440687
0.4098345805
0.4039183259
0.4004897943
0.4033236763
0.408928941
0.4135564245
0.4169342356
0.4234085726
0.4196130533
0.4154497035
0.4100667944
0.4028722915
0.3939902177
0.4049091501
0.4074035146
0.4074792547
0.4049437885
0.4049216729
0.4129899604
0.4376356628
0.445308052
0.4302917092
0.4296669519
0.4184057673
0.4264350384
0.4467722704
0.4537422442
0.4672007721
)
;

boundaryField
{
    flow
    {
        type            calculated;
        value           nonuniform List<scalar> 
55
(
2.330227107
2.37179698
2.310152325
2.224535742
2.225497741
2.137774538
2.034268797
1.978013278
1.827348885
1.68267873
1.501522999
1.4107791
1.255454921
1.115123273
0.9850337737
0.876903987
0.7975331659
0.7113770941
0.6368162126
0.6060600023
0.5663899611
0.5570616543
0.5120949788
0.4928059809
0.4672007721
0.4008716515
0.4090440687
0.4098345805
0.4039183259
0.4004897943
0.4033236763
0.408928941
0.4135564245
0.4169342356
0.4234085726
0.4196130533
0.4154497035
0.4100667944
0.4028722915
0.3939902177
0.4049091501
0.4074035146
0.4074792547
0.4049437885
0.4049216729
0.4129899604
0.4376356628
0.445308052
0.4302917092
0.4296669519
0.4184057673
0.4264350384
0.4467722704
0.4537422442
0.4672007721
)
;
    }
    obstacle
    {
        type            calculated;
        value           nonuniform List<scalar> 0();
    }
    frontAndBack
    {
        type            empty;
    }
    procBoundary3to1
    {
        type            processor;
        value           nonuniform List<scalar> 
36
(
2.301668541
2.415424889
2.380614293
2.422769824
2.390895278
2.390895278
2.068688728
2.058248014
2.242465387
2.272139473
2.334303966
2.331272732
2.331272732
1.356249236
1.462348573
1.556589554
1.692036584
1.74274695
1.74274695
0.7615414845
0.7969718975
0.9182304922
0.9521713505
0.9890213609
1.069259485
1.069259485
0.5027163407
0.4934384937
0.5213811147
0.5602613703
0.5965095865
0.5866201302
0.6225932691
0.6225932691
0.4667387149
0.4667387149
)
;
    }
    procBoundary3to2
    {
        type            processor;
        value           nonuniform List<scalar> 
19
(
0.4521865403
0.4393410736
0.4294878461
0.4264553093
0.419173826
0.4328074761
0.4111911341
0.4182899696
0.4207733252
0.4053072081
0.4108188627
0.4154848487
0.4239676654
0.3996967973
0.4022682309
0.4167464721
0.4171415594
0.4228890641
0.4045017631
)
;
    }
}


// ************************************************************************* //
