/*--------------------------------*- C++ -*----------------------------------*\
| =========                 |                                                 |
| \\      /  F ield         | OpenFOAM: The Open Source CFD Toolbox           |
|  \\    /   O peration     | Version:  2406                                  |
|   \\  /    A nd           | Website:  www.openfoam.com                      |
|    \\/     M anipulation  |                                                 |
\*---------------------------------------------------------------------------*/
FoamFile
{
    version     2.0;
    format      ascii;
    arch        "LSB;label=32;scalar=64";
    class       volScalarField;
    location    "0.002";
    object      rhoMMean;
}
// * * * * * * * * * * * * * * * * * * * * * * * * * * * * * * * * * * * * * //

dimensions      [1 -3 0 0 0 0 0];

internalField   nonuniform List<scalar> 
654
(
1.085885516e-05
1.075277876e-05
1.101230843e-05
1.100853008e-05
1.106119497e-05
1.122396362e-05
8.908432726e-06
9.383917359e-06
9.720134875e-06
1.016208994e-05
1.040411519e-05
1.074452615e-05
1.088521472e-05
1.087019744e-05
1.103006623e-05
1.099745169e-05
1.107599838e-05
6.478908519e-06
6.943506063e-06
7.193365128e-06
7.527723918e-06
8.011573363e-06
8.557614391e-06
8.738064657e-06
9.007409208e-06
9.421422767e-06
9.872724143e-06
1.015362298e-05
1.054182526e-05
1.068416521e-05
1.070334041e-05
1.081967295e-05
1.074621223e-05
5.273550735e-06
5.474634513e-06
5.501267671e-06
5.717523944e-06
5.84163767e-06
5.995763817e-06
6.089840179e-06
6.36532529e-06
6.688511811e-06
7.047441677e-06
7.427525593e-06
7.741958729e-06
8.297975472e-06
8.534288809e-06
8.779333845e-06
9.129855336e-06
9.560714945e-06
9.977466798e-06
1.024880347e-05
1.054156688e-05
1.053133884e-05
1.071819658e-05
4.861672447e-06
4.868868322e-06
4.85463919e-06
4.939652289e-06
5.013041818e-06
5.014300868e-06
5.140534165e-06
5.12918826e-06
5.249138727e-06
5.3904303e-06
5.480574677e-06
5.586932057e-06
5.818973184e-06
6.00142024e-06
6.18109947e-06
6.410526666e-06
6.588466275e-06
6.807519806e-06
7.151742149e-06
7.460586244e-06
8.001436285e-06
8.349161395e-06
8.727179507e-06
9.051525628e-06
9.338176914e-06
9.601185687e-06
9.770944116e-06
1.021878891e-05
1.043140617e-05
4.918000163e-06
4.926542125e-06
4.953962617e-06
4.932655047e-06
4.885774288e-06
4.841283842e-06
4.981423672e-06
5.037750391e-06
5.145752652e-06
5.295018736e-06
5.366567854e-06
5.445484791e-06
5.584004878e-06
5.692660277e-06
5.779334929e-06
5.926879261e-06
5.962494614e-06
6.125632918e-06
6.347901157e-06
6.586661713e-06
6.885934916e-06
7.269377783e-06
7.638737322e-06
7.860743314e-06
8.232091849e-06
8.679882368e-06
9.134476222e-06
9.467062559e-06
9.653932457e-06
9.928783819e-06
4.856645012e-06
4.818511565e-06
4.760381092e-06
4.862488903e-06
4.957925631e-06
4.995719719e-06
5.090123581e-06
5.083429746e-06
5.126652608e-06
5.149314435e-06
5.182567352e-06
5.259231176e-06
5.318165584e-06
5.376014862e-06
5.350443786e-06
5.486265959e-06
5.617903772e-06
5.800244406e-06
6.056071434e-06
6.268280177e-06
6.481086633e-06
6.722333592e-06
7.044921278e-06
7.464038428e-06
7.963365224e-06
8.295909916e-06
8.804668388e-06
9.19229872e-06
9.515758687e-06
9.753916209e-06
4.874567042e-06
4.939442888e-06
5.009288984e-06
5.033274144e-06
5.084942066e-06
5.03189805e-06
5.008053271e-06
5.034725008e-06
4.971189506e-06
4.93236553e-06
5.005554857e-06
5.065558587e-06
5.077608151e-06
5.205121826e-06
5.399142514e-06
5.477170999e-06
5.583105431e-06
5.69751095e-06
5.727349041e-06
5.920321213e-06
6.196822142e-06
6.375195767e-06
6.484740314e-06
6.879224793e-06
7.131799553e-06
7.385359623e-06
7.833871469e-06
8.207809828e-06
8.639071723e-06
9.031535193e-06
4.871792607e-06
4.92397892e-06
4.967183643e-06
4.918157622e-06
4.925049054e-06
4.980559655e-06
5.02903342e-06
4.994009076e-06
5.074212993e-06
5.05428452e-06
4.980416232e-06
5.002689048e-06
5.082586379e-06
5.104480521e-06
5.148259896e-06
5.212489824e-06
5.314339116e-06
5.331363652e-06
5.552247518e-06
5.653727764e-06
5.797720203e-06
5.964339622e-06
6.309768731e-06
6.335018831e-06
6.559605148e-06
6.98727551e-06
7.289599714e-06
7.755736042e-06
8.169434168e-06
8.472361152e-06
4.822832186e-06
4.7688958e-06
4.771486405e-06
4.735268956e-06
4.812249696e-06
4.830526789e-06
4.878390183e-06
4.82686884e-06
4.872596023e-06
4.919515965e-06
5.000399457e-06
4.947081004e-06
4.923450078e-06
5.000225842e-06
5.050865149e-06
5.100230636e-06
5.228084318e-06
5.372132689e-06
5.373042036e-06
5.44181365e-06
5.711352283e-06
5.891597219e-06
6.08849643e-06
6.379547636e-06
6.576531427e-06
6.80402996e-06
7.143324956e-06
7.328903681e-06
7.546661051e-06
7.87000825e-06
4.794883841e-06
4.806658136e-06
4.851708562e-06
4.808005601e-06
4.813145426e-06
4.757358332e-06
4.734595124e-06
4.820794513e-06
4.896729243e-06
4.901745045e-06
4.894369732e-06
4.895940439e-06
4.943865392e-06
4.903131702e-06
4.887813245e-06
4.940381425e-06
4.919461438e-06
5.112225456e-06
5.345494088e-06
5.513584311e-06
5.461855099e-06
5.549684212e-06
5.77103967e-06
5.969156363e-06
6.217871708e-06
6.358150028e-06
6.620165738e-06
6.888702254e-06
7.350670799e-06
7.690627869e-06
4.866435426e-06
4.818228619e-06
4.724392703e-06
4.809153697e-06
4.835486197e-06
4.873371247e-06
4.868889746e-06
4.866774894e-06
4.813107343e-06
4.75992787e-06
4.864060253e-06
4.977707075e-06
4.974348254e-06
4.970919139e-06
5.053948843e-06
5.18789121e-06
5.220078491e-06
5.129649587e-06
5.136045432e-06
5.096259881e-06
5.3798694e-06
5.496390945e-06
5.556417941e-06
5.668314251e-06
5.79614067e-06
6.027403489e-06
6.209553716e-06
6.496397505e-06
6.722510276e-06
7.137626708e-06
4.768528907e-06
4.805605379e-06
4.781854606e-06
4.7764953e-06
4.703961863e-06
4.699741041e-06
4.704762269e-06
4.693042731e-06
4.729411053e-06
4.802424697e-06
4.742491948e-06
4.744815663e-06
4.856866593e-06
4.914335797e-06
4.942094048e-06
4.913726034e-06
5.000431656e-06
5.052108713e-06
5.080534272e-06
5.21242917e-06
5.204474247e-06
5.195942712e-06
5.312060837e-06
5.430666425e-06
5.57739594e-06
5.749874933e-06
5.949403015e-06
6.105748686e-06
6.393790742e-06
6.622403043e-06
4.781411161e-06
4.770711065e-06
4.777305627e-06
4.801609486e-06
4.821526387e-06
4.807858112e-06
4.761495283e-06
4.687002564e-06
4.703646066e-06
4.741757561e-06
4.743637074e-06
4.699202557e-06
4.66752907e-06
4.687874177e-06
4.785199452e-06
4.809731635e-06
4.894586645e-06
4.962449987e-06
4.954054273e-06
5.018652006e-06
5.00263887e-06
5.131128804e-06
5.220016011e-06
5.328582898e-06
5.46160046e-06
5.557019551e-06
5.696707682e-06
5.894423363e-06
6.013742212e-06
6.289692081e-06
4.703026175e-06
4.732206109e-06
4.723565519e-06
4.750646365e-06
4.641296406e-06
4.739579407e-06
4.760483704e-06
4.839038867e-06
4.802476194e-06
4.809606657e-06
4.821032143e-06
4.895773084e-06
4.843963325e-06
4.916577704e-06
4.900515598e-06
4.880849775e-06
4.875206869e-06
4.877378782e-06
4.854787072e-06
4.889637472e-06
4.915918794e-06
5.022791386e-06
5.07886309e-06
5.150962542e-06
5.287476785e-06
5.461549313e-06
5.59835244e-06
5.735431732e-06
5.841391473e-06
5.972594794e-06
4.804529263e-06
4.723835269e-06
4.703913418e-06
4.775889729e-06
4.814188058e-06
4.813518604e-06
4.818387359e-06
4.85136351e-06
4.966373913e-06
4.96307128e-06
4.928537083e-06
4.937363391e-06
5.002279589e-06
4.990346844e-06
5.004618884e-06
5.008166563e-06
5.008301727e-06
5.005298585e-06
5.074175163e-06
5.088741781e-06
5.077445454e-06
5.142131385e-06
5.118483333e-06
5.220143047e-06
5.254988949e-06
5.235852243e-06
5.252741083e-06
5.464479184e-06
5.617988195e-06
5.792402919e-06
4.890435663e-06
4.97179211e-06
4.99599449e-06
4.870553549e-06
4.86618752e-06
4.857651122e-06
4.835146969e-06
4.772530397e-06
4.745034588e-06
4.783306109e-06
4.841075441e-06
4.766295395e-06
4.733191345e-06
4.716688418e-06
4.735701999e-06
4.819069578e-06
4.869558523e-06
4.897978419e-06
4.959426891e-06
5.020177772e-06
5.089053748e-06
5.016110567e-06
5.06855482e-06
5.010366594e-06
5.015983156e-06
5.101491433e-06
5.173159208e-06
5.259835152e-06
5.239277059e-06
5.524503897e-06
4.809049918e-06
4.798096035e-06
4.838177022e-06
4.896300832e-06
4.883160377e-06
4.910795917e-06
4.887733326e-06
4.930763445e-06
4.828592931e-06
4.834660212e-06
4.794025401e-06
4.827862802e-06
4.868542772e-06
4.891282894e-06
4.847131055e-06
4.817832299e-06
4.78044151e-06
4.809329364e-06
4.83130712e-06
4.808143249e-06
4.874663464e-06
4.929041191e-06
4.971411495e-06
4.985213511e-06
5.117779298e-06
5.097023371e-06
5.183865205e-06
5.240620148e-06
5.266535565e-06
5.288299015e-06
4.715471831e-06
4.667281443e-06
4.698601688e-06
4.677446825e-06
4.657278474e-06
4.668819132e-06
4.747241866e-06
4.802526895e-06
4.853303144e-06
4.773015937e-06
4.792444115e-06
4.801887412e-06
4.837034975e-06
4.814457028e-06
4.91995253e-06
4.918373136e-06
4.875403536e-06
4.880548055e-06
4.868717271e-06
4.876425553e-06
4.873528067e-06
4.838170327e-06
4.844827095e-06
4.901161739e-06
4.914369363e-06
4.969869134e-06
4.970882391e-06
5.114124615e-06
5.261036716e-06
5.2912817e-06
4.714490416e-06
4.690240394e-06
4.686344068e-06
4.692729923e-06
4.746826539e-06
4.760828845e-06
4.716674259e-06
4.694545072e-06
4.744317063e-06
4.782579074e-06
4.821295771e-06
4.774720638e-06
4.749150385e-06
4.765554498e-06
4.759560503e-06
4.738392155e-06
4.776547519e-06
4.811268099e-06
4.876870657e-06
4.889839246e-06
4.861289743e-06
4.903945365e-06
4.894293689e-06
4.879108746e-06
5.001696077e-06
5.026410572e-06
4.973431132e-06
4.91641042e-06
5.007857656e-06
5.095726472e-06
4.801445274e-06
4.807482724e-06
4.718779529e-06
4.788889549e-06
4.767863092e-06
4.786428431e-06
4.842529573e-06
4.891015828e-06
4.833575821e-06
4.874143663e-06
4.875715823e-06
4.908270004e-06
4.950070824e-06
4.870015693e-06
4.861456318e-06
4.902428861e-06
4.88801775e-06
4.815670848e-06
4.757701883e-06
4.706818807e-06
4.759975558e-06
4.77197851e-06
4.810311773e-06
4.805755091e-06
4.865229923e-06
4.921035769e-06
4.996349526e-06
5.181720167e-06
5.199428759e-06
5.228336754e-06
4.908148091e-06
4.90566334e-06
4.958875687e-06
4.970735369e-06
4.968277079e-06
4.884111642e-06
4.826171501e-06
4.769376808e-06
4.807926617e-06
4.734380091e-06
4.6981586e-06
4.712436846e-06
4.767884297e-06
4.815758358e-06
4.81691696e-06
4.78156041e-06
4.807918014e-06
4.809795305e-06
4.846110095e-06
4.860217879e-06
4.863806729e-06
4.950928715e-06
4.944185784e-06
4.931046245e-06
4.902047308e-06
4.975869582e-06
4.993228177e-06
4.864525308e-06
4.894275704e-06
4.966137572e-06
4.868491269e-06
4.816251158e-06
4.847234909e-06
4.821634883e-06
4.79879576e-06
4.859348806e-06
4.888422988e-06
4.829679036e-06
4.770018421e-06
4.783521553e-06
4.7962729e-06
4.821795419e-06
4.792910148e-06
4.740966603e-06
4.742489324e-06
4.760622541e-06
4.774758523e-06
4.856863931e-06
4.857966606e-06
4.874662649e-06
4.869918572e-06
4.790847275e-06
4.846392861e-06
4.957852204e-06
5.017961159e-06
4.926528077e-06
4.982810655e-06
5.012548089e-06
5.059445882e-06
5.052323903e-06
4.614969969e-06
4.646043098e-06
4.630161445e-06
4.683300448e-06
4.65250225e-06
4.67335574e-06
4.680736013e-06
4.719969586e-06
4.755850943e-06
4.83719651e-06
4.822882867e-06
4.766431554e-06
4.72851517e-06
4.709762209e-06
4.713542441e-06
4.776206848e-06
4.721919561e-06
4.65864827e-06
4.655064643e-06
4.710545086e-06
4.743931815e-06
4.813128327e-06
4.758731101e-06
4.726301447e-06
4.664641626e-06
4.711332384e-06
4.743790269e-06
4.819373827e-06
4.871590815e-06
4.940587423e-06
)
;

boundaryField
{
    flow
    {
        type            calculated;
        value           nonuniform List<scalar> 
55
(
1.085885516e-05
1.122396362e-05
1.107599838e-05
1.074621223e-05
1.071819658e-05
1.043140617e-05
9.928783819e-06
9.753916209e-06
9.031535193e-06
8.472361152e-06
7.87000825e-06
7.690627869e-06
7.137626708e-06
6.622403043e-06
6.289692081e-06
5.972594794e-06
5.792402919e-06
5.524503897e-06
5.288299015e-06
5.2912817e-06
5.095726472e-06
5.228336754e-06
4.966137572e-06
5.052323903e-06
4.940587423e-06
4.614969969e-06
4.646043098e-06
4.630161445e-06
4.683300448e-06
4.65250225e-06
4.67335574e-06
4.680736013e-06
4.719969586e-06
4.755850943e-06
4.83719651e-06
4.822882867e-06
4.766431554e-06
4.72851517e-06
4.709762209e-06
4.713542441e-06
4.776206848e-06
4.721919561e-06
4.65864827e-06
4.655064643e-06
4.710545086e-06
4.743931815e-06
4.813128327e-06
4.758731101e-06
4.726301447e-06
4.664641626e-06
4.711332384e-06
4.743790269e-06
4.819373827e-06
4.871590815e-06
4.940587423e-06
)
;
    }
    obstacle
    {
        type            calculated;
        value           nonuniform List<scalar> 0();
    }
    frontAndBack
    {
        type            empty;
    }
    procBoundary3to1
    {
        type            processor;
        value           nonuniform List<scalar> 
36
(
1.058369805e-05
1.107037604e-05
1.109807087e-05
1.110086088e-05
1.106149107e-05
1.106149107e-05
9.383752445e-06
9.645056452e-06
1.014154943e-05
1.037478741e-05
1.055511474e-05
1.068779307e-05
1.068779307e-05
6.970710205e-06
7.347985371e-06
7.684228644e-06
8.097854972e-06
8.398133137e-06
8.398133137e-06
5.456997043e-06
5.423974817e-06
5.704854668e-06
5.815323622e-06
5.934696731e-06
6.248212648e-06
6.248212648e-06
4.974789679e-06
4.986613302e-06
5.0543643e-06
5.092827056e-06
5.096702551e-06
5.118414293e-06
5.168719015e-06
5.168719015e-06
4.809582309e-06
4.809582309e-06
)
;
    }
    procBoundary3to2
    {
        type            processor;
        value           nonuniform List<scalar> 
19
(
4.951444679e-06
4.792608294e-06
4.854034796e-06
4.906375277e-06
4.77627432e-06
4.924204984e-06
4.753678093e-06
4.766583686e-06
4.80232209e-06
4.723973669e-06
4.771495259e-06
4.81773339e-06
4.832248296e-06
4.744706733e-06
4.657106477e-06
4.824864234e-06
4.826953222e-06
4.862582277e-06
4.660160865e-06
)
;
    }
}


// ************************************************************************* //
