/*--------------------------------*- C++ -*----------------------------------*\
| =========                 |                                                 |
| \\      /  F ield         | OpenFOAM: The Open Source CFD Toolbox           |
|  \\    /   O peration     | Version:  2406                                  |
|   \\  /    A nd           | Website:  www.openfoam.com                      |
|    \\/     M anipulation  |                                                 |
\*---------------------------------------------------------------------------*/
FoamFile
{
    version     2.0;
    format      ascii;
    arch        "LSB;label=32;scalar=64";
    class       volScalarField;
    location    "0.002";
    object      rhoM;
}
// * * * * * * * * * * * * * * * * * * * * * * * * * * * * * * * * * * * * * //

dimensions      [1 -3 0 0 0 0 0];

internalField   nonuniform List<scalar> 
654
(
1.712545439e-05
1.276997339e-05
1.141334965e-05
7.430811985e-06
7.312479638e-06
1.438160952e-05
8.569985165e-06
1.012699409e-05
1.127215331e-05
8.615456947e-06
1.030551757e-05
9.674142461e-06
1.304491817e-05
1.141334955e-05
1.068221176e-05
1.312328431e-05
1.353062177e-05
9.049467183e-06
6.277327715e-06
3.797670924e-06
7.489285972e-06
6.350797652e-06
5.453816523e-06
8.81761403e-06
8.014227298e-06
1.154772401e-05
8.334158643e-06
9.764249705e-06
1.669254035e-05
1.362174134e-05
1.309593908e-05
1.51855471e-05
1.845022628e-05
8.072619379e-06
9.173319792e-06
3.537316644e-06
3.565517925e-06
1.004779305e-05
7.08242861e-06
6.559045015e-06
2.344073408e-06
5.992965186e-06
8.596123713e-06
7.638065622e-06
1.17724245e-05
6.810038132e-06
8.365288972e-06
7.106127104e-06
1.613028147e-05
1.184324989e-05
8.574658633e-06
1.10463929e-05
1.467646886e-05
1.171729878e-05
1.343404163e-05
3.75288133e-06
4.385507199e-06
6.399784302e-06
3.914395458e-06
4.021259464e-06
6.779999789e-06
4.005124704e-06
5.06558415e-06
4.067984146e-06
5.948947479e-06
6.563705681e-06
8.250706803e-06
4.117737218e-06
6.559045067e-06
5.943612321e-06
1.038152033e-05
7.915465783e-06
6.2652554e-06
9.087609038e-06
4.976485401e-06
1.223969374e-05
7.106127043e-06
1.039483043e-05
1.193335703e-05
7.115609669e-06
1.638500239e-05
9.939354318e-06
1.687408449e-05
8.893920087e-06
5.960239096e-06
5.32919989e-06
6.048912551e-06
2.28511293e-06
6.830605051e-06
4.408528048e-06
3.974417842e-06
5.026446798e-06
8.072619317e-06
6.939615341e-06
1.061194993e-05
5.83483876e-06
4.247479439e-06
4.776337049e-06
6.974782078e-06
9.0405619e-06
6.583849545e-06
5.447312573e-06
7.638065685e-06
4.328127978e-06
1.003998257e-05
1.743694359e-05
1.136851951e-05
7.258087068e-06
7.322642952e-06
6.658833021e-06
1.794900283e-05
1.402618903e-05
1.434240728e-05
1.513829656e-05
6.034495312e-06
7.129932087e-06
3.780798076e-06
4.951689739e-06
5.987266265e-06
4.949958914e-06
6.156745687e-06
8.010249408e-06
7.914856078e-06
6.301688565e-06
4.582873076e-06
5.348276887e-06
3.022282876e-06
5.929382849e-06
6.060560594e-06
5.274165125e-06
4.220312077e-06
6.808628173e-06
6.094171052e-06
6.318608022e-06
8.730602352e-06
9.598246946e-06
1.34133231e-05
7.168774139e-06
7.05232109e-06
1.18586171e-05
9.849349354e-06
1.17050392e-05
8.531602681e-06
9.744908045e-06
4.84280647e-06
5.929443981e-06
3.17608893e-06
5.409079341e-06
3.7613973e-06
3.867097212e-06
4.519999825e-06
6.832382783e-06
4.115191339e-06
4.067984115e-06
5.225845537e-06
4.21361648e-06
6.125983154e-06
4.199814206e-06
2.407674755e-06
4.185557313e-06
7.342977106e-06
5.447312573e-06
3.776261711e-06
7.530567239e-06
4.452312817e-06
4.315353197e-06
1.048105603e-05
1.084355338e-05
1.030707108e-05
4.652091485e-06
1.003282759e-05
1.198277168e-05
1.059386526e-05
9.650607078e-06
3.203785551e-06
4.953369409e-06
3.251449917e-06
6.170171969e-06
1.688526493e-06
3.944178308e-06
3.974417872e-06
3.926852502e-06
4.590387745e-06
4.626410263e-06
9.085616753e-06
3.484749595e-06
1.061968258e-05
3.459137284e-06
6.476297653e-06
5.524451716e-06
5.654445539e-06
6.127970323e-06
9.955974963e-06
5.020378201e-06
8.119418264e-06
6.956800053e-06
7.550928657e-06
7.706809957e-06
6.509499803e-06
7.297441494e-06
8.2831318e-06
1.058963427e-05
1.012445069e-05
9.556306025e-06
9.164024647e-06
5.254395379e-06
2.722101719e-06
2.209187174e-06
3.069207774e-06
3.402747494e-06
4.519999859e-06
6.204313447e-06
5.619662206e-06
3.908982788e-06
6.914374403e-06
7.211804209e-06
6.453620559e-06
9.388520133e-06
3.570138425e-06
4.185557313e-06
2.363537434e-06
6.04314442e-06
6.780576137e-06
4.414398551e-06
6.897049678e-06
4.403118561e-06
9.593592554e-06
4.391440797e-06
5.786464027e-06
1.103817671e-05
7.180044456e-06
5.85251955e-06
3.561679459e-06
1.220584989e-05
5.29013848e-06
3.152637273e-06
5.368842553e-06
4.418374348e-06
4.528236974e-06
2.242804587e-06
6.779999687e-06
6.282585554e-06
4.036309658e-06
4.546909564e-06
6.351531398e-06
3.565517897e-06
2.287558437e-06
5.847305828e-06
3.487391011e-06
2.930091736e-06
4.136190476e-06
2.383327387e-06
1.28726797e-06
6.146066731e-06
5.587669673e-06
5.107363028e-06
5.063463272e-06
5.646138168e-06
6.419392615e-06
5.381615946e-06
8.007914311e-06
9.566806834e-06
9.185621653e-06
7.474847314e-06
5.811726706e-06
5.478808951e-06
3.176088953e-06
6.551635815e-06
2.916209594e-06
3.402747443e-06
2.883253964e-06
1.099594372e-06
4.036309689e-06
6.301688565e-06
3.457187201e-06
3.971311571e-06
2.940865472e-06
4.199814206e-06
2.407674774e-06
7.19907798e-06
4.304433677e-06
6.638976212e-06
7.982301907e-06
5.626357815e-06
3.316955962e-06
9.510481546e-06
3.90826292e-06
5.914076819e-06
8.04567867e-06
5.290700017e-06
6.443914019e-06
6.687954599e-06
7.405910986e-06
6.718160343e-06
4.991318866e-06
7.505762552e-06
3.326810857e-06
4.570225894e-06
4.37523885e-06
6.109901815e-06
6.779999738e-06
3.29878309e-06
3.324468334e-06
6.540190556e-06
5.708558978e-06
3.97131154e-06
7.597399727e-06
4.281891193e-06
4.815349509e-06
3.096949433e-06
7.427098647e-06
6.297622279e-06
2.403451561e-06
1.298229873e-06
5.674681277e-06
4.578649401e-06
4.530129282e-06
3.226056293e-06
4.881035986e-06
4.470259723e-06
1.933174188e-06
6.687954539e-06
5.62394211e-06
8.042932291e-06
1.564764679e-06
3.302246296e-06
3.780798049e-06
3.809133238e-06
3.914395458e-06
6.651332635e-06
7.948835743e-06
1.177866573e-06
5.06558415e-06
5.902263826e-06
7.316958474e-06
3.97131154e-06
2.859448047e-06
3.541214305e-06
4.815349509e-06
5.943612369e-06
2.954421793e-06
4.170822926e-06
3.089856626e-06
4.847836909e-06
4.976485443e-06
7.573279012e-06
5.1519956e-06
5.197415216e-06
4.700821454e-06
5.381615899e-06
6.074740106e-06
7.523389476e-06
6.093356672e-06
4.636701564e-06
5.737470449e-06
3.302246249e-06
5.293481551e-06
7.084951173e-06
6.677606894e-06
4.485609207e-06
4.987909719e-06
6.282585649e-06
6.173740262e-06
7.019116005e-06
6.994503819e-06
5.915607107e-06
3.431337683e-06
5.434936989e-06
4.316865088e-06
4.519272674e-06
4.304433677e-06
5.532138526e-06
4.462666796e-06
3.202439334e-06
5.063497047e-06
7.485513739e-06
5.685329634e-06
5.824763901e-06
3.164642657e-06
4.561175564e-06
5.430348656e-06
7.708544457e-06
4.593939905e-06
7.56914835e-06
3.725373774e-06
5.478808951e-06
4.385507199e-06
4.951689739e-06
4.375238883e-06
5.645552072e-06
5.766507885e-06
3.455327492e-06
1.662234167e-06
4.626410228e-06
7.39708783e-06
1.782758962e-06
6.697872768e-06
2.882614403e-06
5.231086558e-06
5.943612417e-06
2.447659015e-06
3.829468908e-06
6.866118337e-06
6.75204634e-06
1.833552689e-06
3.78663957e-06
3.197864185e-06
6.990148405e-06
5.876571323e-06
2.006741494e-06
5.155131169e-06
2.786274779e-06
4.687371145e-06
3.594832586e-06
6.333314932e-06
3.302246273e-06
5.444203477e-06
3.275817907e-06
4.836082243e-06
4.408528048e-06
4.597671923e-06
2.748985908e-06
5.856307112e-06
3.430057339e-06
5.065586597e-06
2.350089183e-06
4.575116875e-06
4.776337087e-06
4.980844337e-06
2.510931086e-06
4.81119643e-06
3.57499108e-06
5.578850366e-06
8.569985237e-06
7.421222362e-06
3.786639538e-06
6.307195997e-06
3.136743454e-06
5.153535541e-06
3.28395854e-06
6.810870671e-06
7.98851445e-06
3.374816898e-06
1.0881078e-05
5.587163305e-06
8.55664169e-06
5.51956444e-06
5.636856569e-06
5.602921951e-06
5.955739563e-06
2.805581866e-06
5.81106062e-06
4.669269395e-06
3.988483482e-06
4.582873112e-06
3.97131154e-06
3.512755086e-06
6.587982802e-06
2.407674774e-06
6.779917269e-06
4.220312111e-06
2.46815332e-06
3.1753988e-06
4.414398551e-06
5.063497047e-06
6.603617233e-06
7.106127043e-06
3.853404979e-06
6.419392615e-06
7.388357375e-06
5.246870331e-06
4.737114672e-06
7.968756762e-06
2.081458779e-06
4.172705781e-06
4.728955841e-06
4.46086813e-06
6.475710058e-06
3.377052986e-06
3.248585192e-06
6.857671835e-06
7.460452222e-06
5.777425506e-06
3.350556675e-06
4.020030157e-06
1.782758976e-06
8.006454594e-06
4.694260066e-06
6.641792482e-06
7.199077922e-06
4.895317991e-06
3.233637066e-06
6.436339852e-06
3.722148297e-06
5.063497004e-06
6.340321031e-06
8.349859829e-06
3.853404979e-06
5.063428251e-06
2.645350009e-06
5.338609541e-06
7.430811985e-06
5.250217035e-06
6.9067624e-06
6.407571195e-06
6.905518603e-06
5.594925444e-06
3.809133266e-06
3.224054829e-06
5.64555203e-06
6.312089882e-06
6.126041246e-06
8.151501029e-06
1.116852225e-06
2.814214754e-06
3.484749595e-06
7.188344922e-06
2.882614403e-06
3.570138425e-06
3.013520609e-06
3.038543394e-06
4.851480726e-06
3.861803911e-06
5.626357815e-06
4.36530125e-06
3.170160542e-06
7.639461094e-06
5.646138168e-06
5.876571272e-06
7.845134145e-06
3.866348411e-06
2.693697314e-06
4.687371145e-06
3.406230654e-06
4.917062651e-06
3.752881276e-06
3.780798049e-06
4.494300137e-06
3.914395458e-06
5.568470946e-06
5.68883583e-06
5.104719037e-06
4.590387745e-06
5.822763116e-06
5.708559022e-06
5.429045232e-06
8.822596348e-06
3.541214277e-06
7.721508685e-06
6.529630668e-06
6.667971092e-06
6.127970373e-06
5.149071924e-06
3.722148328e-06
4.365301176e-06
6.869034653e-06
5.151995644e-06
7.168774139e-06
3.887678467e-06
4.470259723e-06
3.405435305e-06
6.037674583e-06
5.53051083e-06
2.081458798e-06
6.481827318e-06
3.15263725e-06
6.048912595e-06
8.303433342e-06
4.989080438e-06
3.944178338e-06
3.896745774e-06
2.827258109e-06
2.295193855e-06
5.584261168e-06
4.180289097e-06
5.267508585e-06
4.81936912e-06
7.410736693e-06
4.068622846e-06
6.110470068e-06
5.317959227e-06
5.447312573e-06
6.094171052e-06
1.211959217e-06
6.372877111e-06
5.723842008e-06
6.572793058e-06
3.136743454e-06
5.243642786e-06
4.013482954e-06
7.363522844e-06
5.294817089e-06
4.031094021e-06
6.150075371e-06
5.364394696e-06
5.553613462e-06
3.17608893e-06
2.818428305e-06
4.37523885e-06
4.485609207e-06
6.70232764e-06
8.088521548e-06
2.770390278e-06
4.626410228e-06
6.271401977e-06
5.267508585e-06
4.084644668e-06
6.58798275e-06
5.977813228e-06
3.68296781e-06
3.122664944e-06
1.191663683e-06
5.063529681e-06
3.116168714e-06
4.365301213e-06
4.490883962e-06
6.395728369e-06
6.273486853e-06
1.898785611e-06
1.915825595e-06
9.20495787e-06
1.950839867e-06
7.592773549e-06
3.406230716e-06
3.651117558e-06
4.878564898e-06
3.85615904e-06
4.875763983e-06
2.686712357e-06
4.949958914e-06
9.195343846e-06
5.654516261e-06
6.252621912e-06
4.546909564e-06
7.717605709e-06
3.40398132e-06
4.737951717e-06
2.964691424e-06
5.895065766e-06
2.93009176e-06
5.486202429e-06
4.340474833e-06
4.892445281e-06
4.500669196e-06
3.754116983e-06
5.107363028e-06
7.017594732e-06
3.31536916e-06
6.599607048e-06
5.929308549e-06
3.221957009e-06
4.644537181e-06
4.687371145e-06
4.257218523e-06
)
;

boundaryField
{
    flow
    {
        type            zeroGradient;
    }
    obstacle
    {
        type            calculated;
        value           nonuniform List<scalar> 0();
    }
    frontAndBack
    {
        type            empty;
    }
    procBoundary3to1
    {
        type            processor;
        value           nonuniform List<scalar> 
36
(
1.248875279e-05
1.569026815e-05
1.086069731e-05
1.235308164e-05
1.368613015e-05
1.368613015e-05
7.616837884e-06
1.134936246e-05
1.08312049e-05
1.261439189e-05
1.093286635e-05
1.826264267e-05
1.826264267e-05
9.71344651e-06
9.2074196e-06
7.258855446e-06
8.680949595e-06
7.896759707e-06
7.896759707e-06
5.06558415e-06
7.019116005e-06
5.145716067e-06
7.13103585e-06
9.884958164e-06
6.505905729e-06
6.505905729e-06
4.803760352e-06
8.015583289e-06
6.551635815e-06
5.755920151e-06
6.651332685e-06
7.793491548e-06
3.377055316e-06
3.377055316e-06
4.917062686e-06
4.917062686e-06
)
;
    }
    procBoundary3to2
    {
        type            processor;
        value           nonuniform List<scalar> 
19
(
4.216059536e-06
4.80756839e-06
6.878740208e-06
6.287231309e-06
7.099887909e-06
3.845698382e-06
3.18047365e-06
4.80756839e-06
3.698266581e-06
4.437207236e-06
4.142343636e-06
1.627094764e-06
3.845698382e-06
2.736396553e-06
2.662680691e-06
5.769438399e-06
3.180473627e-06
4.437207236e-06
3.180473627e-06
)
;
    }
}


// ************************************************************************* //
