/*--------------------------------*- C++ -*----------------------------------*\
| =========                 |                                                 |
| \\      /  F ield         | OpenFOAM: The Open Source CFD Toolbox           |
|  \\    /   O peration     | Version:  2406                                  |
|   \\  /    A nd           | Website:  www.openfoam.com                      |
|    \\/     M anipulation  |                                                 |
\*---------------------------------------------------------------------------*/
FoamFile
{
    version     2.0;
    format      ascii;
    arch        "LSB;label=32;scalar=64";
    class       volScalarField;
    location    "0.002";
    object      rhoNMean;
}
// * * * * * * * * * * * * * * * * * * * * * * * * * * * * * * * * * * * * * //

dimensions      [0 -3 0 0 0 0 0];

internalField   nonuniform List<scalar> 
654
(
2.263508096e+20
2.242957986e+20
2.295419179e+20
2.29429956e+20
2.304026675e+20
2.338578481e+20
1.857294921e+20
1.956315285e+20
2.02589592e+20
2.118625143e+20
2.169547142e+20
2.238797524e+20
2.269600969e+20
2.266317611e+20
2.297935534e+20
2.290901133e+20
2.308664299e+20
1.351957748e+20
1.447906407e+20
1.501100402e+20
1.570177086e+20
1.670140385e+20
1.784577383e+20
1.822511942e+20
1.87886897e+20
1.963359154e+20
2.059187739e+20
2.116159114e+20
2.195714668e+20
2.227099832e+20
2.233047384e+20
2.25716992e+20
2.24285305e+20
1.099219368e+20
1.141591102e+20
1.145536707e+20
1.192369514e+20
1.217448449e+20
1.248884941e+20
1.269835315e+20
1.326795959e+20
1.393470511e+20
1.469590419e+20
1.549321719e+20
1.614121168e+20
1.731031464e+20
1.781558103e+20
1.832834085e+20
1.905116298e+20
1.997740244e+20
2.085022541e+20
2.143121063e+20
2.201582205e+20
2.198457796e+20
2.236442864e+20
1.013137842e+20
1.014071699e+20
1.012152266e+20
1.029848625e+20
1.045019796e+20
1.04517077e+20
1.071808922e+20
1.069072756e+20
1.094875464e+20
1.124354463e+20
1.143444917e+20
1.164564033e+20
1.213177727e+20
1.251460899e+20
1.289366389e+20
1.337940067e+20
1.375282388e+20
1.421266843e+20
1.493055565e+20
1.557665429e+20
1.670061545e+20
1.744702902e+20
1.823628426e+20
1.891163229e+20
1.950571376e+20
2.003572216e+20
2.039082158e+20
2.132830084e+20
2.17618709e+20
1.026351019e+20
1.02805353e+20
1.033651874e+20
1.028897214e+20
1.01887066e+20
1.009972328e+20
1.038952293e+20
1.051472322e+20
1.073958167e+20
1.105323428e+20
1.120360076e+20
1.136124509e+20
1.164809989e+20
1.187761108e+20
1.205462336e+20
1.23643572e+20
1.243271519e+20
1.278411685e+20
1.324999586e+20
1.373944757e+20
1.436348671e+20
1.516008105e+20
1.592780296e+20
1.638661763e+20
1.716665543e+20
1.810214867e+20
1.904072658e+20
1.972795556e+20
2.012018639e+20
2.070205359e+20
1.011208135e+20
1.003872019e+20
9.925562575e+19
1.01398733e+20
1.034008696e+20
1.041526686e+20
1.06065825e+20
1.059275911e+20
1.068357816e+20
1.071817861e+20
1.078842843e+20
1.09561836e+20
1.108112994e+20
1.121553974e+20
1.116840096e+20
1.146201477e+20
1.173127818e+20
1.209730852e+20
1.263362673e+20
1.306570227e+20
1.350388543e+20
1.400666855e+20
1.469209432e+20
1.556364394e+20
1.658681093e+20
1.728500426e+20
1.834921839e+20
1.915319199e+20
1.983509414e+20
2.03274138e+20
1.017489635e+20
1.030200495e+20
1.043783491e+20
1.04896823e+20
1.059662465e+20
1.048047152e+20
1.043058832e+20
1.04827996e+20
1.034636507e+20
1.027624139e+20
1.043377693e+20
1.05584425e+20
1.059164162e+20
1.08510285e+20
1.12471485e+20
1.140908417e+20
1.164359866e+20
1.187947753e+20
1.194877226e+20
1.234634583e+20
1.290715943e+20
1.327749993e+20
1.350720486e+20
1.433997672e+20
1.486225096e+20
1.539252564e+20
1.633428255e+20
1.711564813e+20
1.80116315e+20
1.88317036e+20
1.015807085e+20
1.026810563e+20
1.035700978e+20
1.024424254e+20
1.025572997e+20
1.038266457e+20
1.048455987e+20
1.042486406e+20
1.05954023e+20
1.055245223e+20
1.039746448e+20
1.04376559e+20
1.059902076e+20
1.063653719e+20
1.07346646e+20
1.08596132e+20
1.106669203e+20
1.111322487e+20
1.157662492e+20
1.179640315e+20
1.21040766e+20
1.243829289e+20
1.315548248e+20
1.320939995e+20
1.367125628e+20
1.456302123e+20
1.519793657e+20
1.617868561e+20
1.704485768e+20
1.767217192e+20
1.004926642e+20
9.932502233e+19
9.942638178e+19
9.87493592e+19
1.003963748e+20
1.007294298e+20
1.017011701e+20
1.00642444e+20
1.015452299e+20
1.024501756e+20
1.041683112e+20
1.031198937e+20
1.026449617e+20
1.042080605e+20
1.0527171e+20
1.06214251e+20
1.089006226e+20
1.1199076e+20
1.120576976e+20
1.134419891e+20
1.190823457e+20
1.228317881e+20
1.269409788e+20
1.329709386e+20
1.371889606e+20
1.41908428e+20
1.488474822e+20
1.527948115e+20
1.572665803e+20
1.640153066e+20
9.985329873e+19
1.001725069e+20
1.010770388e+20
1.001715335e+20
1.002577043e+20
9.916917592e+19
9.863886991e+19
1.003468526e+20
1.020099397e+20
1.02185974e+20
1.020500843e+20
1.020218336e+20
1.030262206e+20
1.021747325e+20
1.019218147e+20
1.030888189e+20
1.0271222e+20
1.066859345e+20
1.11502061e+20
1.150188393e+20
1.139694292e+20
1.158317692e+20
1.204280988e+20
1.246062894e+20
1.296618762e+20
1.326383066e+20
1.38135344e+20
1.435650328e+20
1.53357146e+20
1.603543778e+20
1.015134075e+20
1.004888999e+20
9.852706055e+19
1.0022888e+20
1.007546023e+20
1.016143476e+20
1.015486411e+20
1.015410372e+20
1.004847364e+20
9.927975639e+19
1.014206693e+20
1.037177256e+20
1.037395461e+20
1.036625334e+20
1.054092066e+20
1.081550438e+20
1.088116714e+20
1.069037646e+20
1.069665153e+20
1.061832665e+20
1.122081671e+20
1.146120678e+20
1.158811189e+20
1.18238364e+20
1.210322699e+20
1.258539481e+20
1.29612748e+20
1.357057365e+20
1.403727382e+20
1.490297135e+20
9.942705387e+19
1.001386061e+20
9.969959445e+19
9.968983002e+19
9.822389263e+19
9.796987817e+19
9.811088812e+19
9.782842755e+19
9.849482167e+19
1.000483429e+20
9.884248466e+19
9.894727064e+19
1.012183115e+20
1.024350968e+20
1.029467827e+20
1.023074611e+20
1.04046475e+20
1.052508127e+20
1.059327736e+20
1.086462804e+20
1.08527918e+20
1.084075057e+20
1.108526942e+20
1.133005217e+20
1.161866235e+20
1.198386677e+20
1.240141635e+20
1.272031501e+20
1.331889723e+20
1.380611735e+20
9.965139361e+19
9.944932129e+19
9.952883698e+19
1.00056842e+20
1.005234873e+20
1.00205463e+20
9.928418264e+19
9.774566312e+19
9.818501458e+19
9.900354639e+19
9.898773598e+19
9.806882385e+19
9.739341541e+19
9.774852454e+19
9.980938073e+19
1.004800929e+20
1.023437123e+20
1.036747413e+20
1.034905559e+20
1.047888618e+20
1.04374494e+20
1.070419697e+20
1.088199258e+20
1.110744457e+20
1.138863016e+20
1.157186127e+20
1.185680179e+20
1.227560742e+20
1.25200739e+20
1.308817633e+20
9.798006719e+19
9.863573606e+19
9.853844366e+19
9.900168117e+19
9.671008911e+19
9.885479744e+19
9.927245044e+19
1.008789159e+20
1.001034354e+20
1.002164712e+20
1.004281282e+20
1.019852325e+20
1.009723383e+20
1.025962761e+20
1.021843065e+20
1.017529492e+20
1.016194016e+20
1.016117536e+20
1.011129479e+20
1.018436697e+20
1.023897882e+20
1.046290858e+20
1.058510163e+20
1.073103536e+20
1.102792895e+20
1.139607215e+20
1.167803504e+20
1.196375274e+20
1.218840707e+20
1.246282726e+20
1.002683252e+20
9.868093587e+19
9.817416177e+19
9.970129917e+19
1.005581553e+20
1.004150498e+20
1.004809423e+20
1.011035635e+20
1.034398194e+20
1.033748812e+20
1.027521249e+20
1.029612845e+20
1.042806889e+20
1.040220854e+20
1.042967413e+20
1.043868828e+20
1.043387404e+20
1.042769791e+20
1.057518678e+20
1.061050747e+20
1.058597374e+20
1.072408357e+20
1.066935449e+20
1.087539302e+20
1.09408163e+20
1.091402591e+20
1.097128319e+20
1.139877822e+20
1.171560516e+20
1.206112201e+20
1.02074255e+20
1.03698036e+20
1.04184824e+20
1.015019553e+20
1.013901687e+20
1.011602443e+20
1.008563973e+20
9.955467247e+19
9.901910982e+19
9.980815959e+19
1.00997024e+20
9.942309598e+19
9.866018164e+19
9.829405157e+19
9.868441589e+19
1.004422845e+20
1.015431585e+20
1.020602292e+20
1.033871816e+20
1.046194481e+20
1.06083181e+20
1.045627969e+20
1.056102939e+20
1.044097101e+20
1.046441848e+20
1.063798212e+20
1.077172982e+20
1.09638599e+20
1.093512936e+20
1.153691131e+20
1.002122404e+20
9.995781045e+19
1.008152099e+20
1.020295354e+20
1.018061758e+20
1.023478998e+20
1.018419647e+20
1.027706904e+20
1.006396399e+20
1.007809026e+20
9.990765058e+19
1.005699571e+20
1.014273902e+20
1.019887582e+20
1.010718421e+20
1.005305031e+20
9.976415266e+19
1.004329027e+20
1.008545114e+20
1.004232014e+20
1.017720321e+20
1.0287908e+20
1.038048745e+20
1.040589335e+20
1.067403352e+20
1.062974201e+20
1.081191758e+20
1.093169551e+20
1.097888117e+20
1.101839834e+20
9.826049097e+19
9.726846328e+19
9.794648443e+19
9.753363029e+19
9.714920769e+19
9.741098107e+19
9.903779079e+19
1.001576766e+20
1.012592541e+20
9.959199465e+19
1.000407962e+20
1.002649416e+20
1.009231435e+20
1.004389647e+20
1.026467929e+20
1.026729358e+20
1.017973015e+20
1.018039566e+20
1.015652103e+20
1.017654788e+20
1.017457437e+20
1.010230141e+20
1.011435548e+20
1.023320382e+20
1.025616448e+20
1.036880519e+20
1.037539446e+20
1.067857579e+20
1.098734936e+20
1.105543517e+20
9.815953982e+19
9.769785614e+19
9.76391217e+19
9.767126006e+19
9.8859459e+19
9.918081959e+19
9.82868823e+19
9.792301705e+19
9.897144795e+19
9.973610461e+19
1.00573378e+20
9.958170366e+19
9.91767271e+19
9.950908904e+19
9.93718944e+19
9.886696713e+19
9.961166638e+19
1.00356022e+20
1.017331934e+20
1.02026116e+20
1.013908643e+20
1.023620339e+20
1.021064447e+20
1.018193662e+20
1.043311224e+20
1.047729998e+20
1.036292237e+20
1.023526666e+20
1.041575306e+20
1.059959949e+20
1.000215523e+20
1.001838052e+20
9.82993832e+19
9.98045215e+19
9.933324483e+19
9.971642937e+19
1.008798632e+20
1.018839207e+20
1.007230495e+20
1.01597525e+20
1.016506481e+20
1.023512528e+20
1.031369089e+20
1.014184328e+20
1.011343393e+20
1.020932179e+20
1.017718879e+20
1.003047676e+20
9.900669816e+19
9.799928375e+19
9.901184439e+19
9.927300911e+19
1.001137976e+20
9.997104857e+19
1.012413432e+20
1.024795025e+20
1.041003907e+20
1.080303798e+20
1.084762574e+20
1.090871303e+20
1.023210272e+20
1.022855641e+20
1.034562588e+20
1.036237469e+20
1.035510951e+20
1.017773598e+20
1.005865396e+20
9.941278932e+19
1.001510972e+20
9.860724398e+19
9.770469536e+19
9.799561995e+19
9.922592268e+19
1.003645746e+20
1.004843596e+20
9.961051729e+19
1.000945396e+20
1.001638182e+20
1.008803558e+20
1.012963333e+20
1.013514322e+20
1.030912018e+20
1.029623459e+20
1.026693234e+20
1.021396934e+20
1.036880519e+20
1.040865328e+20
1.015135948e+20
1.020122806e+20
1.035173894e+20
1.013675871e+20
1.002855039e+20
1.009062806e+20
1.004123863e+20
9.998036695e+19
1.011718887e+20
1.017833e+20
1.005951489e+20
9.937658029e+19
9.966404963e+19
9.993185888e+19
1.005089538e+20
9.992694787e+19
9.870319684e+19
9.869691629e+19
9.910641548e+19
9.947188566e+19
1.011632772e+20
1.012034004e+20
1.015309069e+20
1.014828696e+20
9.981657126e+19
1.009696997e+20
1.033034169e+20
1.04616962e+20
1.027129722e+20
1.037678016e+20
1.043524523e+20
1.054136318e+20
1.052552641e+20
9.619657198e+19
9.683907253e+19
9.645520324e+19
9.757950688e+19
9.694120415e+19
9.734111902e+19
9.746557613e+19
9.83250193e+19
9.907868887e+19
1.007328652e+20
1.004765448e+20
9.926448754e+19
9.843880579e+19
9.809567811e+19
9.827192878e+19
9.952229948e+19
9.835365452e+19
9.706292985e+19
9.695213392e+19
9.810353749e+19
9.880154528e+19
1.002938462e+20
9.921777512e+19
9.851398065e+19
9.723960061e+19
9.81809117e+19
9.893140253e+19
1.005206951e+20
1.015465355e+20
1.029618399e+20
)
;

boundaryField
{
    flow
    {
        type            calculated;
        value           nonuniform List<scalar> 
55
(
2.263508096e+20
2.338578481e+20
2.308664299e+20
2.24285305e+20
2.236442864e+20
2.17618709e+20
2.070205359e+20
2.03274138e+20
1.88317036e+20
1.767217192e+20
1.640153066e+20
1.603543778e+20
1.490297135e+20
1.380611735e+20
1.308817633e+20
1.246282726e+20
1.206112201e+20
1.153691131e+20
1.101839834e+20
1.105543517e+20
1.059959949e+20
1.090871303e+20
1.035173894e+20
1.052552641e+20
1.029618399e+20
9.619657198e+19
9.683907253e+19
9.645520324e+19
9.757950688e+19
9.694120415e+19
9.734111902e+19
9.746557613e+19
9.83250193e+19
9.907868887e+19
1.007328652e+20
1.004765448e+20
9.926448754e+19
9.843880579e+19
9.809567811e+19
9.827192878e+19
9.952229948e+19
9.835365452e+19
9.706292985e+19
9.695213392e+19
9.810353749e+19
9.880154528e+19
1.002938462e+20
9.921777512e+19
9.851398065e+19
9.723960061e+19
9.81809117e+19
9.893140253e+19
1.005206951e+20
1.015465355e+20
1.029618399e+20
)
;
    }
    obstacle
    {
        type            calculated;
        value           nonuniform List<scalar> 0();
    }
    frontAndBack
    {
        type            empty;
    }
    procBoundary3to1
    {
        type            processor;
        value           nonuniform List<scalar> 
36
(
2.205389071e+20
2.307230804e+20
2.311771456e+20
2.313598191e+20
2.305014619e+20
2.305014619e+20
1.957770249e+20
2.01178188e+20
2.116975689e+20
2.165566004e+20
2.201251879e+20
2.229677947e+20
2.229677947e+20
1.452329623e+20
1.532343484e+20
1.601868422e+20
1.687805811e+20
1.749997001e+20
1.749997001e+20
1.136634532e+20
1.130542672e+20
1.189232696e+20
1.211890554e+20
1.237741296e+20
1.304057561e+20
1.304057561e+20
1.037319346e+20
1.039571474e+20
1.052638357e+20
1.060009146e+20
1.061204504e+20
1.066642052e+20
1.07712954e+20
1.07712954e+20
1.002907598e+20
1.002907598e+20
)
;
    }
    procBoundary3to2
    {
        type            processor;
        value           nonuniform List<scalar> 
19
(
1.033358842e+20
9.978371322e+19
1.012981184e+20
1.022334856e+20
9.951646524e+19
1.026343583e+20
9.927148864e+19
9.930489393e+19
1.001400439e+20
9.836952601e+19
9.959441257e+19
1.006299985e+20
1.005854572e+20
9.894856259e+19
9.694420416e+19
1.005075098e+20
1.006634045e+20
1.012758478e+20
9.714463945e+19
)
;
    }
}


// ************************************************************************* //
