/*--------------------------------*- C++ -*----------------------------------*\
| =========                 |                                                 |
| \\      /  F ield         | OpenFOAM: The Open Source CFD Toolbox           |
|  \\    /   O peration     | Version:  2406                                  |
|   \\  /    A nd           | Website:  www.openfoam.com                      |
|    \\/     M anipulation  |                                                 |
\*---------------------------------------------------------------------------*/
FoamFile
{
    version     2.0;
    format      ascii;
    arch        "LSB;label=32;scalar=64";
    class       volScalarField;
    location    "0.002";
    object      rhoN;
}
// * * * * * * * * * * * * * * * * * * * * * * * * * * * * * * * * * * * * * //

dimensions      [0 -3 0 0 0 0 0];

internalField   nonuniform List<scalar> 
654
(
3.561214751e+20
2.609368218e+20
2.355839534e+20
1.53829667e+20
1.552483518e+20
2.991420364e+20
1.824454736e+20
2.1029995e+20
2.386370432e+20
1.738551121e+20
2.158619132e+20
2.04170494e+20
2.746703339e+20
2.355839513e+20
2.237522429e+20
2.68156244e+20
2.848971801e+20
1.874941404e+20
1.26025451e+20
7.624314242e+19
1.537630572e+20
1.292178248e+20
1.172863768e+20
1.840124563e+20
1.723489741e+20
2.407224629e+20
1.753878045e+20
2.04170494e+20
3.433379203e+20
2.771575922e+20
2.657057884e+20
3.104967063e+20
3.846111931e+20
1.668191995e+20
1.921466194e+20
7.262489688e+19
7.320389936e+19
2.090779234e+20
1.487800982e+20
1.374957029e+20
5.041018082e+19
1.270719051e+20
1.793902334e+20
1.550613897e+20
2.476045712e+20
1.445812157e+20
1.723489756e+20
1.471081718e+20
3.372842394e+20
2.450045949e+20
1.785357201e+20
2.355839513e+20
3.076593312e+20
2.399292709e+20
2.706523211e+20
7.909842621e+19
9.1070651e+19
1.376297699e+20
8.089026452e+19
8.150572227e+19
1.40795344e+20
8.276516776e+19
1.07240914e+20
8.406414662e+19
1.210414967e+20
1.342071499e+20
1.721818192e+20
8.678839133e+19
1.37495704e+20
1.26025451e+20
2.160222351e+20
1.665766426e+20
1.292178237e+20
1.824454736e+20
1.051499741e+20
2.518946524e+20
1.471081705e+20
2.158619132e+20
2.450045928e+20
1.510686836e+20
3.464469872e+20
2.097677277e+20
3.528371631e+20
1.851831654e+20
1.233864613e+20
1.129977501e+20
1.252221433e+20
4.587658964e+19
1.386690249e+20
9.314939619e+19
8.213061608e+19
1.064123569e+20
1.668191983e+20
1.441099645e+20
2.178746906e+20
1.22006498e+20
8.609090826e+19
9.918673137e+19
1.499953135e+20
1.890381796e+20
1.397790956e+20
1.153222929e+20
1.55061391e+20
9.12227383e+19
2.102999518e+20
3.712131782e+20
2.273489927e+20
1.484050666e+20
1.497250315e+20
1.373351693e+20
3.741627495e+20
2.936748187e+20
2.96383217e+20
3.133868981e+20
1.233864613e+20
1.468970762e+20
7.968681962e+19
1.032223275e+20
1.271132728e+20
1.047930707e+20
1.290623977e+20
1.655303355e+20
1.668191995e+20
1.321008008e+20
9.683319584e+19
1.09805849e+20
6.149350687e+19
1.239834152e+20
1.249960936e+20
1.134229059e+20
8.895033282e+19
1.409494691e+20
1.292178248e+20
1.303181954e+20
1.840124547e+20
1.988642009e+20
2.808428734e+20
1.484050653e+20
1.497250289e+20
2.472033026e+20
2.078681941e+20
2.517212732e+20
1.834753265e+20
1.994280261e+20
1.009525599e+20
1.24297526e+20
6.830298775e+19
1.146914749e+20
8.089026452e+19
8.150572227e+19
9.386356194e+19
1.418831437e+20
8.340959977e+19
8.406414597e+19
1.089373462e+20
8.540454992e+19
1.229870137e+20
8.678839064e+19
4.999843743e+19
8.821781643e+19
1.524862861e+20
1.153222929e+20
7.753069486e+19
1.563818345e+20
9.200622814e+19
9.280329456e+19
2.139755226e+20
2.293532828e+20
2.177818622e+20
9.61346177e+19
2.078681923e+20
2.517212732e+20
2.258157844e+20
1.994280261e+20
6.730170614e+19
1.016979758e+20
6.830298825e+19
1.261606224e+20
3.466725622e+19
8.150572167e+19
8.21306167e+19
8.276516776e+19
9.532525688e+19
9.607331042e+19
1.936663932e+20
7.320389879e+19
2.21376623e+20
7.439004912e+19
1.37495704e+20
1.134229068e+20
1.143647127e+20
1.281358799e+20
2.067485196e+20
1.042545572e+20
1.708687108e+20
1.458337474e+20
1.604816405e+20
1.618964349e+20
1.361136627e+20
1.510686849e+20
1.662945553e+20
2.237522429e+20
2.117022979e+20
1.994280242e+20
1.906881674e+20
1.129977501e+20
5.691915604e+19
4.587658964e+19
5.77787608e+19
6.986204818e+19
9.386356265e+19
1.300595493e+20
1.191565711e+20
8.406414597e+19
1.452497949e+20
1.464077999e+20
1.352857151e+20
1.983734643e+20
7.499765615e+19
8.821781643e+19
5.082876202e+19
1.28135881e+20
1.421396072e+20
9.122273678e+19
1.445812144e+20
9.280329377e+19
2.006020524e+20
9.443958704e+19
1.225022964e+20
2.334697838e+20
1.52436673e+20
1.258606355e+20
7.056743262e+19
2.564074621e+20
1.12169511e+20
6.779865104e+19
1.138383137e+20
9.175317928e+19
9.244601591e+19
4.65746981e+19
1.407953419e+20
1.300595474e+20
8.340959913e+19
9.607330968e+19
1.331456443e+20
7.320389879e+19
4.919480511e+19
1.239834152e+20
7.499765615e+19
6.301272551e+19
8.895033282e+19
5.12543524e+19
2.584356495e+19
1.303181954e+20
1.182937219e+20
1.060609081e+20
1.069877613e+20
1.214223262e+20
1.361136639e+20
1.098681355e+20
1.662945553e+20
1.957832125e+20
1.834753265e+20
1.566934491e+20
1.233864621e+20
1.129977509e+20
6.830298825e+19
1.376297699e+20
5.777876037e+19
6.986204714e+19
5.866472621e+19
2.364719079e+19
8.340959977e+19
1.321008008e+20
7.262489744e+19
8.540454992e+19
6.149350687e+19
8.678839064e+19
4.999843783e+19
1.512305437e+20
8.895033282e+19
1.409494679e+20
1.679831722e+20
1.172863768e+20
6.571873439e+19
1.988642009e+20
8.024082096e+19
1.214223272e+20
1.633363966e+20
1.098681345e+20
1.385787961e+20
1.39845153e+20
1.552483532e+20
1.424485887e+20
1.009525592e+20
1.581968501e+20
6.830298775e+19
9.175317996e+19
9.24460166e+19
1.280804207e+20
1.407953429e+20
7.094157183e+19
7.149394266e+19
1.321008008e+20
1.210414948e+20
8.540454926e+19
1.598831166e+20
8.678838995e+19
9.999687487e+19
6.301272551e+19
1.524862848e+20
1.28135881e+20
5.168713033e+19
2.60636393e+19
1.182937219e+20
9.280329456e+19
9.361429112e+19
6.745684789e+19
9.52795647e+19
9.61346177e+19
4.157363846e+19
1.398451518e+20
1.129078922e+20
1.709383081e+20
3.365085331e+19
6.779865104e+19
7.968681904e+19
8.028403187e+19
8.089026452e+19
1.397240943e+20
1.642612334e+20
2.364719079e+19
1.07240914e+20
1.20091638e+20
1.573539457e+20
8.540454926e+19
6.149350638e+19
7.439004912e+19
9.999687487e+19
1.26025452e+20
6.353595253e+19
8.96951167e+19
6.460891238e+19
1.042545572e+20
1.05149975e+20
1.590913594e+20
1.069877604e+20
1.079309566e+20
9.527956387e+19
1.098681345e+20
1.247209165e+20
1.53829667e+20
1.270213787e+20
9.971401212e+19
1.233864613e+20
6.779865006e+19
1.138383129e+20
1.490989174e+20
1.386690249e+20
9.314939689e+19
1.05596508e+20
1.300595493e+20
1.310722282e+20
1.441099645e+20
1.452497938e+20
1.220064989e+20
7.379220824e+19
1.115850737e+20
8.749726551e+19
8.821781572e+19
8.895033282e+19
1.153222929e+20
9.045247734e+19
6.51590977e+19
1.05149975e+20
1.590913621e+20
1.203612314e+20
1.214223262e+20
6.805683133e+19
9.613461685e+19
1.108630359e+20
1.53829667e+20
9.879440656e+19
1.566934505e+20
7.851865717e+19
1.129977509e+20
9.1070651e+19
1.032223275e+20
9.244601728e+19
1.164367461e+20
1.173294515e+20
7.094157183e+19
3.574697133e+19
9.607330968e+19
1.573539432e+20
3.660194968e+19
1.352857151e+20
6.19917076e+19
1.124964851e+20
1.260254531e+20
5.082876161e+19
7.688152797e+19
1.421396072e+20
1.433500149e+20
3.943124063e+19
7.954568105e+19
6.68673508e+19
1.484050653e+20
1.225022975e+20
4.12005508e+19
1.108630359e+20
5.593806021e+19
9.879440567e+19
7.122429437e+19
1.346034132e+20
6.779865055e+19
1.138383129e+20
6.881488497e+19
1.040017687e+20
9.314939619e+19
9.386356194e+19
5.911797652e+19
1.191565702e+20
7.205498226e+19
1.089373462e+20
4.880259958e+19
9.838961021e+19
9.918673216e+19
9.999687487e+19
5.041018041e+19
1.016575232e+20
7.68815286e+19
1.162960423e+20
1.824454751e+20
1.577249625e+20
7.954568038e+19
1.337347016e+20
6.745684847e+19
1.088909311e+20
6.866758407e+19
1.385787961e+20
1.678141821e+20
7.056743262e+19
2.279177441e+20
1.121695102e+20
1.807964015e+20
1.138383129e+20
1.146914741e+20
1.155575207e+20
1.280804207e+20
5.866472621e+19
1.18235953e+20
9.532525688e+19
8.406414662e+19
9.683319659e+19
8.540454926e+19
7.379220824e+19
1.363817578e+20
4.999843783e+19
1.386279972e+20
8.895033354e+19
5.125435198e+19
6.460891185e+19
9.122273678e+19
1.05149975e+20
1.32576134e+20
1.471081705e+20
8.094821746e+19
1.361136639e+20
1.510686849e+20
1.108630359e+20
9.789160625e+19
1.693618383e+20
4.273457662e+19
8.973560819e+19
1.016979751e+20
9.107065033e+19
1.376297699e+20
6.933451245e+19
6.986204714e+19
1.407953429e+20
1.537067401e+20
1.191565711e+20
7.205498226e+19
8.472904702e+19
3.660194997e+19
1.721818192e+20
9.918673216e+19
1.37495704e+20
1.512305424e+20
1.016575224e+20
6.406793997e+19
1.292178248e+20
7.819091724e+19
1.051499741e+20
1.32576134e+20
1.738551121e+20
8.094821746e+19
1.088909301e+20
5.493406725e+19
1.108630369e+20
1.53829667e+20
1.129078932e+20
1.424485913e+20
1.346034142e+20
1.468970772e+20
1.138383137e+20
8.028403246e+19
6.933451245e+19
1.164367452e+20
1.290623977e+20
1.300595493e+20
1.668191995e+20
2.401832742e+19
6.05207474e+19
7.320389879e+19
1.475844153e+20
6.19917076e+19
7.499765615e+19
6.301272602e+19
6.353595253e+19
1.025087048e+20
7.753069486e+19
1.172863768e+20
9.200622892e+19
6.628806754e+19
1.604816419e+20
1.214223262e+20
1.225022964e+20
1.648022018e+20
8.314727766e+19
5.593806071e+19
9.879440567e+19
7.122429437e+19
1.009525592e+20
7.909842506e+19
7.968681904e+19
9.175317996e+19
8.089026452e+19
1.164367461e+20
1.173294524e+20
1.064123577e+20
9.532525688e+19
1.200916371e+20
1.210414957e+20
1.098058499e+20
1.844805192e+20
7.439004853e+19
1.624949217e+20
1.386279961e+20
1.397790944e+20
1.28135881e+20
1.033742607e+20
7.819091789e+19
9.200622737e+19
1.458337474e+20
1.069877613e+20
1.484050653e+20
8.166819831e+19
9.61346177e+19
6.928939743e+19
1.258606366e+20
1.129078922e+20
4.273457701e+19
1.346034123e+20
6.779865055e+19
1.252221442e+20
1.720372112e+20
1.040017694e+20
8.150572227e+19
8.21306167e+19
5.911797652e+19
4.766262807e+19
1.20091638e+20
8.472904702e+19
1.09805849e+20
9.838961099e+19
1.487800982e+20
8.749726551e+19
1.26025452e+20
1.143647146e+20
1.153222929e+20
1.292178248e+20
2.606363908e+19
1.314374688e+20
1.193185206e+20
1.337347005e+20
6.745684847e+19
1.088909311e+20
8.240110088e+19
1.524366744e+20
1.118761204e+20
8.468091915e+19
1.282037299e+20
1.12169511e+20
1.129977509e+20
6.830298775e+19
5.734573747e+19
9.24460166e+19
9.314939689e+19
1.407953429e+20
1.655303343e+20
5.957828555e+19
9.607330968e+19
1.331456453e+20
1.09805849e+20
8.609090894e+19
1.363817567e+20
1.249960946e+20
7.561527122e+19
6.35359515e+19
2.562717599e+19
1.033742598e+20
6.515909824e+19
9.200622814e+19
9.280329377e+19
1.337347016e+20
1.349136958e+20
4.083409916e+19
4.120055044e+19
1.940103128e+20
4.195354554e+19
1.552483532e+20
7.122429567e+19
7.851865717e+19
1.016979758e+20
7.968681962e+19
1.032223275e+20
5.777876037e+19
1.047930707e+20
1.877271239e+20
1.182359539e+20
1.310722282e+20
9.607330968e+19
1.573539432e+20
7.320389936e+19
9.838961099e+19
6.19917076e+19
1.249960936e+20
6.301272602e+19
1.143647146e+20
8.96951167e+19
1.033742598e+20
9.122273678e+19
7.886248126e+19
1.060609081e+20
1.471081718e+20
6.745684789e+19
1.361136627e+20
1.236016513e+20
6.928939805e+19
9.789160625e+19
9.879440567e+19
8.546915325e+19
)
;

boundaryField
{
    flow
    {
        type            zeroGradient;
    }
    obstacle
    {
        type            calculated;
        value           nonuniform List<scalar> 0();
    }
    frontAndBack
    {
        type            empty;
    }
    procBoundary3to1
    {
        type            processor;
        value           nonuniform List<scalar> 
36
(
2.564074621e+20
3.296044006e+20
2.217260718e+20
2.517212732e+20
2.822697305e+20
2.822697305e+20
1.563818345e+20
2.365874418e+20
2.253794258e+20
2.674694009e+20
2.293532848e+20
3.811182621e+20
3.811182621e+20
1.999937513e+20
1.890381796e+20
1.524862848e+20
1.793902319e+20
1.679831722e+20
1.679831722e+20
1.07240914e+20
1.441099645e+20
1.089373462e+20
1.464077987e+20
2.090779217e+20
1.363817567e+20
1.363817567e+20
1.016979751e+20
1.707574694e+20
1.376297699e+20
1.155575216e+20
1.397240953e+20
1.642612334e+20
7.094157237e+19
7.094157237e+19
1.009525599e+20
1.009525599e+20
)
;
    }
    procBoundary3to2
    {
        type            processor;
        value           nonuniform List<scalar> 
19
(
8.908265883e+19
1.002179912e+20
1.447593206e+20
1.336239873e+20
1.447593206e+20
7.794732648e+19
6.68119946e+19
1.002179912e+20
7.794732648e+19
8.908265883e+19
8.908265883e+19
3.340599706e+19
7.794732648e+19
5.567666137e+19
5.567666217e+19
1.224886559e+20
6.681199412e+19
8.908265883e+19
6.681199412e+19
)
;
    }
}


// ************************************************************************* //
