/*--------------------------------*- C++ -*----------------------------------*\
| =========                 |                                                 |
| \\      /  F ield         | OpenFOAM: The Open Source CFD Toolbox           |
|  \\    /   O peration     | Version:  2406                                  |
|   \\  /    A nd           | Website:  www.openfoam.com                      |
|    \\/     M anipulation  |                                                 |
\*---------------------------------------------------------------------------*/
FoamFile
{
    version     2.0;
    format      ascii;
    arch        "LSB;label=32;scalar=64";
    class       volScalarField;
    location    "0.002";
    object      translationalT;
}
// * * * * * * * * * * * * * * * * * * * * * * * * * * * * * * * * * * * * * //

dimensions      [1 2 -2 0 0 0 0];

internalField   nonuniform List<scalar> 
654
(
745.6458423
762.4421914
757.5689523
745.991991
736.5634439
734.5848466
747.1118982
746.595604
739.3478021
729.3182996
741.7594439
752.6002527
740.7792767
745.3744586
741.7950356
723.2012671
724.7633649
620.6676348
665.7172521
659.6401221
689.9693221
704.92859
726.1300751
737.7080484
729.714977
739.2728924
744.0810364
739.5119197
750.9174485
749.5836341
731.737594
725.2714998
718.3812208
454.7096905
455.7680927
477.8642921
525.5458356
530.183272
563.8328283
594.0676802
620.9960649
632.8806425
662.7493203
687.3753472
707.008386
725.1916353
723.7814663
709.3951068
720.8809483
729.0507217
739.5799852
726.3637972
726.8341157
715.2000275
720.7518291
330.9438281
332.2186703
342.2489495
358.4187701
382.3352769
382.7287109
404.7965536
411.4155943
434.8036748
460.4236024
471.1157974
496.8514531
514.4201665
537.8048825
556.3218064
602.1736133
606.2797739
631.5756911
654.6275361
671.4528135
698.9735049
694.5303884
700.0523046
720.1951497
728.1926834
722.4189215
724.2158974
726.639895
711.5117448
330.8908446
332.312162
337.2838014
339.2912415
338.5429718
362.4334269
369.5713968
380.9214214
391.8387176
402.9917325
433.1382973
430.3825006
462.5403857
478.1961201
503.8965759
516.6695002
544.507091
564.1281092
579.5851642
604.4168519
644.3188649
677.301551
684.1824495
684.2002364
709.2730026
719.2965978
731.869867
713.6482331
713.742884
711.72351
323.3621446
322.4816238
323.9129908
329.6808648
345.272018
347.8734182
349.8399448
357.145692
380.3188695
377.8577903
380.5297155
430.1993131
432.1009869
462.7184094
475.0272851
493.9605542
512.3462149
540.6984617
551.8218675
571.2518358
594.517326
622.8765644
636.0692061
651.8146202
664.5210084
676.3536239
702.383909
709.7154801
702.8598344
704.7960757
314.3700572
317.2406086
316.5216984
317.9048086
325.6795436
340.6940716
344.0268656
342.7959081
365.6683139
369.9144965
373.6066306
383.1488992
384.8732469
405.7516078
443.7393061
455.083886
469.0621067
491.4535131
510.7395165
534.8853122
567.2991042
589.5706248
607.057947
636.220963
637.9056719
656.3883128
675.775185
691.512505
710.6403332
702.826722
309.3285139
309.9738953
314.6879318
309.3018353
318.8998926
322.1967815
334.7902826
329.2786745
354.5076255
354.3715783
356.8102399
353.0087465
371.4254291
384.894387
402.6472333
427.8168852
449.8284312
460.648931
490.1817042
523.7067649
524.3246035
559.9963451
592.8712587
601.0761135
620.5327991
649.2130816
662.6763031
678.0286267
681.8871961
689.6483158
312.3032103
314.4182453
316.4169388
304.0242851
317.3974269
322.1283327
325.8052591
332.6649276
343.0126811
343.0020074
352.0699533
343.8728721
354.9842335
368.0344103
380.8878396
376.2618566
402.8776267
428.8755172
445.0317398
464.406169
489.2666405
508.8930105
542.2965568
560.8509519
581.747051
583.409186
619.3190964
627.8046167
663.7460636
663.0770727
309.2086647
304.3478637
312.2029204
315.4383843
309.4020378
311.1143184
309.8207902
320.3361515
330.6587619
338.3819231
338.1415162
347.9160876
340.3718374
356.5374413
365.1177136
396.0635639
397.6311135
411.8095872
420.8039568
450.9282899
448.6795994
458.7260286
487.5909709
518.2495928
551.2894349
546.7336964
586.0433409
590.0829646
623.3570747
637.2276305
306.3063874
304.950798
300.4103651
304.8074594
309.7449369
310.601566
313.0327576
320.3438202
318.4960256
322.2390188
330.3574999
336.0904811
345.2681255
337.7748595
355.9024953
371.6781813
368.7008743
381.042629
397.7920831
416.7324583
437.1143494
451.3262364
464.7145168
487.1727816
511.6810501
539.5713603
550.2639815
574.6725715
593.3531812
610.1613012
305.9501103
310.61411
310.3538445
316.6714047
313.2191688
309.6335166
309.4721716
316.4051675
314.932202
323.3440156
322.8975448
327.2367185
332.3654714
338.470694
338.9847013
363.4833911
367.9926591
367.1906328
377.3970964
393.2079303
407.4456383
413.900461
443.1693814
446.3124329
481.7192801
499.532901
527.5747553
539.6218598
562.4712863
585.0159707
296.0360262
298.3492963
302.2009029
310.3355918
309.5347549
309.7337415
308.3990047
312.2359222
310.8657057
313.1618345
317.2009242
324.6977829
322.6169814
329.1130873
331.0010373
337.3445777
354.5570789
353.8396988
368.8037127
374.7184922
385.6882187
394.5748132
418.7352196
431.8579516
446.5761909
466.4897176
475.3487351
504.3446322
516.2341821
545.1153186
299.4279798
301.2246594
299.5996298
298.6868985
300.7459754
300.2583718
307.578723
302.97124
310.9754987
315.1562361
313.9665654
307.4738219
323.3448452
320.9760904
324.895496
329.6788446
332.6255345
345.5858234
346.9969597
356.9393705
368.4288854
378.5996389
382.4883177
403.4249076
418.8573507
433.1263789
457.9993115
471.411321
488.7493412
509.6263466
295.0329186
296.6655955
300.0053963
303.1400114
306.1686135
300.3338769
300.4811467
304.0300699
306.1369968
310.9011436
315.4673696
311.5707864
312.9346129
318.6875509
321.9499627
330.1265029
331.9564377
330.0143851
339.169983
337.0014441
362.1328495
364.7434246
374.4865309
380.3748844
385.3908268
402.6079079
411.1434437
425.2832101
457.6442757
478.9359578
301.3669534
299.164595
299.0279104
294.9716023
302.1394816
306.1142937
307.7667597
303.2484948
308.2200429
307.922932
317.2468108
314.8126456
317.0375677
314.8461985
319.8017489
318.010451
324.2570415
323.6897598
328.3238754
337.3820184
339.4172677
349.9437317
357.5202053
365.8946484
367.2020917
387.1687965
397.9127368
415.6141023
430.405374
446.6082341
304.0562719
301.4365837
306.5052953
306.0626231
302.9934225
302.5418743
307.0512078
305.9802961
301.3646412
308.8141432
304.4137252
308.812015
311.2331377
315.788505
316.3003702
315.3536107
322.9212589
327.5779749
334.9725422
324.8614355
331.4619536
344.2094339
344.8033163
350.9750944
364.842324
363.7552757
378.9585085
393.3813083
407.9017772
418.6123581
292.4687724
292.4083763
293.7459118
300.7200435
301.5112168
300.3356502
300.6853696
305.8528337
308.1859703
305.3142589
308.428909
305.7301952
306.323904
307.7224526
309.0879997
309.9045378
307.9399719
310.430552
315.5466599
324.1515894
324.8383154
326.1200432
332.4836868
348.8848779
345.2762428
371.413796
366.4693274
368.7110643
390.8199585
397.0600414
305.3911425
301.5643916
304.5897001
305.4225066
304.466845
302.1132474
301.5793447
297.5604602
298.9125345
301.1347789
305.2762164
303.1373049
297.7689359
300.8373651
303.3886248
304.9320719
316.0243096
312.0619612
318.6294058
319.8380186
320.1583638
317.2951023
320.1224379
332.3589259
342.6315749
359.3241669
366.4650811
366.8755824
378.9216556
387.0280969
304.1800719
304.2026572
299.3872372
300.7135182
302.2677109
300.1511042
299.3126897
302.7988368
297.139051
297.7770611
292.0379051
300.8269601
300.0475533
301.1903749
304.3305738
304.9327408
306.9107901
305.5260992
304.1631565
305.1326988
317.6053018
319.4581904
319.88325
312.5982926
326.9388609
340.0189463
336.6578744
347.2946081
357.5570973
369.8674817
301.9102023
304.4549083
302.544802
304.7079119
308.4011792
301.1849969
302.308392
302.7121128
306.3126693
305.2354532
303.7739733
304.4121283
307.3596713
306.9058973
307.9645319
303.4658743
305.6425434
306.0561248
303.0432396
311.7300018
312.1136056
316.7496077
317.6955189
320.5240094
314.0382059
331.4744088
331.6311007
343.4550984
340.5676485
358.3056109
300.5093385
299.3872552
303.0730638
299.4386796
302.3819572
308.2134278
305.9441199
299.0847835
301.0600832
304.3097218
306.2373315
303.9770637
305.6696096
305.0522082
308.3118965
308.0736561
304.5075075
309.817646
306.5485161
307.6551058
318.6438123
314.2063155
313.9455042
315.3748251
322.0001385
317.9371711
322.6057703
329.8234241
333.6294367
339.116208
301.8298251
305.9397313
307.7509075
299.8136084
299.2260821
300.1053829
303.887612
304.6401456
304.7921024
304.4422076
302.482811
303.1383981
301.7203964
297.4636673
290.383785
294.6819886
300.0203217
304.0664541
302.5197773
298.9528909
302.7555826
316.0492918
325.0779158
316.3599608
320.0406821
308.6647281
312.2015957
321.9193854
323.6387434
328.657585
)
;

boundaryField
{
    flow
    {
        type            calculated;
        value           nonuniform List<scalar> 
55
(
745.6458423
734.5848466
724.7633649
718.3812208
720.7518291
711.5117448
711.72351
704.7960757
702.826722
689.6483158
663.0770727
637.2276305
610.1613012
585.0159707
545.1153186
509.6263466
478.9359578
446.6082341
418.6123581
397.0600414
387.0280969
369.8674817
358.3056109
339.116208
328.657585
301.8298251
305.9397313
307.7509075
299.8136084
299.2260821
300.1053829
303.887612
304.6401456
304.7921024
304.4422076
302.482811
303.1383981
301.7203964
297.4636673
290.383785
294.6819886
300.0203217
304.0664541
302.5197773
298.9528909
302.7555826
316.0492918
325.0779158
316.3599608
320.0406821
308.6647281
312.2015957
321.9193854
323.6387434
328.657585
)
;
    }
    obstacle
    {
        type            calculated;
        value           nonuniform List<scalar> 0();
    }
    frontAndBack
    {
        type            empty;
    }
    procBoundary3to1
    {
        type            processor;
        value           nonuniform List<scalar> 
36
(
755.916746
758.2613125
745.8655396
758.4738682
751.2825002
751.2825002
765.3319186
741.0256068
767.2312442
759.9411542
768.0757808
757.2989388
757.2989388
676.379932
691.2118622
703.8233555
726.1121
721.2958439
721.2958439
485.2763461
510.5901723
559.2439217
569.0731725
578.7515847
593.8855421
593.8855421
351.0160117
343.7914529
358.750494
382.8225128
407.131538
398.3406825
418.6517272
418.6517272
337.0771453
337.0771453
)
;
    }
    procBoundary3to2
    {
        type            processor;
        value           nonuniform List<scalar> 
19
(
316.9442475
318.9029587
307.0901614
302.1320242
305.0813206
305.4347072
300.0099167
305.0866481
304.3384508
298.4284006
298.7664346
299.0502211
305.2909599
292.5752478
300.5455407
300.3238493
300.1430205
302.4384265
301.5907247
)
;
    }
}


// ************************************************************************* //
