/*--------------------------------*- C++ -*----------------------------------*\
| =========                 |                                                 |
| \\      /  F ield         | OpenFOAM: The Open Source CFD Toolbox           |
|  \\    /   O peration     | Version:  2406                                  |
|   \\  /    A nd           | Website:  www.openfoam.com                      |
|    \\/     M anipulation  |                                                 |
\*---------------------------------------------------------------------------*/
FoamFile
{
    version     2.0;
    format      ascii;
    arch        "LSB;label=32;scalar=64";
    class       volVectorField;
    location    "0.002";
    object      UMean;
}
// * * * * * * * * * * * * * * * * * * * * * * * * * * * * * * * * * * * * * //

dimensions      [0 1 -1 0 0 0 0];

internalField   nonuniform List<vector> 
654
(
(1334.033395 395.989456 1.314549097)
(1382.356335 423.5822643 1.659237645)
(1376.076855 414.7801427 3.945586324)
(1373.413935 411.0061888 -1.638069783)
(1371.173414 410.6984497 8.76898589)
(1366.263949 404.5783581 1.512161933)
(1458.922786 359.5217235 8.656650824)
(1451.640556 364.700303 4.788796056)
(1439.025246 379.6501255 -5.242151593)
(1430.59886 390.1332829 -2.692940366)
(1414.615395 403.2676849 2.489651129)
(1390.794484 401.9233824 -4.830295074)
(1394.50759 406.4439504 -6.768787902)
(1396.644901 407.2507085 1.64362949)
(1393.74004 413.2394269 -2.943363195)
(1392.477582 408.4041637 -2.079815398)
(1384.219486 408.3901699 -4.167138089)
(1587.682447 211.3099305 2.037082478)
(1563.818615 238.2280051 2.020108735)
(1550.954134 264.2368113 6.728871052)
(1531.104683 285.3999526 2.289450845)
(1505.151733 301.5323866 -2.189756388)
(1481.86929 329.8723874 -4.15152356)
(1472.247848 344.9386678 0.1647765895)
(1466.222647 356.3936247 3.538467868)
(1458.200781 375.6634128 2.297179778)
(1441.73579 384.8047398 2.431237257)
(1432.838686 403.0418257 2.809972076)
(1414.965598 402.2805293 2.294644468)
(1412.97856 412.6000568 -3.376339297)
(1413.860206 410.8073327 -2.039617145)
(1413.578994 409.2762238 -3.153268717)
(1414.154244 412.2607409 -1.202504309)
(1668.941932 90.7456428 -4.109360426)
(1666.116118 93.42347592 -2.059241697)
(1659.923218 100.6395848 -1.499537026)
(1636.186837 124.4050151 4.334534883)
(1634.392286 138.7898185 3.194947199)
(1616.344382 155.7824536 -1.301827)
(1604.769064 171.9216305 -0.4628008812)
(1590.874182 200.097652 -5.881891558)
(1582.831956 212.1778509 2.971893018)
(1557.733613 244.0054377 1.845186353)
(1546.692727 265.8760851 -4.788408026)
(1525.051077 289.1710094 -6.330789275)
(1497.06605 323.7862543 -7.420290294)
(1487.598417 340.6324668 -7.039631343)
(1485.297859 347.3851548 -12.10538054)
(1469.995921 362.6755424 -5.601970184)
(1459.039464 379.4513057 -6.379604474)
(1437.069086 396.3510388 2.699129855)
(1436.683236 395.2966919 1.608100398)
(1424.783486 407.9016089 2.444318307)
(1427.691527 412.1606925 5.057210395)
(1422.841067 407.712461 8.979439265)
(1721.96942 10.81968403 10.53958816)
(1721.848396 14.64202817 5.889660402)
(1718.165941 20.90517499 7.250007093)
(1712.020689 27.85367454 1.961820147)
(1706.480418 43.52694209 -2.772023662)
(1706.657397 49.28467736 -6.999044746)
(1695.753412 56.45877059 -0.3203226497)
(1690.880116 57.86974762 -1.284376969)
(1683.736791 70.55367285 -4.888753545)
(1672.853023 87.94917898 -7.065094562)
(1673.330986 100.6099503 -4.64308983)
(1655.152958 112.8152245 1.902797461)
(1646.899342 127.5966219 1.247319623)
(1632.490199 140.5823987 -2.783218308)
(1624.222252 155.3462535 -7.760230361)
(1597.123346 182.4183969 -12.07049433)
(1592.294377 198.0884591 -6.936427117)
(1571.949687 233.2561953 0.9005920226)
(1558.814703 258.304234 3.749067661)
(1533.632341 285.7985782 6.600475561)
(1519.043537 313.8846835 -2.750421279)
(1507.954377 321.8521552 4.265427876)
(1500.472828 333.425507 -1.375605438)
(1480.033566 354.9226197 -4.326528587)
(1473.543952 379.6441335 2.386175054)
(1460.36929 397.4607113 6.89537246)
(1453.842663 402.0303199 7.591242706)
(1446.38319 403.6458469 0.4773149015)
(1441.628204 409.5035266 0.7452377358)
(1720.732938 21.10048888 -10.3991868)
(1721.13197 22.60121845 -7.426301635)
(1714.219394 21.99906143 -0.0537990285)
(1718.442119 21.61992329 -5.051433982)
(1722.355775 22.49885204 -0.08645074695)
(1717.081606 32.83779412 -0.1320536878)
(1712.397718 30.94088926 -0.1324737339)
(1710.422575 39.44852063 -2.301752769)
(1701.266073 42.12406429 2.652175236)
(1696.467588 47.7706281 3.049556709)
(1681.387853 62.87651682 0.8688266024)
(1680.140965 70.8025426 3.789030477)
(1665.677628 87.09610144 -1.823521798)
(1662.876805 98.29704003 0.6257820102)
(1644.662248 117.8130721 6.39781113)
(1643.273213 137.0214451 4.076138458)
(1633.056011 155.4882357 -0.6063105926)
(1613.282615 178.8601828 -0.3628284153)
(1604.852664 201.8575916 -4.831317314)
(1588.826043 220.6380114 -5.717117094)
(1571.346279 240.2159658 0.0151689696)
(1537.901679 265.7202608 -4.23739682)
(1529.563088 298.9187673 -6.905742991)
(1520.17113 316.8484741 6.874460651)
(1502.885507 337.1468614 5.190017603)
(1492.206173 356.5964214 -6.508600491)
(1481.122543 367.0485483 -3.267539677)
(1476.274784 379.114131 -4.132867364)
(1464.34065 395.1327121 -3.634435693)
(1464.807683 398.2391023 3.688626785)
(1727.538813 12.66814546 -4.515939375)
(1732.204132 13.70704208 -1.908389194)
(1733.411055 19.7347133 -2.422005081)
(1728.968474 20.66651156 -0.7215848344)
(1723.671985 23.07821607 -3.560299884)
(1716.250637 15.47893978 1.418819592)
(1716.002582 20.97376595 0.3898645452)
(1713.206998 16.18114773 2.529352299)
(1712.981064 29.9577457 2.60175222)
(1707.482642 33.64780432 3.983167017)
(1702.544529 40.88651891 -4.259697257)
(1694.401992 57.67879834 -11.76658829)
(1690.442744 67.04516524 -9.656189493)
(1676.65897 84.18052836 -7.47843206)
(1668.241618 100.6565734 0.1558672575)
(1652.968831 109.514559 5.642437555)
(1640.804341 129.6258569 3.540658178)
(1635.115604 156.4621241 -5.333135177)
(1623.040795 166.6449316 -0.6727455434)
(1614.264452 182.3333528 4.675156955)
(1592.992712 209.9920785 0.7060202269)
(1576.495475 233.8570643 0.6935744693)
(1558.83806 260.8556794 -1.8682864)
(1547.208886 280.8073127 -4.948549914)
(1531.629701 286.5945472 6.705791831)
(1513.251158 315.0102058 3.387786307)
(1491.430804 345.5061091 2.643550393)
(1482.750179 355.0076882 -1.450966463)
(1478.96644 364.8290839 -13.2438894)
(1473.674434 377.2632409 -9.87592601)
(1737.47119 11.12951009 0.04019491286)
(1732.07648 8.165939707 -0.552395919)
(1731.310539 5.209634065 -3.783129182)
(1730.533706 6.079476012 -4.150262749)
(1725.863877 12.76609483 -2.807954077)
(1728.066647 20.40618571 -3.33756697)
(1727.560817 20.87462128 -4.750322585)
(1726.718635 25.60952855 -7.100295795)
(1714.494077 29.69068953 -11.33962019)
(1709.347287 29.63084835 -11.72043978)
(1706.572755 26.79409791 -8.313957721)
(1699.310912 36.98408511 -4.494642638)
(1693.968457 51.62450332 -1.771957149)
(1689.856488 73.59829124 -2.579637885)
(1676.589874 85.21600132 -4.919149204)
(1672.18358 97.20084319 -1.980825594)
(1676.230572 107.733984 2.779408389)
(1662.058935 115.8560563 9.375262994)
(1653.928008 138.7655023 -5.565002727)
(1632.998576 163.0342444 -8.296679333)
(1621.879231 178.9411863 -3.076254605)
(1609.607024 200.2488018 4.687647346)
(1601.168645 211.4423138 3.365720277)
(1573.603577 238.8964244 -6.241674984)
(1555.747791 266.7910916 -6.497013686)
(1544.890423 289.1183728 1.065913314)
(1527.7272 307.1677745 -4.033884438)
(1511.919659 333.1094859 7.344045388)
(1501.16299 346.6058389 7.107221796)
(1494.967819 365.5782902 -5.688850955)
(1730.874093 -2.094044553 -4.982788763)
(1731.308485 0.07082700922 -3.291477373)
(1736.547569 1.719654902 -5.283979965)
(1729.730538 8.225199608 -5.454133926)
(1726.105427 9.894901644 -0.1845224334)
(1722.407056 11.88351355 -0.3851555011)
(1715.652424 18.86076181 -4.225401578)
(1719.530154 15.55574293 -1.038556509)
(1715.044837 25.96788788 -4.39357559)
(1721.365926 26.75658996 -2.305875895)
(1719.3535 38.54934603 -3.269113551)
(1724.054869 41.07354974 -6.676588708)
(1720.897984 44.37068534 -5.085202569)
(1708.503484 48.54419089 -1.41684151)
(1701.779682 58.10474155 -4.954022804)
(1694.878123 66.41837928 -4.781515342)
(1678.181767 90.49675982 -5.746709082)
(1675.309965 107.4234268 -6.036030634)
(1666.405684 116.6337186 -5.087002387)
(1647.999583 127.0716898 -2.152837812)
(1643.014041 145.4117633 -7.547278784)
(1615.986654 174.0113234 -3.697335039)
(1598.893038 198.6730934 1.910109042)
(1592.061123 211.8242445 0.1145602952)
(1583.810761 232.372732 0.825062432)
(1561.283525 256.6532065 -8.115157356)
(1546.676731 274.7123936 -2.435377647)
(1528.984986 291.1040289 -4.310971082)
(1515.25564 310.4931474 5.372536211)
(1505.304904 338.209436 1.226695648)
(1732.038394 -6.307036024 -2.761405268)
(1728.635874 -7.001897771 -1.034597321)
(1728.353322 -0.06526193867 1.459046051)
(1730.424596 -4.550675242 3.793619305)
(1723.275205 1.47236189 6.031293175)
(1726.305264 3.227881025 4.457775225)
(1728.75803 7.408741945 4.935177254)
(1731.22271 20.21329995 6.183765145)
(1726.294972 24.46177877 7.697589553)
(1726.353271 25.83154983 5.461028538)
(1716.811774 25.35099346 5.272423015)
(1723.064322 26.09912266 5.781621981)
(1717.639472 33.47491906 -0.5093086183)
(1711.56193 34.76149492 -4.794726384)
(1706.307977 52.14248175 -6.93971936)
(1704.51366 62.3191864 -10.26071266)
(1698.67021 72.71793934 -5.381844191)
(1683.411901 81.4436492 -6.584441173)
(1680.023095 93.15631325 -1.971378334)
(1668.765129 109.9827442 -3.257937493)
(1655.252106 118.6853216 -3.050043923)
(1643.858839 135.7157089 -7.395383533)
(1628.581826 166.1739627 -9.525757444)
(1617.575842 184.160187 -7.428833605)
(1600.910598 193.3955099 -12.27674689)
(1594.018479 205.8575378 -9.703796377)
(1575.363853 238.2479638 -15.85763125)
(1561.734158 269.69184 -16.15139582)
(1545.716109 297.5702213 -13.0653918)
(1530.276421 306.7472624 -9.802470603)
(1736.154937 3.922663599 3.532785822)
(1736.019596 2.203625263 2.112689857)
(1734.866982 0.9267740814 5.663059784)
(1737.210444 -0.3884705186 4.597798855)
(1742.246976 -3.366815851 -3.444820852)
(1743.160834 -0.1962769025 3.352390204)
(1741.844139 4.278693067 1.204990092)
(1732.383437 5.746333061 2.368004669)
(1725.928171 11.03775063 -2.251782688)
(1719.454684 20.31323069 0.4119086687)
(1715.496901 24.59101951 -0.955562766)
(1710.479442 29.96006362 2.590180952)
(1714.389549 32.25772481 7.6798478)
(1715.990567 36.7150009 3.17294688)
(1715.008671 35.15079528 -2.26277526)
(1706.13411 40.47049316 -9.72224271)
(1699.629751 45.76844566 -5.415080132)
(1696.200688 61.6290169 -5.74020692)
(1685.861409 70.68275601 -7.822783781)
(1673.330147 88.84683172 -5.712116976)
(1678.819935 91.90166168 -6.899133435)
(1679.652096 110.1991827 -8.310779179)
(1654.06505 122.7523379 -5.996356518)
(1635.350089 136.9759244 -12.55718382)
(1610.676957 167.4634845 -7.928373505)
(1605.592605 189.7067286 -11.18268845)
(1597.299541 213.3692987 -4.613879009)
(1581.247716 238.4135136 -1.666577791)
(1557.469269 264.9503342 -4.568526318)
(1547.135384 278.7516297 -7.684196799)
(1739.592042 -1.249414538 -10.01514463)
(1739.383654 0.7120139337 -8.631074232)
(1739.101431 3.073979047 -7.173905494)
(1736.059081 1.474943267 -4.08952261)
(1731.768384 4.098084949 -2.223848942)
(1733.84062 5.811486743 -1.901512548)
(1729.45892 1.858447133 -3.01435131)
(1720.404228 3.194520988 -1.82038078)
(1723.424305 9.029591273 -4.62615623)
(1731.293019 16.64614215 1.295628526)
(1733.675409 19.83207054 3.311662402)
(1720.421142 24.04133083 0.4983322758)
(1716.514371 28.40198195 -2.385791113)
(1714.244244 29.61477914 -7.170617214)
(1709.878334 36.8908308 -5.875988182)
(1701.216792 40.06118387 -5.394274613)
(1701.068042 37.21592176 -8.271305918)
(1695.712974 36.892888 -1.209899641)
(1694.256638 48.7725997 -5.184928132)
(1685.350704 67.87587258 -0.6869645445)
(1675.989706 79.86047426 3.491618001)
(1670.788634 85.98151857 6.934024668)
(1670.926557 96.40123942 3.601042201)
(1666.556237 122.3266311 4.900883741)
(1657.13675 143.6679445 1.73302772)
(1637.547866 164.7022641 -4.028696173)
(1619.115128 182.8044077 -9.93997632)
(1608.318032 199.7451273 -7.879361083)
(1597.270017 211.7635609 -10.00756656)
(1580.257435 249.3759557 -5.745215517)
(1731.849475 -2.423852609 0.6268901243)
(1733.669409 -3.35628721 -3.808036291)
(1739.204498 -2.114326241 -5.387580199)
(1730.715229 2.601236237 -10.05727506)
(1727.207929 2.194266378 -12.99523083)
(1728.738474 0.7136659039 -8.514838753)
(1734.054951 2.359972053 -7.625059675)
(1734.977268 9.339046138 -9.44289139)
(1733.248671 7.201624674 -6.312346247)
(1724.57934 8.418119462 -4.769002748)
(1724.139675 9.362280365 -6.070654481)
(1731.511996 11.30119881 -6.699650825)
(1730.773709 15.6225809 -2.397358774)
(1723.269654 18.37449472 -1.099036986)
(1721.212159 22.83382967 1.954623841)
(1713.397132 32.15381081 1.098319008)
(1709.026856 35.21888228 1.156441814)
(1709.883956 33.18069998 -1.019010006)
(1700.536883 38.1177656 0.03189456348)
(1694.85461 46.32940996 0.9024590848)
(1687.597468 56.18219994 -5.143646925)
(1685.609545 72.19210279 -7.874248066)
(1665.861845 93.56170285 -7.987211474)
(1662.395516 99.28126049 -5.069267596)
(1650.982851 107.9320785 3.483840373)
(1648.662321 128.9265639 7.986622043)
(1645.512184 149.9235906 5.408530658)
(1637.731954 166.3265857 2.557660855)
(1620.158334 195.2728147 1.769085532)
(1597.894064 216.9214888 7.772580273)
(1737.72175 0.5692611569 -6.173805616)
(1737.561026 2.759170805 -3.002942249)
(1733.108967 3.933805763 1.41311825)
(1726.163454 4.254146319 -1.68130512)
(1732.672385 6.268944719 1.244119874)
(1728.063429 7.359243082 1.283417665)
(1728.1333 4.774629453 -2.363775151)
(1727.304166 6.460833963 -2.029645144)
(1731.344836 5.24876011 -6.172749748)
(1733.219491 7.114285563 -9.898159621)
(1729.920216 9.714020042 -9.25150195)
(1729.29849 9.600930486 -9.309563901)
(1732.528269 2.920863143 -5.928556493)
(1734.357256 6.308214251 -5.278183735)
(1724.276078 6.750731571 -1.756090784)
(1720.058873 12.49199531 -3.243038696)
(1711.846715 24.90717976 -3.512704503)
(1713.19306 30.4319112 3.068414544)
(1707.822534 32.0789809 3.378303617)
(1705.199154 37.52218493 7.021216097)
(1704.191285 48.64285552 9.67568472)
(1698.793241 53.6497827 5.048409189)
(1692.074487 66.16922821 9.256687394)
(1685.546078 74.1683478 7.601404653)
(1672.888796 96.92976012 4.615798264)
(1658.579506 106.6239933 9.631356945)
(1650.18411 117.945566 8.852571903)
(1642.186792 140.3903925 9.075421057)
(1638.147881 158.6612744 8.989457614)
(1623.057471 182.344062 4.853440223)
(1725.453785 5.142394572 -1.978172313)
(1730.044405 4.317480849 -2.61288506)
(1731.04799 2.412923352 -4.920546808)
(1731.729927 0.9458790019 -0.6048114147)
(1733.922106 5.080608598 -0.5353402299)
(1736.057855 6.853616908 0.6119896854)
(1733.480414 7.303908703 0.2388246585)
(1729.958665 9.635256173 -0.05583775248)
(1730.809828 7.902316756 -2.068818348)
(1727.876442 7.226782487 -2.70489493)
(1725.420392 2.663743851 -0.4639524662)
(1728.691307 1.469133019 1.266619526)
(1723.60694 10.57927677 1.238295715)
(1725.479436 9.655136129 3.907898269)
(1724.500863 11.87375935 1.617988312)
(1721.973425 10.40888933 3.604359356)
(1726.54758 8.265028023 2.721328832)
(1719.458491 18.87532052 -2.803234671)
(1719.10236 25.55595944 -1.420563851)
(1717.114197 35.85861812 0.2854200355)
(1708.988359 37.14289219 -0.7538314411)
(1707.075432 38.78585537 -4.023215188)
(1701.435195 45.12172444 -4.051372792)
(1690.478586 58.75285416 -2.483945486)
(1683.413546 63.45709065 1.888786966)
(1675.381157 77.79455899 -2.268450966)
(1663.503765 99.61068328 0.4149092593)
(1650.641283 116.7233184 -2.301776543)
(1645.355896 135.1383108 -2.32912308)
(1644.19376 150.4526968 2.215084825)
(1737.918657 -0.9537357378 10.76896887)
(1739.227983 -1.532187828 5.375685283)
(1741.391218 6.372499513 3.446299495)
(1740.350311 3.704754787 0.7793070087)
(1738.559908 0.4513874811 -3.676883322)
(1737.928449 1.729273702 -3.021532435)
(1738.262075 -0.5042167713 -2.100915253)
(1735.706985 -0.5733544954 2.21895786)
(1734.717926 -1.165393831 0.8831796122)
(1735.006391 8.684533477 3.756771665)
(1735.276996 6.493235575 1.725584737)
(1733.153605 4.974444059 -3.925863096)
(1729.235827 5.412767455 -1.441383029)
(1724.11591 8.307789528 -5.76894906)
(1727.281087 14.11108696 -10.47022416)
(1722.768288 19.59414167 -9.814880962)
(1725.715631 19.05045894 -5.011066888)
(1728.013099 22.87918731 -3.32104692)
(1718.276457 18.54652667 -5.099802368)
(1727.696259 20.22644644 -8.387054474)
(1717.592039 34.54083726 -8.161190684)
(1714.382526 38.30645024 -0.3312675854)
(1711.834228 44.04450211 4.801942981)
(1705.029875 43.19681217 -0.04459972195)
(1697.913763 51.75959603 0.2631192982)
(1700.697973 66.76876481 -4.343930993)
(1697.976059 72.63928157 -2.716431636)
(1693.270376 89.69384834 -0.5757308175)
(1668.707895 110.7324318 1.892592344)
(1657.133495 129.381472 3.061348853)
(1736.044428 9.528417222 -7.156899247)
(1729.43579 7.21641477 -0.9452475106)
(1733.657695 3.375319605 -1.93743672)
(1733.180556 2.470465133 -7.703574897)
(1732.393292 1.530877031 -4.762011898)
(1734.308211 -2.295258505 -5.883538065)
(1735.500626 -0.3364976824 -0.8139571523)
(1739.861044 -5.173704551 -2.799158408)
(1735.69402 -1.374419167 -4.813860079)
(1732.125324 -5.988604706 -5.229552825)
(1731.187661 3.617772743 -5.038868784)
(1734.269759 9.956156484 0.1592412844)
(1734.423912 12.05159893 -5.373858046)
(1733.047713 8.963724356 -7.599143423)
(1735.234276 6.183642815 -6.857447191)
(1731.952686 1.25587502 -8.960396384)
(1727.81141 9.703001944 -10.72805279)
(1722.195187 11.14568986 -11.99136211)
(1724.99888 20.15511712 -7.128650026)
(1721.75528 20.3476697 -8.041633277)
(1721.867603 22.60193719 -7.921412164)
(1717.660882 26.1073598 -9.007111524)
(1715.609197 30.75342676 -11.38529259)
(1719.30962 43.00629036 -9.304237654)
(1717.362739 46.80099863 -7.38885971)
(1709.533266 56.32321391 -3.286286239)
(1697.34823 68.69796911 1.25044012)
(1687.608894 78.32422276 0.8745809017)
(1680.895488 92.12372065 2.886688679)
(1664.818319 103.5053615 -0.04522749101)
(1738.102445 -1.60360648 -0.9367296598)
(1736.735346 0.2845972059 2.169688174)
(1737.516189 0.7401768831 3.91807673)
(1738.471349 3.421596271 5.38277641)
(1740.493825 4.011730224 2.028657642)
(1733.57599 7.817536786 2.324839706)
(1731.505387 12.53741264 3.049394035)
(1727.356847 9.505764182 3.062016199)
(1726.20413 8.053027031 2.120115258)
(1723.322306 4.450001077 2.759786193)
(1724.514643 4.233017643 1.467001996)
(1723.531464 -2.546414066 1.433174841)
(1725.668745 -1.191904457 2.937136976)
(1726.359649 1.449767135 -0.4879190078)
(1723.691983 2.559149914 0.3305323614)
(1727.20322 5.42669545 -1.846742647)
(1730.75313 5.451812801 -0.2593659321)
(1728.424039 6.916504535 -5.324958666)
(1725.317711 9.254798188 -11.45660733)
(1725.991684 10.33305206 -11.26404502)
(1720.258847 19.2476382 -10.94290313)
(1720.134281 23.12533214 -7.158777102)
(1719.104527 31.92675161 -9.428225432)
(1719.650503 34.11126425 -3.400999628)
(1717.504724 46.58968417 -2.863792008)
(1710.083145 49.52650275 -3.295504488)
(1705.821827 56.9122393 1.257234136)
(1695.366264 66.14580404 0.5420142672)
(1686.454391 71.37280868 -7.262826652)
(1679.74892 94.51351371 -6.745075437)
(1733.68389 -4.310835966 8.584772262)
(1737.780704 -3.68229625 7.770920678)
(1733.850785 -1.414348994 1.320942837)
(1732.135471 1.756944574 0.09394931431)
(1731.785232 1.202972848 2.320319673)
(1730.570553 -0.02461951566 1.648736646)
(1727.622563 0.6284109517 0.8210719661)
(1727.449953 4.529830735 0.970404908)
(1729.00975 6.960670331 -0.2554686052)
(1726.222861 5.835898029 2.612707155)
(1730.539246 4.990765746 1.89388812)
(1728.588737 0.9850788754 0.243141983)
(1728.973881 -3.905220492 0.4093947017)
(1730.317697 1.114038655 0.7565012984)
(1733.942112 0.8081418991 -0.6241650011)
(1728.389405 4.360223453 2.178744536)
(1729.793853 6.113984608 0.2256292714)
(1727.692808 11.35801812 1.865200201)
(1726.695235 12.11174683 11.25684799)
(1723.275502 10.70443751 11.94892263)
(1727.22407 9.057345119 9.745875108)
(1725.659581 13.28460675 10.62674791)
(1722.627765 19.31421161 15.12709686)
(1715.442413 29.3443537 10.8908372)
(1713.593132 29.92346248 5.802404949)
(1703.441518 40.62216953 6.329639217)
(1704.470911 45.05562965 0.8356217767)
(1708.664595 48.98021022 1.560753919)
(1705.010802 60.61375879 -2.62348029)
(1698.512223 60.03419211 -8.871453029)
(1740.959435 2.335286667 -8.881002057)
(1734.076105 -2.526276091 -5.867941035)
(1731.078788 -4.47624982 -2.633785268)
(1728.60123 -6.101568281 -1.529538597)
(1729.425183 -2.574316389 -1.647897791)
(1729.507215 -3.161917044 -3.735298199)
(1730.727285 -3.044794354 -4.27014733)
(1734.841163 -3.090089541 -2.774083703)
(1735.998852 -4.20965808 0.7549135913)
(1732.630983 -4.198370326 -1.509325854)
(1733.458211 0.4768320836 1.52706991)
(1736.31845 -1.182852796 1.584891149)
(1733.083167 1.184930151 3.317670484)
(1727.334225 1.423744093 5.625808837)
(1726.643406 2.827645158 7.406348074)
(1731.200552 5.824871772 6.488693308)
(1735.437106 5.284752718 8.806907574)
(1731.738149 2.531969624 8.875342071)
(1733.336833 9.048061789 6.468516998)
(1725.737673 11.37935916 6.11038875)
(1725.575809 15.52206524 8.599036082)
(1722.650914 18.95542322 6.566842411)
(1718.479876 20.63149631 -3.954501069)
(1718.783651 25.02330404 -6.937380144)
(1717.545864 26.61195338 -2.137620981)
(1710.43433 22.86856095 0.7009825568)
(1713.899116 37.65058433 -2.547228783)
(1719.569389 37.85344647 -8.822499549)
(1712.691648 42.080267 0.1992370238)
(1709.437143 45.87395216 -2.279370667)
(1732.002262 5.831788335 -8.242416938)
(1730.25576 0.8852268306 -5.841688465)
(1737.165774 1.220413313 -8.005904322)
(1733.249563 -0.7524428571 -3.881822996)
(1735.695109 -0.251198325 -1.612704889)
(1738.33464 -6.025398035 3.347052019)
(1735.656668 -10.98627238 4.595046864)
(1731.443565 -7.994315089 2.625113127)
(1735.274236 -5.219250521 2.12305156)
(1736.426861 -6.476003169 2.408422572)
(1737.220265 -4.592473003 0.7386530017)
(1728.771709 5.249579029 1.465910793)
(1730.118067 2.899173065 0.9850245863)
(1732.786586 3.168193788 -0.1471831643)
(1732.464252 2.236846249 -1.142923753)
(1730.721166 -0.138764936 -0.4626001903)
(1724.928711 3.44899785 -1.245583718)
(1734.039653 3.621776884 4.116011014)
(1733.444227 4.218855587 1.669522025)
(1733.79472 15.04859733 -1.81172514)
(1732.038587 17.14558742 -3.989413225)
(1733.233451 12.87868424 -3.049572894)
(1736.121669 14.88762854 -0.3350704184)
(1739.316622 7.970220328 -1.509114166)
(1732.046557 15.89721901 -2.919539982)
(1724.126547 21.52332714 -0.2920993734)
(1719.720095 23.471201 -3.839251718)
(1715.951614 27.33245879 1.518628459)
(1709.276857 32.14181959 3.959782751)
(1708.47121 42.97200481 -0.7442667155)
(1733.792108 -1.408741551 0.308539594)
(1734.517373 2.555526491 -1.604250771)
(1730.089104 1.699333161 -3.59834387)
(1731.701435 0.3706146959 -2.930010619)
(1729.9871 -1.88472547 -6.163808931)
(1729.891905 -1.650672064 -8.756463555)
(1733.818406 0.4466031107 -8.366237089)
(1735.286748 -0.8069093929 -7.102876974)
(1731.182936 -0.9224723091 -7.111793045)
(1732.477843 -4.529879568 -7.263557574)
(1731.639374 -6.71858683 -4.535881823)
(1733.867369 -6.101757377 -0.2043503606)
(1734.578753 -3.246420527 0.3060482275)
(1735.573608 3.604828053 1.358716595)
(1739.082033 5.721072386 3.581236358)
(1739.868717 4.239765996 0.5914192272)
(1740.731118 9.572577337 -2.778925746)
(1740.74353 10.54005532 -7.420985871)
(1737.803762 10.1837157 -9.19183009)
(1737.009072 6.61758919 -9.456857366)
(1735.779555 4.342260232 -3.252561784)
(1734.027845 9.107251293 0.3296972449)
(1735.86988 3.739364955 -2.579632916)
(1730.752797 6.598165647 -2.088038167)
(1734.764172 5.1733739 -4.745257385)
(1722.462014 16.35218752 -1.648308394)
(1723.61252 18.5757561 2.024452374)
(1723.789582 20.96189905 -0.1840441325)
(1722.651394 29.27315702 -1.56803994)
(1716.47012 35.3589569 2.493450743)
(1735.819102 -2.643361506 3.437339468)
(1735.907524 -7.634852051 10.87440354)
(1737.243151 -8.328372568 4.130568487)
(1737.226235 -2.625846874 3.363407076)
(1742.52644 0.1707269964 0.9467974754)
(1740.845589 8.054359262 1.563356336)
(1743.060919 4.133868075 -0.4695262699)
(1747.205938 2.764741257 -5.906957481)
(1753.376682 0.889967271 -5.255822584)
(1751.053991 5.413932813 -5.074194039)
(1748.536209 4.44893832 -9.291271927)
(1751.41581 0.837251148 -11.49746418)
(1746.492329 -3.298674868 -16.13612669)
(1750.017267 -3.295037309 -16.70856517)
(1744.51054 1.200499824 -16.10630978)
(1742.111347 1.703340939 -9.42271954)
(1740.571042 2.672435784 -6.342676467)
(1735.175067 3.63147413 -3.921009621)
(1737.270249 -2.313289056 1.377370557)
(1738.528197 3.989571443 2.032315294)
(1733.560428 6.861806738 -0.7225598088)
(1731.590963 13.08447037 -3.033810365)
(1734.857321 10.29131617 -1.71592886)
(1732.720342 7.218106088 -0.5295451136)
(1730.232307 7.376820228 -1.204860967)
(1732.622474 4.341243101 3.08821399)
(1731.384675 9.200738945 0.6960982646)
(1729.799874 20.80085039 2.950530323)
(1728.964588 22.89043966 3.423162879)
(1725.859622 23.28456356 1.787895913)
(1741.416226 -1.293864615 -3.760257799)
(1747.413335 1.395497994 -3.81609654)
(1747.866395 5.573549718 -1.535748382)
(1746.262842 3.362795231 -5.177420049)
(1745.527237 -2.471449296 -3.685074346)
(1743.464614 0.7500815408 -6.58197089)
(1743.924006 6.426279382 -3.851311741)
(1733.50777 9.634971948 -3.734256763)
(1737.467771 10.709522 -3.629656815)
(1735.63057 11.93682504 -4.932504609)
(1733.459952 8.463060451 -4.00753694)
(1731.984174 10.69498929 -4.01215218)
(1738.851448 6.170100672 -1.275662035)
(1739.615523 8.062929737 -0.5008905173)
(1740.07507 7.604249773 -2.060560806)
(1742.054503 9.040960771 -3.563128808)
(1739.136435 7.731827385 -7.887768288)
(1742.848001 9.869884145 -10.01186045)
(1735.967329 10.97866973 -7.881393665)
(1738.3531 7.612263063 -8.789778997)
(1737.207923 6.198134426 -4.244551475)
(1731.624761 2.998930258 -2.30053871)
(1736.032118 15.47506686 -1.162766057)
(1742.39166 9.672748129 0.1379549493)
(1741.941633 17.88842845 1.492041985)
(1743.106954 15.03988318 2.027773929)
(1732.128671 12.05968989 -7.777193455)
(1726.163575 17.02500918 -2.926612712)
(1724.837647 25.02635537 0.2023166367)
(1723.043271 32.46958606 1.244218013)
)
;

boundaryField
{
    flow
    {
        type            calculated;
        value           nonuniform List<vector> 
55
(
(1334.033395 395.989456 1.314549097)
(1366.263949 404.5783581 1.512161933)
(1384.219486 408.3901699 -4.167138089)
(1414.154244 412.2607409 -1.202504309)
(1422.841067 407.712461 8.979439265)
(1441.628204 409.5035266 0.7452377358)
(1464.807683 398.2391023 3.688626785)
(1473.674434 377.2632409 -9.87592601)
(1494.967819 365.5782902 -5.688850955)
(1505.304904 338.209436 1.226695648)
(1530.276421 306.7472624 -9.802470603)
(1547.135384 278.7516297 -7.684196799)
(1580.257435 249.3759557 -5.745215517)
(1597.894064 216.9214888 7.772580273)
(1623.057471 182.344062 4.853440223)
(1644.19376 150.4526968 2.215084825)
(1657.133495 129.381472 3.061348853)
(1664.818319 103.5053615 -0.04522749101)
(1679.74892 94.51351371 -6.745075437)
(1698.512223 60.03419211 -8.871453029)
(1709.437143 45.87395216 -2.279370667)
(1708.47121 42.97200481 -0.7442667155)
(1716.47012 35.3589569 2.493450743)
(1725.859622 23.28456356 1.787895913)
(1723.043271 32.46958606 1.244218013)
(1741.416226 -1.293864615 -3.760257799)
(1747.413335 1.395497994 -3.81609654)
(1747.866395 5.573549718 -1.535748382)
(1746.262842 3.362795231 -5.177420049)
(1745.527237 -2.471449296 -3.685074346)
(1743.464614 0.7500815408 -6.58197089)
(1743.924006 6.426279382 -3.851311741)
(1733.50777 9.634971948 -3.734256763)
(1737.467771 10.709522 -3.629656815)
(1735.63057 11.93682504 -4.932504609)
(1733.459952 8.463060451 -4.00753694)
(1731.984174 10.69498929 -4.01215218)
(1738.851448 6.170100672 -1.275662035)
(1739.615523 8.062929737 -0.5008905173)
(1740.07507 7.604249773 -2.060560806)
(1742.054503 9.040960771 -3.563128808)
(1739.136435 7.731827385 -7.887768288)
(1742.848001 9.869884145 -10.01186045)
(1735.967329 10.97866973 -7.881393665)
(1738.3531 7.612263063 -8.789778997)
(1737.207923 6.198134426 -4.244551475)
(1731.624761 2.998930258 -2.30053871)
(1736.032118 15.47506686 -1.162766057)
(1742.39166 9.672748129 0.1379549493)
(1741.941633 17.88842845 1.492041985)
(1743.106954 15.03988318 2.027773929)
(1732.128671 12.05968989 -7.777193455)
(1726.163575 17.02500918 -2.926612712)
(1724.837647 25.02635537 0.2023166367)
(1723.043271 32.46958606 1.244218013)
)
;
    }
    obstacle
    {
        type            calculated;
        value           nonuniform List<vector> 0();
    }
    frontAndBack
    {
        type            empty;
    }
    procBoundary3to1
    {
        type            processor;
        value           nonuniform List<vector> 
36
(
(1331.420221 380.5895974 -7.378073106)
(1361.573428 412.3554185 1.234069172)
(1351.842113 414.1446776 1.06686761)
(1349.822538 405.966046 -0.557030419)
(1335.554687 401.2461066 1.754667433)
(1335.554687 401.2461066 1.754667433)
(1435.468524 391.5827521 -3.719668114)
(1424.987939 398.9282275 -11.76082265)
(1403.096194 398.4184135 -3.68211296)
(1395.737047 402.3480342 -1.496770198)
(1385.557717 409.0987857 -4.966050801)
(1387.403036 417.0147603 -8.612205645)
(1387.403036 417.0147603 -8.612205645)
(1538.861625 264.8185745 -3.041204858)
(1522.28077 277.8892547 4.698034241)
(1517.65466 296.2430637 0.2366275459)
(1488.13005 327.2699206 -6.8495701)
(1473.350931 352.3085116 8.573807773)
(1473.350931 352.3085116 8.573807773)
(1649.177873 100.6649049 0.9044046446)
(1638.119742 115.680694 5.67484029)
(1620.254494 145.2084396 1.306576596)
(1613.247419 161.416791 -1.040024754)
(1605.616652 168.7174112 7.017404105)
(1594.805987 186.6488262 7.986235522)
(1594.805987 186.6488262 7.986235522)
(1715.473561 25.5981032 -2.879664665)
(1714.644407 33.4245368 -1.319777824)
(1702.280719 33.11625288 -0.9292907143)
(1698.92233 45.74617531 2.294370682)
(1693.830014 56.92454782 3.498824114)
(1694.464607 60.63163059 3.52607833)
(1682.596157 73.10962338 1.080081617)
(1682.596157 73.10962338 1.080081617)
(1717.779542 14.26011784 9.868920872)