/*--------------------------------*- C++ -*----------------------------------*\
| =========                 |                                                 |
| \\      /  F ield         | OpenFOAM: The Open Source CFD Toolbox           |
|  \\    /   O peration     | Version:  2406                                  |
|   \\  /    A nd           | Website:  www.openfoam.com                      |
|    \\/     M anipulation  |                                                 |
\*---------------------------------------------------------------------------*/
FoamFile
{
    version     2.0;
    format      ascii;
    arch        "LSB;label=32;scalar=64";
    class       Cloud<dsmcParcel>;
    location    "0.011/lagrangian/dsmc";
    object      coordinates;
}
// * * * * * * * * * * * * * * * * * * * * * * * * * * * * * * * * * * * * * //

5152
(
(0.3759929126 0.2902296165 0.02177392719 0.3120035437) 534 1031 1
(0.2211184533 0.2272167814 0.1622239919 0.3894407733) 445 2222 1
(0.06685322822 0.2425316992 0.2240416867 0.4665733859) 455 2223 1
(0.1891551916 0.4054224042 0.1269676156 0.2784547886) 424 804 1
(0.0233780838 0.0327389466 0.4555720115 0.4883109581) 535 1014 2
(0.05625613311 0.4718719334 0.1280736444 0.343798289) 475 917 2
(0.7930625213 0.1034687394 0.04219246846 0.06127627091) 444 842 1
(0.4539450992 0.2730274504 0.0358793433 0.2371481071) 442 856 2
(0.4022226335 0.2988886833 0.2816369437 0.01725173959) 444 860 2
(0.03038705062 0.4848064747 0.4538171446 0.03098933012) 515 2229 2
(0.1099426797 0.4450286601 0.3152550957 0.1297735644) 486 921 1
(0.2875747461 0.1137932586 0.356212627 0.2424193683) 365 708 1
(0.1483942605 0.4258028698 0.2285222996 0.1972805702) 421 817 1
(0.1250723736 0.4374638132 0.05716169694 0.3803021163) 463 878 1
(0.4759600155 0.1279158803 0.1341041119 0.2620199922) 515 976 2
(0.04295400697 0.4785229965 0.4438866644 0.03463633215) 373 725 2
(0.4590825789 0.2704587105 0.2337033307 0.03675537983) 531 1025 2
(0.4078874183 0.1225837469 0.173472544 0.2960562908) 473 915 1
(0.6007979442 0.1996010279 0.03429338724 0.1653076406) 454 861 1
(0.4737010811 0.2631494594 0.1741997359 0.08894972357) 423 802 1
(0.4758883561 0.005100541966 0.25695528 0.2620558219) 401 778 1
(0.09688998004 0.1547870665 0.2967679435 0.45155501) 415 2219 1
(0.1943796841 0.4028101579 0.07740234591 0.325407812) 503 972 2
(0.1391463295 0.2880102159 0.1424166193 0.4304268352) 452 875 1
(0.3512629008 0.3243685496 0.238689873 0.0856786766) 443 840 1
(0.6511827675 0.01818589449 0.1562227218 0.1744086163) 365 2214 1
(0.1482893103 0.004366999848 0.421488345 0.4258553448) 445 843 2
(0.8355090564 0.05023608438 0.08224547179 0.03200938741) 493 954 2
(0.3963896497 0.3018051752 0.1646914647 0.1371137105) 404 784 2
(0.1358397545 0.3595559964 0.4320801228 0.07252412637) 422 819 2
(0.1855827775 0.4072086112 0.199865725 0.2073428863) 415 2219 2
(0.1918190236 0.2040388343 0.2000516539 0.4040904882) 382 742 1
(0.7790882554 0.1104558723 0.02576206372 0.0846938086) 514 991 2
(0.4583266198 0.06424899643 0.2065876937 0.2708366901) 425 805 2
(0.5341545618 0.2329227191 0.2033090939 0.02961362519) 453 859 1
(0.3473777171 0.3263111414 0.2865433512 0.03976779025) 504 972 2
(0.2474748033 0.01010921882 0.3661533796 0.3762625984) 502 970 1
(0.1062526659 0.4468736671 0.07870848815 0.3681651789) 403 783 1
(0.4135291108 0.2383865807 0.2932354446 0.05484886392) 395 767 2
(0.1782068182 0.4108965909 0.1388208647 0.2720757262) 424 823 1
(0.03504442484 0.4824777876 0.4609405835 0.02153720411) 495 955 2
(0.5360322366 0.2319838817 0.07636782279 0.1556160589) 493 951 2
(0.5354503068 0.0212625786 0.2322748466 0.211012268) 179 358 2
(0.1398491278 0.4300754361 0.3296843709 0.1003910651) 374 727 2
(0.8397775633 0.08011121836 0.04266639934 0.03744481902) 394 766 1
(0.4142587441 0.2928706279 0.2772050216 0.01566560634) 365 2214 2
(0.1921199985 0.01336891833 0.3905710824 0.4039400007) 464 880 2
(0.1540024755 0.3229606244 0.4229987622 0.1000381379) 495 955 1
(0.6580535504 0.1580861459 0.01288707894 0.1709732248) 514 975 2
(0.3842798213 0.3078600893 0.1208611787 0.1869989106) 505 976 1
(0.05998689703 0.3932875828 0.07671896869 0.4700065515) 415 786 2
(0.7885606682 0.04231473679 0.06340492911 0.1057196659) 432 837 1
(0.3877658689 0.1928926372 0.1132244284 0.3061170656) 475 2225 1
(0.1611870184 0.2550689399 0.4194064908 0.1643375509) 485 936 1
(0.1152353632 0.4423823184 0.05868821022 0.3836941082) 422 816 2
(0.2764515098 0.0971283772 0.2646458679 0.3617742451) 454 879 1
(0.1137808451 0.382670787 0.4431095775 0.06043879047) 465 898 1
(0.1049690955 0.4475154522 0.05987009478 0.3876453575) 492 949 2
(0.04664186082 0.4766790696 0.105051767 0.3716273025) 505 957 1
(0.02537732771 0.4873113361 0.02493316468 0.4623781715) 512 989 2
(0.8200898055 0.08995509726 0.03480839723 0.05514670003) 514 991 2
(0.1292704162 0.2430927652 0.4353647919 0.1922720267) 425 824 2
(0.5347413033 0.1700892411 0.06254010719 0.2326293483) 365 2208 1
(0.04680662937 0.4765966853 0.4550906084 0.02150607688) 423 821 1
(0.6676121461 0.1661939269 0.02597059198 0.140223335) 393 761 2
(0.402774087 0.1670420277 0.1315709288 0.2986129565) 522 990 2
(0.1639173934 0.1113155427 0.4180413033 0.3067257606) 414 804 2
(0.7952613621 0.1023693189 0.08518221668 0.01718710225) 485 919 1
(0.09724039692 0.4513798015 0.1144659557 0.3369138459) 425 824 1
(0.1562114286 0.04397344151 0.3779208442 0.4218942857) 474 899 2
(0.3424925724 0.1729142104 0.1558395034 0.3287537138) 475 900 2
(0.6837699299 0.1581150351 0.1118400377 0.04627499732) 395 2217 2
(0.5959010511 0.2020494744 0.1262164755 0.07583299891) 414 803 2
(0.246552195 0.3767239025 0.3020703576 0.07465354496) 470 909 2
(0.2232962057 0.01552676632 0.3883518972 0.3728251308) 461 890 1
(0.03274163779 0.3791788256 0.1044503555 0.4836291811) 437 828 2
(0.08007123645 0.1876849128 0.4599643818 0.2722794689) 472 911 1
(0.2398737088 0.07687315309 0.3800631456 0.3031899925) 413 802 2
(0.06556471509 0.4672176425 0.434045638 0.03317200442) 471 911 2
(0.1963040879 0.4018479561 0.1697379607 0.2321099953) 514 975 1
(0.7398371073 0.1300814463 0.09723061256 0.03285083379) 394 747 1
(0.03138245443 0.4843087728 0.2281826901 0.2561260827) 465 900 1
(0.07580148514 0.3306397304 0.1314595271 0.4620992574) 417 808 1
(0.0571638035 0.2724588108 0.1989592874 0.4714180983) 439 850 1
(0.6973621842 0.1513189079 0.1038634809 0.04745542698) 400 776 2
(0.1914309153 0.4042845423 0.2290743833 0.175210159) 385 746 2
(0.03429027501 0.1135590199 0.3692958426 0.4828548625) 425 805 2
(0.2647437674 0.1106242769 0.3676281163 0.2570038394) 424 820 1
(0.1411830509 0.09472734872 0.3346811258 0.4294084745) 483 916 2
(0.04241910699 0.01870112943 0.4600893171 0.4787904465) 432 819 2
(0.5099831469 0.2344338716 0.01057455498 0.2450084266) 464 898 1
(0.5327959764 0.2336020118 0.1656485355 0.06795347634) 473 897 1
(0.07793762245 0.4610311888 0.3439165571 0.1171146316) 494 937 1
(0.3594948003 0.3202525999 0.01512276958 0.3051298303) 512 971 1
(0.3439290953 0.1989563363 0.1290791161 0.3280354524) 384 746 1
(0.3445546141 0.07969800205 0.2480246909 0.3277226929) 515 2229 1
(0.5811452168 0.2094273916 0.01034662255 0.199080769) 413 783 1
(0.675297951 0.1244587083 0.1623510245 0.03789231622) 513 992 2
(0.339686371 0.08167960427 0.3301568145 0.2484772102) 524 1010 1
(0.1675918205 0.4162040897 0.2904409294 0.1257631604) 524 994 1
(0.2784235059 0.3607882471 0.2767466392 0.08404160783) 535 1033 1
(0.1851103307 0.3775451 0.02989973462 0.4074448346) 534 1031 1
(0.3323581895 0.3338209053 0.01110630259 0.3227146027) 492 952 1
(0.04127329616 0.1762244573 0.3031388946 0.4793633519) 385 729 2
(0.07509082387 0.3588270172 0.1036275709 0.4624545881) 424 804 2
(0.5223424223 0.2388287888 0.1027606445 0.1360681443) 405 784 2
(0.2361004798 0.2202422583 0.3819497601 0.1617075018) 462 895 2
(0.5665849108 0.1978697027 0.2167075446 0.01883784193) 465 900 2
(0.2033557504 0.3983221248 0.3901674035 0.008154721233) 503 954 1
(0.3871666213 0.3064166893 0.294470223 0.01194646632) 483 935 1
(0.1294561018 0.04558820185 0.3896837472 0.4352719491) 462 894 1
(0.3041743668 0.3479128166 0.177417193 0.1704956236) 485 936 2
(0.1012347118 0.4493826441 0.02792460662 0.4214580375) 495 957 1
(0.01872820225 0.4906358989 0.2700971799 0.220538719) 503 954 1
(0.5740824224 0.2129587888 0.03823770985 0.174721079) 504 972 2
(0.7708686683 0.08462768292 0.02993798295 0.1145656659) 501 968 1
(0.06374791878 0.4681260406 0.4598062079 0.008319832737) 530 1005 1
(0.8358616618 0.08206916909 0.0514277723 0.03064139679) 404 784 2
(0.9457925989 0.002508894746 0.02459480581 0.02710370055) 413 783 2
(0.5284441412 0.1087275383 0.2357779294 0.1270503911) 383 745 2
(0.110350611 0.4448246945 0.1544844397 0.2903402548) 394 763 2
(0.3447418331 0.2847543625 0.3276290835 0.04287472096) 384 744 1
(0.7839605048 0.03271664024 0.1080197476 0.07530310736) 380 736 1
(0.3151097833 0.3424451083 0.2054822824 0.1369628259) 381 740 2
(0.4319568632 0.2840215684 0.03985654729 0.2441650211) 462 894 2
(0.4160387676 0.2919806162 0.09202304404 0.1999575722) 430 815 1
(0.4023709909 0.2183122244 0.08050228016 0.2988145046) 433 839 1
(0.757997584 0.121001208 0.06446496876 0.05653623924) 425 805 1
(0.4985004749 0.1073942087 0.1433555539 0.2507497626) 492 933 2
(0.1198040001 0.3779619758 0.06213602416 0.4400979999) 421 798 2
(0.7917755307 0.0492838837 0.05482835094 0.1041122346) 495 2227 1
(0.2321361318 0.3839319341 0.2719600861 0.1119718481) 523 1008 2
(0.3705589842 0.3147205079 0.2496426952 0.06507781267) 484 934 2
(0.8570997469 0.07145012657 0.04363651426 0.02781361231) 472 913 2
(0.1600449961 0.4199775019 0.4137520828 0.006225419161) 490 945 2
(0.8332784635 0.08336076827 0.02916731982 0.05419344845) 495 957 1
(0.195805355 0.4020973225 0.02273540609 0.3793619164) 495 938 1
(0.2668975626 0.1038322994 0.2627189192 0.3665512187) 505 2228 1
(0.5960477663 0.2019761169 0.1443537326 0.05762238423) 465 898 2
(0.6700250309 0.1649874845 0.1067029812 0.0582845033) 375 2215 2
(0.6063996474 0.1883722109 0.1968001763 0.008427965416) 383 742 1
(0.1343544675 0.02572761565 0.4070951506 0.4328227663) 373 707 2
(0.521425916 0.08593783266 0.239287042 0.1533492093) 375 727 1
(0.4176708879 0.291164556 0.2474883966 0.0436761594) 259 519 2
(0.2040753245 0.3979623378 0.3888837391 0.00907859864) 424 820 2
(0.8142005117 0.04753220851 0.04536753564 0.09289974415) 492 933 2
(0.1190338984 0.4404830508 0.206114129 0.2343689218) 393 761 2
(0.2768889499 0.3585570502 0.002998474799 0.361555525) 453 859 2
(0.2222288641 0.1202805817 0.3888855679 0.2686049862) 475 919 2
(0.2010020812 0.302820354 0.3994989594 0.09667860536) 534 1032 2
(0.4450809822 0.2774595089 0.04178522184 0.2356742871) 522 990 1
(0.7061338412 0.09119611808 0.05573696131 0.1469330794) 535 2231 1
(0.03046031813 0.1370897953 0.4847698409 0.3476800456) 460 888 1
(0.1165991621 0.4383092661 0.003391152906 0.441700419) 514 993 1
(0.3061912519 0.3469043741 0.05235538419 0.2945489899) 365 708 2
(0.8900968707 0.05495156463 0.04582185157 0.00912971306) 394 766 1
(0.2181144895 0.01877663756 0.3909427552 0.3721661177) 441 852 1
(0.03701420754 0.2455396481 0.2359532482 0.4814928962) 404 766 2
(0.1303944255 0.4348027873 0.4321583626 0.002644424676) 425 824 1
(0.4471694076 0.01254374465 0.2638715516 0.2764152962) 421 798 2
(0.8525064425 0.05328790247 0.07374677877 0.0204588763) 390 755 1
(0.06347182092 0.4682640895 0.3827660906 0.08549799899) 445 862 1
(0.4092940576 0.2953529712 0.1462383092 0.149114662) 403 783 1
(0.3623428431 0.3188285785 0.06183480743 0.256993771) 421 817 1
(0.1631031065 0.4184484468 0.3339612558 0.084487191) 395 748 1
(0.06206282447 0.02718899175 0.4689685878 0.441779596) 433 840 2
(0.303202491 0.3483987545 0.2774742706 0.07092448387) 444 860 2
(0.6846998861 0.1576500569 0.08392780321 0.07372225374) 455 862 1
(0.56422768 0.21788616 0.04137300408 0.1765131559) 423 820 2
(0.4428882455 0.2785558772 0.2592579503 0.01929792689) 400 776 2
(0.5706972974 0.004398902306 0.2146513513 0.210252449) 408 792 2
(0.3228393958 0.3385803021 0.1703865573 0.1681937448) 415 803 2
(0.3359021509 0.3320489246 0.3181731049 0.01387581969) 405 786 1
(0.2844731737 0.3558139414 0.001949471764 0.3577634132) 513 991 1
(0.0677507725 0.4661246137 0.3263833461 0.1397412677) 501 968 2
(0.2304934967 0.03659951102 0.3481537406 0.3847532517) 494 955 1
(0.2184103614 0.07882700739 0.3119678119 0.3907948193) 511 969 2
(0.622908853 0.1885455735 0.03986239073 0.1486831827) 434 842 1
(0.9437348465 0.00792080939 0.02813257674 0.02021176735) 442 854 1
(0.4135132671 0.282232784 0.01101058243 0.2932433665) 504 956 2
(0.8678077435 0.01114482417 0.0549513041 0.06609612826) 464 880 2
(0.4395161896 0.2523967393 0.2802419052 0.02784516594) 435 843 2
(0.8722080245 0.05331305451 0.01058293326 0.06389598776) 484 918 2
(0.2464206373 0.3767896814 0.06824495732 0.308544724) 524 1013 1
(0.33245982 0.33377009 0.2494497978 0.08432029224) 403 783 1
(0.3191288365 0.06155680957 0.3404355817 0.2788787722) 521 1007 2
(0.9089007737 0.04554961314 0.03406455124 0.01148506191) 535 2231 2
(0.07270783671 0.4636460816 0.1661143111 0.2975317705) 419 810 2
(0.2256704173 0.3871647914 0.2445162807 0.1426485106) 385 2216 2
(0.3750852196 0.3124573902 0.284640837 0.02781655322) 461 893 1
(0.5872113505 0.2063943248 0.1739398207 0.03245450402) 418 811 1
(0.07199108569 0.4640044572 0.309692805 0.1543116521) 435 824 1
(0.7141904442 0.02804619754 0.1429047779 0.1148585804) 375 729 2
(0.4758174205 0.2615000246 0.0005912651412 0.2620912897) 413 783 2
(0.09658854076 0.4517057296 0.2090823055 0.2426234241) 445 843 1
(0.5178251225 0.2110948541 0.02999258469 0.2410874388) 372 705 2
(0.03941766977 0.4802911651 0.1394320744 0.3408590907) 405 2218 2
(0.1194554378 0.4402722811 0.3263065586 0.1139657225) 364 709 1
(0.3015615827 0.3492192086 0.2279366113 0.1212825973) 492 949 2
(0.2002616813 0.3553710219 0.04449813747 0.3998691594) 415 786 2
(0.8880604258 0.0559697871 0.04092802044 0.01504176666) 452 875 2
(0.5938019247 0.2030990376 0.1017237598 0.1013752779) 432 835 2
(0.2215733573 0.04912423888 0.3400890825 0.3892133214) 386 749 1
(0.011216764 0.494391618 0.3830835332 0.1113080848) 485 919 1
(0.07044411143 0.4647779443 0.06635196728 0.398425977) 482 933 1
(0.7842254614 0.06292557158 0.04496169771 0.1078872693) 537 1035 1
(0.01673906104 0.1923394282 0.4916304695 0.2992910413) 482 933 2
(0.1469624265 0.4265187867 0.03897506435 0.3875437224) 474 917 2
(0.1422094336 0.4288952832 0.09172492567 0.3371703575) 419 812 2
(0.2366878506 0.3816560747 0.1380516474 0.2436044273) 513 989 2
(0.4232845881 0.2387023078 0.0496553981 0.2883577059) 475 900 2
(0.1229973414 0.06729399679 0.4385013293 0.3712073325) 465 900 2
(0.07693803316 0.4615309834 0.3285640778 0.1329669056) 471 911 2
(0.4472815217 0.07877177799 0.1975874612 0.2763592391) 534 1013 2
(0.1143492486 0.4428253757 0.2275667569 0.2152586187) 463 897 1
(0.2065643199 0.305048697 0.3967178401 0.0916691431) 472 914 2
(0.2705945719 0.3647027141 0.2035157121 0.1611870019) 495 955 2
(0.1128548011 0.4435725994 0.1658473853 0.2777252142) 402 781 1
(0.1200751007 0.2596246383 0.1803378114 0.4399624496) 395 2217 1
(0.09323377163 0.4533831142 0.2186373501 0.234745764) 370 720 1
(0.4055523996 0.2972238002 0.210693011 0.08653078922) 404 782 2
(0.3082653756 0.3458673122 0.09378156768 0.2520857445) 471 911 2
(0.2188968278 0.3905515861 0.02196599958 0.3685855865) 384 728 1
(0.6867157219 0.1566421391 0.04044475583 0.1161973832) 433 839 2
(0.5335824227 0.1835290139 0.04967977475 0.2332087887) 384 746 1
(0.4303464188 0.1734085885 0.2848267906 0.1114182021) 394 766 2
(0.7302700793 0.05089465613 0.0839703042 0.1348649603) 473 915 1
(0.005549038575 0.4972254807 0.08160435862 0.4156211221) 443 858 2
(0.4450769971 0.2774615015 0.139701849 0.1377596525) 466 901 2
(0.2341453495 0.3501574962 0.03276982901 0.3829273252) 504 974 1
(0.525348909 0.2373255455 0.05167800312 0.1856475424) 444 860 2
(0.3810177649 0.3094911176 0.08575794515 0.2237331724) 435 824 1
(0.7944473164 0.0476645734 0.1027763418 0.05511176843) 446 864 2
(0.6192301237 0.1903849381 0.09815984794 0.09222509019) 449 870 1
(0.2821989639 0.3589005181 0.139727766 0.219172752) 501 950 1
(0.3186347081 0.2187504573 0.3406826459 0.1219321886) 471 909 1
(0.1600504005 0.4199747998 0.175211677 0.2447631228) 494 953 2
(0.8312900722 0.08435496391 0.005654603964 0.07870035995) 495 938 1
(0.3225812022 0.1148971648 0.2238122341 0.3387093989) 455 2223 1
(0.5007017322 0.2496491339 0.03890606302 0.2107430709) 495 938 1
(0.1314508375 0.2311304429 0.2031441383 0.4342745812) 531 1007 2
(0.266427056 0.366786472 0.09165440824 0.2751320638) 471 911 2
(0.5462150607 0.2268924697 0.1142400503 0.1126524194) 464 880 1
(0.9404953629 0.0006762191731 0.02975231854 0.02907609937) 525 1012 1
(0.4389376476 0.1348132354 0.2805311762 0.1457179408) 514 991 1
(0.7543438642 0.1228280679 0.09267174501 0.0301563229) 514 975 1
(0.5134525743 0.00827468558 0.2432737128 0.2349990273) 513 989 1
(0.4874427677 0.2562786162 0.0846502223 0.1716283939) 390 758 1
(0.1777577471 0.4111211265 0.1595368991 0.2515842274) 374 725 2
(0.1328173155 0.4335913423 0.01781115858 0.4157801837) 363 707 1
(0.06937212332 0.4653139383 0.3304288947 0.1348850437) 442 856 2
(0.3570803777 0.3214598112 0.1425973172 0.178862494) 363 706 2
(0.2067064357 0.3393713355 0.05727544658 0.3966467821) 434 823 2
(0.2215498533 0.3892250733 0.1773741412 0.2118509322) 434 839 2
(0.2979841103 0.05797263668 0.3510079449 0.2930353082) 404 785 2
(0.4017968597 0.2082961574 0.2991015701 0.09080541272) 385 748 2
(0.7627262473 0.1172360078 0.1186368763 0.001400868516) 455 879 1
(0.5910686658 0.1912689082 0.2044656671 0.01319675889) 443 856 1
(0.2985470313 0.2022206446 0.3507264843 0.1485058397) 463 897 2
(0.8406875703 0.07715573535 0.07965621485 0.002500479501) 515 993 1
(0.2467649618 0.08849110122 0.2881264179 0.3766175191) 461 892 1
(0.4108973356 0.2945513322 0.2761756675 0.01837566466) 365 2208 2
(0.03856650218 0.4807167489 0.3640831367 0.1166336122) 463 897 1
(0.6652877919 0.02990997951 0.1374461245 0.167356104) 363 706 1
(0.05104635965 0.4744768202 0.06477265129 0.4097041689) 445 843 1
(0.05461663994 0.47269168 0.02364033537 0.4490513447) 402 762 1
(0.3968634937 0.07895208499 0.3015682531 0.2226161681) 472 911 1
(0.05074961795 0.474625191 0.3936344036 0.08099078742) 495 957 1
(0.6023925962 0.1988037019 0.1259845043 0.07281919756) 524 994 1
(0.157402046 0.421298977 0.2110637942 0.2102351828) 535 1031 2
(0.5053204364 0.1813234526 0.2473397818 0.0660163292) 523 1011 2
(0.4754270047 0.1616904336 0.2622864976 0.100596064) 454 880 2
(0.7402021994 0.09756487388 0.03233402642 0.1298989003) 485 919 2
(0.1422318367 0.4288840816 0.03034298329 0.3985410983) 511 969 1
(0.1822858609 0.4088570695 0.1220917952 0.2867652743) 475 900 1
(0.2285633956 0.3857183022 0.2480604162 0.137657886) 492 952 1
(0.187650594 0.2733746055 0.1328000975 0.406174703) 523 992 2
(0.6070228624 0.1964885688 0.02687942256 0.1696091463) 504 956 1
(0.4242474995 0.03877714235 0.2878762502 0.2490991079) 513 992 2
(0.5525727528 0.2237136236 0.2136491027 0.01006452088) 514 993 2
(0.3148803476 0.3425598262 0.1406081894 0.2019516367) 484 934 2
(0.9029780174 0.006178778872 0.0485109913 0.04233221243) 394 766 2
(0.4397016822 0.2801491589 0.1479918278 0.1321573311) 372 705 1
(0.04151348019 0.4792432599 0.05990883604 0.4193344239) 374 728 1
(0.133199713 0.2608507706 0.4334001435 0.1725493729) 393 764 2
(0.3037822993 0.1621186228 0.1859902276 0.3481088504) 405 767 2
(0.3312835487 0.3343582256 0.2372807789 0.09707744672) 405 786 1
(0.4177334945 0.2911332528 0.02152186763 0.2696113851) 402 781 1
(0.1179595877 0.4410202062 0.3030696991 0.1379505071) 471 893 1
(0.5602952902 0.2198523549 0.02841805811 0.1914342968) 387 733 1
(0.2644294327 0.3677852836 0.3384908654 0.02929441823) 422 800 1
(0.1089919703 0.4351604657 0.4455040148 0.01034354914) 393 764 2
(0.4526385062 0.180443742 0.2736807469 0.09323700488) 392 762 2
(0.0490791019 0.4754604491 0.3241925372 0.1512679118) 392 743 1
(0.3170657665 0.3414671168 0.2310361752 0.1104309416) 402 781 1
(0.004006901321 0.04365132147 0.4979965493 0.4543452279) 419 810 1
(0.1622171543 0.378247006 0.0406444168 0.4188914228) 430 833 1
(0.2176716317 0.3911641841 0.02030659724 0.3708575869) 395 748 1
(0.2017689585 0.167211029 0.3991155207 0.2319044918) 423 821 2
(0.298779374 0.350610313 0.1628194581 0.1877908549) 430 833 2
(0.1338502719 0.2345329911 0.4330748641 0.1985418729) 390 758 2
(0.2238977507 0.06336143925 0.3246896854 0.3880511247) 424 822 1
(0.03938597359 0.002769543728 0.4775374695 0.4803070132) 462 894 1
(0.2527158662 0.3076907171 0.3736420669 0.06595134976) 471 909 1
(0.04527980071 0.1309554551 0.3464046445 0.4773600996) 402 780 1
(0.05669313751 0.1944113021 0.2772421291 0.4716534312) 515 976 2
(0.4735267822 0.2000214325 0.2632366089 0.0632151764) 433 840 2
(0.2240509727 0.3879745136 0.3790552385 0.008919275152) 440 852 2
(0.2359915156 0.05077118985 0.3820042422 0.3312330523) 430 834 2
(0.193509949 0.4032450255 0.1222254671 0.2810195584) 484 937 1
(0.286532414 0.02686944584 0.3298643471 0.356733793) 494 937 2
(0.4839045299 0.2253885351 0.258047735 0.03265919998) 424 823 2
(0.2351521359 0.382423932 0.03494993177 0.3474740003) 505 2228 2
(0.04024016623 0.2407736195 0.2391062974 0.4798799169) 464 898 1
(0.1141555272 0.4429222364 0.08113664857 0.3617855878) 489 946 1
(0.3386269328 0.3306865336 0.2925129487 0.03817358493) 475 2225 2
(0.2021423038 0.1305940555 0.3989288481 0.2683347926) 465 898 1
(0.01774722055 0.1390000176 0.3521263721 0.4911263897) 506 977 1
(0.4193084903 0.05077507616 0.2903457549 0.2395706787) 523 1008 1
(0.634235302 0.182882349 0.02773325444 0.1551490945) 532 1025 2
(0.48195214 0.2366852908 0.0223386392 0.25902393) 513 991 1
(0.3294785447 0.1108885622 0.2243721654 0.3352607277) 391 759 1
(0.09505980214 0.0193240922 0.4331460067 0.4524700989) 403 782 1
(0.5190319074 0.2404840463 0.09235518356 0.1481288628) 435 2221 2
(0.7989334851 0.0769538982 0.02357935926 0.1005332575) 402 762 2
(0.2917123218 0.3541438391 0.1464341706 0.2077096685) 374 725 2
(0.41472793 0.2522222969 0.04041373813 0.292636035) 446 863 1
(0.3864317514 0.3067841243 0.07285575294 0.2339283714) 454 880 1
(0.1579579294 0.1659182249 0.2551028104 0.4210210353) 410 777 2
(0.6540058906 0.03571843082 0.1372786239 0.1729970547) 381 740 1
(0.1215388877 0.4111892924 0.4392305562 0.02804126377) 364 706 1
(0.126971333 0.4365143335 0.1565007277 0.2800136058) 451 873 2
(0.1377713157 0.4311143422 0.3051695382 0.125944804) 401 776 2
(0.04975853085 0.4751207346 0.3171169665 0.1580037681) 424 804 1
(0.6946781398 0.1526609301 0.09008823004 0.06257270006) 464 898 2
(0.5930558543 0.05686320452 0.2034720729 0.1466088683) 383 742 1
(0.5860333433 0.1590119408 0.2069833284 0.04797138756) 445 862 2
(0.04882309733 0.4755884513 0.2054845449 0.2701039065) 452 875 2
(0.5816505968 0.2091747016 0.1222449783 0.08692972329) 445 843 1
(0.3639367077 0.3180316462 0.03077107458 0.2872605716) 462 876 1
(0.08777814157 0.3745026788 0.4561109292 0.08160825037) 454 880 2
(0.2850634914 0.3574682543 0.1586003233 0.198867931) 411 797 2
(0.07720170562 0.1612498504 0.4613991472 0.3001492968) 424 820 1
(0.2639579995 0.3680210003 0.003053106974 0.3649678933) 471 911 2
(0.6627840906 0.1686079547 0.05355607668 0.115051878) 403 764 1
(0.1381689037 0.4309155481 0.07615775996 0.3547577882) 493 935 1
(0.1209759554 0.3948485073 0.4395120223 0.04466351502) 438 849 2
(0.2876707554 0.2550016121 0.3561646223 0.1011630102) 482 930 1
(0.4693605629 0.1563777992 0.2653197186 0.1089419194) 494 956 2
(0.06252184939 0.4687390753 0.4125488757 0.05619019963) 494 953 2
(0.2435515202 0.003914857707 0.3743093822 0.3782242399) 448 867 1
(0.2236190998 0.3881904501 0.2872622625 0.1009281876) 463 894 2
(0.3009627733 0.2634514669 0.08606714643 0.3495186134) 541 1039 1
(0.1702739028 0.1878776958 0.4148630486 0.2269853528) 512 987 1
(0.4324183453 0.2837908274 0.1667785163 0.117012311) 489 945 2
(0.04387923201 0.1878292903 0.2902310936 0.478060384) 505 2228 1
(0.4795405797 0.08939783526 0.1708318749 0.2602297101) 520 1004 1
(0.09678765204 0.451606174 0.2023917569 0.2492144171) 526 679 2
(0.468327478 0.265836261 0.1308769677 0.1349592934) 514 994 1
(0.07380960778 0.4136005763 0.04949461986 0.4630951961) 394 765 1
(0.4632979588 0.155538787 0.2683510206 0.1128122336) 380 739 2
(0.07352657617 0.02540428603 0.4632367119 0.4378324259) 390 758 2
(0.6727456044 0.006164484088 0.1636271978 0.1574627137) 424 823 2
(0.1954342324 0.4022828838 0.4004835775 0.001799306258) 425 822 2
(0.4676719804 0.2661640098 0.1255207069 0.1406433028) 413 801 2
(0.4596428653 0.2701785673 0.08826370969 0.1819148577) 365 710 1
(0.1680978166 0.4159510917 0.1911954901 0.2247556016) 381 740 2
(0.1133796444 0.01369748834 0.4433101778 0.4296126894) 155 311 2
(0.1902203241 0.404889838 0.1413830987 0.2635067393) 423 818 2
(0.1273633262 0.4363183369 0.259288953 0.1770293839) 384 747 1
(0.4093303418 0.2953348291 0.0132700092 0.2820648199) 394 747 1
(0.3372991402 0.09937916205 0.2319712678 0.3313504299) 413 783 2
(0.3570673683 0.05140753203 0.3214663158 0.2700587838) 465 900 2
(0.1494838462 0.4252580769 0.2485531906 0.1767048863) 493 954 1
(0.4159934329 0.003575516582 0.2920032836 0.288427767) 483 932 1
(0.5738853073 0.2130573463 0.1778475159 0.03520983046) 384 747 1
(0.3446863914 0.3276568043 0.1878996016 0.1397572028) 495 2227 2
(0.6858416775 0.06113141851 0.09594774274 0.1570791612) 404 766 2
(0.3454348213 0.3272825893 0.1960880397 0.1311945497) 455 2223 2
(0.09521888796 0.01037989187 0.452390556 0.4420106642) 473 916 2
(0.7650536252 0.02676329567 0.09070989171 0.1174731874) 420 796 2
(0.2367742365 0.1961708589 0.1854420229 0.3816128817) 431 835 1
(0.2313406492 0.3843296754 0.3404198635 0.04390981194) 438 846 2
(0.1660348879 0.2033811155 0.4169825561 0.2136014406) 481 928 1
(0.1811581174 0.1027666318 0.3066543094 0.4094209413) 525 2230 1
(0.5196524472 0.1018631099 0.2401737764 0.1383106665) 432 838 2
(0.1560590387 0.4219704806 0.09384447506 0.3281260056) 488 943 2
(0.2500938298 0.3223250798 0.05262800524 0.3749530851) 425 805 2
(0.1215358205 0.4392320898 0.2752033612 0.1640287285) 519 984 1
(0.3451990634 0.3274004683 0.06046729895 0.2669331694) 414 804 1
(0.6001074982 0.09623101208 0.1037152388 0.1999462509) 452 857 2
(0.2312060075 0.3843969963 0.1729462327 0.2114507635) 512 990 1
(0.04254124865 0.4787293757 0.2694654608 0.2092639149) 453 859 1
(0.6050372756 0.1414970328 0.05598432942 0.1974813622) 459 888 1
(0.6591977692 0.1278843235 0.0425167919 0.1704011154) 494 937 2
(0.01737866129 0.4913106694 0.1342234106 0.3570872588) 479 927 1
(0.6282385535 0.1858807232 0.1697892937 0.0160914295) 432 835 2
(0.5000051746 0.2499974127 0.002269308764 0.2477281039) 476 920 2
(0.2924858266 0.1393993662 0.3537570867 0.2143577205) 535 1031 1
(0.2774939604 0.3612530198 0.3379793666 0.0232736532) 522 1006 2
(0.3170881942 0.33830629 0.3414559029 0.003149612927) 533 1027 1
(0.4698159566 0.2650920217 0.2548362959 0.01025572573) 518 982 1
(0.4446842341 0.06907067831 0.2776578829 0.2085872046) 498 960 1
(0.1951290906 0.4024354547 0.1615645963 0.2408708584) 492 933 1
(0.7221451309 0.09398291783 0.1389274345 0.04494451671) 473 913 1
(0.1088168301 0.3224890803 0.1231025046 0.4455915849) 520 986 2
(0.03633065036 0.3468947875 0.4818346748 0.1349398874) 518 1001 2
(0.1561398434 0.3862804837 0.4219300783 0.03564959463) 525 1014 2
(0.09734018269 0.1367165861 0.4513299087 0.3146133225) 529 1019 1
(0.2116602275 0.3941698863 0.02171268074 0.3724572055) 401 760 1
(0.5833239993 0.1663583633 0.04197963706 0.2083380004) 389 755 1
(0.5758901155 0.2120549422 0.02919751403 0.1828574282) 391 757 2
(0.6031191236 0.1984404382 0.09258758032 0.1058528579) 430 815 1
(0.2147148161 0.2349304086 0.1577121834 0.3926425919) 400 776 1
(0.08285115706 0.4585744215 0.329765366 0.1288090555) 404 785 1
(0.5019545805 0.2490227097 0.1812806859 0.06774202388) 415 786 1
(0.275019317 0.3624903415 0.1708627064 0.1916276351) 466 883 1
(0.4515045891 0.0960258674 0.178221838 0.2742477054) 398 754 2
(0.1647335903 0.4122824666 0.005350738283 0.4176332049) 442 856 1
(0.8549502742 0.0725248629 0.03810042744 0.03442443546) 424 820 2
(0.3663808021 0.1991360843 0.316809599 0.1176735147) 405 784 1
(0.5172221556 0.2413889222 0.213110981 0.02827794118) 403 780 2
(0.08584348204 0.457078259 0.4271851868 0.0298930722) 366 712 1
(0.5501110726 0.2022679588 0.02267650492 0.2249444637) 402 780 1
(0.04354385065 0.1651667204 0.3130613542 0.4782280747) 434 823 2
(0.1387910239 0.3572858345 0.4306044881 0.0733186536) 364 709 2
(0.4331421176 0.2834289412 0.07511838283 0.2083105584) 452 876 1
(0.8660439432 0.06697802838 0.06299957374 0.003978454643) 390 755 2
(0.05106418865 0.3611622102 0.4744679057 0.1133056954) 488 941 1
(0.1382399531 0.2090646292 0.2218153942 0.4308800234) 479 926 1
(0.1962490244 0.04863551426 0.3532399735 0.4018754878) 510 985 1
(0.2203616316 0.3898191842 0.2331578085 0.1566613757) 403 764 1
(0.335684051 0.3321579745 0.184175937 0.1479820375) 455 862 1
(0.6100848828 0.04571583345 0.1949575586 0.1492417251) 433 837 1
(0.1398076178 0.04443050835 0.3856656827 0.4300961911) 422 818 1
(0.7237408474 0.1381295763 0.1269777575 0.01115181876) 509 983 2
(0.2409327662 0.1706621064 0.2088715105 0.3795336169) 472 895 2
(0.3196475509 0.3401762245 0.264843199 0.0753330255) 412 781 1
(0.5402629266 0.2201531132 0.2298685367 0.009715423504) 414 801 1
(0.02086303022 0.4895684849 0.1468506308 0.3427178541) 474 915 2
(0.1734029657 0.4132985171 0.1466379213 0.2666605958) 451 855 1
(0.1798166882 0.4078049197 0.4100916559 0.002286736145) 432 835 1
(0.2714150484 0.3642924758 0.06402168356 0.3002707922) 400 776 2
(0.7340802371 0.06435902713 0.06860085432 0.1329598814) 460 872 2
(0.3757958289 0.3121020855 0.2157059447 0.0963961408) 442 857 1
(0.5864480839 0.1194444007 0.08733155732 0.206775958) 464 898 1
(0.503964234 0.1004442205 0.248017883 0.1475736625) 483 932 1
(0.6697376509 0.1651311745 0.08071457393 0.08441660061) 435 824 1
(0.5112783332 0.2342405212 0.01012031216 0.2443608334) 502 952 2
(0.09056530639 0.06263648211 0.3920808647 0.4547173468) 482 914 2