/*--------------------------------*- C++ -*----------------------------------*\
| =========                 |                                                 |
| \\      /  F ield         | OpenFOAM: The Open Source CFD Toolbox           |
|  \\    /   O peration     | Version:  2406                                  |
|   \\  /    A nd           | Website:  www.openfoam.com                      |
|    \\/     M anipulation  |                                                 |
\*---------------------------------------------------------------------------*/
FoamFile
{
    version     2.0;
    format      ascii;
    arch        "LSB;label=32;scalar=64";
    class       scalarField;
    location    "0.011/lagrangian/dsmc";
    object      Ei;
}
// * * * * * * * * * * * * * * * * * * * * * * * * * * * * * * * * * * * * * //


5152
(
2.32792079e-22
1.946099113e-21
1.22474415e-20
1.056458507e-21
1.043033531e-21
2.352004321e-20
5.593331181e-21
1.291824183e-21
8.617000284e-21
2.746330353e-21
1.3216055e-20
2.285307246e-21
4.274507465e-22
2.131478884e-21
6.404146236e-23
1.925985902e-21
2.647913454e-21
7.480140895e-21
1.831540169e-20
7.945580627e-22
1.311826914e-20
3.790661167e-21
3.064959514e-21
5.651143936e-22
2.156820373e-21
3.751178767e-21
4.323191845e-21
1.134585666e-20
4.815837732e-21
3.537067569e-21
7.299735395e-21
3.771302708e-21
3.835000017e-21
3.963809755e-21
1.643676763e-21
2.780545605e-21
8.790099757e-22
7.19823587e-22
9.02058769e-22
1.813134201e-21
2.176449288e-21
8.997868167e-21
1.089494598e-20
2.965115079e-21
9.760283362e-22
2.822415004e-21
3.514116774e-21
1.373256545e-21
5.517549053e-21
4.286588369e-21
7.217043993e-21
2.565416884e-21
3.903779242e-21
1.00891187e-21
6.05113571e-21
1.863277576e-20
2.432482211e-21
1.767515925e-21
5.613947193e-22
2.801311286e-21
7.439326521e-22
1.007081616e-20
5.314355494e-21
2.281618472e-20
7.17144459e-22
3.587843553e-21
6.914324183e-21
4.955101473e-21
3.4367536e-21
1.500108786e-21
3.623313232e-21
5.511668585e-22
2.621158037e-21
4.738138516e-21
3.05862485e-21
1.040930531e-21
3.147228316e-21
9.519617753e-22
3.786362151e-21
9.129086094e-21
2.112004899e-21
1.279660528e-21
5.403233877e-21
4.145936964e-21
2.032908231e-21
6.235477101e-22
2.327048792e-21
2.880434608e-21
1.776889036e-21
5.648117321e-21
6.58025379e-21
1.263649009e-21
4.310729174e-21
2.205162745e-20
5.961807805e-21
4.711509002e-22
2.495045797e-21
3.013444267e-21
2.480795653e-21
9.879918573e-22
8.76302218e-21
2.507004776e-21
8.634324452e-21
7.355839542e-23
2.271742293e-21
1.010391764e-20
2.885228155e-21
3.726533303e-21
2.924474574e-21
8.071760255e-22
5.305201608e-21
5.312688558e-21
3.120130781e-21
4.524020175e-21
2.63841105e-22
1.897591424e-21
6.333710517e-22
1.212153669e-20
7.480903374e-21
4.012410943e-21
1.661561178e-20
5.958594425e-21
1.754412962e-21
4.920648971e-21
5.820892791e-22
2.454647725e-21
1.900870964e-21
1.552439683e-24
1.99013135e-21
9.862063132e-21
6.916858127e-21
1.83266877e-21
3.234848164e-22
1.398903114e-21
2.673610588e-21
8.880087792e-21
5.891747782e-22
2.976818069e-21
8.062335806e-22
6.139967781e-21
6.114867485e-21
1.80075916e-21
5.940509047e-22
2.113048047e-21
1.480934398e-21
9.074325253e-22
1.32623735e-21
8.618200176e-21
4.320557229e-21
3.495494882e-21
1.79849257e-22
2.065686029e-21
1.305161314e-20
1.041137238e-20
1.022449871e-21
9.791001242e-22
9.125630481e-22
4.547407486e-21
5.581928947e-23
2.535836984e-21
9.78563704e-21
3.702856686e-21
1.290760553e-21
8.933654386e-22
1.393903746e-21
6.104272119e-21
1.428264448e-20
7.080559837e-22
9.918692556e-22
7.520800194e-21
4.285641835e-21
1.047638814e-21
8.184646862e-21
2.205975516e-21
1.392244702e-21
4.140406202e-21
1.870337948e-21
8.07934863e-22
1.935100159e-22
2.178350099e-21
8.795714552e-22
9.361993743e-21
9.129454591e-21
3.127370495e-21
5.609360797e-22
5.028890574e-21
5.163128996e-21
1.371829671e-21
2.1601202e-21
3.242420632e-21
2.946772173e-23
1.403829397e-20
1.032458372e-20
9.568550984e-22
4.946143768e-21
1.147420225e-21
1.166069123e-21
8.629972132e-22
8.070252627e-22
9.156902101e-24
1.905822099e-22
6.181200769e-21
9.985583418e-22
5.138869784e-22
1.022203514e-20
5.852012958e-21
8.297994307e-22
3.612027873e-21
3.000128628e-21
1.240038547e-21
5.757756184e-21
2.949163314e-21
5.409012441e-21
2.141961826e-21
6.402942632e-22
7.767550037e-21
4.152410845e-21
5.106142627e-21
2.36332294e-21
8.074564199e-21
2.766956092e-21
3.261746089e-22
2.552941711e-21
2.826445182e-21
2.076552427e-21
2.825482314e-21
4.51777455e-22
1.848410862e-21
1.136741804e-20
9.332303212e-24
9.586246258e-22
9.372241381e-22
9.964742964e-22
9.639615467e-22
3.108017268e-21
2.682375566e-21
2.506070085e-22
6.498797418e-21
7.35394425e-21
7.956815898e-22
3.787233979e-23
1.450408863e-20
5.473295193e-21
7.770675006e-21
2.117100302e-21
1.277300415e-21
7.990371153e-21
2.307549414e-21
4.334487865e-21
1.526124945e-21
2.190764532e-21
2.907833459e-22
9.81100656e-21
3.963059206e-21
5.136762138e-21
3.227334495e-21
2.454306056e-21
2.639194652e-21
2.980684397e-21
6.068976261e-22
5.929147221e-21
3.493994378e-21
3.708657681e-21
1.393052085e-21
3.386961787e-21
2.292857721e-21
6.375806374e-21
6.45642477e-22
5.132329631e-21
9.716917091e-22
3.434307484e-21
4.434650886e-22
3.503227286e-21
1.234642782e-20
1.300303605e-21
2.202855997e-22
9.446155645e-21
3.549564302e-21
7.351666174e-22
5.536863172e-21
3.454080961e-23
2.494275723e-21
9.450446623e-22
7.82633398e-21
1.717025929e-20
3.615101161e-21
7.019117308e-22
6.17801706e-22
2.225587701e-20
1.049192957e-22
2.348372059e-21
2.509576233e-22
1.695330297e-21
1.110881227e-21
1.458945319e-21
2.785397699e-21
4.874708116e-21
3.660146607e-21
9.648528238e-22
1.346113901e-22
7.184069439e-21
3.082134745e-20
2.588205933e-21
4.529674631e-21
9.353734062e-21
3.548815966e-21
3.206516633e-21
5.20060578e-21
9.972396889e-22
2.750094817e-21
3.613646148e-22
6.071716897e-21
1.08208352e-20
5.390563798e-21
6.90351288e-21
7.453161868e-22
2.531369826e-23
4.652916903e-21
2.690123392e-21
5.685665113e-21
7.983435227e-22
1.747041143e-21
1.651763309e-22
5.859897662e-21
2.071141064e-20
1.881852683e-21
1.002456447e-20
1.77969121e-20
1.855894167e-20
9.203526066e-22
1.637912364e-21
3.121359029e-21
6.205759975e-21
3.055092763e-21
4.069069925e-22
3.548974578e-21
1.318283912e-22
6.455898831e-21
1.62041834e-21
1.713901153e-21
3.540172525e-21
2.697711478e-21
8.883470169e-21
3.986996357e-22
9.643808767e-21
3.975091328e-22
1.124967951e-21
5.303173127e-22
1.681688287e-21
1.110459432e-21
3.131285613e-21
2.832551176e-22
4.825832315e-21
2.025519911e-21
1.010280944e-20
2.113416982e-21
1.288706739e-21
3.124326642e-21
2.889844856e-21
4.319882799e-21
2.64067141e-21
6.038397268e-22
4.128785308e-21
2.585595521e-22
5.336714283e-21
3.875824936e-21
2.135844041e-21
4.768173306e-21
1.350729698e-20
2.91697014e-22
3.773503939e-21
1.526463695e-20
7.450034726e-21
1.355819308e-20
1.749213596e-21
2.55831671e-21
8.894705945e-21
3.351408639e-21
1.881396629e-20
7.261474962e-21
4.699392054e-21
1.364995533e-21
1.398750533e-20
3.896991184e-21
1.354820517e-21
1.46418052e-20
1.857972773e-21
7.746819698e-21
2.428263021e-20
1.073658555e-20
8.872739762e-22
5.410077014e-22
5.139054499e-21
8.011875715e-21
1.994448047e-21
4.960708264e-21
2.02617105e-21
7.677367231e-21
3.19232278e-21
2.101983916e-22
2.659448964e-21
2.925830016e-21
2.494325552e-21
6.304702074e-21
1.375630626e-20
2.773944668e-22
5.120760017e-21
6.539907681e-21
3.761265827e-21
3.399246609e-21
6.697926541e-21
6.315629186e-21
7.292879868e-21
8.757066754e-21
6.37836945e-22
4.896767171e-21
5.178570147e-22
8.5476033e-21
7.323609285e-22
2.473018685e-22
1.64109043e-21
2.004758641e-21
4.826286817e-21
7.561777996e-22
2.777360057e-21
3.943214045e-21
4.912739373e-21
7.241232604e-22
3.617701558e-21
3.963751498e-21
2.407197994e-21
2.480813041e-21
1.880428943e-21
1.454698404e-21
8.298801585e-21
9.455570535e-21
4.796601567e-21
1.365248886e-20
1.033103363e-21
2.314143601e-21
2.168835754e-21
1.065406588e-20
1.022278306e-21
5.520656013e-22
7.794637235e-21
4.069177496e-21
6.671580523e-21
3.464330499e-21
9.326122577e-21
5.813372558e-21
1.534206584e-20
3.667303905e-21
3.571150639e-21
3.948824032e-21
1.16172598e-20
4.658248388e-21
1.020828939e-22
8.79276046e-21
3.502480159e-21
3.082105159e-21
1.083013956e-20
4.33188558e-21
3.811426406e-21
4.463388547e-21
6.361941634e-21
8.448495675e-22
1.285355859e-20
9.699695009e-22
1.271248853e-21
7.081998013e-21
3.042764212e-21
3.458887803e-22
6.685880447e-22
4.393564977e-22
5.418478268e-21
3.208238334e-21
1.675352427e-21
7.18310677e-21
2.853144499e-22
1.437765601e-22
8.917158558e-21
3.223694393e-21
9.634656751e-21
6.02235281e-22
3.657085436e-23
5.132028421e-21
4.255471646e-22
2.712411153e-21
9.401539827e-21
9.898905005e-23
4.747129276e-21
3.11173701e-21
1.058534649e-20
3.68880659e-22
1.796844876e-21
1.124207527e-21
1.223117746e-20
3.491638023e-21
2.253609546e-21
3.70658161e-21
4.558368553e-22
2.918973124e-22
2.801487598e-21
6.099202539e-21
2.761158487e-21
1.916674244e-21
1.231441358e-21
3.368164161e-21
5.077965289e-21
3.778036382e-21
3.596160382e-21
1.697739013e-21
2.045047292e-21
2.694554808e-21
4.341100811e-23
1.957011954e-21
9.819739328e-21
1.160942766e-20
7.913761998e-22
9.401001095e-21
9.105402084e-21
7.323598119e-22
7.186217364e-22
1.049607861e-21
9.43271137e-22
4.611333341e-22
7.057239748e-22
5.577444041e-21
3.898537289e-21
2.596954111e-22
3.88316931e-22
6.946731815e-23
4.397089621e-22
2.966716201e-21
4.630364923e-21
1.241062077e-20
1.88266946e-21
3.823966736e-21
6.234577841e-24
5.439460915e-21
1.379829642e-20
1.558216489e-21
2.657107339e-21
4.0361809e-23
6.09340916e-21
6.600964955e-21
5.011432066e-22
1.706811962e-21
2.768511067e-21
2.335211341e-21
3.168503968e-22
1.18782621e-20
1.174370337e-20
5.306779067e-22
4.719670254e-23
5.318763122e-21
7.151647199e-22
8.110387042e-22
6.692143518e-21
8.292118396e-22
2.750000066e-22
1.302360482e-21
1.375083409e-20
4.007835593e-21
3.643722665e-21
1.211686512e-20
6.388447997e-22
4.045581096e-22
2.694116068e-22
1.091992406e-20
3.152834309e-21
4.382092523e-22
5.075991852e-21
1.393990325e-21
1.265312772e-23
1.63494542e-21
1.883339825e-22
3.642983336e-21
1.423684529e-21
2.271361539e-21
2.904727521e-21
4.037814457e-21
2.228076158e-20
1.301836283e-21
7.213695469e-21
2.982312131e-21
5.131847929e-21
9.959235416e-21
7.133992403e-21
9.201539584e-22
7.69486623e-21
2.729269304e-21
8.623286059e-21
3.756533792e-21
2.515800639e-21
7.558234209e-22
2.233149242e-21
1.348935419e-21
3.438599709e-21
8.497488793e-22
4.346933242e-21
4.738065845e-21
2.017515113e-21
1.706383104e-21
1.59325469e-21
2.886247802e-21
3.800671668e-21
8.835872902e-21
1.12648703e-21
4.731251867e-22
7.336042693e-22
1.141717188e-21
2.846183166e-21
4.742382157e-21
5.670582088e-21
3.553917092e-21
6.511152643e-22
4.982579487e-21
2.257578369e-21
3.713097212e-21
8.728658731e-21
1.084378134e-21
8.028449458e-21
8.705442906e-21
2.687684169e-21
5.194649829e-21
7.635956045e-21
8.782687869e-22
1.681965075e-21
2.799961049e-21
5.968278617e-21
1.497795549e-20
5.640589584e-21
1.360980208e-21
4.21642238e-21
1.120866862e-20
5.475583013e-21
2.864029949e-22
1.192540498e-21
4.094514528e-21
9.10407781e-21
2.028465169e-21
8.291510282e-21
6.301591832e-21
1.588755149e-22
2.14206045e-21
2.62223266e-21
1.127703418e-20
4.867488216e-22
6.022115262e-22
2.74962667e-21
6.063969385e-21
1.19491557e-21
2.277945103e-21
1.171986536e-20
8.932658294e-22
5.720925233e-21
2.535878769e-20
2.443706123e-21
1.091735913e-20
3.383912654e-21
3.438599111e-21
1.135048057e-20
7.192826762e-21
1.299196455e-21
4.006814229e-21
5.760328866e-21
2.860431145e-22
3.742859458e-22
1.657945701e-21
1.954637455e-21
1.511073788e-22
1.934716535e-21
2.209484082e-21
5.79208065e-21
3.062768276e-21
2.472215361e-22
2.147912631e-21
4.788192411e-21
1.166155259e-21
2.034559933e-21
4.522450959e-22
1.662657646e-21
7.873035487e-21
4.300653798e-21
8.749858046e-21
6.45712196e-21
3.239698032e-20
3.630608883e-21
4.812424374e-22
1.278751848e-21
2.59277637e-21
2.369390583e-21
2.83318336e-22
2.607572416e-22
1.153203212e-20
1.290279427e-21
7.966749066e-22
5.430408297e-21
1.845961111e-21
1.278780076e-20
9.552603102e-22
1.955368091e-20
9.711689651e-21
2.407423263e-21
2.34146573e-21
3.463713623e-21
2.237481839e-21
2.796358129e-21
1.158252794e-21
5.062575061e-22
1.373858925e-21
2.901791775e-21
1.053992989e-20
2.923439815e-21
6.676748779e-21
1.097981371e-21
6.483439709e-21
1.562434428e-21
3.64328995e-22
7.199926422e-21
1.290000768e-20
7.928027509e-21
2.645721789e-21
1.507090452e-21
1.428427367e-21
2.535431144e-21
8.273294914e-21
1.669345954e-21
1.824532147e-20
1.200984194e-20
5.045548167e-21
3.707587959e-21
8.556476145e-22
7.877107505e-22
1.034387046e-20
1.523409314e-22
4.567144943e-21
4.944742326e-22
9.209151946e-21
1.150550546e-20
1.373484869e-21
6.1978558e-21
1.066747589e-20
6.217368173e-21
2.414161269e-20
6.79162636e-22
3.263592927e-21
1.723955831e-21
2.506908365e-22
5.747773447e-21
5.417284841e-21
2.609532395e-21
5.502661026e-21
1.758479927e-21
3.502259416e-21
2.682449337e-21
2.195794375e-21
1.889904753e-21
1.968030701e-21
1.804160544e-21
4.531980729e-21
4.141294306e-22
3.351492071e-21
4.878322924e-21
1.195603498e-20
9.634346517e-22
4.865559014e-21
4.770586888e-21
4.299579194e-22
5.053197925e-21
2.200627904e-21
1.785355743e-21
1.098175707e-20
4.046596168e-21
1.365919457e-22
4.491443092e-22
1.689551721e-21
5.668469601e-22
8.500046678e-21
3.970857224e-22
1.415618341e-21
1.169099172e-21
2.546742257e-21
1.07964672e-21
4.157961596e-21
1.162609237e-20
1.241903753e-20
2.273735047e-21
8.615879522e-21
3.659426746e-22
1.216537969e-22
5.68777145e-21
4.388799243e-21
3.560008638e-21
1.107328311e-22
1.8400244e-21
3.196391664e-21
3.610735273e-21
6.68943485e-22
1.227210434e-21
7.181509e-21
1.898069493e-21
1.252571497e-22
1.00608355e-21
6.458494888e-22
9.138139369e-21
9.73944782e-22
6.174258402e-21
7.958547815e-21
2.042701893e-22
6.632442542e-21
1.200143947e-20
6.229174412e-21
8.302472048e-22
4.093693311e-21
2.579473545e-21
1.985456626e-21
7.799147493e-21
1.970993226e-22
8.645089601e-21
3.797234959e-21
5.954074986e-21
9.499280767e-21
1.459005281e-22
2.370541314e-21
4.575098551e-21
9.708932534e-21
1.342313649e-21
8.58075265e-21
1.206759317e-20
5.711380798e-22
2.192750303e-20
1.275759675e-21
3.842825627e-21
4.056163451e-21
2.574090797e-22
3.444717178e-21
4.281119669e-22
8.863874965e-23
2.147894158e-21
2.605062437e-21
5.449301472e-22
2.241026506e-21
4.108552227e-21
4.153814011e-22
4.313845426e-21
4.228661166e-21
3.861314983e-21
8.906068335e-21
4.141724399e-22
1.006576793e-20
6.036529517e-21
3.184047573e-22
7.140900797e-21
3.138472984e-21
3.857409172e-21
2.656369445e-21
2.682777184e-21
3.698816238e-21
2.190338641e-20
1.730628867e-21
2.691732736e-21
9.471930556e-22
9.414803576e-22
3.16814667e-21
1.578159393e-22
2.114552491e-21
5.719543429e-21
9.871973667e-22
4.354458393e-21
2.102473223e-21
8.59546512e-22
2.058283259e-22
8.882199708e-23
2.838306467e-21
8.451405625e-21
4.465737841e-21
6.780263481e-22
3.292442364e-21
6.453533867e-21
8.395790955e-21
2.347395506e-21
1.896672956e-21
6.388763772e-21
3.002016036e-21
1.680257836e-21
1.842624525e-21
1.98941861e-21
7.342220025e-21
5.511774535e-21
3.077754331e-21
9.616578719e-21
2.550555494e-21
2.014618849e-21
8.319413448e-21
7.500438712e-23
5.128325856e-21
1.49186589e-20
6.042342507e-22
2.003681376e-21
2.084810995e-21
2.965347322e-21
3.014245644e-21
6.289136031e-23
3.460120503e-21
6.917844205e-22
5.513133642e-22
6.265618167e-21
4.509372924e-21
4.956727707e-22
3.518188356e-21
2.188075848e-21
8.8556078e-21
1.22309203e-22
1.008340959e-21
3.815183376e-21
8.414429346e-22
2.851842181e-22
4.132784737e-21
5.870208966e-22
2.049484116e-21
3.131041173e-21
4.458297657e-22
3.897934786e-21
3.272936248e-21
1.411240657e-23
2.594568001e-21
1.097005305e-20
2.439597107e-21
1.26924483e-20
5.363018478e-21
5.759990862e-21
3.513705129e-21
9.392046203e-22
3.852325312e-21
3.851245581e-21
1.00705025e-20
1.945275908e-20
6.60027383e-21
7.611081932e-21
3.91420109e-21
1.608531918e-21
4.612621511e-21
1.873300512e-21
4.128725814e-21
4.737767983e-21
1.574280676e-21
1.891859545e-22
7.202310383e-22
4.247510763e-21
3.034933707e-21
4.613332558e-21
7.932643508e-22
2.265700044e-22
7.273427783e-21
4.293024597e-21
1.593266386e-23
1.403788326e-20
5.556083584e-22
7.62510834e-22
2.530759809e-22
1.699674274e-21
2.403897664e-21
9.255414335e-21
2.20963458e-21
1.981079956e-21
5.162809213e-21
1.291921802e-20
5.493477654e-21
5.513816974e-21
3.039013915e-21
3.202421981e-21
8.040655158e-21
1.196606706e-22
6.31052581e-21
4.412408833e-21
2.210471512e-21
4.295340551e-21
2.317468146e-21
3.775361756e-21
5.198020109e-21
1.598211722e-24
2.32268698e-21
2.719735663e-21
3.17808967e-21
2.807537189e-21
2.471693018e-21
1.667220913e-21
3.407965071e-22
6.219681555e-22
1.607518523e-21
2.409892003e-21
3.222494566e-21
2.42185942e-21
1.052229714e-20
1.621484152e-21
2.512777134e-21
3.497077515e-21
5.203480772e-21
1.749387025e-22
3.922247905e-21
9.849575141e-22
5.272375698e-21
5.32545454e-21
4.508332723e-21
1.731234995e-20
7.926410993e-21
4.752411327e-22
3.494640927e-22
2.15987607e-21
2.719369454e-21
9.47976757e-21
6.732046697e-22
3.048921213e-21
2.023985474e-21
3.669112636e-22
1.131864202e-20
1.349562828e-21
2.153353342e-21
8.429836591e-22
9.944065327e-22
6.627568724e-22
6.923624596e-22
1.480531186e-21
3.253079614e-21
1.614234464e-21
2.703486796e-21
3.148826117e-21
1.409167656e-22
2.355791448e-21
4.428588847e-21
2.998660197e-21
1.758069775e-20
7.778500489e-21
5.95493957e-21
4.839251422e-22
2.509773845e-21
3.547058898e-21
4.403742344e-21
7.817071263e-22
8.488514493e-21
1.649790507e-21
1.30864602e-20
2.339521343e-21
1.276710542e-20
7.446280923e-22
9.35741685e-22
4.647409176e-21
1.245460597e-20
7.415614817e-21
1.19153692e-21
2.037076756e-21
4.043599603e-21
3.119092754e-21
1.541397122e-21
6.442658985e-21
9.043468985e-22
4.720008516e-21
1.739940304e-20
8.228378494e-22
1.932877096e-21
4.758154256e-21
3.277620124e-21
3.495366102e-21
1.241938628e-20
1.832651279e-21
5.790874873e-21
1.022902417e-21
1.951771264e-21
5.531840958e-22
2.175982877e-21
2.249737397e-20
5.16608784e-21
1.011070142e-20
7.62110407e-22
5.00465384e-21
2.529705391e-20
2.112806307e-21
4.545064652e-21
2.194421633e-21
4.349146915e-21
8.618192929e-22
5.867553952e-21
6.243368417e-21
7.559769256e-23
6.670907041e-22
4.740835742e-21
1.223204631e-20
6.682218131e-21
5.263428951e-22
2.614408981e-21
4.281303625e-22
2.388586445e-22
3.078395268e-21
6.864177431e-21
1.224881489e-20
1.545125922e-21
5.480343441e-21
5.123058312e-21
6.130420737e-21
6.403205343e-21
4.177602896e-21
3.783376214e-21
6.066367701e-21
1.714017283e-20
7.404975009e-22
9.292241029e-22
1.393742964e-21
1.142268424e-20
2.866995204e-21
2.324937839e-21
6.797804924e-22
9.466552699e-21
6.960225225e-21
8.108581625e-22
5.136996159e-21
2.627477819e-22
6.620511669e-21
1.285701491e-21
3.601140452e-21
5.841404142e-21
3.073756895e-22
1.542584902e-20
1.17971578e-20
1.092687736e-21
6.190777078e-21
4.436239814e-21
1.569869374e-21
3.906131551e-21
7.297302059e-21
7.67677658e-22
5.065202856e-22
4.433708986e-21
1.378306184e-21
2.989484815e-22
9.609085244e-22
7.367367134e-21
3.996803931e-22
5.611917189e-21
8.33563388e-21
1.463314219e-21
8.411708843e-22
1.70295424e-21
8.219080109e-21
7.950299011e-22
3.257012802e-21
3.255813875e-21
9.900028523e-21
4.401820741e-21
7.543214384e-22
8.653774608e-22
2.195278943e-21
1.49417323e-21
9.285981671e-22
3.241353223e-21
8.245576049e-23
1.167687287e-21
4.650110986e-22
1.109663647e-21
1.523529783e-21
5.153793623e-22
2.183669135e-21
2.766271965e-21
5.333586669e-21
1.151173473e-20
1.701540868e-21
8.016860248e-21
2.603292345e-21
4.352444834e-21
3.034220502e-21
8.154753123e-23
4.535631202e-21
2.923833284e-22
5.29753802e-21
2.828375458e-21
6.44795864e-21
5.987377639e-21
3.354006165e-21
3.065211684e-21
1.462363999e-23
7.639707605e-21
3.869100419e-21
8.361457168e-21
8.65736524e-23
9.577395879e-21
6.873883898e-21
6.122787316e-21
2.078717712e-21
2.364582174e-21
2.311016248e-21
2.454649387e-23
1.281077992e-21
1.377160007e-21
8.929113563e-21
2.450463378e-21
1.189826784e-21
5.099123249e-21
5.59819493e-21
6.254311085e-21
1.688421904e-21
1.363633037e-21
1.623016735e-20
3.982372253e-21
1.577258407e-21
5.581548977e-22
1.546839509e-21
6.530746007e-21
1.031384897e-20
8.218004113e-24
1.515769685e-21
1.91821708e-20
1.039368854e-20
3.12710151e-22
5.109082664e-21
4.914242192e-21
4.738002263e-21
5.245954663e-21
2.567256473e-21
3.142438362e-21
5.433995153e-22
1.331261948e-22
2.492669363e-21
1.622196433e-21
3.65654131e-23
1.127317077e-21
1.444806981e-21
1.52435267e-20
8.056041319e-21
8.132650959e-21
3.972305274e-22
2.154870017e-22
2.704579139e-21
8.668826465e-22
4.216728876e-21
2.085460678e-21
4.303891775e-22
1.232915307e-20
1.871779244e-21
1.930009571e-21
7.67789467e-21
1.572951917e-21
2.328914573e-21
2.805495985e-21
1.696586831e-20
2.057310045e-21
1.305173487e-21
1.081000167e-21
3.608398975e-21
3.036652341e-21
2.182645044e-21
8.701656933e-21
1.322601938e-22
1.311603809e-21
2.123104331e-22
2.043128537e-20
8.214742582e-22
6.187872209e-22
5.900309675e-22
2.838624433e-22
2.893579245e-21
4.154962586e-22
8.639174947e-21
3.166277108e-21
5.034115176e-21
1.163480795e-21
4.091958809e-21
3.098877266e-21
5.92108563e-21
1.407126544e-20
9.074005032e-21
2.145349413e-22
2.962077295e-22
1.273191159e-20
5.437599985e-21
9.163763975e-21
2.098870233e-20
1.49270283e-21
2.944622657e-21
9.964288527e-21
4.892974026e-23
2.345812266e-21
4.477392079e-21
7.371816078e-21
6.370519517e-21
4.451630512e-21
3.80055629e-21
4.678652641e-21
1.907507088e-21
5.90596184e-21
3.400217022e-21
2.779758584e-21
2.942795003e-21
7.505265751e-21
7.916382147e-21
5.659069462e-21
3.626053229e-21
4.241069519e-23
3.126921776e-21
4.710656845e-21
2.39469148e-21
1.804612962e-21
3.31434451e-21
4.419982449e-22
3.604677795e-21
9.566461726e-21
5.719003878e-23
5.017250512e-21
8.325535616e-22
8.148530592e-21
3.091809088e-21
5.79631626e-22
1.458057417e-20
1.443097995e-21
4.468240793e-22
1.135957312e-20
5.93561502e-21
1.476441627e-24
1.153603307e-21
8.32037937e-22
5.222721804e-22
2.397301727e-21
6.611845451e-21
1.04119464e-20
4.669379021e-21
1.001847343e-20
6.577025451e-23
8.784640784e-21
2.764474708e-21
1.201999528e-21
6.673263806e-22
3.614203216e-21
5.919176899e-21
3.076899786e-21
8.719610416e-21
2.873875987e-21
7.302818804e-22
7.857226124e-21
4.330790237e-21
9.371514324e-22
8.286396832e-23
5.815084383e-22
2.901121657e-21
3.22536866e-22
3.55759514e-21
7.70513523e-21
7.146950234e-22
1.585637764e-21
9.3115179e-21
1.92390281e-20
2.339801757e-21
6.331217821e-23
2.800280611e-21
4.965880853e-21
6.558151247e-22
1.570241777e-21
2.220356189e-21
2.636505294e-21
8.332898147e-21
1.231917986e-21
5.046309938e-23
3.410152306e-22
2.959335204e-21
2.608432869e-21
8.534542244e-21
4.196033345e-21
9.110851196e-22
8.044056998e-21
3.886044839e-21
1.105929104e-21
3.940865096e-22
4.025764576e-21
4.594152964e-21
4.985130373e-21
5.589318251e-21
3.385417213e-21
3.216350648e-22
1.313462499e-21
8.943650546e-22
6.008316599e-22
2.208104558e-20
7.662087856e-22
1.228536313e-21
4.065012851e-21
3.291288382e-21
7.74643905e-22
8.856888351e-22
6.500880147e-21
2.657030172e-22
8.787566771e-23
4.258707705e-21
2.148084479e-21
1.737501922e-22
5.027273653e-21
4.847563528e-21
2.017119483e-21
6.146358466e-22
8.795661106e-22
7.945593588e-22
5.441782163e-21
1.675407297e-21
5.249377665e-21
1.538953436e-22
2.138832347e-21
1.168016184e-21
1.89383014e-21
6.814577534e-22
4.669742647e-21
3.344153166e-21
2.589455993e-21
6.671236424e-21
1.187355085e-22
8.939224795e-22
3.791063823e-21
5.446796642e-21
6.195824154e-21
1.59408213e-21
1.391882149e-21
9.435601032e-22
8.860174657e-21
1.776807991e-21
2.082234363e-21
5.008684034e-21
6.260653664e-21
3.585586102e-21
1.106482325e-21
3.006459168e-21
4.797084898e-21
7.124055511e-22
9.288472119e-22
3.106722849e-21
2.845195587e-21
3.458931401e-21
9.502790793e-22
6.979764836e-21
7.033803854e-21
2.672965906e-21
3.744820466e-22
6.335521717e-22
5.394533984e-22
5.861661639e-22
5.280151371e-22
2.372593288e-21
1.257345928e-21
3.554010682e-21
2.981765887e-21
5.705648916e-21
3.175616972e-21
6.144447211e-21
1.959428887e-22
2.995746502e-21
2.48673962e-21
2.356344048e-21
2.97352622e-22
1.141342341e-21
2.683148057e-21
5.972204421e-21
1.941634805e-21
5.594098661e-23
2.504709075e-22
1.563326233e-21
1.805681197e-21
3.58052952e-21
6.744120503e-22
7.432432877e-21
8.619900018e-21
1.487930464e-21
4.923168425e-21
9.15051997e-22
2.378442438e-21
5.4872757e-21
4.176668066e-21
3.088564227e-22
7.315904487e-22
1.897526343e-21
1.042000663e-21
2.195161311e-22
9.511044677e-21
5.156145018e-22
1.983198432e-21
1.678160955e-22
3.971520666e-21
6.185600584e-21
5.295201527e-21
3.651689623e-21
1.568725549e-21
9.626935783e-22
1.845770748e-21
5.080272457e-21
1.469077336e-21
2.093812664e-21
4.06099172e-21
1.274427735e-20
2.921108543e-21
3.480598589e-21
2.923988241e-21
1.358187967e-20
3.189622944e-21
1.077022184e-21
2.552389751e-23
6.467026034e-22
5.054612392e-22
1.087857558e-21
4.90952303e-21
1.94200487e-21
1.68402307e-21
5.054543292e-21
1.805985204e-21
1.728875476e-20
1.787235739e-21
7.841080234e-23
4.415210238e-21
4.657781983e-21
2.893396881e-21
9.790564651e-21
1.142706719e-20
8.153962521e-22
8.841417998e-21
5.798460573e-21
5.932245293e-22
1.812657296e-21
1.302144884e-20
2.776552776e-21
1.043889443e-20
3.18863969e-21
4.938819041e-21
1.653037381e-20
7.149166573e-23
2.211934879e-21
1.868059719e-22
5.010885273e-21
8.952923294e-21
5.645268781e-22
8.424677962e-21
1.2057518e-20
1.757479366e-20
1.930883414e-20
2.427310262e-22
8.673363064e-21
9.188341086e-21
9.71858181e-22
1.155241243e-20
8.662900294e-22
5.402269329e-21
6.108602383e-21
5.823929563e-22
7.608475909e-22
5.624777654e-22
2.349933691e-21
4.6313353e-21
2.523198021e-21
5.751832677e-21
2.973075867e-21
5.7057166e-21
4.69362954e-21
7.457260199e-21
7.951899462e-21
5.125644261e-21
1.2748254e-21
5.469959482e-21
3.325173837e-21
1.084113801e-21
7.628372871e-22
2.17189766e-21
4.438589203e-21
2.586871846e-21
5.39924224e-21
3.562651574e-21
7.923321913e-21
6.610648349e-21
2.661032796e-21
7.032971409e-21
4.351309067e-22
6.154486788e-21
6.379391957e-21
1.287542131e-21
2.821189648e-21
2.152038646e-21
5.693264353e-21
6.732204463e-21
1.649510205e-21
1.323164418e-22
5.87611656e-23
5.126135909e-22
1.755755853e-21
4.111830296e-21
9.204902141e-21
2.713628444e-21
3.929382387e-21
1.983663751e-21
8.657414354e-21
8.0591573e-22
7.569875763e-22
1.097713867e-22
2.578812066e-21
2.999527554e-21
2.233500894e-22
2.204961556e-21
2.746228314e-21
9.521241792e-22
4.285959601e-21
8.609392692e-21
5.130368665e-21
1.365731027e-21
2.141651382e-22
4.964632347e-21
7.907373879e-21
3.257654243e-21
2.897762764e-21
1.855649745e-21
3.476742925e-22
3.599744257e-21
2.235084469e-21
3.309841128e-21
9.754661735e-21
2.094404669e-21
2.931595608e-21
2.592380268e-21
6.518918704e-22
6.996296559e-21
4.101282249e-21
2.207470221e-21
4.228151203e-22
3.588019055e-22
5.242051605e-21
1.346315957e-20
1.164526487e-21
4.023521397e-21
3.244392253e-21
1.141064875e-20
6.774188973e-22
1.079810473e-21
2.583611185e-20
5.567650374e-21
1.506800303e-22
9.416357515e-21
2.459774311e-21
4.220961844e-22
5.350534571e-21
2.553000018e-21
9.140903342e-21
1.620355616e-21
2.13488796e-21
2.562427262e-21
3.300258967e-21
6.433887925e-21
1.546763058e-21
2.847020924e-21
2.398771863e-21
1.486815276e-20
2.952873332e-21
7.48145163e-21
2.082142507e-21
7.257555299e-21
8.042851209e-22
5.286637642e-21
2.119498684e-21
2.321346948e-22
3.076296802e-21
1.61545692e-22
3.504890389e-22
2.640738385e-22
8.287368459e-21
1.855806434e-21
2.548132921e-21
6.981076819e-21
8.323362785e-22
2.668833482e-22
9.171993599e-21
1.375693193e-21
5.059904639e-21
1.611940769e-21
5.01107629e-21
6.599800212e-21
3.914242216e-22
3.009315275e-21
2.121648953e-21
1.692462046e-21
9.88092028e-21
2.167275505e-21
2.938949671e-21
2.247538467e-21
3.420790425e-21
9.011924498e-25
2.137899405e-21
1.188505019e-21
2.123645022e-21
1.005046208e-20
7.024088883e-22
1.028732924e-20
1.107269217e-20
9.575663086e-22
2.481180885e-21
2.980317143e-21
5.932193392e-21
2.581513765e-21
1.577735984e-21
3.023439607e-21
3.833212087e-21
5.106695716e-22
5.892201749e-21
8.250462234e-21
3.459857254e-21
7.576485938e-21
3.872041597e-22
1.491408238e-21
2.529836226e-21
1.559669827e-21
2.750632228e-22
1.931750379e-21
1.017502787e-20
7.529041588e-22
7.057840336e-22
4.281468344e-21
2.142443791e-21
1.81725231e-21
7.901238193e-21
5.22487657e-21
6.198805731e-21
4.343103164e-21
7.144374434e-22
4.834421954e-21
7.844764159e-21
3.427283266e-21
4.752230641e-22
2.203520114e-22
7.958691311e-21
3.076882065e-21
2.700597148e-21
4.973424666e-21
8.926724425e-22
1.670198488e-22
2.215586811e-21
2.215599368e-20
4.235525959e-21
1.259054055e-21
3.239788763e-21
6.031816352e-21
1.966378166e-21
4.091985604e-24
6.923828837e-21
5.375914812e-21
1.21358035e-20
4.583093166e-21
9.391526977e-21
8.170890659e-22
4.689190582e-21
1.58798735e-21
3.457120688e-21
2.870143752e-21
5.266252036e-21
8.49893913e-21
3.710384124e-21
1.061708025e-20
3.018872207e-22
2.608416569e-21
3.331351531e-21
4.135690814e-22
2.122849932e-21
2.178266145e-21
1.344066501e-22
1.556344837e-21
5.602615485e-21
1.871082377e-23
1.872181538e-21
4.487643199e-21
9.587965942e-21
5.293593091e-21
6.125667935e-22
4.342864361e-22
7.662435742e-22
3.639661233e-22
5.121845833e-21
1.996232992e-21
8.803413325e-22
5.77025022e-21
4.466956943e-21
4.695898756e-21
5.61677771e-21
1.085899889e-20
8.026350451e-23
1.460064721e-21
6.617659498e-21
1.264978245e-21
7.237685422e-21
5.924171694e-21
8.280862408e-21
1.010314038e-21
1.125551009e-21
2.491539764e-20
2.079888411e-21
2.039300845e-21
1.043244584e-20
3.052345925e-21
1.066461448e-21
3.755767381e-21
1.206306362e-22
1.159306572e-23
1.072275011e-20
3.961449349e-21
1.713818399e-21
3.159064754e-21
5.208771224e-21
5.202366602e-21
1.82336695e-20
5.215508154e-21
5.683538152e-21
5.895088785e-21
8.739457974e-21
2.572973204e-21
1.864032196e-21
5.917969054e-21
2.295027073e-21
1.296224537e-22
1.706416404e-21
6.796679485e-21
8.394434679e-22
6.885658195e-22
3.506850627e-21
1.300060957e-21
1.580043551e-21
8.779186677e-21
4.662276719e-21
6.301169834e-21
1.390487757e-21
2.017816824e-23
1.261042761e-21
1.421305208e-22
5.269466771e-21
2.660295275e-21
3.858461889e-21
1.103085838e-20
5.598974198e-22
1.363160107e-21