/*--------------------------------*- C++ -*----------------------------------*\
| =========                 |                                                 |
| \\      /  F ield         | OpenFOAM: The Open Source CFD Toolbox           |
|  \\    /   O peration     | Version:  2406                                  |
|   \\  /    A nd           | Website:  www.openfoam.com                      |
|    \\/     M anipulation  |                                                 |
\*---------------------------------------------------------------------------*/
FoamFile
{
    version     2.0;
    format      ascii;
    arch        "LSB;label=32;scalar=64";
    class       labelField;
    location    "0.011/lagrangian/dsmc";
    object      origId;
}
// * * * * * * * * * * * * * * * * * * * * * * * * * * * * * * * * * * * * * //


5152
(
479953
480180
480304
480377
480390
480446
480464
480528
480646
480649
480667
480698
480705
480719
480742
480793
480795
480803
480805
480811
480886
480889
480932
480959
480966
480981
480994
481015
481042
481047
481054
481056
481062
481066
481072
481090
481098
481128
481138
481155
481161
481165
481172
481216
481218
481226
481235
481255
481268
481298
481305
481312
481320
481322
481323
481328
481336
481345
481349
481353
481356
481407
481408
481409
481412
481419
481427
481430
481438
481441
481449
481478
481493
481504
481505
481509
481510
481512
481514
481517
481520
481526
481527
481534
481571
481573
481581
481582
481588
481593
481598
481601
481602
481607
481611
481620
481622
481624
481626
481629
481633
481639
481640
481675
481680
481686
481687
481689
481697
481703
481705
481717
481718
481723
481725
481733
481734
481756
481760
481767
481771
481773
481776
481777
481781
481785
481786
481788
481791
481794
481801
481802
481807
481818
481819
481822
481823
481825
481830
481836
481838
481853
481854
481857
481858
481861
481865
481873
481876
481877
481881
481884
481892
481899
481911
481914
481916
481918
481919
481920
481922
481926
481929
481932
481933
481937
481939
481940
481943
481946
481947
481948
481949
481952
481954
481956
481959
481960
481961
481966
481968
481972
481973
481975
481981
481984
481985
561412
482003
482008
482009
482010
482012
482013
482016
482019
482020
482022
482026
482029
482035
482037
482038
482039
482040
482045
482047
482052
482053
482055
482058
482060
482063
482065
482066
482068
482071
482085
482094
482096
482097
482099
482101
482102
482104
482107
482108
482113
482114
482116
482118
482119
482122
482127
482130
482131
482132
482133
482134
482135
482140
482144
482145
482147
482149
482153
482155
482172
482175
482176
482177
482182
482184
482186
482195
482196
482205
482210
482211
482212
482214
482215
482218
482219
482220
482222
482223
482225
482226
482228
482229
482231
482232
482233
482245
482249
482250
482251
482253
482255
482257
561926
482259
482262
482263
482270
482272
482274
482275
482278
482279
482280
482281
482282
482283
482284
482285
482286
482289
482290
482291
482293
482294
482295
482297
482298
482299
482300
482301
482302
482303
482304
482305
482309
482312
482315
482316
482318
482320
482325
482332
482344
482347
482348
482350
482351
482357
482360
482361
482362
482364
482365
482366
482368
482369
482371
482375
482376
482377
482379
482381
482382
482384
482385
482386
482391
482392
482394
482395
482396
482397
482398
482399
482400
482405
482409
482410
482413
482418
560792
561621
482428
482430
482431
482434
482435
482438
482442
482446
482447
482449
482450
482451
482454
482455
482456
482457
482458
482459
482460
482461
482462
482463
482465
482467
482468
482469
482470
482471
482473
482474
482475
482476
482477
482478
482479
482480
482481
482483
482486
482488
482489
482492
482494
482495
482497
482502
482503
482506
482523
482524
482526
482527
482528
482529
482532
482533
482534
482536
482538
482539
482540
482541
482542
482543
482544
482546
482547
482548
482549
482550
482551
482553
482554
482555
482556
482557
482558
482559
482560
482561
482562
482563
482564
482565
482567
482569
482570
482572
482573
482574
482575
482576
482578
482580
482581
482583
482584
482585
482586
482588
482593
482596
562537
482603
482609
482610
482612
482617
482618
482620
482621
482623
482624
482625
482626
482627
482628
482629
482630
482632
482633
482634
482635
482636
482637
482638
482639
482640
482642
482644
482645
482648
482651
482652
482653
482654
482655
482658
482659
482664
482665
482668
482671
482676
482678
562538
482689
482693
482696
482699
482701
482702
482703
482704
482705
482706
482707
482709
482710
482711
482712
482713
482716
482717
482718
482719
482720
482721
482722
482723
482724
482725
482726
482727
482729
482731
482732
482733
482734
482735
482736
482737
482738
482739
482740
482741
482742
482744
482745
482746
482747
482748
482749
482750
482751
482752
482754
482755
482756
482760
482761
482762
482763
482764
482765
482772
561928
482794
482796
482797
482798
482799
482801
482802
482803
482804
482805
482806
482807
482808
482810
482811
482812
482813
482814
482815
482816
482817
482818
482819
482820
482821
482822
482823
482824
482825
482827
482828
482829
482831
482832
482834
482835
482836
482838
482839
482840
482841
482842
482843
482844
482845
482846
482848
482849
482851
482852
482853
482854
482857
482858
482859
482860
482862
482863
482866
482881
482883
482884
482885
482886
482888
482890
482892
482893
482894
482896
482897
482898
482899
482900
482901
482902
482903
482904
482905
482907
482908
482909
482910
482911
482912
482913
482914
482916
482917
482918
482919
482920
482921
482922
482923
482924
482925
482926
482927
482928
482929
482930
482931
482932
482933
482934
482935
482936
482939
482940
482941
482942
482943
482944
482945
482946
482947
482948
482949
482950
482952
482953
482955
561213
482969
482970
482972
482973
482974
482977
482978
482979
482980
482981
482983
482984
482985
482986
482987
482988
482989
482990
482991
482993
482994
482995
482996
482997
482998
482999
483000
483001
483002
483003
483004
483005
483006
483007
483008
483009
483011
483012
483013
483014
483015
483016
483017
483018
483019
483020
483022
483023
483026
483029
483030
483031
483033
483034
483035
483036
483038
483039
483040
483041
483042
483044
562129
483052
483054
483056
483058
483060
483062
483063
483064
483065
483066
483067
483068
483069
483070
483071
483072
483073
483074
483075
483076
483077
483078
483079
483080
483081
483083
483084
483085
483086
483087
483088
483089
483090
483092
483094
483095
483096
483097
483098
483099
483100
483101
483102
483103
483104
483105
483107
483108
483109
483110
483111
483112
483113
483114
483115
483116
483117
483118
483119
483121
483122
483123
483125
483130
483132
483133
562539
483143
483144
483145
483152
483153
483154
483155
483156
483157
483158
483159
483161
483162
483163
483164
483165
483166
483167
483168
483169
483170
483171
483172
483173
483174
483175
483176
483177
483178
483179
483181
483182
483183
483184
483185
483186
483187
483188
483189
483190
483191
483192
483193
483194
483195
483196
483197
483198
483199
483200
483201
483202
483203
483204
483205
483206
483207
483208
483209
483210
483211
483212
483215
483236
483237
483238
483239
483240
483241
483243
483244
483245
483246
483247
483248
483249
483250
483251
483252
483253
483254
483255
483256
483257
483259
483260
483261
483262
483263
483264
483265
483266
483267
483268
483269
483271
483272
483273
483274
483275
483276
483277
483278
483279
483280
483281
483282
483283
483284
483285
483286
483287
483289
483290
483291
483292
483294
483296
483297
483298
483302
483303
483304
483305
483309
483310
483312
563259
483317
483321
483322
483323
483324
483325
483326
483327
483328
483330
483331
483332
483333
483336
483337
483338
483339
483340
483341
483342
483343
483344
483345
483346
483347
483348
483349
483350
483351
483352
483353
483354
483356
483357
483358
483359
483360
483361
483362
483363
483364
483365
483366
483367
483368
483369
483370
483371
483372
483373
483374
483375
483376
483377
483379
483380
483381
483382
483383
483384
483385
483386
483388
483389
483390
483391
483393
483394
483395
483397
482005
562837
562947
563261
483400
483404
483408
483409
483410
483411
483412
483413
483414
483415
483416
483417
483418
483419
483420
483421
483422
483423
483424
483426
483427
483428
483429
483430
483431
483433
483434
483435
483436
483437
483438
483439
483440
483441
483442
483443
483444
483445
483446
483447
483448
483449
483450
483451
483452
483453
483454
483455
483456
483458
483459
483460
483461
483462
483464
483465
483466
483468
483469
483470
483471
483472
483473
483474
483475
483477
483480
483481
483485
561724
479292
483495
483497
483498
483499
483501
483502
483503
483505
483507
483508
483509
483510
483511
483512
483513
483514
483515
483516
483517
483518
483519
483520
483521
483522
483523
483524
483525
483526
483527
483528
483529
483530
483531
483532
483533
483534
483535
483536
483537
483538
483539
483540
483541
483542
483543
483544
483545
483546
483547
483548
483549
483550
483551
483552
483553
483554
483555
483556
483557
483558
483559
483562
483563
483564
483565
483567
483568
483570
483573
563463
483582
483585
483587
483588
483589
483590
483591
483592
483593
483594
483596
483597
483598
483599
483600
483601
483602
483603
483604
483605
483606
483607
483608
483609
483610
483611
483612
483613
483614
483615
483616
483617
483618
483619
483620
483621
483622
483623
483624
483625
483626
483627
483628
483629
483630
483631
483632
483633
483634
483635
483636
483637
483638
483639
483640
483641
483642
483643
483644
483645
483647
483648
483649
483650
483651
483652
483655
483656
483659
563257
483663
483665
483667
483668
483670
483671
483674
483675
483676
483677
483679
483680
483681
483683
483684
483685
483686
483688
483689
483690
483691
483692
483693
483694
483695
483696
483697
483698
483699
483700
483701
483702
483703
483704
483705
483706
483707
483708
483709
483710
483711
483712
483713
483714
483715
483716
483717
483718
483719
483720
483721
483722
483723
483724
483725
483726
483727
483728
483729
483730
483731
483732
483733
483734
483735
483739
483741
483743
483744
483745
483749
483750
483751
483753
483754
483755
483756
483757
483758
483759
483760
483761
483762
483763
483764
483765
483766
483767
483768
483769
483770
483771
483772
483773
483774
483775
483776
483777
483778
483779
483780
483781
483782
483783
483784
483785
483786
483787
483788
483789
483790
483791
483792
483793
483794
483795
483796
483797
483798
483799
483800
483801
483803
483804
483805
483806
483807
483810
483812
483813
483814
483816
483817
483820
483821
483822
562130
562732
563049
563770
483829
483832
483833
483834
483835
483836
483837
483839
483841
483842
483843
483844
483845
483846
483847
483848
483849
483850
483851
483852
483853
483854
483855
483856
483857
483858
483859
483860
483861
483862
483863
483864
483865
483866
483867
483868
483869
483870
483871
483872
483873
483874
483875
483876
483877
483878
483879
483880
483881
483882
483883
483884
483885
483886
483887
483888
483889
483890
483891
483892
483893
483895
483897
483898
483899
483900
483901
483902
483904
483905
561922
563465
563466
483912
483918
483919
483921
483922
483926
483927
483928
483929
483930
483931
483932
483933
483934
483935
483936
483937
483938
483939
483940
483941
483942
483943
483944
483945
483946
483947
483948
483949
483950
483951
483952
483953
483954
483955
483956
483957
483958
483959
483960
483961
483962
483963
483964
483965
483966
483967
483968
483969
483970
483972
483973
483974
483975
483976
483977
483978
483979
483980
483981
483982
483983
483984
483985
483989
483990
483992
484003
484004
484005
484008
484009
484010
484013
484014
484015
484016
484017
484018
484019
484020
484021
484022
484023
484024
484025
484026
484027
484028
484029
484030
484031
484032
484033
484034
484035
484036
484037
484038
484039
484040
484041
484042
484043
484044
484045
484046
484047
484048
484049
484050
484051
484052
484053
484054
484055
484056
484057
484058
484059
484060
484061
484062
484064
484065
484066
484067
484068
484069
484070
484071
484072
484073
484074
484075
484076
484077
484078
484079
484080
484081
484082
484086
484087
563868
563869
484096
484098
484101
484102
484103
484104
484105
484106
484107
484108
484110
484111
484112
484113
484114
484115
484116
484117
484118
484119
484120
484121
484122
484123
484124
484125
484126
484127
484128
484129
484130
484131
484132
484133
484134
484135
484136
484137
484138
484139
484140
484141
484142
484143
484144
484145
484146
484147
484148
484149
484150
484151
484152
484153
484154
484155
484156
484157
484158
484160
484161
484162
484163
484165
484167
484168
484169
484172
484174
484175
484176
482084
482880
564480
484187
484188
484190
484191
484192
484193
484194
484195
484196
484198
484199
484200
484201
484202
484203
484204
484205
484206
484207
484208
484209
484210
484211
484212
484213
484214
484215
484216
484217
484218
484219
484220
484221
484222
484223
484224
484225
484226
484227
484228
484229
484230
484231
484232
484233
484234
484235
484236
484237
484238
484239
484240
484241
484242
484244
484245
484246
484247
484248
484249
484250
484251
484252
484253
484254
484258
484259
484260
484261
484263
484264
484267
484269
562027
563462
563564
564378
564585
484282
484285
484286
484287
484289
484290
484291
484292
484293
484294
484296
484297
484298
484299
484300
484301
484302
484303
484304
484305
484306
484307
484308
484309
484310
484311
484312
484313
484314
484315
484316
484317
484318
484319
484320
484321
484322
484323
484324
484325
484326
484327
484328
484329
484331
484332
484333
484334
484335
484336
484337
484338
484339
484340
484341
484342
484343
484344
484345
484346
484347
484350
484351
484352
484355
484356
484357
484358
484359
484360
484361
484363
484364
484365
561927
562132
564483
484375
484376
484377
484379
484380
484382
484383
484384
484385
484387
484388
484389
484390
484391
484392
484393
484394
484395
484396
484397
484398
484399
484400
484401
484402
484403
484404
484405
484406
484407
484408
484409
484410
484411
484412
484413
484414
484415
484416
484417
484418
484419
484420
484421
484422
484423
484424
484425
484426
484427
484428
484429
484430
484432
484433
484434
484435
484436
484437
484438
484439
484440
484441
484442
484443
484444
484445
484446
484447
484448
484449
484450
484451
484452
484454
484455
484458
484459
484463
484464
484468
484469
484470
484471
484472
484473
484474
484475
484476
484477
484478
484479
484480
484481
484482
484483
484484
484485
484486
484487
484488
484489
484490
484491
484492
484493
484494
484495
484496
484497
484498
484499
484500
484501
484502
484503
484504
484505
484506
484507
484508
484509
484510
484511
484512
484513
484514
484515
484516
484517
484518
484519
484520
484521
484522
484523
484524
484525
484526
484527
484528
484531
484533
484534
484536
484537
564064
564274
564376
484546
484547
484548
484552
484553
484554
484555
484556
484557
484558
484559
484560
484561
484563
484564
484565
484566
484567
484568
484569
484570
484571
484572
484573
484574
484575
484576
484577
484578
484579
484580
484581
484582
484583
484584
484585
484586
484587
484588
484589
484590
484591
484592
484593
484594
484595
484596
484597
484598
484599
484600
484601
484602
484603
484604
484605
484606
484607
484608
484609
484611
484612
484615
484616
484617
484619
484621
484623
484624
562529
563040
563666
564066
564584
564684
484631
484632
484633
484636
484637
484638
484639
484641
484642
484643
484644
484645
484646
484647
484648
484649
484650
484651
484652
484653
484654
484655
484656
484657
484658
484659
484660
484661
484662
484663
484664
484665
484666
484667
484668
484669
484670
484671
484672
484673
484674
484675
484676
484677
484678
484679
484680
484681
484682
484683
484684
484685
484686
484687
484688
484689
484690
484691
484692
484693
484694
484695
484696
484697
484698
484700
484701
484703
484704
484706
484707
484708
484709
484710
484711
484712
484713
484715
560892
562018
562230
484723
484724
484727
484728
484729
484730
484731
484732
484733
484734
484736
484737
484738
484739
484740
484741
484742
484743
484744
484745
484746
484747
484748
484749
484750
484751
484752
484753
484754
484755
484756
484757
484758
484759
484760
484761
484762
484763
484764
484765
484766
484767
484768
484769
484770
484771
484772
484773
484774
484775
484776
484777
484778
484779
484780
484781
484782
484783
484784
484785
484786
484787
484788
484789
484792
484794
484797
484800
484801
564898
484807
484812
484813
484814
484815
484816
484817
484818
484819
484820
484821
484822
484823
484824
484825
484826
484827
484828
484829
484830
484831
484832
484833
484834
484835
484836
484837
484838
484839
484840
484841
484842
484843
484844
484845
484846
484847
484848
484849
484850
484851
484852
484853
484854
484855
484856
484857
484858
484859
484860
484861
484862
484863
484864
484865
484866
484867
484868
484869
484871
484872
484873
484875
484876
484877
484878
484879
484880
484882
484883
484885
484887
563460
564063
484888
484893
484895
484896
484898
484899
484900
484901
484902
484903
484904
484905
484906
484907
484908
484909
484910
484911
484912
484913
484914
484915
484916
484917
484918
484919
484920
484921
484922
484923
484924
484925
484926
484927
484928
484929
484930
484931
484932
484933
484934
484935
484936
484937
484938
484939
484940
484941
484942
484943
484944
484945
484946
484947
484948
484949
484950
484951
484952
484953
484955
484956
484957
484958
484960
484962
484963
484964
484965
484966
484968
482602
564683
564896
484970
484971
484975
484976
484977
484979
484980
484981
484982
484983
484984
484985
484986
484987
484988
484989
484990
484991
484992
484993
484994
484995
484996
484997
484998
484999
485000
485001
485002
485003
485004
485005
485006
485007
485008
485009
485010
485011
485012
485013
485014
485015
485016
485017
485018
485019
485020
485021
485022
485023
485024
485025
485026
485027
485028
485029
485030
485031
485032
485033
485034
485036
485037
485038
485039
485040
485044
485046
485047
485049
485050
485051
485052
485054
485055
485056
485058
563148
563458
564164
482530
565097
485064
485066
485067
485071
485073
485074
485075
485077
485078
485079
485080
485081
485082
485083
485084
485085
485086
485087
485088
485089
485090
485091
485092
485093
485094
485095
485096
485097
485098
485099
485100
485101
485102
485103
485104
485105
485106
485107
485108
485109
485110
485111
485112
485113
485114
485115
485116
485117
485118
485119
485120
485121
485122
485123
485124
485125
485126
485127
485128
485129
485131
485132
485134
485135
485136
485138
485139
485140
485141
485142
562827
564371
483055
565407
485148
485149
485150
485152
485153
485154
485156
485157
485158
485159
485160
485161
485162
485163
485164
485165
485166
485167
485168
485169
485170
485171
485172
485173
485174
485175
485176
485177
485178
485179
485180
485181
485182
485183
485184
485185
485186
485187
485188
485189
485190
485191
485192
485193
485194
485195
485196
485197
485198
485199
485200
485201
485202
485203
485204
485205
485206
485207
485208
485209
485210
485211
485212
485213
485214
485215
485216
485217
485218
485219
485220
485221
485223
485224
485226
485228
485231
562521
563452
564273
565297
485237
485241
485242
485243
485244
485245
485246
485247
485248
485251
485252
485253
485254
485255
485256
485257
485258
485259
485260
485261
485262
485263
485264
485265
485266
485267
485268
485269
485270
485271
485272
485273
485274
485275
485276
485277
485278
485279
485280
485281
485282
485283
485284
485285
485286
485287
485288
485289
485290
485291
485292
485293
485294
485295
485296
485297
485298
485299
485300
485301
485302
485303
485304
485305
485306
485307
485309
485310
485312
485314
485315
485316
485317
485319
485320
485321
485322
485323
485324
562017
564477
564587
485330
485332
485333
485334
485335
485336
485337
485338
485339
485340
485341
485342
485343
485344
485345
485346
485347
485348
485349
485350
485351
485352
485353
485354
485355
485356
485357
485358
485359
485360
485361
485362
485363
485364
485365
485366
485367
485368
485369
485370
485371
485372
485373
485374
485375
485376
485377
485378
485379
485380
485381
485382
485383
485384
485385
485386
485387
485388
485389
485390
485391
485392
485393
485394
485395
485396
485397
485398
485399
485400
485401
485402
485403
485404
485406
485407
485408
485411
485412
485413
485414
485415
562034
562934
563767
563870
483402
564474
484095
565507
485428
485429
485430
485431
485432
485433
485434
485435
485436
485437
485438
485439
485440
485441
485442
485443
485444
485445
485446
485447
485448
485449
485450
485451
485452
485453
485454
485455
485456
485457
485458
485459
485460
485461
485462
485463
485464
485465
485466
485467
485468
485469
485470
485471
485472
485473
485474
485475
485476
485477
485478
485479
485480
485481
485482
485483
485484
485485
485486
485487
485488
485489
485490
485491
485492
485494
485495
485498
485499
485500
485503
485504
485505
561082
565910
485509
485510
485512
485514
485516
485517
485518
485519
485520
485521
485522
485523
485524
485525
485526
485527
485528
485529
485530
485531
485532
485533
485534
485535
485536
485537
485538
485539
485540
485541
485542
485543
485544
485545
485546
485547
485548
485549
485550
485551
485552
485553
485554
485555
485556
485557
485558
485559
485560
485561
485562
485563
485564
485565
485566
485567
485568
485569
485570
485571
485572
485573
485574
485575
485576
485577
485578
485579
485580
485581
485582
485583
485585
485587
485591
485592
485593
485594
563255
482964
483672
566121
485599
485600
485602
485603
485604
485605
485606
485607
485608
485609
485610
485611
485613
485614
485615
485616
485617
485618
485619
485620
485621
485622
485623
485624
485625
485626
485627
485628
485629
485630
485631
485632
485633
485634
485635
485636
485637
485638
485639
485640
485641
485642
485643
485644
485645
485646
485647
485648
485649
485650
485651
485652
485653
485654
485655
485656
485657
485658
485659
485660
485661
485662
485663
485665
485666
485667
485669
485670
485671
485672
485673
485675
485676
485677
563854
564059
565201
485068
485682
485685
485686
485688
485689
485690
485691
485692
485693
485694
485695
485696
485697
485698
485699
485700
485701
485702
485703
485704
485705
485706
485707
485708
485709
485710
485711
485712
485713
485714
485715
485716
485717
485718
485719
485720
485721
485722
485723
485724
485725
485726
485727
485728
485729
485730
485731
485732
485733
485734
485735
485736
485737
485738
485739
485740
485741
485742
485743
485744
485745
485746
485747
485748
485749
485750
485751
485752
485754
485755
485756
485757
485758
485760
485761
485763
485764
485765
485767
485768
485769
485770
563455
563967
564046
565094
566321
485779
485780
485781
485782
485783
485784
485785
485786
485787
485788
485789
485791
485792
485793
485794
485795
485796
485797
485798
485799
485800
485801
485802
485803
485804
485805
485806
485807
485808
485809
485810
485811
485812
485813
485814
485815
485816
485817
485818
485819
485820
485821
485822
485823
485824
485825
485826
485827
485828
485829
485830
485831
485832
485833
485834
485835
485836
485837
485838
485839
485840
485841
485843
485844
485845
485846
485847
485848
485849
485850
485851
485852
485853
485855
485856
485857
485858
485859
485860
485861
485862
562619
563871
564680
566120
482889
485867
485869
485870
485871
485872
485873
485874
485875
485876
485878
485879
485880
485881
485882
485883
485884
485885
485886
485887
485888
485889
485890
485891
485892
485893
485894
485895
485896
485897
485898
485899
485900
485901
485902
485903
485904
485905
485906
485907
485908
485909
485910
485911
485912
485913
485914
485915
485916
485917
485918
485919
485920
485921
485922
485923
485924
485925
485926
485927
485928
485929
485930
485931
485932
485933
485934
485935
485936
485937
485938
485939
485940
485942
485943
485944
485945
485946
562941
564481
564685
566215
566533
485950
485951
485954
485955
485956
485958
485959
485960
485961
485962
485964
485965
485966
485967
485968
485969
485970
485971
485972
485973
485974
485975
485976
485977
485978
485979
485980
485981
485982
485983
485984
485985
485986
485987
485988
485989
485990
485991
485992
485993
485994
485995
485996
485997
485998
485999
486000
486001
486002
486003
486004
486005
486006
486007
486008
486009
486010
486011
486012
486013
486014
486015
486016
486017
486018
486019
486020
486021
486023
486025
486026
486027
486029
486031
486032
486033
486034
562728
563145
563968
564370
564580
564986
565299
565820
563361
482432
486035
486036
486037
486038
486040
486041
486042
486043
486044
486046
486047
486048
486049
486050
486051
486052
486053
486054
486055
486056
486057
486058
486059
486060
486061
486062
486063
486064
486065
486066
486067
486068
486069
486070
486071
486072
486073
486074
486075
486076
486077
486078
486079
486080
486081
486082
486083
486084
486085
486086
486087
486088
486089
486090
486091
486092
486093
486094
486095
486096
486097
486098
486099
486100
486101
486102
486103
486104
486105
486106
486107
486109
486110
486111
486112
486113
486114
486116
486117
486118
486119
562839
565183
565292
565293
565501
483234
565602
565912
566324
566630
486125
486127
486128
486129
486130
486131
486132
486133
486134
486135
486136
486137
486138
486139
486140
486141
486142
486143
486144
486145
486146
486147
486148
486149
486150
486151
486152
486153
486154
486155
486156
486157
486158
486159
486160
486161
486162
486163
486164
486165
486166
486167
486168
486169
486170
486171
486172
486173
486174
486175
486176
486177
486178
486179
486180
486181
486182
486183
486184
486185
486186
486187
486188
486189
486190
486191
486192
486194
486195
486196
486198
486200
486201
486202
486203
486204
486206
486207
486208
486209
563763
483915
566632
486214
486216
486218
486222
486223
486224
486225
486226
486227
486228
486229
486230
486231
486232
486233
486234
486235
486236
486237
486238
486239
486240
486241
486242
486243
486244
486245
486246
486247
486248
486249
486250
486251
486252
486253
486254
486255
486256
486257
486258
486259
486260
486261
486262
486263
486264
486265
486266
486267
486268
486269
486270
486271
486272
486273
486274
486275
486276
486277
486278
486279
486280
486281
486282
486283
486284
486285
486286
486288
486289
486291
486292
486293
563760
564476
486294
486295
486296
486298
486299
486300
486301
486302
486303
486304
486305
486306
486307
486308
486309
486310
486311
486312
486313
486314
486315
486316
486317
486318
486319
486320
486321
486322
486323
486324
486325
486326
486327
486328
486329
486330
486331
486332
486333
486334
486335
486336
486337
486338
486339
486340
486341
486342
486343
486344
486345
486346
486347
486348
486349
486350
486351
486352
486353
486354
486355
486356
486357
486358
486359
486360
486361
486362
486363
486364
486365
486366
486367
486368
486369
486370
486372
486373
486375
486376
486377
562128
564891
565700
565815
565908
566737
486380
486381
486382
486383
486384
486385
486386
486387
486388
486389
486390
486391
486392
486393
486394
486395
486396
486397
486398
486399
486400
486401
486402
486403
486404
486405
486406
486407
486408
486409
486410
486411
486412
486413
486414
486415
486416
486417
486418
486419
486420
486421
486422
486423
486424
486425
486426
486427
486428
486429
486430
486431
486432
486433
486434
486435
486436
486437
486438
486439
486440
486441
486442
486443
486444
486445
486446
486447
486448
486449
486450
486451
486452
486453
486455
486457
486458
486459
486460
486461
486462
562420
481308
564168
565907
566320
566322
566631
486466
486467
486469
486470
486471
486472
486473
486474
486475
486476
486477
486478
486479
486480
486481
486482
486483
486484
486485
486486
486487
486488
486489
486490
486491
486492
486493
486494
486495
486496
486497
486498
486499
486500
486501
486502
486503
486504
486505
486506
486507
486508
486509
486510
486511
486512
486513
486514
486515
486516
486517
486518
486519
486520
486521
486522
486523
486524
486525
486526
486527
486528
486529
486530
486531
486532
486533
486534
486535
486536
486537
486538
486539
486540
486541
486542
486543
486544
486545
486546
486547
486548
486549
486550
486551
486552
486553
562937
563042
565192
565604
565704
565814
486556
486560
486561
486562
486563
486565
486566
486567
486568
486569
486570
486571
486572
486573
486574
486575
486576
486577
486578
486579
486580
486581
486582
486583
486584
486585
486586
486587
486588
486589
486590
486591
486592
486593
486594
486595
486596
486597
486598
486599
486600
486601
486602
486603
486604
486605
486606
486607
486608
486609
486610
486611
486612
486613
486614
486615
486616
486617
486618
486619
486620
486621
486622
486623
486624
486625
486628
486630
486632
486633
486634
486635
486636
486637
561206
563050
563250
563971
564065
564888
565294
565402
566019
566323
485063
567242
486640
486641
486642
486643
486644
486645
486646
486647
486648
486649
486650
486651
486652
486653
486654
486655
486656
486657
486658
486659
486660
486661
486662
486663
486664
486665
486666
486667
486668
486669
486670
486671
486672
486673
486674
486675
486676
486677
486678
486679
486680
486681
486682
486683
486684
486685
486686
486687
486688
486689
486690
486691
486692
486693
486694
486695
486696
486697
486698
486699
486700
486701
486702
486703
486704
486705
486706
486707
486708
486709
486710
486711
486712
486713
486714
486715
486716
486717
486718
486719
486720
486721
486722
486723
486724
486725
486726
486727
486728
486729
563341
563565
565698
566733
567040
482444
486730
486731
486733
486734
486735
486736
486737
486738
486739
486740
486741
486742
486743
486744
486745
486746
486747
486748
486749
486750
486751
486752
486753
486754
486755
486756
486757
486758
486759
486760
486761
486762
486763
486764
486765
486766
486767
486768
486769
486770
486771
486772
486773
486774
486775
486776
486777
486778
486779
486780
486781
486782
486783
486784
486785
486786
486787
486788
486789
486790
486791
486792
486793
486794
486795
486796
486797
486798
486799
486801
486804
486805
486806
486807
486808
486810
486811
486812
561313
564247
565198
565607
566217
567445
486813
486814
486815
486816
486817
486818
486819
486820
486821
486822
486823
486824
486825
486826
486827
486828
486829
486830
486831
486832
486833
486834
486835
486836
486837
486838
486839
486840
486841
486842
486843
486844
486845
486846
486847
486848
486849
486850
486851
486852
486853
486854
486855
486856
486857
486858
486859
486860
486861
486862