/*--------------------------------*- C++ -*----------------------------------*\
| =========                 |                                                 |
| \\      /  F ield         | OpenFOAM: The Open Source CFD Toolbox           |
|  \\    /   O peration     | Version:  2406                                  |
|   \\  /    A nd           | Website:  www.openfoam.com                      |
|    \\/     M anipulation  |                                                 |
\*---------------------------------------------------------------------------*/
FoamFile
{
    version     2.0;
    format      ascii;
    arch        "LSB;label=32;scalar=64";
    class       Cloud<dsmcParcel>;
    location    "0.011/lagrangian/dsmc";
    object      positions;
}
// * * * * * * * * * * * * * * * * * * * * * * * * * * * * * * * * * * * * * //

5152
(
(0.06714574228 0.2895779883 0) 534
(0.07535651702 0.2276841997 -2.168404345e-19) 445
(0.07594498031 0.2351489337 0) 455
(0.06264730683 0.2086238458 0) 424
(0.07586135071 0.2860983493 4.33680869e-19) 535
(0.06879407594 0.2463045315 2.168404345e-19) 475
(0.06429943695 0.2250399211 3.252606517e-19) 444
(0.05160841653 0.2231860884 0) 442
(0.06704568672 0.2258443073 -1.355252716e-19) 444
(0.07608408493 0.2753172318 -5.149960319e-19) 515
(0.002820648672 0.2555242522 -1.084202172e-19) 486
(0.06967433105 0.1715912741 0) 365
(0.04016799381 0.2126932441 -1.084202172e-19) 421
(0.05425152827 0.2362158294 2.168404345e-19) 463
(0.07340967416 0.2736364622 0) 515
(0.06079614961 0.1756313685 2.439454888e-19) 373
(0.04396883417 0.2889273946 -1.355252716e-19) 531
(0.05940409133 0.2479646955 0) 473
(0.06350759985 0.2313768679 0) 454
(0.05647004576 0.2091033207 -2.168404345e-19) 423
(0.04390472871 0.1973630037 4.33680869e-19) 401
(0.0758304015 0.2076818359 -2.168404345e-19) 415
(0.06021852816 0.2657575676 4.33680869e-19) 503
(0.05280922329 0.2331279075 0) 452
(0.05649552875 0.2229129349 -1.084202172e-19) 443
(0.07371598487 0.1714772917 5.421010862e-19) 365
(0.07560105602 0.2235908744 -2.168404345e-19) 445
(0.05739010644 0.2614489623 2.710505431e-20) 493
(0.06706793715 0.1967990519 -4.33680869e-19) 404
(0.05008201961 0.2135389649 2.168404345e-19) 422
(0.07549207213 0.2041277286 -2.168404345e-19) 415
(0.05260830216 0.1834936521 2.168404345e-19) 382
(0.06392475248 0.2750660559 1.084202172e-19) 514
(0.07396208053 0.2105484818 0) 425
(0.05692191152 0.230713887 -5.421010862e-20) 453
(0.06228191564 0.2660953799 -8.131516294e-20) 504
(0.05239600197 0.27044476 -2.168404345e-19) 502
(0.05654975742 0.199925251 -2.168404345e-19) 403
(0.07280603763 0.1933651436 1.084202172e-19) 395
(0.06371136756 0.2144918044 0) 424
(0.06871335734 0.2580363084 -6.776263578e-20) 495
(0.05537984161 0.2602448886 2.168404345e-19) 493
(-0.002202375506 0.2304920613 -1.084202172e-19) 179
(0.06804653332 0.17602013 3.252606517e-19) 374
(0.06444102989 0.1910080969 3.252606517e-19) 394
(0.0746197601 0.1703878702 9.486769009e-20) 365
(0.06774527037 0.2372630401 0) 464
(0.06916603786 0.2620026139 -3.252606517e-19) 495
(0.06486518097 0.2740630112 0) 514
(0.07146726225 0.2705670769 6.505213035e-19) 505
(0.07297432137 0.202054101 -4.33680869e-19) 415
(0.05033201814 0.2180802285 -1.084202172e-19) 432
(0.07472082037 0.248295398 0) 475
(0.06919337778 0.2554198354 1.084202172e-19) 485
(0.04615852567 0.2096928563 4.33680869e-19) 422
(0.06752545163 0.2349104462 2.168404345e-19) 454
(0.0690129793 0.2406050695 4.33680869e-19) 465
(0.04611945761 0.2600184903 -2.168404345e-19) 492
(0.06955798445 0.2649933497 2.168404345e-19) 505
(0.05324319763 0.2716956925 2.168404345e-19) 512
(0.06408078031 0.2750055606 1.084202172e-19) 514
(0.07385451555 0.2154833542 1.084202172e-19) 425
(0.07286408485 0.168649474 0) 365
(0.0536819964 0.2141486483 3.388131789e-19) 423
(0.05588056183 0.1893665963 3.252606517e-19) 393
(0.05053074922 0.2799590666 0) 522
(0.06710649839 0.2077647352 -2.168404345e-19) 414
(0.07225535978 0.2536775568 -4.065758147e-20) 485
(0.07151732012 0.2154078264 0) 425
(0.06764904027 0.2441772081 -4.33680869e-19) 474
(0.07357591453 0.2451442329 0) 475
(0.07359167721 0.1910676051 3.252606517e-19) 395
(0.06630688353 0.2042124107 5.421010862e-20) 414
(0.03715953694 0.2450760643 -2.168404345e-19) 470
(0.03894975599 0.2411688035 0) 461
(0.01222576875 0.2185223965 0) 437
(0.04602470935 0.2480210093 0) 472
(0.05945921531 0.2068243015 4.33680869e-19) 413
(0.04546990406 0.2457957989 -2.168404345e-19) 471
(0.06300042137 0.2723816487 0) 514
(0.06451628293 0.1895287358 -1.355252716e-19) 394
(0.0706511029 0.2436761055 0) 465
(0.01495086537 0.2084744235 2.168404345e-19) 417
(0.03026195283 0.2248300964 0) 439
(0.03543994103 0.1943485335 -2.710505431e-20) 400
(0.06930846728 0.1822977771 0) 385
(0.07520387588 0.2091692909 0) 425
(0.06196745934 0.2132613709 -2.168404345e-19) 424
(0.0596996272 0.2508017956 2.168404345e-19) 483
(0.05303568879 0.2144152962 4.33680869e-19) 432
(0.06663462485 0.2401185737 0) 464
(0.05662976804 0.2449307874 -5.421010862e-20) 473
(0.063877229 0.2578427374 -1.084202172e-19) 494
(0.04720328513 0.2725532811 -2.168404345e-19) 512
(0.0672680525 0.1845938679 -2.168404345e-19) 384
(0.07488565491 0.2772393183 0) 515
(0.05563035788 0.2022852011 -2.168404345e-19) 413
(0.057435664 0.2762511233 2.710505431e-19) 513
(0.06225264689 0.2840546464 -4.33680869e-19) 524
(0.06381091595 0.2793744711 1.084202172e-19) 524
(0.07027990415 0.2919942003 2.168404345e-19) 535
(0.06787388052 0.2896425153 -4.33680869e-19) 534
(0.04944386712 0.2629648435 -4.33680869e-19) 492
(0.07469972767 0.1811514543 0) 385
(0.06555929764 0.208474434 -2.168404345e-19) 424
(0.07056771115 0.1973808568 4.33680869e-19) 405
(0.05076114357 0.2418740688 0) 462
(0.07253092645 0.2418995929 -1.76182853e-19) 465
(0.0570869349 0.2651357113 4.743384505e-20) 503
(0.05490437366 0.2558289666 1.76182853e-19) 483
(0.05284618688 0.2420424099 0) 462
(0.0697374989 0.2530373686 1.084202172e-19) 485
(0.07217674674 0.2645623764 -4.33680869e-19) 495
(0.05546940967 0.2644245191 2.168404345e-19) 503
(0.06314462064 0.2678822811 2.168404345e-19) 504
(0.04277952932 0.2677549242 5.421010862e-20) 501
(0.03422631867 0.2856902799 5.285485591e-19) 530
(0.06539153287 0.1973858492 5.421010862e-20) 404
(0.05733310507 0.2037425224 -1.355252716e-20) 413
(0.05811571733 0.184348303 1.084202172e-19) 383
(0.06137992964 0.1890275484 2.168404345e-19) 394
(0.06227188501 0.1834369041 -2.439454888e-19) 384
(0.03346339439 0.1804980751 1.626303259e-19) 380
(0.04451801694 0.1801852596 0) 381
(0.05169229113 0.2374493229 -2.168404345e-19) 462
(0.03276446848 0.2141461335 1.084202172e-19) 430
(0.05942513404 0.2188987322 0) 433
(0.07195569153 0.2114248708 -1.355252716e-19) 425
(0.05062011521 0.2588212289 2.168404345e-19) 492
(0.04238293861 0.2066233038 2.168404345e-19) 421
(0.07317967683 0.2618293858 -3.252606517e-19) 495
(0.05422338146 0.2802155429 2.710505431e-19) 523
(0.06237012993 0.2521953267 1.084202172e-19) 484
(0.05007057433 0.2460669054 -8.131516294e-20) 472
(0.03108905791 0.2568767527 3.388131789e-21) 490
(0.07216389486 0.2619942622 -2.710505431e-20) 495
(0.06949835748 0.2584801023 2.168404345e-19) 495
(0.07518188709 0.270352593 2.168404345e-19) 505
(0.07084818795 0.2392677023 -1.084202172e-19) 465
(0.07364410879 0.1769757519 2.710505431e-19) 375
(0.05564762098 0.1824608766 9.486769009e-20) 383
(0.06025145317 0.1727430613 0) 373
(0.07056422349 0.1781017573 1.084202172e-19) 375
(-0.001591534918 0.2584224288 2.981555974e-19) 259
(0.06173659087 0.2086616337 8.809142651e-20) 424
(0.04987201898 0.2599226683 1.626303259e-19) 492
(0.05379297705 0.1878631323 2.168404345e-19) 393
(0.05717158737 0.2298151069 -4.33680869e-19) 453
(0.07443574319 0.2502108946 -2.168404345e-19) 475
(0.06550576895 0.2922286496 -2.710505431e-19) 534
(0.04773214937 0.2800544585 2.168404345e-19) 522
(0.07350636738 0.2898781756 -3.252606517e-19) 535
(0.03059591801 0.2405287192 2.168404345e-19) 460
(0.06813522234 0.2753713438 0) 514
(0.06974517391 0.169524662 4.33680869e-19) 365
(0.06441675452 0.1908278757 -1.084202172e-19) 394
(0.03893003691 0.22668447 -2.168404345e-19) 441
(0.06656779396 0.1943195691 0) 404
(0.06909635079 0.2150969278 3.337309812e-19) 425
(0.04391869351 0.207938715 0) 421
(0.03372424882 0.1874008636 -2.032879073e-19) 390
(0.06947302912 0.2294311796 -5.421010862e-20) 445
(0.05603380007 0.1987984606 3.252606517e-19) 403
(0.04143719191 0.2120229903 2.168404345e-19) 421
(0.07174545399 0.1882617477 2.168404345e-19) 395
(0.06051607787 0.2217383327 0) 433
(0.06742340768 0.2254929865 -1.084202172e-19) 444
(0.07182507277 0.23221299 5.421010862e-20) 455
(0.05880772292 0.2099224444 0) 423
(0.03641062126 0.1946468121 -9.486769009e-20) 400
(0.02064961455 0.2021945307 -1.084202172e-19) 408
(0.06980852642 0.2038633604 -3.252606517e-19) 415
(0.06996396891 0.2003831809 8.131516294e-20) 405
(0.05987486166 0.2751676243 -2.168404345e-19) 513
(0.04546156537 0.2666151448 1.084202172e-19) 501
(0.06770076248 0.2636955118 -2.168404345e-19) 494
(0.0442862141 0.271975029 6.505213035e-19) 511
(0.06446339122 0.2200492663 0) 434
(0.0493113624 0.2248637948 -2.710505431e-19) 442
(0.0648520038 0.2661331045 -8.67361738e-19) 504
(0.06518474819 0.2394959267 -3.794707604e-19) 464
(0.07260014938 0.2213079894 5.421010862e-20) 435
(0.06484664103 0.253622309 5.421010862e-20) 484
(0.06424884307 0.2849901482 2.168404345e-19) 524
(0.05524767845 0.1989981586 -1.626303259e-19) 403
(0.04403362341 0.2844379975 4.33680869e-19) 521
(0.07273288848 0.2894005515 -7.453889936e-20) 535
(0.02313669496 0.2069669111 2.168404345e-19) 419
(0.075339153 0.1835801145 1.084202172e-19) 385
(0.03973935276 0.2407757017 2.981555974e-19) 461
(0.01772199686 0.2092599945 2.710505431e-20) 418
(0.07121381258 0.2159770178 2.168404345e-19) 435
(0.07326192247 0.1783378888 -2.168404345e-19) 375
(0.05715233846 0.2020531165 4.33680869e-19) 413
(0.07054076322 0.2230366583 2.168404345e-19) 445
(0.049756202 0.1728554083 2.168404345e-19) 372
(0.07604963655 0.1962543676 -4.33680869e-19) 405
(0.06228299607 0.17208786 -1.084202172e-19) 364
(0.04686758603 0.2588370278 -2.168404345e-19) 492
(0.0727281505 0.2025230361 2.168404345e-19) 415
(0.04995247416 0.2318214335 4.065758147e-20) 452
(0.04797970028 0.2167143614 -2.168404345e-19) 432
(0.006774844654 0.1869867427 0) 386
(0.07154178057 0.2508940168 -1.626303259e-19) 485
(0.04902407948 0.2567179142 2.168404345e-19) 482
(0.01224867681 0.2966236479 0) 537
(0.05181052204 0.2570223933 0) 482
(0.06801939902 0.244438786 2.168404345e-19) 474
(0.02993755247 0.2062968595 4.33680869e-19) 419
(0.05424070278 0.2740356432 0) 513
(0.07276641835 0.2453842346 -2.168404345e-19) 475
(0.07521803157 0.2435995022 4.33680869e-19) 465
(0.04542652066 0.2450757213 -2.168404345e-19) 471
(0.06627356472 0.2874681775 -4.33680869e-19) 534
(0.05541542054 0.2425627803 -3.252606517e-19) 463
(0.05022758483 0.2491148756 4.33680869e-19) 472
(0.06960971504 0.2598817587 -2.168404345e-19) 495
(0.04826573262 0.1991219822 0) 402
(0.07574195906 0.1928747926 -6.505213035e-19) 395
(0.03262356773 0.1758761997 2.168404345e-19) 370
(0.06250329432 0.1958268837 -5.421010862e-20) 404
(0.04454412486 0.2441744801 0) 471
(0.06196037373 0.180329328 2.168404345e-19) 384
(0.05834048565 0.2174202516 0) 433
(0.06654460336 0.1839548867 0) 384
(0.06561703265 0.1925728146 -5.421010862e-20) 394
(0.05817434519 0.2472681943 -1.084202172e-19) 473
(0.06093883289 0.2225887966 0) 443
(0.005922326558 0.2430213749 1.084202172e-19) 466
(0.06768683216 0.2685210904 -2.168404345e-19) 504
(0.06657601082 0.2246256642 1.084202172e-19) 444
(0.07068339274 0.2170183081 0) 435
(0.004226506549 0.2297857591 -8.131516294e-20) 446
(0.0259192805 0.2317958285 1.626303259e-19) 449
(0.04023863661 0.2648663763 -3.252606517e-19) 501
(0.03931256763 0.2466084537 -3.252606517e-19) 471
(0.06156905786 0.2597758505 0) 494
(0.07178646228 0.2608010643 0) 495
(0.07496947514 0.2350852508 2.168404345e-19) 455
(0.07078182431 0.2596011287 0) 495
(0.04345736814 0.286056709 0) 531
(0.04470371671 0.244016709 2.168404345e-19) 471
(0.06390908301 0.238282807 2.168404345e-19) 464
(0.07215894178 0.2826631464 -5.421010862e-20) 525
(0.06263033898 0.276251783 -1.084202172e-19) 514
(0.06453674856 0.2743944119 8.131516294e-20) 514
(0.05529391593 0.2767249216 0) 513
(0.03364279214 0.1891085247 -3.252606517e-19) 390
(0.06163644162 0.1748441236 0) 374
(0.05701367409 0.171401902 -2.168404345e-19) 363
(0.05307537852 0.224019703 1.084202172e-19) 442
(0.05959789754 0.1673673295 0) 363
(0.06520549071 0.2159718373 2.168404345e-19) 434
(0.06180308866 0.2172531507 -1.084202172e-19) 434
(0.06700156216 0.2002307543 0) 404
(0.07308008074 0.1864233749 3.794707604e-19) 385
(0.07148246283 0.2333088591 1.397604363e-19) 455
(0.05558927976 0.2252542248 8.131516294e-20) 443
(0.05828025485 0.2420608203 1.084202172e-19) 463
(0.07177913525 0.2754505065 1.185846126e-20) 515
(0.04477871757 0.2408723693 4.33680869e-19) 461
(0.07224807889 0.1681366818 -3.930232875e-19) 365
(0.05437551086 0.2427767321 7.589415207e-19) 463
(0.05842222364 0.1694647809 -2.168404345e-19) 363
(0.06926781837 0.2227831183 -2.168404345e-19) 445
(0.04610798179 0.1923287263 -2.168404345e-19) 402
(0.04723025538 0.2477243119 1.084202172e-19) 472
(0.06939027136 0.2646461264 1.626303259e-19) 495
(0.06421235447 0.2809187231 -3.794707604e-19) 524
(0.06917897452 0.2879591009 2.168404345e-19) 535
(0.05765074308 0.2839741407 -5.421010862e-20) 523
(0.06553436117 0.2347712526 2.168404345e-19) 454
(0.07263296518 0.2535021401 0) 485
(0.03887247824 0.2715549911 0) 511
(0.07020400636 0.244401599 0) 475
(0.04763874611 0.2632763965 1.084202172e-19) 492
(0.05816108214 0.2793365893 6.505213035e-19) 523
(0.06347479382 0.266770661 -1.084202172e-19) 504
(0.05904620309 0.2771768769 0) 513
(0.0664721631 0.2752376165 -9.486769009e-20) 514
(0.06215824973 0.2529593352 -1.084202172e-19) 484
(0.0650884294 0.1908498562 5.421010862e-20) 394
(0.0485209729 0.1724264641 3.252606517e-19) 372
(0.06431330424 0.1796772263 0) 374
(0.0584642196 0.1929005358 0) 393
(0.07380584191 0.195981614 -4.33680869e-19) 405
(0.07058038977 0.2004571902 -1.084202172e-19) 405
(0.04936411447 0.1981322687 -4.33680869e-19) 402
(0.04085828752 0.242615381 2.168404345e-19) 471
(0.009968824222 0.1831481209 1.084202172e-19) 387
(0.04930558084 0.2077414491 0) 422
(0.05722832147 0.1928624972 7.453889936e-20) 393
(0.05023841924 0.1909256927 5.421010862e-20) 392
(0.04837711659 0.1853609492 -1.084202172e-19) 392
(0.04776807064 0.1983433935 1.626303259e-19) 402
(0.02287524855 0.2115034529 2.168404345e-19) 419
(0.03748122943 0.2169318411 2.168404345e-19) 430
(0.06956305944 0.1882192414 -2.168404345e-19) 395
(0.05891619333 0.2140179491 -3.252606517e-19) 423
(0.03696031854 0.2152367496 0) 430
(0.03580229233 0.1906108804 2.168404345e-19) 390
(0.06772592252 0.2142069813 2.168404345e-19) 424
(0.05318976135 0.2426894846 -4.33680869e-19) 462
(0.0390617128 0.2461902818 0) 471
(0.05316727921 0.1988884829 -4.33680869e-19) 402
(0.07450232307 0.272195138 -4.33680869e-19) 515
(0.0576295431 0.2200614002 0) 433
(0.03724536691 0.2238050967 -5.421010862e-20) 440
(0.03681294374 0.2193547315 0) 430
(0.06383775429 0.2568821056 4.33680869e-19) 484
(0.06728225197 0.2587165748 -2.168404345e-19) 494
(0.06501664338 0.2135166752 -1.355252716e-19) 424
(0.07530298384 0.2660912653 4.33680869e-19) 505
(0.06842650038 0.2418296025 0) 464
(0.02605123335 0.2629546632 2.168404345e-19) 489
(0.07490826676 0.2472466104 -4.607859233e-19) 475
(0.06934922818 0.242087928 4.33680869e-19) 465
(0.007552306129 0.2765500418 4.33680869e-19) 506
(0.05493565572 0.2838811768 0) 523
(0.04813356862 0.289034145 -3.252606517e-19) 532
(0.05912156743 0.2752945556 2.168404345e-19) 513
(0.04446320745 0.1899807024 0) 391
(0.06059738923 0.2002076382 4.33680869e-19) 403
(0.07422009025 0.2184322187 1.084202172e-19) 435
(0.04970606211 0.1953579866 -2.168404345e-19) 402
(0.06207008582 0.1749878786 2.168404345e-19) 374
(0.006038088116 0.2294352916 0) 446
(0.06421306656 0.2350060207 0) 454
(0.03623317919 0.1989722311 4.33680869e-19) 410
(0.04322530119 0.182015197 -1.084202172e-19) 381
(0.06142250565 0.1690607349 8.131516294e-20) 364
(0.04523566914 0.2296143611 -2.168404345e-19) 451
(0.03862429014 0.1927907528 -2.168404345e-19) 401
(0.06356578304 0.2082113308 1.084202172e-19) 424
(0.06593008971 0.2395634574 1.084202172e-19) 464
(0.05559684189 0.1834422473 0) 383
(0.07275283421 0.2278179716 -3.523657061e-19) 445
(0.05315376323 0.2302033272 2.168404345e-19) 452
(0.071724908 0.224825295 3.252606517e-19) 445
(0.0473394288 0.2366584196 -2.168404345e-19) 462
(0.06539145222 0.2361322301 -5.421010862e-20) 454
(0.04463262822 0.2013556529 -1.084202172e-19) 411
(0.06125378437 0.2135075843 4.33680869e-19) 424
(0.0447131349 0.2433709271 -4.33680869e-19) 471
(0.05627028623 0.1955126745 -5.421010862e-20) 403
(0.0544461164 0.2576800067 0) 493
(0.01938980411 0.2258529279 -5.421010862e-20) 438
(0.04681472479 0.2540161346 5.421010862e-20) 482
(0.06559798442 0.2630388289 3.252606517e-19) 494
(0.06119792145 0.2580790655 5.421010862e-20) 494
(0.02193099792 0.2328956447 2.168404345e-19) 448
(0.05419097036 0.2372837654 -1.626303259e-19) 463
(0.04457198057 0.297018432 0) 541
(0.04636797363 0.2764699951 0) 512
(0.0288305717 0.2589585041 1.084202172e-19) 489
(0.07603261738 0.2705705355 0) 505
(0.03627081246 0.28309506 2.168404345e-19) 520
(0.0003683412339 0.2872357629 0) 526
(0.06377056923 0.2771269084 3.252606517e-19) 514
(0.06829844682 0.1911899209 -2.168404345e-19) 394
(0.0351475637 0.1820829399 2.710505431e-19) 380
(0.03762595528 0.1910134104 -4.33680869e-19) 390
(0.06596677992 0.2129258616 -2.168404345e-19) 424
(0.06932370142 0.2092351142 1.694065895e-21) 425
(0.05917603987 0.2031040657 0) 413
(0.07171530676 0.1720350037 -4.33680869e-19) 365
(0.04507879259 0.1796156837 1.084202172e-19) 381
(-0.03102042169 0.2245748263 2.168404345e-19) 155
(0.05406387313 0.2097671354 0) 423
(0.06279363395 0.1862802169 -3.252606517e-19) 384
(0.06261878843 0.1881576571 0) 394
(0.05891608493 0.2017255935 -2.168404345e-19) 413
(0.07444619811 0.2427371263 0) 465
(0.05525534391 0.26381875 -1.084202172e-19) 493
(0.05492304045 0.255701595 -2.168404345e-19) 483
(0.06341216945 0.1847689148 0) 384
(0.07488515222 0.2605321538 -2.168404345e-19) 495
(0.06549797576 0.1965044301 0) 404
(0.07488229725 0.2325983629 -3.252606517e-19) 455
(0.06051768761 0.2499988956 0) 473
(0.03497779854 0.208327085 5.421010862e-19) 420
(0.04481682709 0.2185365025 -2.168404345e-19) 431
(0.01612039077 0.2198654585 2.981555974e-19) 438
(0.03873184746 0.2544839472 -1.084202172e-19) 481
(0.07550895053 0.2846579128 0) 525
(0.05058157752 0.2193646582 1.084202172e-19) 432
(0.02226472894 0.2571596016 0) 488
(0.07278986984 0.2097160136 0) 425
(0.02541956302 0.278455741 -5.421010862e-19) 519
(0.06430765571 0.2068805201 0) 414
(0.05031759656 0.2305214978 0) 452
(0.04821110424 0.2776401892 2.168404345e-19) 512
(0.05555521523 0.228872881 2.168404345e-19) 453
(0.02817212935 0.2382625504 -2.168404345e-19) 459
(0.06509095414 0.2599451567 1.084202172e-19) 494
(0.02564714067 0.2559672018 -2.168404345e-19) 479
(0.04811074812 0.2162348113 0) 432
(0.005712812008 0.2496534301 -2.168404345e-19) 476
(0.06969301957 0.2909594893 0) 535
(0.04677599722 0.2796020157 -6.776263578e-20) 522
(0.05454666193 0.2893205867 -7.623296525e-20) 533
(0.01896978579 0.2796130604 -4.607859233e-19) 518
(0.01693229185 0.2683035215 -4.33680869e-19) 498
(0.04769368173 0.2576162888 4.33680869e-19) 492
(0.05608808414 0.2468889167 -8.131516294e-20) 473
(0.03522755595 0.2786035068 0) 520
(0.02007808221 0.2851350729 6.505213035e-19) 518
(0.07266092847 0.2854258028 0) 525
(0.02323043515 0.2912948439 0) 529
(0.03907092578 0.1921899015 2.168404345e-19) 401
(0.02825495306 0.1869899966 1.084202172e-19) 389
(0.0402915557 0.1877219553 0) 391
(0.03348071234 0.2148837766 -3.794707604e-19) 430
(0.03728097929 0.1960137503 4.33680869e-19) 400
(0.06225680786 0.200545862 0) 404
(0.0718714865 0.2035009007 -2.168404345e-19) 415
(0.002348604795 0.2411536782 0) 466
(0.02040606534 0.1912147612 0) 398
(0.05271162013 0.2249957781 2.168404345e-19) 442
(0.06421343879 0.2113566612 -1.897353802e-19) 424
(0.069974218 0.1988751988 2.168404345e-19) 405
(0.05530826087 0.1950999933 1.355252716e-19) 403
(0.0005544766158 0.1722423241 8.131516294e-20) 366
(0.05124158933 0.1963891479 -2.168404345e-19) 402
(0.06715532778 0.2155521085 4.33680869e-19) 434
(0.06532805149 0.17238671 -2.168404345e-19) 364
(0.04895563935 0.2338990316 0) 452
(0.03377576635 0.1867973147 -4.675621869e-19) 390
(0.01543433005 0.2601568727 2.168404345e-19) 488
(0.02995269376 0.2541725183 0) 479
(0.03735141628 0.27718487 2.168404345e-19) 510
(0.05595523674 0.1939066139 0) 403
(0.07126082585 0.2309510004 1.084202172e-19) 455
(0.05566164495 0.219103904 1.084202172e-19) 433
(0.0528067008 0.2134264131 4.33680869e-19) 422
(0.02771934323 0.2743185337 -3.930232875e-19) 509
(0.05112051146 0.2436030722 -2.168404345e-19) 472
(0.04895451696 0.2007367187 5.421010862e-20) 412
(0.0630159235 0.2045176081 -4.743384505e-20) 414
(0.06103939244 0.2457752354 -2.168404345e-19) 474
(0.03987726771 0.2282971933 0) 451
(0.04640428849 0.2173412228 -2.507217524e-19) 432
(0.03706469862 0.1926747575 0) 400
(0.03480946576 0.2372671158 0) 460
(0.04788462143 0.2268607637 -3.252606517e-19) 442
(0.06634294269 0.240642381 1.084202172e-19) 464
(0.05525780856 0.2547100942 1.084202172e-19) 483
(0.07174365098 0.2181162376 -4.33680869e-19) 435
(0.04960480489 0.2659939294 4.33680869e-19) 502
(0.05251724667 0.2502871889 -2.168404345e-19) 482
(0.03851525762 0.2711002617 0) 511
(0.06991569133 0.2211752746 -2.168404345e-19) 435
(0.02441097144 0.2602120293 5.421010862e-20) 489
(0.04257548925 0.2722001619 6.505213035e-19) 511
(0.0216252657 0.2305656898 1.084202172e-18) 448
(-0.005439520827 0.2615096113 4.33680869e-19) 259
(0.04226297666 0.2835706139 1.626303259e-19) 521
(0.05758051273 0.2517514893 -6.505213035e-19) 483
(0.04796565891 0.276739514 2.710505431e-20) 512
(0.05489956644 0.2539066684 0) 483
(0.0490892218 0.2588298779 -5.421010862e-20) 492
(0.0440815015 0.2920600497 -6.505213035e-19) 531
(0.03628325201 0.2709108289 4.33680869e-19) 500
(0.0584623679 0.2101188809 -1.084202172e-19) 423
(0.06541496884 0.1926538069 4.878909776e-19) 394
(0.06653403177 0.2025241043 -2.168404345e-19) 414
(0.05758852758 0.172288283 -2.168404345e-19) 373
(0.06281716678 0.177059786 0) 374
(0.07464192865 0.2062768218 -2.168404345e-19) 415
(0.05859634464 0.2053086752 -1.084202172e-19) 413
(0.06711230665 0.1925987446 -2.168404345e-19) 394
(0.04825742731 0.2041699524 -5.421010862e-19) 412
(0.01595979067 0.2206904375 -1.084202172e-19) 438
(0.0512581919 0.2414462744 1.084202172e-19) 462
(0.03726791987 0.2465861858 0) 470
(0.04451904488 0.226921961 2.168404345e-19) 441
(0.04369204109 0.2350827729 -2.168404345e-19) 451
(0.06134964151 0.2022028448 -1.084202172e-19) 414
(0.06472682677 0.1852182032 4.33680869e-19) 384
(0.06291499593 0.2585484374 -2.168404345e-19) 494
(0.04121995043 0.1812011667 -1.626303259e-19) 381
(0.07330662201 0.247434441 -1.084202172e-19) 475
(0.03803320679 0.1864359952 3.252606517e-19) 390
(0.07498690885 0.2508529841 0) 475
(0.04348037516 0.2175309973 -1.084202172e-19) 431
(0.06547190114 0.1988433951 0) 404
(0.0526020771 0.2439544974 2.168404345e-19) 472
(0.03287973516 0.2152369459 -1.355252716e-19) 430
(0.03382268213 0.2038445431 -1.084202172e-19) 410
(0.04670556788 0.2235060748 -1.084202172e-19) 442
(0.04233597018 0.2882179702 1.084202172e-19) 531
(0.03877141213 0.2244332545 -1.084202172e-19) 441
(0.04223747475 0.2259590147 0) 441
(0.05195041497 0.2525311085 2.168404345e-19) 482
(0.06861883832 0.2115499026 -2.168404345e-19) 425
(0.03970594912 0.2540961486 2.168404345e-19) 481
(0.05710688437 0.2677640109 -4.98055373e-19) 503
(0.05713212496 0.2624566737 -5.421010862e-19) 493
(0.04054947624 0.2754083202 1.084202172e-19) 511
(0.02037643996 0.2914059929 0) 528
(0.05963719857 0.2631112136 2.168404345e-19) 493
(0.06487178396 0.2451541528 0) 474
(0.07201378006 0.2968771888 -1.660184577e-19) 545
(0.05816318828 0.2674815436 -5.421010862e-20) 503
(0.007466863671 0.2865220421 -2.168404345e-19) 526
(0.05661572411 0.2923521486 8.67361738e-19) 533
(0.03173371614 0.1895198979 -1.524659305e-19) 390
(0.05861278366 0.186244691 -1.084202172e-19) 383
(0.0426769689 0.1840106446 3.252606517e-19) 381
(0.05914445959 0.1849281439 -2.168404345e-19) 383
(0.02450251983 0.2057482508 2.168404345e-19) 419
(0.01487163777 0.1706188176 -6.505213035e-19) 367
(0.03316901368 0.1801717902 5.421010862e-20) 380
(0.04031444326 0.192585518 2.168404345e-19) 401
(0.0677105692 0.194434822 0) 404
(0.05537238718 0.1890166233 -4.33680869e-19) 393
(0.04136962497 0.233722357 4.33680869e-19) 451
(0.06680371564 0.2137410551 0) 424
(0.01563396283 0.2060812251 2.168404345e-19) 418
(0.04494187677 0.190820259 0) 391
(0.02772095241 0.2064734855 -6.505213035e-19) 419
(0.04591256346 0.210700432 0) 422
(0.05409671407 0.1681807234 5.421010862e-20) 363
(0.05898702218 0.2159016647 -2.168404345e-19) 433
(0.05047547167 0.2224125513 -4.33680869e-19) 442
(0.0539809047 0.2476125025 0) 473
(0.06395232872 0.2248741419 -5.421010862e-20) 444
(0.02636924255 0.215441511 -2.439454888e-19) 429
(0.04910079168 0.2423588036 -2.168404345e-19) 462
(0.02494556191 0.2052462875 0) 419
(0.03337115329 0.2222963113 0) 440
(0.009036195767 0.2281814606 0) 447
(0.07131724502 0.2012403899 2.168404345e-19) 405
(0.01106714415 0.2174717036 4.33680869e-19) 427
(0.05849113425 0.2351450911 1.084202172e-19) 453
(0.03536705952 0.2420158187 -4.33680869e-19) 470
(0.04612302372 0.2125915817 0) 422
(0.001010933368 0.2563643991 -1.897353802e-19) 486
(0.01757206985 0.2433320959 -3.523657061e-19) 468
(0.03807248304 0.2856904209 0) 530
(0.02816184667 0.2155241941 5.421010862e-20) 429
(0.05163672238 0.245439409 1.084202172e-19) 472
(0.03480943298 0.2125211287 5.421010862e-20) 420
(0.04001296033 0.2110264268 2.168404345e-19) 421
(0.04911021231 0.2459339919 0) 472
(-0.009932017884 0.2509815231 8.131516294e-20) 238
(0.03346468654 0.2023371901 5.421010862e-20) 410
(0.009922221645 0.1948934611 1.084202172e-19) 397
(0.02508724603 0.2950746233 -5.421010862e-20) 539
(0.04849175339 0.2674410422 -1.626303259e-19) 502
(0.06632882461 0.2502450053 6.505213035e-19) 474
(0.05337574693 0.2436086417 -5.421010862e-20) 473
(0.02733897064 0.2889315564 3.388131789e-20) 529
(0.02367947688 0.2451419854 2.57498016e-19) 469
(0.07300031407 0.2481319258 4.33680869e-19) 475
(0.05266250279 0.2689926005 2.168404345e-19) 502
(0.03838921276 0.271893414 -1.084202172e-19) 511
(0.04483161338 0.2372355108 1.084202172e-19) 461
(0.06082810336 0.2372937014 -4.33680869e-19) 463
(0.03707464898 0.2868713972 0) 530
(0.06771587252 0.2801029374 4.33680869e-19) 524
(0.03235679494 0.2564858488 2.168404345e-19) 490
(0.06579413409 0.2303279755 2.168404345e-19) 454
(0.03040719062 0.2956796919 3.794707604e-19) 539
(0.01648491915 0.2434533037 0) 468
(0.07287408043 0.2825544865 0) 525
(0.04587198252 0.282380353 2.710505431e-19) 522
(0.05875591968 0.1848699619 -3.252606517e-19) 383
(0.06611201847 0.2021055268 -2.168404345e-19) 414
(0.03551794991 0.1908325178 -3.252606517e-19) 390
(0.02779169252 0.1837633566 2.168404345e-19) 389
(0.04166896878 0.1873588442 -1.626303259e-19) 391
(0.0439029857 0.2128925265 2.168404345e-19) 421
(0.04559434203 0.1806028692 -2.710505431e-19) 381
(0.03022007268 0.2056861442 0) 419
(0.01947119622 0.2127178833 -2.168404345e-19) 428
(0.03956532119 0.1998001438 0) 411
(0.04434892479 0.2062008705 4.33680869e-19) 411
(0.05562014686 0.1819791043 1.084202172e-19) 383
(0.04615178193 0.1992025099 6.776263578e-19) 402
(0.01126672625 0.1748954172 -1.084202172e-19) 377
(0.05118748138 0.2097398069 5.421010862e-20) 422
(0.0479890013 0.2115179382 0) 422
(0.05753582949 0.1832395232 -1.355252716e-19) 383
(0.05125219416 0.2189144321 0) 432
(0.02138397477 0.2216598208 0) 438
(0.03543907751 0.2270334633 -2.168404345e-19) 440
(0.03882113061 0.1986847541 -2.168404345e-19) 411
(0.002231151903 0.2258793453 0) 446
(0.05719385481 0.1954926356 1.084202172e-19) 403
(0.06666993235 0.2526826668 2.168404345e-19) 484
(0.06289381193 0.2088593643 -2.168404345e-19) 424
(0.03863391011 0.2180277476 0) 431
(0.04904936273 0.1992539156 0) 402
(0.05267122987 0.2728767337 4.33680869e-19) 512
(0.03645690023 0.2321356775 0) 450
(0.07464191684 0.2890337473 -5.421010862e-20) 535
(-0.002327343336 0.2121640454 2.168404345e-19) 139
(0.04961692003 0.2419791026 8.809142651e-20) 462
(0.03847380129 0.2399791359 -2.168404345e-19) 461
(0.02841909227 0.2593145032 0) 489
(0.03202621399 0.2641147359 0) 500
(0.0551012059 0.2545526057 1.084202172e-19) 483
(0.0633411969 0.2556041937 -1.084202172e-19) 484
(0.02965117947 0.2837524602 -2.168404345e-19) 519
(0.0243257185 0.231394005 1.084202172e-19) 449
(0.05207294969 0.2301169297 0) 452
(0.05232518478 0.2808125168 -3.252606517e-19) 522
(0.04635366765 0.2384086033 0) 462
(0.03913108269 0.2633186978 3.252606517e-19) 491
(0.007499386991 0.2687119491 0) 496
(0.06163562374 0.2576283562 4.33680869e-19) 494
(0.06070564193 0.2648430921 -2.168404345e-19) 503
(0.04110333085 0.2449820927 1.084202172e-19) 471
(0.02789297456 0.2825254925 0) 519
(0.05030628039 0.2559670424 -5.421010862e-20) 482
(0.02024110727 0.260609814 1.084202172e-19) 488
(0.04551363732 0.2892655656 -4.33680869e-19) 531
(0.004088366271 0.2588208868 2.57498016e-19) 486
(0.04150018946 0.2906876258 0) 531
(0.0658864449 0.2698223139 0) 504
(0.0202952266 0.2691915865 -1.084202172e-19) 498
(0.01978342478 0.2673324422 -4.33680869e-19) 498
(0.06467140373 0.2723315862 -2.032879073e-19) 514
(0.04149934829 0.2742955879 1.626303259e-19) 511
(0.03535080642 0.2810567677 -1.626303259e-19) 520
(0.0549657845 0.2530372827 -3.252606517e-19) 483
(0.05077003236 0.1768427485 0) 372
(0.0305839087 0.1920926142 -4.33680869e-19) 400
(0.04609922949 0.186191096 2.168404345e-19) 392
(-0.010570042 0.170695146 2.168404345e-19) 18
(0.0173875882 0.2210027934 -1.626303259e-19) 438
(0.01675303326 0.1706031814 -2.168404345e-19) 368
(0.007868663914 0.2001196777 -2.168404345e-19) 407
(0.01852315382 0.1718095287 -4.33680869e-19) 368