/*--------------------------------*- C++ -*----------------------------------*\
| =========                 |                                                 |
| \\      /  F ield         | OpenFOAM: The Open Source CFD Toolbox           |
|  \\    /   O peration     | Version:  2406                                  |
|   \\  /    A nd           | Website:  www.openfoam.com                      |
|    \\/     M anipulation  |                                                 |
\*---------------------------------------------------------------------------*/
FoamFile
{
    version     2.0;
    format      ascii;
    arch        "LSB;label=32;scalar=64";
    class       vectorField;
    location    "0.011/lagrangian/dsmc";
    object      U;
}
// * * * * * * * * * * * * * * * * * * * * * * * * * * * * * * * * * * * * * //


5152
(
(1368.365321 91.69369512 45.58826441)
(1492.646606 412.9081518 99.18677687)
(1806.13959 329.9806977 319.3102351)
(1666.538739 -368.4218659 97.74547857)
(2108.036227 341.9405856 -107.3863862)
(1657.513873 347.9297701 264.2132756)
(1230.550744 -200.5546171 -372.5220268)
(1279.254332 58.17039579 -84.62883873)
(1261.33445 -35.59462144 -33.09697011)
(1713.828759 -110.2145792 -80.68344753)
(857.9919207 -453.6973914 290.9713609)
(1700.037398 -78.83089435 -50.48023158)
(1073.787965 328.361731 -244.8994509)
(1207.835766 207.1306507 93.29291988)
(1449.608638 -300.6865641 -232.4455579)
(1465.559945 -430.6808151 40.24789231)
(1665.303467 661.900628 53.30462585)
(1369.158442 468.486222 -230.6035112)
(1037.396514 -16.02071254 -370.5265433)
(1510.707758 -316.9504406 -511.9119628)
(1345.568087 -241.6378874 -130.1881142)
(1387.297524 -333.1549679 -392.7670796)
(1478.001107 -293.9195374 254.5262441)
(1688.783479 -418.5373324 414.3194631)
(2017.807899 147.5981 93.94397291)
(1814.520622 -204.1083351 -421.5160317)
(1509.73652 415.0283991 -222.4944495)
(1094.460946 -587.4917499 480.6911522)
(1546.843233 -462.0792366 158.5271034)
(1314.948179 119.2893965 32.36082836)
(1209.957942 17.27066537 39.74481076)
(1258.073708 -222.0269365 -26.47210049)
(1044.385954 79.49981018 -33.79341376)
(1577.913629 -85.63493468 399.8913773)
(1365.02538 -61.66802849 420.1149228)
(1855.319791 274.431201 -267.3896397)
(1860.550289 261.2358233 111.5857926)
(1478.323891 -40.15754012 -65.03104141)
(1674.195107 60.48423188 -47.40809756)
(1577.691664 54.80730079 -94.74844)
(1097.103932 310.9270978 -319.6660025)
(1370.470962 93.0486261 -183.6121181)
(928.5940285 -467.8733738 -191.4487512)
(1450.677043 379.0534643 53.99291172)
(2282.369474 -375.5387838 -318.140637)
(1371.623094 190.9888996 -187.0404377)
(1437.887686 88.11817524 683.0636634)
(1722.782509 251.4003734 294.2788571)
(910.130001 -261.7316592 -660.9101072)
(1535.880215 386.454424 24.78287158)
(2049.188907 329.29471 190.3380412)
(1506.593383 79.76343724 -16.33197376)
(1660.396208 -393.2998018 186.6588938)
(1674.158596 288.6009569 238.4126307)
(1583.82716 265.3438239 -232.997077)
(1279.07903 -10.62098816 47.79482243)
(1732.684146 -402.2898615 477.7743215)
(1136.791549 -377.6066742 -45.48749028)
(1708.675872 44.07098044 -29.31779448)
(1600.397559 -162.4588378 246.7234137)
(1767.341385 466.8323973 348.5258381)
(1356.652807 -563.1622949 27.8668956)
(1457.77588 -249.6336368 -148.049231)
(2055.218503 196.0428291 -224.452226)
(2173.67875 -229.5746937 -4.980420964)
(1377.273145 156.9453733 5.52462683)
(1511.004581 56.83579715 101.3097826)
(1788.272616 150.4641677 -4.754783103)
(1773.733658 -381.4546027 283.6275492)
(1503.220045 -423.8892523 -149.1641866)
(1648.751167 -111.8400131 -669.5330645)
(1589.51513 38.24081066 177.4557507)
(2013.356773 68.73581339 -357.4763984)
(1146.059598 586.2186014 -141.8100142)
(1428.499652 -114.4787832 298.3371584)
(1282.088366 -331.9948595 229.5328567)
(1394.330769 -14.09522576 -648.6991999)
(1768.752049 637.942537 -95.48437607)
(2184.55534 281.544478 96.55744514)
(1453.007062 -80.90811123 -395.5227308)
(1330.078399 -354.0135637 -39.72353055)
(1769.902989 -713.3735957 230.6608826)
(1245.201758 -564.7252971 108.5930494)
(1665.127163 -680.3619588 427.4852118)
(1172.976098 -409.7057194 -457.4485599)
(1357.741148 -176.3242935 -220.0877555)
(1686.74805 514.3978718 -155.2486705)
(1604.192304 -215.5113824 126.1995297)
(1281.306845 93.72885175 332.4647933)
(1767.856322 428.3821994 57.86422188)
(1572.725187 87.92920006 86.59899023)
(1666.554479 159.3541234 26.59443705)
(1876.646901 160.5444893 56.90744665)
(1595.273602 -178.112247 -59.21366259)
(1546.914842 -425.0862969 -184.0908111)
(1333.63982 557.491086 -16.21532059)
(1707.429438 -296.5411932 8.502607653)
(1331.002154 -78.36555262 -95.76786264)
(1630.362737 242.8956869 -139.1728164)
(1496.328313 -41.75680345 443.1036496)
(1568.309184 6.371292217 388.9665243)
(1410.654033 29.53912843 61.94821942)
(1745.08125 -223.9307686 79.25692486)
(1860.581136 -240.2522219 -699.623198)
(1755.410997 328.4462096 -0.2321445957)
(1826.055328 -5.173704113 349.4835363)
(1564.384193 -27.97107355 -58.10449847)
(1479.786672 232.302079 238.8808964)
(1560.608772 527.7551064 114.7224296)
(1751.855093 -175.6469279 -51.64356448)
(1439.393661 -20.36300942 -264.4521576)
(2089.265648 129.8618781 569.0091745)
(1503.406802 373.9658428 147.5711725)
(1368.464405 -22.70220243 -267.7036257)
(1749.597002 -609.1852989 67.54114174)
(1492.372941 -468.9244836 264.6301133)
(1817.838363 -157.7048319 -57.58203135)
(1887.427136 21.42202729 -419.194254)
(1654.726006 -26.23089371 -84.84017096)
(1465.617156 281.7163431 22.93668814)
(1354.528474 571.6604631 609.4879896)
(1835.776067 -5.768045676 -387.9915456)
(1509.286744 -80.54288077 30.35629762)
(1107.844087 -180.4067413 45.75311843)
(1555.780081 -106.0760857 90.48654917)
(1140.238229 67.88418867 -15.89204726)
(1284.194971 227.8602123 152.5319552)
(1407.266807 126.1665104 -36.81151032)
(877.7835563 8.356844445 -85.48718882)
(1323.138575 -413.1798149 43.1174563)
(1482.727709 -359.0069697 -10.16641161)
(1395.217112 -464.9693229 -468.8605402)
(1614.949756 -11.60969359 -8.85402388)
(1358.029172 349.7076114 -249.8624794)
(1333.108684 -125.9431289 -385.131299)
(2071.006358 -649.0655238 89.52780487)
(1957.485565 5.537648614 87.2900822)
(1433.166549 31.05634881 -363.3756727)
(1482.048137 -518.5032294 -254.4194172)
(1527.673388 200.8963259 581.8071968)
(1598.42339 265.608535 -206.5540975)
(1761.731406 -315.7554603 -200.5364672)
(1855.831447 -379.9091475 39.21283653)
(1357.924946 -16.78506187 -161.1309334)
(913.6134444 -327.2754201 -93.79818058)
(1528.169009 112.8310183 -262.3481098)
(1424.85107 -439.1007523 -523.5080429)
(1299.591187 -28.65217648 -12.15599424)
(1738.337762 79.69085934 326.4105513)
(1232.779878 358.0510537 807.0810526)
(1581.04694 513.4376233 -139.3508651)
(1640.395843 285.985382 -443.2891966)
(1055.120455 -117.1691723 -293.8590841)
(1618.000496 80.61464441 -227.3552395)
(1855.733772 -146.0940574 -281.4914619)
(2104.53242 -780.0047718 -488.9594336)
(1029.134411 593.0579693 -230.709926)
(1694.606605 161.8989338 2.362593561)
(1679.075039 -111.7763637 46.12927865)
(1420.290299 57.93325633 427.5803346)
(1317.528789 257.1049789 -314.9656608)
(1361.65031 247.5057937 45.11208235)
(1555.625374 15.69085334 -386.0687294)
(1229.393837 103.4548877 270.3189729)
(1858.868171 -364.5007888 -269.6591897)
(1391.701195 232.0209264 11.83999678)
(1356.717583 -289.4374285 -373.1800133)
(1828.518815 -145.6096008 53.06538867)
(1296.873726 -312.5566802 141.9329199)
(1409.16846 -216.3834922 -117.6315129)
(1066.608737 -404.3229001 -1.385218133)
(1747.371707 -112.7519533 -553.3479965)
(1196.724641 -28.34009941 -89.98440167)
(1811.403152 197.3141841 -221.4055926)
(1405.756872 247.1324891 134.3398036)
(1439.023735 -23.75878206 -233.9164247)
(1497.22866 587.9822584 -524.0440171)
(1608.026636 -117.5515074 200.7211424)
(1414.611157 45.64483791 128.5926923)
(1445.498265 245.2782809 -51.03342663)
(1747.574134 -99.48247583 24.52261125)
(1615.919419 -380.1743832 -345.7794813)
(1461.52454 348.7698902 292.3104244)
(1309.095806 -158.9121349 253.5919449)
(1562.311315 -624.6717737 181.2163871)
(2221.935587 97.96667736 -189.138113)
(1957.333997 -156.8023284 41.66539757)
(1061.090405 154.3777618 -181.6704263)
(1284.780131 -426.3813635 215.4278972)
(1412.363985 0.4133047092 227.4815754)
(1219.201145 50.9643197 91.58445248)
(1730.374165 340.2322022 -228.552706)
(2043.249636 251.0414944 237.5792765)
(1486.59478 -191.5944613 -255.4581417)
(1828.27744 652.1036858 -49.68419463)
(1475.38076 -518.6649772 -444.2196662)
(1895.329342 129.5597598 214.7549516)
(1741.302313 -342.7940209 259.826523)
(1848.146734 60.49814955 79.91489549)
(2274.984122 269.0925035 -262.6541699)
(1396.255816 46.90688857 -77.49911842)
(1642.528948 118.3890825 149.8739415)
(1283.601045 -85.3377403 199.1778771)
(1469.341584 240.1668075 93.77063641)
(1644.895102 256.7052839 -0.4223536347)
(2010.949842 -122.3025561 -48.71893291)
(1466.844096 61.8550946 207.4921504)
(1735.8522 -219.5610886 -324.4206717)
(1235.128332 -122.630142 -64.42210628)
(1712.557739 -325.1501259 -605.3492488)
(1834.561722 351.267663 -125.742592)
(1645.128266 584.4524957 343.3679988)
(1204.664068 -272.671955 -54.51294562)
(1780.134058 22.08727851 -241.9450241)
(1822.633402 -406.2216456 -37.60148111)
(1912.343684 358.3414382 57.35465745)
(1675.222705 -97.86426422 -227.7307598)
(1239.674844 92.77972155 -171.8880766)
(1755.091993 90.38060494 280.7946677)
(1676.419401 209.5084608 -156.067952)
(1258.769738 -77.67526239 -81.10330772)
(1129.555317 148.4867562 -520.3178328)
(1502.962438 -226.6933065 -152.7354335)
(1440.430913 466.2209275 -53.11837426)
(1694.964027 -168.1293797 -269.9875813)
(1825.133148 1.928472839 -26.84065672)
(1512.793866 476.1518952 -151.8735009)
(1984.661314 40.42176283 -161.4376906)
(955.0075598 207.5017841 34.68442415)
(1813.215007 529.7920225 -6.13869789)
(1463.568992 186.490295 42.82198715)
(1763.990826 -202.6915385 -285.9010754)
(961.0693477 85.24539899 -21.53907093)
(1372.44715 -22.5087819 -62.17536757)
(1547.871216 246.4455854 167.1129289)
(1485.843321 -140.7130798 298.6352429)
(1543.573277 202.9424534 142.5313381)
(1951.020649 280.2804661 294.3515266)
(1748.794422 -335.7924923 -102.5622919)
(1847.842482 148.9477987 169.4240876)
(1287.548292 127.3734215 -409.031794)
(1723.598658 -28.37994568 -95.46571194)
(1781.901821 -17.87802322 330.1333935)
(1817.789628 -98.20653154 -294.6610181)
(1523.912203 -431.1152393 -122.8386678)
(1486.505488 -45.05173923 76.37845536)
(1241.370514 10.90826574 -199.7063581)
(1478.200705 459.1735493 158.8359779)
(1956.7969 4.415561913 -49.34464412)
(1626.998416 0.8307914642 249.5552705)
(2441.224275 187.1976845 -482.7832031)
(1519.156016 -257.9594148 -214.4474274)
(1670.736745 157.8770022 415.1500509)
(1423.990723 531.2632635 -129.787744)
(1768.278968 -179.2220032 75.09552633)
(1840.198433 -84.61186824 -115.1152756)
(1670.30761 165.0099838 -292.239363)
(1423.56294 173.1818969 -114.620449)
(1656.626618 122.1267728 -527.7978034)
(1707.466669 399.0541989 19.89763692)
(1466.805046 14.29028397 324.1404438)
(1866.889464 63.11002629 246.0781178)
(1603.384263 -87.08260421 20.17411809)
(1641.438203 -513.9269098 286.7080488)
(1560.299692 301.3583616 -251.1784327)
(1544.112744 -388.4248931 241.9318711)
(1783.498732 217.6990806 -365.7958475)
(1800.989381 340.5894489 -7.525948186)
(1617.644514 24.66257674 -364.0924336)
(2041.316724 41.61208273 -508.725857)
(1765.218334 357.1893929 -160.5569341)
(1957.774956 110.2247863 -205.9797863)
(1495.905908 -47.10594681 -9.160503016)
(1284.07498 -12.00771836 372.789502)
(1854.375677 -226.3790327 484.3902966)
(1763.837046 -93.65041176 446.0414369)
(1860.287862 276.246268 544.0417193)
(1637.016305 -443.7092209 -182.059837)
(1335.221841 133.1314546 76.15141279)
(1391.103995 -289.7134512 -61.53940005)
(1716.774199 -121.7295864 -219.6824632)
(1732.086619 -40.42046428 288.1162872)
(1781.398689 149.263223 -305.2846439)
(1756.365261 -96.87213906 303.12712)
(1975.207772 -284.7265247 -57.61758895)
(1637.587435 332.1254553 -198.3418267)
(1766.181522 255.8939327 201.8346058)
(1604.76165 99.58399867 -678.378047)
(1553.813613 239.5679234 -39.81227395)
(1201.298373 -121.0031365 31.38847182)
(1998.157012 -14.2425509 360.2052883)
(1680.091419 -433.9319827 12.79019143)
(1009.876636 389.5695054 2.249095703)
(1288.359587 36.44700454 22.78518357)
(1167.105331 -219.087746 -159.1192203)
(1216.727839 -123.9781482 330.5962901)
(1411.105621 205.6832423 -684.6135576)
(2205.110002 -52.0548691 234.0089113)
(1686.510749 -240.1865955 -478.4027055)
(1590.275017 306.7665891 119.1320201)
(1518.630175 -141.687003 394.6051353)
(1866.090025 -20.00895734 -321.675079)
(1506.617335 68.94841545 -380.8579801)
(1514.419053 -290.2577127 -233.8861824)
(1590.240255 59.21062618 -151.5860619)
(2154.877894 -87.28330107 110.9954862)
(1740.60718 97.7345016 475.6159446)
(1425.603363 -167.967212 248.9835126)
(2245.435174 -333.6863538 -159.7149886)
(1886.377583 472.4353528 -2.378337481)
(1671.074487 529.276999 234.9801856)
(1645.221612 -38.53547984 -125.7382928)
(1890.948755 232.8895479 29.65681939)
(1251.467256 -342.5739346 -299.9178428)
(1549.74647 171.1239096 387.5085801)
(1765.100611 -473.8535084 406.3203113)
(1558.171186 -117.9860808 -594.1665591)
(1434.806044 25.02955387 103.4656697)
(1700.747519 -462.9046834 -788.2102584)
(1156.839748 -695.9260471 384.6762839)
(1701.235676 427.9481814 187.3849554)
(1360.597365 -180.6105649 161.9454367)
(1527.825984 355.0680094 276.8030889)
(1763.233748 578.6199634 -83.49576567)
(1145.1836 80.3588258 -172.4124571)
(1683.399612 -42.25610669 -101.7127376)
(1080.497061 177.9933285 5.367417147)
(1635.173928 172.2550465 -131.7749848)
(1603.07091 -292.3575543 -165.8474708)
(1359.823097 -335.7675248 45.37212578)
(1371.430032 -572.7122887 50.00937529)
(1500.794375 120.1500636 143.6644157)
(1540.679759 -148.5054463 -293.5471458)
(1922.270206 -435.4281235 511.6180237)
(1804.8599 64.26988622 296.6295287)
(1587.744378 550.9851789 -135.1657633)
(1844.798867 -161.1159836 129.0393361)
(1642.792281 -2.0961597 93.04884569)
(2104.980954 -228.4387933 -198.6809498)
(1358.451124 -218.4966048 572.9913453)
(1339.482982 -44.56302797 -724.1639451)
(2033.066994 -419.4875327 52.40301572)
(1881.800451 -78.57148629 -130.4948009)
(1385.726818 -174.2397829 -502.6092611)
(1897.703702 -143.5603729 -397.8551487)
(1453.481904 -141.4218029 -336.0563072)
(1530.904997 -125.2743247 450.0668156)
(1813.170683 572.1467554 -16.06767721)
(2093.994462 -509.9529489 -347.5294524)
(2091.163767 488.3540266 -144.9934341)
(1650.129298 -368.9706472 -714.7837101)
(1570.741519 -445.0771736 -53.63850658)
(1307.268821 469.5247158 -106.5740139)
(1395.59023 213.6994361 295.3203551)
(1760.145592 -94.05164557 -69.71676662)
(1841.010847 -181.4512521 -378.9661436)
(1557.29872 -660.4752528 -282.3550267)
(1541.43544 -180.4902963 -153.3746776)
(1869.622356 209.1947104 139.6787976)
(1304.220558 192.4600381 325.7627427)
(1762.810642 -379.1297689 237.0664502)
(2199.562543 477.1046965 -559.116231)
(1889.084512 393.030025 245.8565645)
(1949.02615 309.0642431 -137.5017464)
(1791.092151 201.6018281 32.05473131)
(1794.95152 22.53368019 519.4603366)
(2046.351984 359.1826535 -302.2294804)
(1178.319728 640.0461562 588.1782569)
(1297.429281 186.8035569 114.3394838)
(1904.943078 -174.7066147 66.42629896)
(1292.167485 -135.817753 -276.8900709)
(1784.570955 0.08349276346 -72.63784817)
(1352.163259 193.3038107 185.4534741)
(1642.447628 547.2852546 -230.1404002)
(1461.002075 476.0377851 -401.2860046)
(1858.160221 -118.0470839 -457.7562576)
(1870.21834 400.4617892 -19.34690758)
(2095.676643 316.2168471 136.8042659)
(2033.793823 -37.60803854 291.2869556)
(1695.256463 69.49317891 113.818509)
(1573.967589 -49.0739604 107.5423663)
(1516.493142 -149.9394091 -10.97259981)
(2026.345528 279.9975566 385.6395409)
(1808.404778 -58.56655449 -200.5080433)
(1694.391279 57.00392652 -236.3183768)
(1325.616462 288.1097962 -626.6384254)
(1383.497053 149.5207683 7.119682418)
(1309.407341 -38.56292109 421.3782036)
(1151.460944 296.6666767 -157.8132866)
(1888.180682 -141.5326718 415.9445315)
(1882.315865 -22.6707725 246.8495989)
(1860.920187 -85.80470245 68.9753811)
(1493.119793 -454.466123 393.1196635)
(1620.121038 -55.06611385 237.9217157)
(2127.67598 -38.83649226 -408.36948)
(1641.001647 -595.8988584 -162.5417477)
(1716.907574 -159.5727362 280.2492802)
(1638.770542 111.5044729 159.5581169)
(1879.459414 -78.11028291 335.2105038)
(1691.467561 -16.92023756 0.7354394862)
(1649.619658 403.8037867 598.394191)
(1633.769953 258.3745036 49.14547301)
(1675.426033 -101.7728657 317.2075329)
(1643.690003 -502.1205323 -447.2443448)
(1705.781383 239.8766869 -65.85954689)
(1794.812803 -59.1415173 56.95603591)
(1290.004618 37.41758388 -356.2954335)
(1782.144167 80.44119037 -483.1142295)
(1675.917339 81.6003884 -45.36644364)
(1728.237995 -115.4280307 260.1011047)
(1128.923107 49.32319273 340.8372327)
(1563.626512 -449.4466947 -688.1922066)
(1678.352506 -19.14619603 -113.5217387)
(2418.608766 -162.2686146 -194.4587274)
(1595.900303 14.48884652 145.1138909)
(2021.022958 59.23355565 294.564283)
(1000.190666 734.9716512 237.6951583)
(1428.991498 58.60058609 -414.3296305)
(1329.927888 384.7482212 -224.8253649)
(1686.682337 416.1495016 -58.91967047)
(1806.416651 -377.4533945 -18.21626845)
(1438.671223 -326.5439281 -168.844122)
(1260.8092 -232.5319828 -66.77093972)
(1690.171105 -108.0309972 -616.2448332)
(1418.260478 387.0306559 -208.2078552)
(1581.563336 -485.8677693 55.99984503)
(1106.331601 44.32657152 116.0327958)
(1396.702761 -274.8477656 -262.5505596)
(1361.29648 472.5915876 546.4186182)
(1302.783739 387.5162323 -134.8601026)
(1522.205875 528.935383 243.296215)
(1813.749451 75.98378063 308.7801693)
(1926.769527 58.57783642 -90.40334715)
(1450.737208 -586.4496467 411.4542962)
(1549.542098 -124.8324647 43.32208332)
(1635.943254 554.4306921 -676.0016358)
(2081.163482 -212.3622188 457.0958241)
(1498.449513 -164.0961978 -741.6225869)
(1804.673107 -188.6539673 484.3204654)
(1660.620451 81.50816207 207.7659766)
(1538.152851 240.0929435 487.9976451)
(1660.001625 334.5239618 83.96600925)
(2149.798159 -53.19965303 -177.9019969)
(2415.553882 326.3834182 -35.00170963)
(1252.174946 -592.7202366 2.46193652)
(1773.82252 28.24635568 -72.64415162)
(2059.525619 64.24963477 135.4580698)
(2060.806061 -231.9653045 23.06228882)
(1359.498817 13.42131466 149.9895365)
(1583.467521 262.3353766 -593.5418649)
(1804.470869 -370.5387242 -692.9957531)
(1722.313208 394.7371525 -268.7854828)
(1737.690318 9.177236417 -574.5989955)
(1592.161731 152.6920213 -521.1226466)
(1340.79423 -927.3542143 73.06020249)
(1218.059421 92.66036945 -62.64671319)
(2065.401768 -300.305992 -204.9466185)
(1682.017659 152.9431233 55.69941656)
(1995.846123 -113.1279467 -117.4334482)
(1839.942056 151.8029222 8.626205892)
(1681.753872 -478.8924789 251.2401606)
(1707.197516 47.03838656 -25.16630652)
(2070.148123 -173.5874419 305.9856169)
(1531.998236 452.2718565 462.8306663)
(2100.372422 -217.790754 -150.9910358)
(2154.026706 276.5558067 114.5654081)
(1779.733285 -82.92032682 377.5934368)
(1806.12881 118.6572108 -415.477429)
(1947.526805 55.68396376 -22.6291774)
(1611.341783 126.0116408 -81.96458996)
(2005.702155 341.1131996 -55.68488987)
(1860.732514 82.97153571 287.3077904)
(1370.335454 -178.4107044 -410.6923603)
(1921.668229 85.37950093 -318.0223582)
(1640.734566 525.7880119 -114.2135097)
(1827.791636 7.651550341 265.1895898)
(1563.87596 -450.6714491 101.003247)
(1580.08076 237.4292673 84.70381099)
(2111.876301 -648.8381395 -315.8511876)
(1708.320913 388.7501462 -94.23294806)
(1829.767805 -256.4903428 148.9002166)
(1692.251404 -425.3887918 -596.0711938)
(1170.102787 -533.2277414 -10.44093732)
(2078.39699 461.5059467 -389.9229974)
(1571.443143 45.91861881 -303.613805)
(1606.51831 -52.64834005 360.0166022)
(1527.282717 122.1568668 117.1726512)
(1509.911959 -243.3269982 -85.78706951)
(2058.743419 274.4858515 -110.7002393)
(1791.561 181.1002674 -445.5553989)
(1887.247303 505.2775086 169.744856)
(1768.902307 -233.7220178 129.7003236)
(1584.308369 -263.7565052 -206.5825419)
(1310.140243 298.0753389 840.4611867)
(1355.277628 -604.9438198 -152.518208)
(1173.897463 38.41473248 -177.5735452)
(1685.480202 363.694797 31.64719557)
(1960.28966 33.94056323 250.0703991)
(1307.472804 7.564711177 58.81067304)
(1873.648207 69.10230792 -377.9627682)
(2152.281548 -90.33292326 363.3334926)
(1633.900358 83.02270575 -50.79810362)
(2380.376778 142.4849917 -89.25652045)
(1511.232296 -63.32738574 65.73338233)
(1706.996138 -160.0119297 155.2273212)
(1979.836699 -209.1968132 366.1035726)
(1414.827571 -58.23553219 19.64399477)
(1537.587183 400.3295761 193.6756154)
(1692.869602 -129.4961418 179.1059072)
(1802.762816 -97.71833883 20.07720395)
(1951.440812 95.11716722 54.59655095)
(1088.776844 -414.3689974 -240.8418124)
(1686.634995 0.213399326 -11.30264914)
(2056.732244 11.35011516 115.7654383)
(1899.642911 17.39803101 180.0458903)
(1681.087884 -43.68695614 -287.1655717)
(1668.553506 408.1943628 148.5997962)
(2374.208995 256.9150327 223.2221388)
(1935.651379 23.04332147 113.6966284)
(1639.865687 -59.35161756 -2.41766753)
(1391.333931 81.61864687 -97.95856833)
(1644.536098 111.4774507 696.9898623)
(1018.078938 233.7050333 -815.1724599)
(1803.79273 -84.62581655 20.23619469)
(2120.163872 -103.0531339 -100.1318345)
(1969.858861 439.404205 -471.3546727)
(1851.429641 -64.54112981 -173.3506441)
(1790.203104 242.7506981 536.6863446)
(1737.983529 -8.868931711 511.1246464)
(1442.619661 168.4930606 466.2727981)
(1507.886859 0.1653957591 -337.5755874)
(1612.030968 541.50351 355.438196)
(1770.241185 -131.6560944 -157.9256815)
(1214.826078 -23.84413266 -345.0378396)
(1794.40641 200.6437233 500.785048)
(1695.470295 94.1829274 -270.4650418)
(1298.825419 -50.96133336 -570.2808233)
(1483.35178 -14.84223812 637.0734422)
(1279.862717 -403.5270581 -115.0670939)
(1794.882992 542.9616103 259.4850049)
(1535.448953 -165.2926684 251.611454)
(1701.331899 283.5182218 128.8390691)
(1765.339666 -141.2135856 -137.0331223)
(1602.661485 -43.30365369 558.1206842)
(1751.156132 -185.331664 -39.63769517)
(1137.29247 329.043218 -178.7388757)
(1067.71867 -96.64650383 188.6274423)
(1370.468454 -579.9921208 107.6179946)
(1230.527364 433.6718438 -346.2752529)
(1514.089644 99.45693525 151.7916229)
(1811.276093 -6.836365603 36.94785946)
(1572.772166 244.7676758 -363.5416711)
(1368.399309 184.0326527 -107.0886125)
(2014.62129 -8.992431064 -122.9591726)
(1914.269719 -271.6928764 -27.29146303)
(1619.722209 276.3239267 478.3171324)
(1594.491535 -186.7311926 284.7772144)
(1650.703291 -336.4958672 -482.1642256)
(1373.884092 -149.5882738 -631.6884161)
(1316.171988 -190.8160702 -301.005485)
(2009.196953 -261.5436729 23.20446423)
(1459.965263 -197.4968256 315.0172732)
(1743.566277 -137.2789868 -33.8119357)
(1422.597839 345.8195828 -133.8659081)
(1759.083786 -202.0423069 274.8950934)
(1491.872066 337.0773109 97.27955405)
(1559.730608 -42.46970878 -193.9636014)
(1262.551928 224.2278823 96.29802446)
(1834.30594 -204.0099196 -119.0136416)
(1624.542982 276.0369242 -119.1027853)
(2163.580689 -270.1689549 -204.1009422)
(1846.889797 694.6457637 -36.41627681)
(1208.297778 38.56613213 235.3209229)
(1862.517218 -141.0720248 184.0743015)
(1624.117114 83.10353625 -50.75197626)
(1550.896346 228.6420633 -276.4160454)
(2079.032085 204.8553853 -378.6232035)
(998.5887843 -49.82201003 -352.3068829)
(1726.403497 -136.4457958 -163.8902728)
(1716.842106 -134.4345897 -199.5413276)
(1103.797583 -387.8412673 290.929276)
(1828.898205 -184.4884837 -440.9515283)
(1521.657057 -32.60332641 14.35636958)
(1238.178473 -183.1755906 201.1418978)
(1981.633766 -219.0163935 -164.7845746)
(1625.841629 165.5915591 -55.83706602)
(1730.715367 14.49217195 -171.358712)
(1533.605408 201.1225937 387.6204021)
(1535.27931 369.2401615 270.4629933)
(1702.202115 -98.98004239 547.8480002)
(1969.662252 21.66284482 -439.1580033)
(1899.892432 -185.2841939 33.15535263)
(1529.018006 -20.16835286 418.3550583)
(1538.01801 -21.59198092 234.7220482)
(2631.173226 90.68362518 270.152)
(1642.419441 428.5717977 271.3352217)
(1991.7712 445.5769865 304.0101144)
(1419.914562 -817.889215 523.4577858)
(2001.388838 596.2315467 11.06848191)
(1553.300741 -121.6790566 -95.58676665)
(1580.191421 93.36632787 250.2878034)
(1624.156441 -594.1702032 381.2253591)
(1734.437531 -152.8119907 383.6323456)
(1712.770417 296.6859724 -46.85939822)
(1680.525437 282.3189337 375.4334905)
(2181.44655 -448.9935031 -320.3742017)
(1714.160007 -323.8097435 602.0126597)
(1480.294353 494.4320837 -185.3197128)
(1789.459538 -179.7881522 105.4936075)
(1567.695791 -195.0673687 -458.6080618)
(1976.409265 -200.3963134 -494.4256737)
(1778.11326 -311.3670568 -160.2133084)
(1772.966123 282.369559 -192.823882)
(1861.688161 -9.630418978 -98.02101745)
(1690.44595 159.2334942 161.6537781)
(1778.300705 -151.3116394 -120.2323205)
(2037.34626 -247.6486593 537.3163278)
(1664.509939 217.019139 99.1267047)
(1246.421542 477.3723049 228.0223379)
(1852.793792 322.451345 -202.6808659)
(1821.445746 -208.4348543 116.5957783)
(1492.37792 80.26838694 119.4864793)
(1429.201808 -149.9267736 -66.30786143)
(1767.924248 -212.6350227 -227.929017)
(1398.328092 -135.8065071 -213.1810454)
(1856.08354 -165.1115074 234.9871222)
(1638.041368 5.290400254 180.2896817)
(1862.322351 -422.2345533 -14.97827992)
(1559.821064 242.1655432 183.762823)
(1500.714422 425.8366146 221.5442947)
(920.9391222 28.73031453 96.80835116)
(1558.191763 389.3287817 -322.4757067)
(1234.238551 26.24121148 -146.4485335)
(1744.827742 -29.28195485 -559.5628392)
(1463.191309 288.1043879 -283.5589593)
(1906.288899 215.5152149 156.3861113)
(1806.800081 19.70561247 362.2781547)
(1827.51743 -70.89040944 -187.8984855)
(1138.946572 317.9974629 393.62001)
(1705.938354 353.4496104 -179.339738)
(1555.297067 -352.0367623 -139.2086723)
(1563.672515 413.5112335 228.2236428)
(1391.039714 -52.50119197 -9.094270624)
(1940.55065 15.00023991 228.9615928)
(1345.780175 204.4597251 -181.7671116)
(1764.524224 504.2972228 111.0826498)
(1498.976946 -214.3955 222.3271987)
(1696.74475 -140.4449247 -145.598776)
(1487.099387 290.2673947 264.0930729)
(1871.056131 -191.2515039 -398.1357694)
(1987.49175 -211.4783387 -109.291964)
(1495.182637 -121.0958166 250.9883678)
(1890.346032 -430.1912304 -178.2993403)
(1471.286188 -196.3358841 -43.94987704)
(2203.048822 -422.4240431 -159.7855202)
(1733.08198 -216.5181775 336.0201494)
(1695.32521 -141.6912123 346.1073027)
(1900.222107 471.5444989 -388.0659911)
(2043.033125 295.5556441 9.546044085)
(1776.015548 360.6054417 -323.8498829)
(2020.384052 -144.4903819 640.6027711)
(1706.110577 -269.9419999 177.5252721)
(1814.544124 -92.85294323 26.210896)
(2129.823852 105.9391258 -130.0560083)
(1469.801814 522.157973 -66.9747697)
(1929.18507 -83.30282628 489.8268737)
(1847.175117 -221.0322582 -68.32782535)
(1597.107392 104.0726762 374.9414257)
(1620.524994 -612.2363216 156.9680285)
(1885.903102 -20.3473839 -17.88531749)
(2072.388775 -154.2303086 179.1779066)
(1726.788521 -104.1182291 -281.2040936)
(2099.152112 -256.6810011 263.3826115)
(1656.017853 -295.7510993 142.0291611)
(1369.213657 -324.2771825 -150.0351605)
(1364.371095 173.1118622 96.93368658)
(1660.71135 159.9060697 -125.7820021)
(1424.438187 637.6650705 -31.16274933)
(1919.248633 -11.73183361 154.0029221)
(1354.592757 -125.1643472 -106.9818685)
(1769.033052 -54.7793585 322.8925917)
(2144.949152 -452.8087437 -111.7554747)
(1564.307576 -210.3638057 572.4365787)
(1823.44587 335.0890545 345.6484595)
(1012.586714 -60.01512209 238.0535738)
(1305.284298 138.6076996 278.4743455)
(1551.713778 -9.100637482 173.0204187)
(1722.81092 235.9695884 425.3899134)
(2150.270329 105.6379773 450.3577075)
(1472.931031 -317.0753005 91.0254742)
(1650.416323 230.3860467 -168.7388359)
(1408.14761 122.4645702 670.7767224)
(1885.071104 59.831328 10.98830886)
(1683.06705 687.3794306 300.1867138)
(1521.430594 -14.10712169 206.2301486)
(1722.151899 126.5826699 -225.1775117)
(1988.992275 -291.38516 307.1477388)
(2013.004667 316.6735986 89.25104707)
(1970.626591 -117.0257092 15.18557723)
(1874.911614 -284.4546776 -157.807959)
(1807.66117 -37.30936333 34.92985445)
(1591.378804 -602.2081863 -561.2262308)
(1560.859306 -115.1693536 -581.8320908)
(1501.977667 -435.245861 133.4693489)
(1845.968443 -386.0348388 327.0658999)
(1182.140557 -78.77306202 -297.2186642)
(1618.990381 -121.4983445 -143.8017971)
(1610.627745 -313.4871003 -706.6605141)
(1737.930165 -320.8454414 243.277651)
(1416.987678 -258.8458936 178.4765271)
(1740.852444 103.7151311 -171.500417)
(1432.297086 10.26655466 -300.6087579)
(1400.071817 221.2912599 27.73417758)
(1658.547321 58.98789786 57.45124836)
(1868.924236 -103.8182246 93.78611872)
(1717.854853 85.61198453 -49.91058732)
(1546.725357 426.4105301 250.129184)
(1353.295343 -239.6847849 -270.775421)
(1505.963163 109.3430144 -462.1210231)
(1544.41399 -101.3843641 -312.7232833)
(1916.586926 -133.9479185 387.9097867)
(1828.146601 149.0282194 664.9609706)
(1367.571264 374.3948429 392.5985067)
(1831.56703 -156.0471266 -143.2166264)
(1248.147956 35.3758421 -37.18345363)
(1643.381119 305.7555232 -398.0711748)
(1881.571269 -173.763038 360.2632883)
(1738.826507 -793.4174408 356.4590446)
(2009.035251 11.70697736 358.3451275)
(1644.812963 39.69524408 -265.0927945)
(1682.021035 480.9888901 -629.0742096)
(1827.043611 443.7320997 -146.7558091)
(1779.22517 151.1310916 146.013477)
(1694.378225 -403.9383234 365.1348032)
(1883.359327 -129.3659314 263.5847709)
(1792.18185 204.4072939 166.8191655)
(1837.256091 7.392837335 3.240746806)
(1735.478147 95.65950251 -12.25569327)
(1515.826955 229.746241 -220.7625679)
(1312.932979 159.5748925 -368.3660811)
(1425.5136 358.6793313 -329.0391108)
(2001.31284 59.9348763 -104.560886)
(1609.387597 130.4490913 251.5237534)
(1824.309733 159.2765952 119.4153403)
(1974.825157 -458.4164074 -228.2735104)
(2110.584372 -63.69103671 49.83216205)
(2059.104381 323.0137085 188.6425199)
(1320.044721 -173.2439524 423.4546225)
(1923.923474 -67.59173746 93.42993898)
(1844.130973 -304.6358595 467.2902305)
(2131.155636 218.5456042 633.5027388)
(2114.427702 -18.39499052 -522.7534081)
(2282.809933 129.5326666 130.7607908)
(1753.165125 60.58289669 -315.1376023)