/*--------------------------------*- C++ -*----------------------------------*\
| =========                 |                                                 |
| \\      /  F ield         | OpenFOAM: The Open Source CFD Toolbox           |
|  \\    /   O peration     | Version:  2406                                  |
|   \\  /    A nd           | Website:  www.openfoam.com                      |
|    \\/     M anipulation  |                                                 |
\*---------------------------------------------------------------------------*/
FoamFile
{
    version     2.0;
    format      ascii;
    arch        "LSB;label=32;scalar=64";
    class       Cloud<dsmcParcel>;
    location    "0.008/lagrangian/dsmc";
    object      coordinates;
}
// * * * * * * * * * * * * * * * * * * * * * * * * * * * * * * * * * * * * * //

6908
(
(0.3390284922 0.3304857539 0.06079181574 0.2696939382) 458 895 2
(0.5646217089 0.02844682053 0.2176891455 0.189242325) 448 874 1
(0.6204081027 0.1897959487 0.1539012435 0.03589470512) 519 2623 2
(0.6368026248 0.1815986876 0.09105468864 0.09054399896) 469 2618 2
(0.6639861157 0.1680069421 0.0497198007 0.1182871414) 567 1084 1
(0.1399112411 0.2219925281 0.4300443795 0.2080518514) 449 876 1
(0.6013688282 0.1570692919 0.1993155859 0.04224629397) 457 891 1
(0.2250486356 0.07743153362 0.3874756822 0.3100441486) 446 870 1
(0.1824640404 0.162016528 0.2467514518 0.4087679798) 449 1307 1
(0.04156001455 0.1086052033 0.4792199927 0.3706147895) 448 877 2
(0.1694139688 0.4152930156 6.151393217e-05 0.4152315017) 478 915 1
(0.3221257226 0.2643978273 0.07453931135 0.3389371387) 458 895 1
(0.06243221386 0.2573898946 0.2113939985 0.4687838931) 444 868 1
(0.3447189164 0.3276405418 0.06316747684 0.264473065) 476 927 2
(0.2111304061 0.3944347969 0.2265605757 0.1678742213) 537 1027 1
(0.2595616729 0.3702191636 0.2939764601 0.07624270342) 467 912 2
(0.06205460875 0.4689726956 0.3458937655 0.1230789301) 518 1010 1
(0.5434349096 0.2282825452 0.1175185732 0.110763972) 466 892 1
(0.9041341092 0.04793294538 0.01498969326 0.03294325212) 462 900 2
(0.6193801117 0.1903099441 0.0206974741 0.1696124701) 507 970 1
(0.2181889998 0.3909055001 0.07610778592 0.3147977142) 456 873 1
(0.6363786794 0.1818106603 0.1566004537 0.02521020657) 447 874 2
(0.4878089344 0.2560955328 0.2161230409 0.03997249191) 484 942 2
(0.3762279812 0.2117007312 0.3118860094 0.1001852782) 538 1048 2
(0.7868727644 0.0220094225 0.1065636178 0.08455419531) 77 152 1
(0.5131036129 0.2434481936 0.1214726158 0.1219755778) 479 935 1
(0.3533626098 0.2369621815 0.3233186951 0.08635651357) 476 930 2
(0.007580975546 0.08054767401 0.4962095122 0.4156618382) 459 895 1
(0.2523136541 0.1590349283 0.2148082447 0.373843173) 483 924 2
(0.3917796394 0.1431680168 0.1609421636 0.3041101803) 458 877 2
(0.1431852645 0.4284073678 0.06773140506 0.3606759627) 469 2618 2
(0.3492429272 0.3253785364 0.05927495116 0.2661035852) 446 872 2
(0.2521410349 0.2131947773 0.3739294826 0.1607347053) 499 971 1
(0.6964032554 0.04860180348 0.1517983723 0.1031965688) 509 992 2
(0.1883142237 0.4058428882 0.08948452382 0.3163583643) 537 1027 1
(0.5228947463 0.2385526269 0.2044834271 0.03406919973) 446 872 2
(0.04267789037 0.4786610548 0.04073277575 0.4379282791) 449 878 1
(0.1270781652 0.1202009287 0.3162599887 0.4364609174) 479 2619 1
(0.3944199414 0.3027900293 0.1445398755 0.1582501539) 449 876 2
(0.1890388934 0.4054805533 0.06677133498 0.3387092183) 453 867 1
(0.4157154197 0.2499165348 0.04222575538 0.2921422902) 499 954 2
(0.3339786762 0.3330106619 0.03885293219 0.2941577297) 559 2627 2
(0.5188821551 0.2405589224 0.1024558371 0.1381030854) 478 931 2
(0.1150811062 0.4424594469 0.212488361 0.2299710859) 488 953 1
(0.7110255966 0.1444872017 0.04952658403 0.09496061765) 586 1138 2
(0.2387121904 0.3806439048 0.3804446355 0.0001992693193) 448 1306 2
(0.4380381131 0.03615576997 0.2448251735 0.2809809435) 447 1305 1
(0.3848148352 0.004327826183 0.3075925824 0.3032647562) 448 874 1
(0.03091249035 0.4353380707 0.04920568416 0.4845437548) 449 1307 1
(0.09059262875 0.168736364 0.2859673216 0.4547036856) 498 953 2
(0.3809717889 0.3095141055 0.01507243034 0.2944416752) 466 908 2
(0.1137067858 0.4431466071 0.2241992276 0.2189473795) 457 894 1
(0.6594231954 0.02618740954 0.1702884023 0.1441009927) 454 885 1
(0.4930037668 0.2534981166 0.0587961357 0.1947019809) 498 972 1
(0.7566426231 0.1216786884 0.05488077864 0.0667979098) 507 988 2
(0.3444700249 0.1295293882 0.3277649876 0.1982355993) 487 948 1
(0.3284760794 0.2905101237 0.04525183661 0.3357619603) 469 2618 1
(0.1505307916 0.4247346042 0.4225005682 0.002234035986) 493 961 2
(0.01701290919 0.4413498379 0.4914935454 0.05014370748) 472 922 2
(0.4000798774 0.2999600613 0.1247568745 0.1752031868) 447 872 2
(0.2227254631 0.3886372684 0.1870238857 0.2016133827) 526 1025 1
(0.13916693 0.430416535 0.1052101689 0.3252063661) 476 929 2
(0.4155188819 0.2614243448 0.03081621428 0.292240559) 529 2624 1
(0.00741620986 0.4962918951 0.005343267334 0.4909486277) 508 991 1
(0.1345439627 0.138183508 0.2945445107 0.4327280187) 468 914 1
(0.2751302267 0.03036093716 0.3320739495 0.3624348867) 477 913 2
(0.1921375914 0.4039312043 0.240869127 0.1630620773) 454 869 1
(0.03395530882 0.3834972541 0.0995250915 0.4830223456) 493 943 2
(0.236033673 0.04967476438 0.3819831635 0.3323083991) 478 931 1
(0.1176698582 0.4411650709 0.3584475956 0.08271747527) 494 964 1
(0.004847130009 0.2235469446 0.2740294904 0.497576435) 466 892 2
(0.1355962937 0.4322018531 0.3798378465 0.05236400668) 455 890 1
(0.3736432356 0.3131783822 0.0662938378 0.2468845444) 447 874 2
(0.266923534 0.366538233 0.2617304782 0.1048077548) 479 933 2
(0.06527902527 0.1280360811 0.3393244062 0.4673604874) 516 987 2
(0.2839860844 0.04053671688 0.3174702409 0.3580069578) 446 1304 1
(0.2104679245 0.3947660377 0.3826368181 0.01212921967) 528 1029 1
(0.1992795055 0.4003602473 0.124445026 0.2759152213) 466 910 2
(0.08993078563 0.4550346072 0.3728456075 0.08218899972) 459 895 2
(0.58308089 0.208459555 0.1803618356 0.02809771936) 449 2616 2
(0.01458932399 0.492705338 0.02357632703 0.469129011) 469 914 2
(0.5375748781 0.02307347092 0.20813909 0.231212561) 446 1304 1
(0.574777957 0.03388281653 0.178728205 0.2126110215) 445 1303 1
(0.1985585272 0.1761836728 0.2245370636 0.4007207364) 474 925 1
(0.6399940536 0.163034187 0.1800029732 0.01696878617) 555 1080 2
(0.538943031 0.222959955 0.007568529518 0.2305284845) 499 2621 1
(0.102992721 0.1578762898 0.2906273497 0.4485036395) 446 872 1
(0.7411480025 0.1294259987 0.09144562478 0.03798037394) 534 1021 1
(0.6149936549 0.1037854562 0.1925031726 0.08871771633) 444 869 2
(0.2060153004 0.2294950071 0.1674973426 0.3969923498) 443 1301 1
(0.07532311341 0.2991177078 0.4623384433 0.1632207355) 453 883 1
(0.1290664581 0.2328632645 0.2026035064 0.4354667709) 467 894 2
(0.5751739245 0.06956359156 0.1428494462 0.2124130378) 488 934 2
(0.5739001231 0.2130499385 0.1036569839 0.1093929546) 479 916 1
(0.6444298985 0.05285580311 0.1249292476 0.1777850507) 489 2620 1
(0.7350717743 0.1324641128 0.06505165176 0.06741246109) 519 1011 1
(0.5495160921 0.2252419539 0.07467131322 0.1505706407) 454 887 2
(0.3026804214 0.1549989012 0.1936608881 0.3486597893) 555 1061 2
(0.4310726449 0.1713988489 0.1130648286 0.2844636775) 458 895 1
(0.4550546219 0.272472689 0.1286313459 0.1438413432) 447 1305 2
(0.1187742586 0.3709177336 0.06969513708 0.4406128707) 475 927 1
(0.1368368711 0.4315815644 0.2141473679 0.2174341965) 444 1302 2
(0.5007757794 0.1833795549 0.06623255541 0.2496121103) 474 907 2
(0.6795794818 0.09538728806 0.06482297107 0.1602102591) 451 863 2
(0.2501963605 0.05987244173 0.3749018198 0.315029378) 479 933 1
(0.4634491855 0.1133154102 0.1549599971 0.2682754072) 509 2622 1
(0.2604123541 0.369793823 0.1096409447 0.2601528783) 457 893 2
(0.3127565608 0.0412511943 0.3023705253 0.3436217196) 457 875 2
(0.2086464758 0.3956767621 0.1458414841 0.2498352781) 466 911 1
(0.2920678362 0.1735081181 0.1804579639 0.3539660819) 468 896 2
(0.383784094 0.308107953 0.2536321453 0.0544758077) 524 1002 1
(0.08386717921 0.1301603136 0.3279060968 0.4580664104) 484 944 1
(0.3553557623 0.1864236963 0.3223221189 0.1358984225) 448 874 1
(0.4678375688 0.2508662739 0.2660812156 0.01521494166) 446 870 1
(0.4576525693 0.06252640138 0.2711737153 0.208647314) 448 874 1
(0.1736845905 0.3862555957 0.02690210904 0.4131577047) 469 897 2
(0.2741633304 0.09048140297 0.2724369318 0.3629183348) 477 931 1
(0.1490128494 0.4254935753 0.04430690945 0.3811866659) 493 961 2
(0.4591651506 0.2704174247 0.2034258803 0.06699154445) 485 944 2
(0.1992318706 0.1050295583 0.4003840647 0.2953545064) 497 970 2
(0.003573628342 0.07863681402 0.4982131858 0.4195763718) 458 893 1
(0.1773938511 0.4113030744 0.1995762006 0.2117268739) 465 908 2
(0.03293726595 0.483531367 0.1650966677 0.3184346993) 446 872 2
(0.5552583267 0.2223708367 0.0285741153 0.1937967214) 469 914 2
(0.2989197654 0.3505401173 0.3471621324 0.003377984861) 458 877 1
(0.07002170132 0.4649891493 0.03469146347 0.4302976859) 619 1201 1
(0.1731309433 0.4134345283 0.288977536 0.1244569924) 78 154 2
(0.1035611284 0.2596826238 0.188536812 0.4482194358) 486 930 2
(0.2815535786 0.1501799691 0.3592232107 0.2090432416) 503 981 2
(0.195921283 0.4020393585 0.1702918662 0.2317474924) 485 947 1
(0.0139316203 0.4930341899 0.1629044103 0.3301297795) 484 944 2
(0.3913685666 0.3043157167 0.2128873918 0.09142832491) 458 877 1
(0.3268195002 0.1089200942 0.3365902499 0.2276701557) 492 960 2
(0.4485707553 0.2757146223 0.01792499413 0.2577896282) 459 897 1
(0.03292554516 0.4835372274 0.4425352238 0.04100200358) 454 885 2
(0.3017442595 0.3491278703 0.2106001053 0.1385277649) 558 1067 1
(0.3577509963 0.3211245018 0.003520282196 0.3176042196) 458 896 1
(0.02482439422 0.4875878029 0.2424507536 0.2451370493) 475 927 2
(0.3865646571 0.3067176714 0.09573186343 0.210985808) 459 895 2
(0.1364380275 0.3948338676 0.03694711858 0.4317809862) 447 874 1
(0.007949605085 0.4960251975 0.4103764138 0.08564878362) 449 876 2
(0.1202483159 0.439875842 0.4002539888 0.03962185318) 467 912 2
(0.4406855689 0.05222144359 0.2796572155 0.2274357719) 466 911 2
(0.819024535 0.05653595898 0.09048773251 0.03395177353) 599 1161 1
(0.2226142557 0.3886928721 0.003649525419 0.3850433467) 509 2622 2
(0.02126562554 0.4893671872 0.269708105 0.2196590823) 448 874 2
(0.4419080565 0.2790459717 0.1827909235 0.09625504828) 56 113 1
(0.5198243933 0.2400878033 0.1432030343 0.09688476908) 461 898 2
(0.2220219469 0.3889890266 0.122752147 0.2662368796) 478 934 1
(0.1010417295 0.1774759121 0.2720032232 0.4494791353) 478 915 2
(0.1981755272 0.2249268948 0.4009122364 0.1759853416) 529 1028 1
(0.7567245762 0.08893290649 0.03270480541 0.1216377119) 528 1010 2
(0.3367622069 0.1750888481 0.1565300485 0.3316188966) 508 972 2
(0.09738985679 0.4188246088 0.4513050716 0.03248046276) 617 1198 2
(0.03195582265 0.3620960696 0.4840220887 0.1219260191) 446 873 2
(0.8580797537 0.07096012315 0.03143315 0.03952697316) 446 873 1
(0.6613607513 0.08740047617 0.1693196243 0.08191914817) 478 934 2
(0.2721475119 0.3308904111 0.363926244 0.03303583292) 474 926 2
(0.54615425 0.226922875 0.08019538365 0.1467274913) 139 278 1
(0.4156857789 0.2317977208 0.06035938975 0.2921571106) 479 2619 1
(0.374922471 0.3125387645 0.1660789491 0.1464598154) 466 910 2
(0.4251909743 0.2874045129 0.2366869947 0.05071751816) 478 931 2
(0.1818137632 0.4090931184 0.06748676187 0.3416063565) 477 929 2
(0.7239671197 0.1380164402 0.03515310991 0.1028633303) 487 950 2
(0.002811685899 0.4985941571 0.4970932209 0.001500936144) 517 1007 2
(0.3732955675 0.225679397 0.08767281928 0.3133522162) 458 877 2
(0.2637843081 0.03879711316 0.368107846 0.3293107328) 506 984 1
(0.04131886414 0.4793405679 0.4072056218 0.07213494609) 519 2623 2
(0.004193109376 0.3723655294 0.4979034453 0.1255379159) 445 871 2
(0.4682438204 0.1170846754 0.1487934144 0.2658780898) 462 884 2
(0.08335473955 0.4583226302 0.2014990952 0.256823535) 466 908 2
(0.1139783507 0.152719924 0.2902909006 0.4430108246) 516 987 2
(0.3385638297 0.1599248888 0.1707931964 0.3307180851) 529 2624 1
(0.01409838694 0.4929508065 0.3113348053 0.1816160012) 469 2618 2
(0.05732809169 0.4713359542 0.3350949375 0.1362410167) 474 926 1
(0.1187837033 0.3080589012 0.1325492472 0.4406081484) 448 1306 1
(0.08402640533 0.4516569991 0.4579867973 0.006329798278) 506 984 1
(0.6579188869 0.02159505405 0.1494455025 0.1710405565) 475 909 2
(0.2603882896 0.2614721818 0.1083336734 0.3698058552) 529 1011 2
(0.1060081604 0.180798877 0.4469959198 0.2661970428) 485 944 1
(0.6688340813 0.1655829593 0.01253942755 0.1530435318) 499 973 1
(0.1045318266 0.4477340867 0.3048145135 0.1429195733) 518 991 1
(0.004967881067 0.4975160595 0.1300306055 0.367485454) 448 874 2
(0.5630111677 0.2184944162 0.07426481782 0.1442295983) 527 1008 1
(0.3093711504 0.05493459433 0.2903798305 0.3453144248) 549 1049 2
(0.2212812184 0.09621308225 0.2931463086 0.3893593908) 496 949 2
(0.7661431878 0.1169284061 0.1160926404 0.000835765745) 487 948 2
(0.2466331998 0.3766834001 0.1976254659 0.1790579342) 499 2621 2
(0.2391985089 0.3804007455 0.1495420277 0.2308587178) 445 868 2
(0.02155716524 0.008100522446 0.4811208949 0.4892214174) 548 1066 1
(0.2729095295 0.03855157046 0.3635452353 0.3249936648) 636 1231 1
(0.12604889 0.3341977145 0.1027778405 0.436975555) 453 867 2
(0.4664886587 0.2667556706 0.0359802279 0.2307754427) 466 908 2
(0.09692335676 0.4515383216 0.4306554057 0.02088291593) 457 891 2
(0.2484031419 0.2660052174 0.3757984291 0.1097932117) 511 996 2
(0.398115291 0.3009423545 0.178349452 0.1225929025) 487 932 1
(0.1698970828 0.2891389112 0.4150514586 0.1259125474) 459 895 1
(0.1948270306 0.4025864847 0.2737182402 0.1288682445) 454 888 1
(0.03449291884 0.218731508 0.2640220325 0.4827535406) 444 1302 1
(0.1276658996 0.4361670502 0.1338427028 0.3023243474) 479 2619 2
(0.06277951057 0.4686102447 0.4272373382 0.0413729065) 459 897 1
(0.2277734601 0.38611327 0.07888237292 0.307230897) 447 872 2
(0.1274765123 0.4362617439 0.04345651431 0.3928052295) 458 893 2
(0.1515002846 0.3279328142 0.09631704352 0.4242498577) 475 927 1
(0.4741892668 0.2062368395 0.05666852712 0.2629053666) 476 929 1
(0.7775060145 0.1112469928 0.02801237262 0.08323462013) 589 1144 1
(0.05960139112 0.3635664633 0.4701993044 0.1066328412) 517 1008 2
(0.01835885576 0.04303982151 0.4908205721 0.4477807506) 445 871 2
(0.05143501596 0.474282492 0.3088044131 0.1654780789) 449 1307 2
(0.3527174293 0.3236412853 0.08515386793 0.2384874174) 448 1306 2
(0.6832331443 0.1583834278 0.02127026159 0.1371131662) 459 895 2
(0.02081147904 0.4895942605 0.2173684495 0.272225811) 457 891 2
(0.8725140473 0.06374297636 0.03150249227 0.03224048409) 467 910 2
(0.7748618085 0.1125690957 0.04278401054 0.06978508518) 495 963 2
(0.1000460494 0.4499769753 0.05550324604 0.3944737293) 448 874 2
(0.3974708007 0.3012645997 0.206577126 0.0946874737) 478 933 2
(0.385626704 0.307186648 0.2321278176 0.07505883046) 522 1017 1
(0.2728427796 0.3635786102 0.1144892226 0.2490893876) 519 992 1
(0.1124881751 0.4437559124 0.1051774125 0.3385785) 508 991 1
(0.09045220333 0.4547738983 0.1025132124 0.3522606859) 489 952 2
(0.6487365847 0.09929165948 0.07634004818 0.1756317077) 486 930 2
(0.2940797845 0.312540981 0.3529601077 0.04041912677) 449 878 2
(0.7049745292 0.1475127354 0.07591765364 0.07159508178) 476 927 2
(0.3432518571 0.1966228553 0.1317512162 0.3283740714) 458 895 1
(0.2565893059 0.3717053471 0.3547481584 0.01695718867) 448 876 2
(0.1468482489 0.2941966248 0.4265758755 0.1323792508) 466 908 1
(0.5242505201 0.23787474 0.02580692203 0.2120678179) 447 1305 2
(0.2663055208 0.2310890245 0.1357582151 0.3668472396) 469 897 2
(0.7949671097 0.1025164451 0.04337449062 0.05914195452) 555 1077 2
(0.1035241002 0.4084893193 0.03974863064 0.4482379499) 469 2618 1
(0.3362691969 0.3318654016 0.009581847985 0.3222835536) 487 950 2
(0.8207146799 0.08964266005 0.03306623842 0.05657642163) 479 916 1
(0.2600033318 0.3699983341 0.06232506803 0.307673266) 477 913 1
(0.2463017885 0.3768491058 0.2706588484 0.1061902574) 548 1048 1
(0.1907201951 0.4046399024 0.2129413009 0.1916986015) 525 1023 1
(0.2120085795 0.3939957102 0.08037647873 0.3136192315) 579 2629 2
(0.6593130412 0.1703434794 0.1536879397 0.01665553974) 459 895 2
(0.2315388544 0.3842305728 0.2469183086 0.1373122642) 457 875 1
(0.3785333296 0.1136224912 0.1971108441 0.3107333352) 504 964 2
(0.1069425076 0.4465287462 0.1120462854 0.3344824608) 445 871 1
(0.2921761228 0.2491487661 0.1047631725 0.3539119386) 441 1299 1
(0.3125686165 0.1697029916 0.1740127002 0.3437156918) 469 897 2
(0.2467860253 0.3766069874 0.2543691647 0.1222378227) 448 877 1
(0.04549656452 0.2197401979 0.4772517177 0.2575115198) 479 933 1
(0.5766612449 0.2116693776 0.03907018807 0.1725991895) 449 1307 2
(0.3357624554 0.3321187723 0.2034630353 0.1286557369) 487 950 2
(0.07113347545 0.4644332623 0.2326082421 0.2318250202) 556 1082 1
(0.01581202682 0.0514393154 0.4406546712 0.4920939866) 628 1200 2
(0.08731530092 0.4563423495 0.2355051177 0.2208372318) 597 1159 2
(0.422230749 0.2888846255 0.2457443692 0.0431402563) 507 986 2
(0.2384313131 0.372050905 0.3807843434 0.008733438483) 599 1163 2
(0.3088949237 0.2406455624 0.3455525382 0.1049069757) 649 1252 1
(0.2569121212 0.3715439394 0.3050288968 0.0665150426) 488 950 2
(0.03985819921 0.4800709004 0.2610097261 0.2190611743) 466 908 2
(0.3925986038 0.1640537976 0.1396469005 0.3037006981) 458 895 1
(0.07596776271 0.3095178527 0.1524982659 0.4620161186) 465 890 2
(0.399872356 0.300063822 0.111569158 0.188494664) 453 885 2
(0.7927435811 0.02845956667 0.07516864278 0.1036282094) 496 949 2
(0.6693449663 0.08443545177 0.1653275169 0.0808920651) 464 907 2
(0.04437510811 0.4778124459 0.1935211496 0.2842912963) 529 1030 1
(0.177562124 0.411218938 0.3908531146 0.02036582343) 469 2618 2
(0.1343883394 0.3541373564 0.4328058303 0.07866847394) 449 876 1
(0.1180656922 0.400800916 0.4409671539 0.04016623787) 559 1087 2
(0.182845114 0.2208944179 0.1876830251 0.408577443) 534 1039 1
(0.3638259066 0.2598498414 0.05823720532 0.3180870467) 458 877 2
(0.02768501958 0.1092751061 0.3768823841 0.4861574902) 469 897 2
(0.2812317504 0.3593841248 0.3429890038 0.01639512101) 455 871 1
(0.341459477 0.3292702615 0.2636900766 0.06558018497) 458 877 1
(0.316292641 0.3418536795 0.02928213696 0.3125715425) 440 861 1
(0.150666981 0.4246665095 0.09638479656 0.328281713) 458 895 2
(0.0300424755 0.4849787622 0.4420339949 0.0429447673) 446 870 2
(0.2051756554 0.04363896593 0.3537732064 0.3974121723) 476 929 1
(0.06780715622 0.238563418 0.2275330039 0.4660964219) 448 1306 1
(0.0133642247 0.4933178877 0.09261028257 0.4007076051) 482 938 2
(0.417100901 0.2914495495 0.1746358363 0.1168137132) 518 991 1
(0.05993898675 0.06618954691 0.4038409597 0.4700305066) 470 917 1
(0.05005769043 0.1447609961 0.4749711548 0.3302101587) 495 963 1
(0.4887796183 0.2556101908 0.1305604683 0.1250497226) 596 1155 2
(0.4413441413 0.1144150439 0.2793279293 0.1649128854) 456 892 2
(0.4369672709 0.2815163645 0.2051222036 0.07639416094) 489 2620 2
(0.7872418874 0.02185378386 0.1063790563 0.08452527245) 447 872 1
(0.4324945793 0.2837527103 0.2462051082 0.03754760212) 638 1219 1
(0.5237184327 0.2381407836 0.2047830818 0.03335770185) 448 877 1
(0.2921932745 0.3539033628 0.07395888762 0.2799444751) 456 889 2
(0.1893029163 0.3527570589 0.4053485419 0.05259148297) 458 896 2
(0.3517118601 0.04373821633 0.32414407 0.2804058536) 507 989 2
(0.6659434817 0.1349194989 0.1670282591 0.03210876021) 509 992 2
(0.1662080016 0.4168959992 0.1038401844 0.3130558148) 466 910 2
(0.1177113698 0.4411443151 0.4024323585 0.03871195659) 455 889 2
(0.7702604359 0.114869782 0.004652313789 0.1102174682) 447 874 2
(0.06401694911 0.4679915254 0.0101485643 0.4578429611) 442 865 1
(0.3483409086 0.1913510857 0.1344784599 0.3258295457) 467 894 2
(0.521892109 0.15038848 0.08866546548 0.2390539455) 468 896 2
(0.3437399819 0.328130009 0.02717217162 0.3009578374) 457 893 2
(0.4619560247 0.1775779785 0.09144400913 0.2690219877) 449 2616 1
(0.08036652795 0.4513521605 0.008464575514 0.459816736) 519 992 2
(0.1800608893 0.4099695554 0.1241594484 0.285810107) 317 634 2
(0.1764779746 0.008136339983 0.4117610127 0.4036246727) 509 992 2
(0.3222340894 0.1228083313 0.3388829553 0.216074624) 564 1097 2
(0.145944607 0.3910049222 0.4270276965 0.03602277427) 579 1123 1
(0.6420751148 0.08512672463 0.1789624426 0.09383571798) 547 1065 2
(0.3120035319 0.2981668639 0.04583137015 0.3439982341) 468 896 2
(0.09375773815 0.01497917077 0.4531211309 0.4381419602) 469 916 2
(0.2427228327 0.07398219992 0.3046563837 0.3786385837) 455 889 1
(0.1362489335 0.01026355244 0.4216119808 0.4318755332) 444 1302 1
(0.3466929089 0.142996999 0.1836565465 0.3266535455) 446 872 1
(0.4138530588 0.2930734706 0.05757180188 0.2355016687) 456 889 2
(0.4060788895 0.2201206308 0.07683992441 0.2969605553) 455 871 2
(0.04314117153 0.1965239297 0.4784294142 0.2819054846) 529 1028 1
(0.2533698707 0.3733150646 0.3470940965 0.02622096818) 448 876 2
(0.6932058824 0.05803961809 0.1533970588 0.09535744073) 475 925 1
(0.5387006602 0.2231569748 0.2306496699 0.00749269511) 445 871 2
(0.4802265339 0.146127316 0.2598867331 0.1137594171) 458 893 1
(0.4039685017 0.1820181226 0.2980157492 0.1159976265) 497 967 1
(0.2899980401 0.3550009799 0.2586000045 0.09640097545) 478 915 1
(0.6008781312 0.1995609344 0.1971919688 0.002368965584) 449 876 2
(0.1990366167 0.4004816916 0.2868828369 0.1135988547) 459 897 1
(0.2010212009 0.3994893996 0.05500291675 0.3444864828) 469 897 1
(0.5983986722 0.1874434258 0.2008006639 0.01335723813) 567 1100 1
(0.1402923458 0.2011004558 0.4298538271 0.2287533713) 509 992 2
(0.5080185012 0.06999167931 0.2459907494 0.1759990701) 569 1106 2
(0.1033774501 0.4483112749 0.1934662566 0.2548450184) 607 1160 1
(0.2972977319 0.351351134 0.1964368694 0.1549142647) 567 1102 2
(0.5436490639 0.2281754681 0.181114582 0.04706088608) 456 889 2
(0.4380536735 0.2809731633 0.1745148877 0.1064582756) 457 893 2
(0.1099913452 0.3687214476 0.07628287986 0.4450043274) 452 883 1
(0.2028483663 0.2730275328 0.125548284 0.3985758168) 464 888 2
(0.3677845842 0.3161077079 0.1842447308 0.1318629771) 448 876 2
(0.4028072813 0.1369357638 0.1616605955 0.2985963593) 448 1306 1
(0.2116686657 0.3941656671 0.022381234 0.3717844331) 514 1001 2
(0.469941704 0.265029148 0.1129559037 0.1520732443) 468 896 1
(0.1098958949 0.4450520526 0.1171934674 0.3278585852) 445 871 1
(0.1000292605 0.4499853698 0.07647074693 0.3735146228) 492 960 1
(0.4483233012 0.2758383494 0.09959256085 0.1762457885) 499 971 2
(0.1415904634 0.4292047683 0.3414600621 0.08774470621) 488 953 1
(0.6893443925 0.03223734006 0.1230904637 0.1553278037) 506 986 1
(0.3091119858 0.3454440071 0.1599638393 0.1854801678) 599 1163 1
(0.6848306616 0.1575846692 0.105750543 0.05183412623) 529 1028 2
(0.3987761756 0.2390978059 0.06151410627 0.3006119122) 536 1043 1
(0.2570373395 0.3714813302 0.008231696145 0.3632496341) 456 891 2
(0.0776553669 0.4611723165 0.07055635313 0.3906159634) 498 969 2
(0.5946663074 0.07242385013 0.2026668463 0.1302429962) 556 1082 2
(0.6887193195 0.03770123126 0.117939109 0.1556403403) 529 2624 1
(0.567640966 0.216179517 0.1561088321 0.06007068486) 627 1214 2
(0.1673261574 0.4163369213 0.396673822 0.01966309929) 605 1156 1
(0.5793561026 0.1879223589 0.2103219487 0.02239958974) 496 968 2
(0.4771612072 0.2614193964 0.190982317 0.07043707939) 441 862 2
(0.2526082792 0.3736958604 0.03190529042 0.34179057) 458 895 2
(0.07599405642 0.3653160686 0.4620029718 0.09668690319) 444 869 2
(0.2582787677 0.1057717759 0.2650888403 0.3708606162) 452 865 2
(0.6370073012 0.1814963494 0.1727887634 0.008707585956) 497 969 2
(0.07698454514 0.4289198956 0.4615077274 0.03258783185) 449 876 1
(0.6546655958 0.1726672021 0.1001653131 0.072501889) 534 1021 1
(0.7459583085 0.1270208457 0.0309343603 0.09608648543) 17 34 2
(0.4102041688 0.2948979156 0.02918487261 0.265713043) 479 916 1
(0.0182310452 0.4908844774 0.07946278827 0.4114216891) 527 1026 2
(0.323437921 0.3382810395 0.2441522063 0.0941288332) 459 897 1
(0.2748037606 0.1146543583 0.2479437614 0.3625981197) 468 896 2
(0.3575918097 0.0501557674 0.3212040951 0.2710483277) 468 915 2
(0.4642583026 0.2678708487 0.2561777887 0.01169306) 449 876 2
(0.06384019023 0.4680799049 0.04906530827 0.4190145966) 496 965 2
(0.1173185119 0.06854375055 0.3727969935 0.441340744) 446 872 1
(0.1815410551 0.4092294725 0.2553344555 0.153895017) 568 1105 1
(0.07490418018 0.4625479099 0.220115152 0.242432758) 456 892 1
(0.0940566919 0.4529716541 0.1298669733 0.3231046807) 467 913 1
(0.5681963849 0.2159018076 0.0847088838 0.1311929238) 576 1101 1
(0.2292870646 0.3853564677 0.350187664 0.03516880366) 567 1084 1
(0.1883456436 0.4058271782 0.2804770644 0.1253501138) 567 1103 1
(0.8847056712 0.01054731486 0.0576471644 0.04709984955) 598 1162 2
(0.07491138001 0.08548281936 0.3770614906 0.46254431) 619 1182 2
(0.01276218714 0.4936189064 0.2874364917 0.2061824148) 566 1082 1
(0.01663527437 0.4592845896 0.4916823628 0.03239777325) 486 946 1
(0.1091156724 0.3696496858 0.4454421638 0.07579247801) 519 1011 2
(0.2696159771 0.2586918224 0.3651920114 0.106500189) 470 918 2
(0.03579445204 0.4558266862 0.482102774 0.02627608775) 469 916 2
(0.3685471598 0.1472016698 0.3157264201 0.1685247503) 506 987 2
(0.08060671731 0.4596966413 0.2773597296 0.1823369118) 493 943 1
(0.2462318634 0.3768840683 0.2844944006 0.0923896677) 495 963 2
(0.04370138515 0.4434411346 0.03470817282 0.4781493074) 455 871 2
(0.3013100098 0.3493449951 0.2948232187 0.0545217764) 446 872 2
(0.104517392 0.447741304 0.1810041469 0.2667371571) 465 906 2
(0.8142275276 0.09288623621 0.02237670335 0.07050953286) 446 1304 2
(0.5790479253 0.0167095409 0.1937664965 0.2104760374) 489 2620 1
(0.08654118746 0.4567294063 0.008072828554 0.4486565777) 489 954 1
(0.2377043786 0.3811478107 0.06568225684 0.3154655538) 445 868 2
(0.6470920896 0.06427232056 0.1764539552 0.1121816346) 445 868 1
(0.5271345857 0.1825260594 0.05390664773 0.2364327072) 498 953 2
(0.3708049547 0.2095236655 0.3145975226 0.1050738571) 468 912 1
(0.2737552453 0.3631223774 0.2702422078 0.0928801696) 498 971 2
(0.001432572782 0.2970584425 0.2022252712 0.4992837136) 518 1009 1
(0.5602712303 0.1193535458 0.100510839 0.2198643849) 578 1105 2
(0.07287696067 0.4635615197 0.3560658898 0.1074956298) 495 963 2
(0.6817168167 0.1322142045 0.1591415916 0.02692738714) 508 991 2
(0.001622907714 0.4991885461 0.07059118625 0.4285973599) 499 973 1
(0.01127178476 0.2450047125 0.2493593951 0.4943641076) 508 990 1
(0.03272635672 0.4836368216 0.07505267299 0.4085841487) 486 946 2
(0.8231652635 0.03444071217 0.08841736823 0.05397665606) 566 1101 2
(0.1341665821 0.2441236101 0.1887930989 0.432916709) 577 1103 2
(0.6434329441 0.178283528 0.1250128053 0.05327072269) 579 1123 2
(0.09964874182 0.1636902945 0.4501756291 0.2864853346) 516 1006 2
(0.03295171921 0.4835241404 0.07646058352 0.4070635569) 645 1249 2
(0.1156847636 0.2528125514 0.1893450668 0.4421576182) 568 1104 1
(0.146664922 0.3474470126 0.07922052637 0.426667539) 616 1177 2
(0.5292819136 0.2353590432 0.02010645808 0.2152525851) 629 2634 2
(0.03955611612 0.05814021211 0.4220817298 0.4802219419) 569 1087 2
(0.4068317626 0.2259511138 0.2965841187 0.0706330049) 605 1175 2
(0.1091404787 0.4454297607 0.2583335814 0.1870961792) 444 1302 2
(0.8581815946 0.0178686183 0.05304058439 0.0709092027) 489 935 2
(0.3747168251 0.02747906051 0.3126415875 0.285162527) 476 930 2
(0.2094704514 0.04971726831 0.3952647743 0.345547506) 465 909 2
(0.1248828327 0.1652625984 0.2722959852 0.4375585837) 456 891 1
(0.04704679504 0.4764766025 0.40601857 0.07045803252) 455 887 2
(0.30224924 0.34887538 0.3176741583 0.03120122171) 447 1305 2
(0.657834614 0.171082693 0.0905392716 0.08054342139) 509 2622 2
(0.3221833658 0.3389083171 0.2639217038 0.07498661328) 478 915 1
(0.004385809106 0.4978070954 0.4023946814 0.09541241404) 489 2620 2
(0.5758653156 0.04016164531 0.2120673422 0.1719056969) 484 942 1
(0.08126445081 0.2104283455 0.4593677746 0.2489394291) 518 1007 1
(0.2052975704 0.2153348299 0.3973512148 0.182016385) 448 877 2
(0.3315456342 0.2394649006 0.09476228229 0.3342271829) 448 876 1
(0.1328881469 0.4335559265 0.1591474169 0.2744085096) 478 931 2
(0.4319032254 0.2400278292 0.2840483873 0.04402055812) 508 988 1
(0.1039654526 0.094103289 0.3539139847 0.4480172737) 488 952 1
(0.1593422276 0.1523984288 0.2679304574 0.4203288862) 519 2623 1
(0.1273317703 0.4363341148 0.1283859506 0.3079481642) 518 991 1
(0.5420373949 0.169868172 0.0591131306 0.2289813026) 559 2627 1
(0.4969249346 0.2515375327 0.01353933894 0.2379981938) 537 1043 2
(0.6939486257 0.1530256871 0.1358993377 0.01712634948) 559 1085 2
(0.5842828151 0.2078585925 0.1289651224 0.07889347002) 469 2618 2
(0.7300583569 0.03842222419 0.09654859739 0.1349708216) 598 1143 2
(0.7809597792 0.08757987465 0.02194023576 0.1095201104) 565 1098 1
(0.5319085268 0.1862917067 0.04775402988 0.2340457366) 608 1162 2
(0.08312621681 0.256637655 0.4584368916 0.2017992366) 649 1252 1
(0.1320019143 0.4339990429 0.01787928544 0.4161197574) 588 1140 2
(0.8421355895 0.07893220523 0.02875969031 0.05017251493) 596 1158 1
(0.4259716218 0.09649976039 0.1905144287 0.2870141891) 465 890 2
(0.5326941687 0.2336529157 0.07670399817 0.1569489175) 449 1307 2
(0.6463143395 0.03532182283 0.1415210074 0.1768428303) 489 935 2
(0.5372246959 0.2313876521 0.02120094583 0.2101867062) 443 866 2
(0.2556868629 0.3721565685 0.1013033696 0.270853199) 479 933 2
(0.09099279864 0.4480557163 0.006447884347 0.4545036007) 479 2619 1
(0.07782533582 0.4610873321 0.3854559354 0.07563139664) 462 900 2
(0.5571543375 0.009271595232 0.2214228313 0.212151236) 465 906 1
(0.06279829977 0.4686008501 0.2313625537 0.2372382964) 443 867 1
(0.01352997729 0.4932350114 0.08488582958 0.4083491818) 449 878 1
(0.2521440038 0.3739279981 0.2133396874 0.1605883107) 459 2617 2
(0.4550992111 0.2658245124 0.006625882085 0.2724503944) 458 895 1
(0.3920854478 0.01906317389 0.3039572761 0.2848941022) 519 1011 2
(0.1004413712 0.4497793144 0.2607661486 0.1890131658) 448 1306 2