/*--------------------------------*- C++ -*----------------------------------*\
| =========                 |                                                 |
| \\      /  F ield         | OpenFOAM: The Open Source CFD Toolbox           |
|  \\    /   O peration     | Version:  2406                                  |
|   \\  /    A nd           | Website:  www.openfoam.com                      |
|    \\/     M anipulation  |                                                 |
\*---------------------------------------------------------------------------*/
FoamFile
{
    version     2.0;
    format      ascii;
    arch        "LSB;label=32;scalar=64";
    class       scalarField;
    location    "0.008/lagrangian/dsmc";
    object      Ei;
}
// * * * * * * * * * * * * * * * * * * * * * * * * * * * * * * * * * * * * * //


6908
(
1.470593697e-20
2.298844625e-22
1.028234867e-20
2.833743644e-21
9.303501284e-21
6.75842043e-21
2.205763985e-21
6.002207654e-21
5.43799617e-21
7.851745969e-21
5.682977393e-21
2.35900738e-21
3.979946092e-20
1.747362636e-20
2.578264423e-20
4.305438106e-21
2.816044648e-20
3.375747252e-20
4.158584355e-20
7.892081954e-21
6.950536501e-21
3.478333412e-21
7.822354273e-21
8.107111112e-22
2.34187811e-20
1.560811192e-21
4.123036668e-22
1.203478035e-20
7.799698587e-22
1.192214329e-20
2.695140195e-21
1.788519695e-20
1.137647089e-20
7.244312593e-21
3.703675744e-20
1.341856236e-20
1.120616679e-21
1.390660085e-20
7.679434284e-21
1.067120761e-22
7.91257738e-21
8.734308728e-22
1.51475597e-20
7.016911786e-22
1.219250212e-20
1.677474006e-21
9.082791448e-21
1.248312964e-21
3.822044508e-20
7.263184142e-21
7.268429595e-21
1.612351109e-21
5.598848959e-22
8.757398516e-22
3.469478526e-20
3.505114233e-21
9.716503134e-21
4.25739013e-21
2.918055107e-20
8.456907963e-21
1.817486144e-20
2.192740625e-20
2.580071318e-20
4.735510672e-21
1.023651959e-21
4.164262025e-21
3.546819146e-21
9.444655041e-21
7.802080806e-21
9.840451508e-22
4.731845395e-21
1.491370888e-20
1.956479825e-21
5.904437407e-21
1.282038645e-20
3.564340226e-21
1.342063609e-21
8.961837765e-21
1.362814198e-20
8.333642774e-21
4.901133193e-21
3.37749935e-20
1.124549817e-20
6.608089594e-20
4.355334946e-21
1.057909126e-21
2.415378565e-20
4.58058658e-21
6.062390558e-21
1.669589511e-21
1.458428021e-20
1.584674545e-20
1.957827642e-20
6.051882327e-20
1.967592062e-20
3.334083117e-21
1.22941612e-21
7.019430468e-22
1.171995158e-21
5.500015525e-21
2.366827257e-22
2.465427703e-20
2.190418853e-21
1.412709304e-21
1.621945226e-20
3.235738524e-21
6.899057612e-21
3.939193057e-21
9.973050685e-21
3.394777608e-22
1.121213577e-21
2.490014436e-21
4.51136201e-21
7.637396417e-21
1.394878192e-20
3.870578183e-21
4.337932086e-21
9.218645484e-21
3.174653219e-21
8.902852118e-21
1.056913298e-21
1.343166863e-20
1.620141267e-20
1.950468149e-21
6.22314368e-22
2.929041568e-21
8.784292724e-21
1.736307399e-20
3.145946071e-21
1.458348124e-20
1.628809439e-20
7.918566723e-21
2.533464594e-20
6.45426618e-21
1.466240229e-22
1.954313823e-21
1.597043543e-20
1.300414581e-20
2.004572742e-20
1.237782391e-21
2.149471531e-21
6.187936236e-21
1.777615149e-21
8.213736764e-21
1.208941704e-20
1.234254139e-20
7.346450398e-22
3.746832122e-20
3.196404073e-21
3.308361156e-20
1.195492571e-21
1.569403391e-21
3.606176555e-22
1.3533968e-20
8.03000474e-21
3.897483771e-21
2.932319859e-20
2.95488627e-20
7.780494494e-21
3.191685477e-22
3.460014365e-21
9.299756511e-21
8.434551196e-21
1.638051655e-20
1.625384809e-20
2.98596622e-21
1.153824325e-20
2.139076071e-21
6.396825213e-21
3.412933376e-21
1.729387524e-20
8.525170955e-21
6.540028887e-21
3.923563795e-21
2.272757787e-20
7.249035962e-22
3.187130204e-20
1.382050494e-20
1.335485773e-20
2.569547487e-21
1.544821075e-20
1.349449029e-21
4.180522782e-21
9.004727527e-21
7.242719949e-22
5.026895824e-21
6.004052493e-21
2.577764861e-20
7.670603569e-21
7.904321047e-22
5.409301724e-22
3.111940611e-21
8.972817642e-23
9.591302103e-21
4.314041809e-21
5.368737225e-21
1.124928554e-20
2.280192482e-20
2.616359021e-21
4.53722078e-21
5.565837512e-21
7.940754593e-21
2.357577496e-20
2.144968191e-21
1.400373543e-20
2.775744775e-21
1.800935413e-21
1.430103613e-20
5.285879938e-21
1.419866262e-20
1.023791994e-20
1.190867721e-20
4.790018602e-21
3.76049611e-20
2.001746566e-20
1.304790444e-20
5.950110438e-21
6.222006348e-21
2.41996266e-21
3.00219217e-21
5.225637274e-21
2.700504197e-21
9.419968783e-23
1.274633498e-20
1.105253643e-20
2.597381909e-21
2.932641071e-21
2.24473626e-20
2.812432573e-21
5.157902395e-22
1.561917377e-21
1.846865724e-20
5.783425011e-21
3.556096744e-23
3.137203689e-21
1.415907781e-21
4.923956801e-21
8.401116688e-22
2.025503213e-20
1.573918546e-20
9.532329054e-21
1.095242704e-20
4.295272038e-21
8.944655648e-21
2.477546085e-21
5.475373488e-21
6.529752864e-21
1.721177252e-21
9.474210185e-21
1.361454135e-20
1.335484951e-21
6.926028112e-22
3.915384443e-20
4.26752298e-20
2.688539704e-21
2.264599578e-20
1.094653734e-20
6.580495554e-21
1.411008014e-20
3.586884916e-20
9.743777263e-22
2.077343353e-21
5.551219386e-21
1.732532155e-21
9.40300815e-21
1.509069542e-20
6.103806246e-22
1.667742029e-20
7.591384126e-21
1.924555547e-21
2.516820087e-20
2.573699042e-20
1.762927734e-21
3.109461088e-21
9.320751644e-21
1.694374375e-21
3.865777158e-20
8.507196022e-21
6.354482073e-22
3.343286692e-20
3.460653869e-21
2.808085673e-21
2.768496589e-21
4.284571721e-21
2.205391588e-20
4.241055894e-21
1.476807061e-20
1.372456668e-21
3.819714559e-20
4.387737525e-21
1.317558199e-21
2.04771898e-21
1.386992834e-20
2.934547992e-21
3.941700068e-21
4.005864177e-21
3.751813487e-20
4.317544821e-21
2.314969284e-21
4.090416133e-21
2.133480427e-21
1.104440997e-20
8.795778753e-22
3.755286775e-20
1.728047756e-20
9.386710549e-21
2.248650089e-21
2.478790233e-22
1.027403568e-20
5.869806554e-21
1.572978577e-20
2.441981894e-20
8.833042957e-21
4.386288644e-21
9.180641835e-21
1.832553517e-21
2.736929832e-21
4.154239849e-22
1.75271413e-20
2.21211393e-21
1.575058283e-21
3.532622622e-21
1.264198846e-20
7.260201548e-21
2.034171032e-20
1.604936107e-21
3.370084967e-21
8.876341903e-21
3.339436801e-21
2.283828333e-20
9.163507215e-21
7.405472765e-21
1.223400593e-21
6.059643598e-22
7.196127196e-21
9.583201893e-21
3.873156304e-22
3.773841344e-21
1.264588671e-20
1.604564811e-20
8.265987161e-21
6.841438027e-21
1.695275492e-21
4.162209172e-21
4.867445573e-21
2.981156403e-20
5.333790454e-21
2.261808206e-20
5.974767107e-22
1.439543749e-20
1.878987775e-20
3.997333815e-20
1.957932856e-21
1.254086998e-20
4.95876041e-21
8.393618676e-21
2.17051961e-20
3.588324456e-21
1.61570141e-20
7.833429968e-21
3.475720832e-21
5.124851412e-21
1.853586542e-20
1.304367085e-20
1.100751541e-20
4.230846569e-21
7.99951633e-22
3.756622683e-22
3.755245321e-21
1.27117986e-20
6.051779312e-22
1.087422701e-20
6.953545977e-21
5.020228507e-20
6.884474014e-21
2.403810411e-21
1.363991603e-20
5.231311079e-21
5.486397515e-21
3.906954824e-21
9.201715623e-21
1.718116602e-21
4.772758452e-21
1.570590108e-21
1.147330532e-20
1.526517852e-20
2.454030863e-21
3.359826383e-20
6.629150046e-21
9.865438851e-22
3.70908779e-21
2.051789498e-20
1.382582705e-21
6.928672944e-21
6.298965491e-22
1.881703273e-20
5.343894552e-21
1.343814125e-20
3.857587147e-22
6.041844039e-21
5.462480066e-22
5.995472179e-21
9.457453961e-22
1.243129696e-20
6.081336909e-21
6.884681643e-21
1.73232877e-21
1.280003077e-20
8.773202523e-21
1.533562843e-20
1.620007032e-20
4.226671314e-21
2.318592344e-20
1.864737364e-20
9.649058816e-21
3.984489165e-22
1.026922225e-20
5.89960228e-21
1.993917666e-21
1.203009248e-20
1.080941326e-21
2.405827596e-21
2.6522086e-20
1.490747584e-21
1.079631912e-21
1.665505367e-21
9.293729549e-23
1.904373818e-21
1.932504196e-20
1.985027834e-21
1.731378788e-20
8.586026671e-22
5.052028569e-21
6.358754227e-23
5.691034293e-20
5.641183155e-21
6.015450901e-20
1.094282109e-20
1.727187319e-20
2.564123758e-20
6.40714068e-22
1.376215873e-21
1.190187715e-21
7.218872662e-21
8.982089299e-21
4.720851614e-20
1.02406482e-20
9.478354066e-22
1.835424892e-21
6.359000769e-21
1.227940564e-21
9.744375084e-21
2.745619582e-21
2.388555561e-21
4.091888383e-20
2.303551513e-21
1.787585159e-20
9.63180879e-21
6.935812686e-21
8.829729118e-21
2.728973938e-21
8.118197354e-22
1.320653027e-21
5.234957236e-22
9.824416508e-21
3.804723226e-21
1.326156789e-21
6.052986824e-22
7.615325894e-21
2.031787088e-21
2.152832184e-21
2.308925038e-20
3.578936452e-20
6.244590338e-21
4.371935488e-21
8.29318935e-21
3.454801442e-21
9.941214135e-21
6.04963903e-21
1.817360045e-21
5.327441123e-22
5.225818918e-21
3.957538895e-21
3.136972138e-20
2.564997826e-20
7.520558099e-21
4.038867957e-22
9.216864284e-22
8.360343086e-22
9.830443765e-21
7.430151481e-21
2.780160111e-21
8.973185862e-21
1.527377931e-22
3.881053967e-21
3.238926383e-21
9.511275515e-22
2.566322813e-21
8.849739094e-21
1.981772667e-20
1.343188831e-20
7.557404865e-21
2.21990409e-21
6.800862356e-21
1.501853462e-21
1.475711382e-22
1.111086096e-20
7.132147043e-21
1.036125681e-20
4.596948875e-21
1.943191216e-22
9.802416963e-21
9.837775318e-22
6.100072426e-21
3.454810895e-21
5.733570715e-21
1.858159756e-20
4.625093672e-21
3.832358617e-20
1.694112285e-22
2.055374306e-21
1.083396454e-21
8.294197395e-21
2.221168512e-21
7.109426427e-21
4.986293021e-21
6.426583834e-21
5.532748859e-23
3.493961937e-21
1.767847677e-21
1.617131232e-21
1.728647644e-21
7.522995916e-21
6.190586653e-21
8.97556801e-22
2.381986651e-21
4.821144124e-21
3.716743332e-21
1.030491852e-21
3.707713939e-21
3.358197337e-20
1.21771788e-20
1.210358358e-20
1.662625417e-20
7.691147896e-21
2.205171097e-20
2.66332773e-21
3.893258578e-21
4.157073071e-21
5.168066748e-21
1.962916829e-21
2.299768549e-20
1.440525493e-21
1.676225845e-21
3.36802342e-21
5.021370844e-21
1.07716443e-20
3.006513594e-20
2.032192932e-20
4.927173071e-21
7.15798101e-21
1.901082335e-20
9.179113797e-21
2.220810576e-20
1.253757858e-21
3.017234705e-21
7.569210349e-21
8.716741816e-21
1.515519265e-21
8.681074995e-21
2.9484003e-21
6.627031282e-21
6.445172341e-21
1.946378299e-21
3.504056599e-21
4.952535255e-21
4.2134535e-21
7.079204326e-22
1.755205058e-21
4.518442727e-21
1.432486043e-21
8.894285483e-22
1.88008599e-21
2.680277993e-21
9.018418731e-21
1.81221813e-21
1.002662109e-20
2.505763637e-21
9.407982929e-21
8.136138777e-21
1.335419974e-21
5.123821088e-21
3.274737299e-21
2.86389787e-22
6.057311235e-21
1.233045451e-20
1.225312267e-21
3.442486521e-21
1.467818824e-22
3.616108661e-21
1.516495798e-21
1.213462934e-20
2.634039882e-21
3.15840558e-21
2.282531807e-21
7.789315719e-22
1.83641252e-21
8.092043223e-22
3.583502403e-21
2.9690153e-21
2.38733201e-21
8.563431714e-21
2.238658527e-21
2.840290848e-21
2.867509557e-22
2.703220085e-21
6.509462165e-21
3.017060849e-21
1.453469486e-20
8.650321779e-21
6.324155443e-21
2.586535109e-20
2.914953224e-21
3.318616381e-21
4.177889834e-21
8.974524659e-21
1.005942865e-20
4.175519442e-21
2.435517377e-21
6.832957599e-21
3.506539475e-20
1.079097434e-21
1.616042304e-21
2.957294394e-21
4.543638291e-21
4.746987111e-21
2.203929505e-22
9.122889439e-21
1.005774548e-20
2.135828937e-20
4.533073677e-21
4.059442663e-21
5.465865131e-21
1.239020308e-20
4.612776483e-21
1.004196008e-20
5.604881146e-21
9.409841378e-21
6.74673426e-21
6.679606196e-21
6.51722838e-21
1.221505015e-22
3.788765693e-21
3.376827175e-21
3.004110109e-21
3.082600965e-21
1.433943439e-20
7.998163497e-22
3.06884305e-21
6.568407131e-21
1.812319146e-21
2.738771608e-21
3.862789246e-21
4.470984637e-21
2.534827136e-21
1.077415342e-21
6.834546368e-22
2.509684659e-21
1.24302489e-20
1.574621355e-21
4.136069175e-21
5.327964924e-21
7.155215752e-21
4.906166019e-21
7.535682319e-20
3.194565521e-22
2.854115091e-21
3.516896788e-21
7.506384691e-22
1.248396194e-20
3.596514336e-21
8.410732903e-21
6.555652323e-22
5.967945117e-21
4.355041618e-20
2.701901644e-21
1.824027411e-20
6.494334439e-21
1.107769248e-20
1.871711845e-20
5.757797552e-21
3.760218164e-21
5.004736362e-21
6.560207508e-21
2.106513409e-21
6.74494397e-21
1.689579783e-21
4.418900663e-21
1.200552012e-20
5.796292739e-21
5.085986326e-21
2.97310605e-21
3.447134535e-22
1.484700862e-21
5.336943994e-22
3.614160802e-21
2.083302635e-22
5.190692667e-21
3.691064246e-21
1.461219129e-21
1.508848699e-21
9.038431072e-22
2.144534426e-21
1.294016322e-20
6.21581156e-21
6.784102913e-22
4.272610746e-21
1.426073462e-21
1.111497452e-21
1.079412598e-21
7.979032746e-21
9.173524355e-21
4.895227033e-21
4.554918695e-22
5.785978007e-21
1.374205813e-21
1.593773327e-20
8.713913336e-21
2.524597423e-20
6.724954573e-21
2.425918928e-20
2.062464162e-21
1.523938471e-21
4.580278842e-21
6.275416571e-21
1.707288348e-21
2.854568713e-21
2.748874071e-21
1.465291064e-20
2.992650333e-21
1.439764429e-20
7.732156965e-22
2.365851177e-21
1.961936995e-20
1.815479689e-21
4.446432272e-21
2.118240886e-21
1.420579703e-21
4.17544029e-21
1.067710686e-20
3.519132427e-21
1.047064647e-21
8.819148759e-21
1.687882235e-21
6.159830958e-22
4.935139708e-22
1.32015398e-20
2.452297289e-23
5.544237089e-22
1.003068477e-22
5.627125365e-21
6.250075222e-21
1.74744416e-20
2.789469846e-21
1.039998752e-20
7.961415097e-21
8.510682011e-22
1.019645956e-21
2.680000571e-21
3.608207142e-21
3.197165392e-21
1.110719623e-20
8.119428467e-22
2.492829038e-21
9.704347599e-21
7.747916799e-21
2.628041248e-20
5.385278593e-21
8.89710913e-21
1.1587447e-21
2.876113176e-20
6.712870719e-21
1.478472828e-21
2.883314356e-21
3.636143354e-21
1.601636316e-20
8.303536798e-22
3.054791725e-20
1.185935346e-20
6.14332612e-21
2.232332677e-22
4.551561692e-21
2.213918103e-21
4.123242096e-21
1.017677927e-20
3.612745388e-21
4.697788469e-22
1.38556598e-22
1.171269132e-20
2.541138527e-20
1.033556996e-21
1.026005411e-21
6.548061799e-22
1.242318038e-21
8.485894113e-21
1.750460705e-21
5.643721019e-22
5.081815966e-21
2.288209193e-21
6.774461833e-21
4.664719051e-21
7.026520905e-21
5.697389412e-21
6.272161771e-22
2.3617203e-22
1.057254634e-20
8.704795393e-21
9.317236185e-21
7.274978291e-21
8.4472674e-21
9.332841659e-21
1.157577351e-20
1.279353726e-20
6.900528494e-21
3.531026072e-21
1.267173952e-21
6.97355506e-21
6.880044155e-22
1.267003619e-20
1.263954062e-21
1.056698317e-21
5.561959668e-21
2.809855995e-21
9.490314058e-22
3.078993731e-21
7.424053067e-21
1.283902713e-20
3.245102822e-21
4.500441991e-22
2.627260409e-21
4.590984561e-21
5.894857405e-22
2.23417841e-22
2.074900297e-21
9.701855131e-22
7.179750891e-23
1.534519641e-20
1.242515469e-20
8.714051233e-21
7.096231619e-21
1.01208852e-20
1.485880881e-20
5.397765103e-22
5.503148992e-21
5.082780195e-22
4.272026807e-21
9.83521916e-21
2.896839999e-20
8.806349876e-21
4.947713599e-21
2.494708494e-20
9.614477107e-21
9.140534675e-21
8.886401121e-21
9.046306783e-21
2.00213244e-22
4.86358774e-21
1.094138198e-20
6.512868746e-21
9.952836149e-22
5.606381086e-21
2.641723125e-21
8.558974898e-22
5.055497765e-21
8.043553613e-21
1.094944795e-21
7.804357751e-21
1.399893227e-20
1.270910656e-21
6.371431232e-20
2.716091626e-21
1.226590952e-20
6.946076505e-21
2.535930638e-22
2.398109728e-21
2.764732666e-21
6.683482173e-22
8.312458643e-21
1.194526154e-21
4.000409219e-21
9.975378763e-22
5.181160543e-22
2.934036454e-21
2.252984859e-20
2.038819553e-21
1.249656781e-21
3.253464449e-22
1.757710255e-21
9.373043148e-21
3.24901584e-21
2.965226371e-22
7.619255654e-21
7.975922236e-21
3.787715008e-21
1.033007431e-21
3.088530434e-21
1.51972159e-20
1.899815353e-20
3.437843519e-21
9.064992653e-22
3.22173258e-22
1.74137231e-21
2.488318853e-22
1.485066582e-20
6.650914843e-21
1.287569134e-20
8.878254899e-21
6.11936572e-22
9.330723223e-21
1.945646895e-21
1.05720717e-21
6.926670415e-21
3.692904795e-21
9.658805873e-22
4.815443051e-21
4.184836983e-21
4.34332825e-21
1.186584098e-20
1.437201525e-20
8.899675243e-21
4.19700149e-22
6.257215021e-22
1.81536754e-20
3.620395658e-21
8.086511297e-22
4.504444487e-22
1.085233326e-21
8.999159315e-21
2.237521521e-21
9.362010492e-22
1.442955609e-21
6.681838945e-22
3.345683088e-21
3.665241637e-21
1.090515969e-20
9.261981895e-21
9.205989511e-22
1.645808892e-20
2.371340254e-22
8.77017523e-22
2.92178574e-21
1.188413371e-21
7.010028964e-21
8.286371644e-21
7.708719721e-21
1.497492412e-21
2.097343627e-21
1.11642397e-20
7.237256265e-21
9.189501248e-22
7.028049545e-21
1.840821143e-22
5.981622402e-21
4.419017557e-22
5.910192981e-21
4.63195804e-21
7.150126503e-21
4.874274428e-21
5.76169269e-21
2.978533873e-21
7.881827174e-21
2.0389132e-21
3.705979984e-21
4.737308852e-21
8.00339245e-21
1.663348781e-20
3.272236335e-21
6.408003945e-21
2.810505961e-21
1.587995815e-20
6.503373869e-21
1.27834695e-20
3.797860113e-21
1.237431737e-21
3.624131389e-21
1.708561095e-24
3.998798927e-21
4.256195053e-21
8.3946094e-22
3.702007968e-21
2.562068358e-20
3.678241075e-21
6.177544841e-22
8.488967231e-21
2.532491202e-21
3.915495801e-20
5.400154256e-21
1.745745373e-20
6.325040569e-21
5.32886819e-21
2.365271329e-21
1.597067808e-20
6.058778559e-21
5.834460645e-21
7.607941522e-21
9.874463174e-21
1.957010691e-22
2.525634275e-21
7.310299936e-21
2.929108211e-21
4.223444188e-21
5.586947116e-21
2.307544979e-21
4.026076258e-21
6.031762628e-21
7.9516378e-22
2.956007282e-21
2.769715418e-22
4.94338706e-21
3.005059086e-21
6.119683813e-21
1.739868767e-21
7.695026262e-21
9.157583432e-22
5.299877598e-22
8.053381492e-21
9.883565816e-21
5.735691591e-21
1.300922641e-20
8.335071028e-21
2.587813235e-20
4.735151128e-21
4.683325549e-21
1.624475745e-20
3.131286772e-22
8.558252591e-23
2.060601951e-20
2.94898178e-21
4.782043228e-21
2.418744108e-21
6.09458575e-21
1.683040144e-21
4.938732868e-22
1.471812089e-21
1.010752043e-20
1.20799713e-20
2.721917872e-21
2.209942478e-21
1.458875359e-22
1.35720096e-21
5.130503839e-21
1.78986839e-21
4.047484327e-21
1.023988062e-20
4.680457092e-21
1.708136463e-21
7.291220311e-21
1.694615626e-20
2.279523894e-21
9.602654477e-21
1.790705442e-20
1.927364539e-20
1.663992522e-21
4.333460247e-21
8.82229984e-21
1.195216756e-21
7.485267303e-22
8.668690831e-21
4.257086846e-21
3.287009304e-21
1.197955815e-21
7.247072919e-21
6.55613392e-22
4.049658529e-22
6.395562049e-22
7.654276512e-21
1.391401345e-21
9.987585669e-22
4.956472708e-21
1.039175992e-20
5.471821176e-21
1.60572175e-21
1.769655236e-20
3.430092289e-21
4.870569943e-21
1.467940573e-21
1.596430807e-21
1.207268554e-20
9.702698522e-21
6.590346089e-21
1.966764674e-21
7.510489288e-23
5.835155835e-22
6.547072336e-21
4.377607976e-22
1.701160395e-21
6.561681701e-21
8.682881876e-22
6.907453548e-22
7.766944216e-21
3.86964868e-21
8.190004857e-22
2.042915614e-22
5.169672387e-20
4.85217772e-21
7.505032916e-22
7.269012899e-22
2.300591921e-21
5.151232608e-22
7.103134625e-21
1.020283557e-21
7.421558679e-22
2.489058304e-21
1.68811126e-21
1.918080736e-21
3.896848249e-21
7.106141117e-21
3.937520542e-21
7.100331756e-22
4.447694504e-21
4.742897021e-21
5.931717485e-21
3.420330532e-21
4.379536319e-21
5.699531668e-21
5.953509314e-21
2.415101131e-22
3.66902134e-21
5.309239196e-20
1.381209073e-21
8.529264873e-21
1.238803395e-20
1.385234897e-20
4.238695922e-21
2.209169501e-21
4.358548448e-21
1.234717806e-21
7.921541522e-21
8.313454998e-21
9.761492316e-21
8.639556811e-21
1.494785312e-22
2.448755662e-21
4.322144817e-22
4.840934805e-21
1.933419573e-21
3.238405714e-21
2.815622749e-21
1.109779466e-22
9.311403272e-21
5.536478756e-21
2.32514286e-22
1.534281632e-21
1.778940352e-21
5.761610627e-22
4.112829986e-21
7.177830296e-22
1.179292492e-21
2.039908987e-21
3.779436084e-21
1.503024353e-21
6.649449111e-22
6.046655237e-22
2.059868272e-21
4.568150563e-21
1.708044265e-21
1.985544974e-21
3.745152125e-21
2.074140322e-21
5.761472013e-21
6.134987361e-21
6.505352496e-21
5.377360717e-21
9.534656089e-21
1.040125991e-20
4.775008445e-23
1.218044902e-20
8.440389462e-21
7.42845331e-22
4.503769152e-21
5.369278908e-21
4.762575785e-21
2.922521647e-21
1.100472034e-20
4.644931251e-21
9.465609553e-22
3.032742342e-20
8.151397754e-21
3.392494365e-20
1.344894846e-20
1.851604015e-20
1.367753387e-21
1.652646794e-21
5.713660216e-21
2.626965247e-21
2.90697792e-21
1.290303736e-21
1.58746539e-21
1.148884071e-20
1.110081594e-20
3.927651129e-21
1.863123221e-20
1.829848508e-21
1.711630147e-21
6.377120835e-21
4.416410605e-22
3.915733507e-21
6.86543054e-20
6.077065083e-22
2.635790499e-21
6.351872303e-21
4.153347568e-21
2.37377939e-21
1.059366051e-22
1.527938021e-21
3.631048208e-21
2.653463072e-21
4.37589373e-21
5.487145613e-21
1.448773894e-22
1.484981645e-21
1.566105314e-21
3.143806596e-21
7.686989926e-21
9.746676559e-21
1.856367826e-21
4.20755939e-21
6.326735666e-21
5.064450935e-21
4.11055485e-21
6.952837399e-21
9.954247204e-21
9.386421278e-21
6.985791486e-21
4.979663527e-21
8.824232859e-23
2.340863509e-21
3.565399268e-21
5.491012284e-21
2.949591655e-21
6.935405127e-22
1.666442181e-21
8.164972882e-21
1.732273321e-23
4.25331339e-21
1.042795315e-20
5.254108932e-22
1.690428043e-21
6.598879517e-22
9.26647029e-22
1.978650693e-21
3.216957933e-21
3.405723365e-21
1.270436248e-20
1.091656654e-20
3.92176577e-20
1.961757388e-21
7.607047128e-22
1.699440216e-20
5.01377362e-22
1.204010343e-21
1.542397803e-21
5.391382616e-20
1.793627039e-21
1.77817316e-20
8.173871585e-22
6.604874395e-21
1.810699031e-20
5.83016445e-22
2.499422533e-21
1.069187283e-20
4.830896595e-21
4.922363005e-22
1.514716911e-21
2.077925453e-21
3.640168743e-21
7.721058169e-21
3.764643389e-21
6.917188189e-21
1.046051732e-21
1.245185025e-20
4.031499009e-22
5.039804332e-21
2.411630681e-22
3.607936434e-21
5.741322475e-21
3.188475056e-21
2.037311573e-21
2.78435908e-21
1.371786005e-21
1.752334843e-21
2.957740603e-22
1.327130874e-21
6.153382537e-21
2.931867189e-21
2.016092911e-22
9.549341782e-22
5.345947561e-21
5.521500725e-21
1.737664363e-21
1.068637689e-20
7.886994617e-21
1.507050268e-21
3.054118937e-21
2.187805296e-21
8.202081375e-21
4.248732534e-21
4.29539091e-21
2.711593844e-21
6.534817126e-21
8.243475563e-21
1.82289325e-21
7.570334803e-21
1.556960861e-21
4.69963387e-21
6.546192007e-21
1.227548036e-20
2.643295602e-21
4.84647413e-21
8.663451236e-22
1.959324056e-21
7.81907168e-21
1.797538783e-21
5.444637842e-22
7.945672288e-21
2.363306925e-21
3.373306717e-21
3.61551078e-21
2.042013139e-21
3.803098674e-21
1.510075118e-21
3.122974272e-21
1.252415472e-21
1.387976111e-21
1.58127614e-20
8.335581598e-21
1.978988153e-20
6.074719472e-21
4.398045475e-21
6.297539395e-21
2.152499464e-20
1.232422518e-20
1.863306301e-21
2.785651089e-22
1.100514413e-20
7.787488773e-21
8.527915244e-22
1.235954501e-20
1.17947601e-21
6.096395248e-21
5.451605531e-21
2.826822353e-21
3.893230871e-21
9.587755391e-22
2.207241631e-21
4.800188312e-21
2.677267639e-20
6.703144784e-21
2.59859232e-21
2.456324156e-21
7.548307156e-21
2.249675303e-21
3.113516396e-22
7.564877806e-21
7.910365808e-21
1.906153327e-20
1.786152033e-20
1.099694989e-21
6.155581926e-22
1.761026612e-22
1.157675145e-20
1.799515664e-21
2.23130991e-21
4.232021026e-22
9.061127311e-22
2.145349131e-21
2.162111242e-21
5.798562584e-21
1.571922746e-21
9.07001496e-21
4.319686087e-22
2.773318466e-22
8.029855832e-21
2.698551558e-21
1.162887419e-20
3.486913212e-22
3.003972998e-22
8.389235889e-21
3.176860637e-22
4.412816087e-21
2.475535238e-21
6.287497866e-22
1.411531903e-21
6.534197545e-21
4.87286598e-22
6.320914383e-21
3.337655341e-22
4.966001091e-21
2.227210873e-21
1.361384044e-20
3.217321817e-21
2.27300764e-21
1.26258226e-22
1.733474505e-21
1.246256022e-21
1.551676169e-21
3.235228685e-22
8.383495644e-21
1.704591783e-21
2.482347802e-22
2.840365035e-21
3.11789229e-21
2.107448856e-22
5.748747349e-21
2.71104961e-21
3.590998488e-21
3.792597258e-22
3.623531964e-21
2.467966748e-21
9.14020738e-21
1.137042569e-21
1.574633402e-20
7.608769359e-21
2.725977744e-21
1.565694793e-20
2.083740259e-20
1.708535522e-20
1.123290489e-21
3.201345351e-21
2.278939015e-23
4.484932584e-21
1.056431167e-20
2.209622857e-21
2.111306336e-20
9.911653521e-21
1.032660724e-20
1.859235812e-20
3.239323453e-21
2.39605408e-22
5.025902847e-21
1.125759282e-20
2.553849264e-21
1.044831928e-21
5.997457725e-21
1.970394385e-21
8.398974794e-21
3.45115123e-21
1.651017749e-22
1.594315272e-21
9.787046711e-21
7.012765144e-21
4.832743483e-22
4.141293098e-22
6.395021194e-21
1.648895216e-21
1.504694784e-20
4.227252155e-21
3.190239965e-21
8.7736057e-22
1.121024146e-21
3.289936792e-21
2.016548569e-20
4.576459114e-21
2.729958269e-21
1.765498018e-21
7.453095445e-21
2.164082434e-21
2.840991716e-21
3.052244517e-21
8.775539883e-21
1.590232376e-21
6.557187187e-21
7.368762758e-22
1.693668527e-23
3.915989985e-21
4.272425601e-22
4.368309213e-21
5.704436311e-21
7.370110964e-21
1.038342224e-20
7.071898278e-21
5.769834334e-21
4.10181371e-21
1.119686629e-21
1.831398758e-22
6.272083785e-21
3.218006261e-21
9.123670852e-22
1.0060473e-21
3.656403162e-22
4.428827102e-21
1.112727117e-21
1.569407501e-21
6.473532205e-21
1.321041646e-22
1.63060144e-21
2.034597745e-21
2.415532129e-22
1.386160675e-20
1.035127679e-21
2.929684347e-21
4.115720334e-22
9.010867751e-21
2.798379864e-21
1.500534593e-21
1.077425531e-22
3.250906337e-21
1.337783825e-21
1.046433282e-20
4.57422491e-22
4.9884328e-21
3.075383053e-21
1.244111784e-22
7.224382827e-21
2.485634841e-21
1.033004197e-22
4.383571112e-22
9.046311267e-21
7.273838117e-21
1.457402404e-21
1.205373517e-20
3.599729088e-21
1.834094662e-20
4.236854302e-21
4.441524549e-22
1.470669028e-21
1.353287405e-20
1.419879583e-20
3.927038687e-21
6.13745875e-21
2.72364733e-21
7.394617998e-21
2.707885257e-20
3.858036999e-21
2.219689002e-20
1.130573183e-20
5.107217139e-22
7.282979326e-21
1.074711003e-21
2.495951656e-22
1.234824109e-22
7.990083975e-22
1.058712103e-20
6.302649593e-21
2.233303288e-21
2.012065065e-21
1.347834026e-20
4.16249692e-21
4.583328878e-21
5.835081273e-21
1.095871449e-21
5.904855807e-21
2.888948119e-21
1.268937168e-21
1.998157051e-21
1.501592455e-22
8.429508229e-21
3.407558652e-21
2.681332021e-21
5.509750696e-22
8.93827355e-21
1.16423035e-20
7.379998281e-21
6.328418271e-21
2.450131882e-21
7.0466424e-22
3.126450587e-22
1.650677572e-21
5.576177563e-21
2.485092974e-22
1.519769501e-21
3.956110311e-22
1.924989306e-21
4.673396676e-21
2.755903915e-21
5.050492195e-21
8.523015047e-22
3.490706138e-21
1.990141959e-21
5.625390371e-21
4.416794633e-21
1.397113255e-21
3.71314327e-21
1.67705716e-20
1.209549325e-21
3.495811874e-21
1.396397603e-20
1.132461792e-21
2.367211548e-21
8.291084181e-21
4.280217883e-21
1.077004987e-21
9.572874517e-22
1.434719984e-21
2.583633416e-21
2.552187555e-21
3.24952034e-22
1.875850053e-21
7.536332954e-22
3.664844452e-20
1.866217133e-20
3.000836422e-21
9.422642487e-22
3.703225879e-22
7.914863785e-21
2.607615534e-21
1.975605666e-20
1.61104166e-20
7.472724507e-23
1.158085927e-22
1.367407997e-21
4.452143512e-21
1.332581377e-21
5.699411313e-21
4.369593138e-21
2.969032975e-21
2.582258341e-22
1.121620154e-20
2.594898852e-21
1.034910268e-20
2.596488886e-21
8.477979499e-22
6.692464484e-21
1.927239242e-21
4.223342253e-21
4.834535503e-22
2.042513137e-21
3.525888234e-20
5.042689555e-22
3.222838987e-21
5.913429845e-21
7.824961204e-21
2.646055038e-20
3.407836193e-21
1.553081053e-21
4.702713872e-22
8.562784179e-21
1.523174408e-20
8.474063973e-21
3.587042283e-21
7.595640838e-21
7.643583353e-22
5.642530568e-21
4.351927406e-21
2.51524943e-21
4.851576011e-22
2.201956098e-21
2.443121765e-21
1.262352496e-21
4.746604264e-21
4.801543304e-21
4.760628768e-21
4.579603425e-21
1.93681726e-21
1.814053101e-21
1.938228178e-21
2.536179186e-21
1.323684748e-21
2.016860457e-21
4.812945555e-21
7.643238339e-21
7.121384001e-21
4.776956598e-21
3.064654919e-21
1.934891534e-22
6.797801755e-21
1.219718085e-20
1.572853195e-22
3.63463247e-21
2.058010611e-21
1.039785862e-21
5.587512547e-22
2.398006524e-21
1.712028375e-21
1.199109933e-22
2.616288952e-21
2.197687718e-21
9.981110083e-22
2.979172685e-21
1.146163224e-21
6.547596668e-21
9.964810315e-21
3.064521622e-21
2.600869863e-21
7.152677564e-21
1.678321699e-21
1.519865354e-20
4.958519671e-21
1.977854164e-21
4.446010738e-21
3.221022603e-20
9.570018804e-21
1.303345145e-21
1.448602135e-21
5.979361288e-21
3.720097717e-21
2.386000416e-21
2.15866022e-21
2.101883212e-21
3.982217262e-21
6.414460508e-21
1.723979127e-21
3.110735672e-21
1.849216381e-20
5.559850374e-21
8.022387747e-21
4.033347049e-21
1.9846259e-21
1.202287638e-21
3.670926874e-21
3.018144067e-21
5.35608916e-21
8.709061843e-21
7.036497165e-21
2.402251865e-21
7.20374193e-21
4.340931929e-21
1.217668214e-21
4.19265344e-21
5.249624121e-21
9.028465911e-22
1.874239018e-21
1.858586749e-21
1.185829186e-21
3.343998992e-22
1.913634433e-21
2.918143808e-21
2.221611605e-21
4.256682843e-21
2.433507979e-22
3.889359228e-21
8.094172525e-21
4.632309208e-21
6.812375021e-21
1.13748992e-21
2.76415846e-21
1.840924533e-21
3.682062766e-21
2.47681363e-22
8.396239279e-21
8.530749891e-22
2.619935154e-21
6.160646492e-22
1.643290118e-20
4.999625822e-21
2.467698487e-22
2.001263395e-22
2.66189813e-21
6.850994789e-21
2.170470484e-21
2.131406668e-21
7.583895233e-21
1.930738336e-21
1.150783297e-21
5.750290751e-22
4.186446564e-21
2.277702789e-21
6.792308625e-22
9.57949898e-21
4.078281046e-21
5.825111076e-21
9.602208213e-22
4.160754039e-21
6.311234698e-21
2.107429102e-21
2.935429185e-21
5.097153562e-21
1.466499533e-20
3.978233854e-21
5.697665579e-21
1.295881819e-20
1.484913128e-20
1.207692816e-21
1.56904715e-20
6.103841643e-22
7.223916181e-21
5.634635601e-21
2.859208066e-21
9.260916742e-21
8.306088722e-21
1.970664801e-21
5.806246354e-21
3.731183318e-21
1.437022043e-21
4.289718699e-21
2.496508469e-21
2.033863944e-21
1.462356614e-20
1.261005646e-20
5.113825527e-21
5.064609649e-22
1.299022474e-20
2.527567205e-21
5.558512381e-21
1.41765394e-21
1.304893132e-21
1.135593768e-20
1.898770352e-20
2.656996246e-21
3.004744483e-21
1.546922695e-21
1.394961062e-21
2.507343639e-21
9.880585287e-22
7.324269993e-22
1.968102677e-21
9.174348599e-21
5.299665067e-21
4.868861365e-21
1.021375154e-20
7.587650706e-21
4.156971198e-21
2.472252075e-21
1.052668898e-20
5.021967716e-21
7.047877632e-21
9.27821617e-21
8.312905117e-22
4.627536746e-21
9.376986745e-22
1.374306364e-20
1.772975969e-21
1.900284288e-21
2.381587083e-22
1.914163837e-21
9.322558374e-21
4.042571769e-21
2.204900862e-21
6.675389785e-22
6.650151396e-22
4.370502759e-23
1.297024212e-21
1.617523636e-20
5.0892975e-21