/*--------------------------------*- C++ -*----------------------------------*\
| =========                 |                                                 |
| \\      /  F ield         | OpenFOAM: The Open Source CFD Toolbox           |
|  \\    /   O peration     | Version:  2406                                  |
|   \\  /    A nd           | Website:  www.openfoam.com                      |
|    \\/     M anipulation  |                                                 |
\*---------------------------------------------------------------------------*/
FoamFile
{
    version     2.0;
    format      ascii;
    arch        "LSB;label=32;scalar=64";
    class       Cloud<dsmcParcel>;
    location    "0.008/lagrangian/dsmc";
    object      positions;
}
// * * * * * * * * * * * * * * * * * * * * * * * * * * * * * * * * * * * * * //

6908
(
(0.06728674628 0.02670451829 2.168404345e-19) 458
(0.06310861872 0.0217905691 -2.168404345e-19) 448
(0.07383337854 0.07207328217 -1.626303259e-19) 519
(0.07377083966 0.03664854718 0) 469
(0.05624562804 0.1029125398 -1.084202172e-19) 567
(0.06911241537 0.02350194329 2.168404345e-19) 449
(0.05562847647 0.02589839732 -5.421010862e-20) 457
(0.04657641768 0.01830448724 -4.33680869e-19) 446
(0.07426940299 0.0205404292 0) 449
(0.06759389405 0.02501210136 2.168404345e-19) 448
(0.06160515884 0.03836757621 -2.168404345e-19) 478
(0.06735122337 0.029144756 0) 458
(0.03786185492 0.01529974296 0) 444
(0.04703182033 0.03729504115 2.168404345e-19) 476
(0.0558698369 0.07985329366 -3.252606517e-19) 537
(0.05996988793 0.03327389163 -5.421010862e-20) 467
(0.06213400486 0.07309976143 4.33680869e-19) 518
(0.04868352123 0.02934021122 -1.084202172e-19) 466
(0.01868077588 0.02333176271 2.439454888e-19) 462
(0.05585473219 0.05992542131 0) 507
(0.04713025481 0.02059481667 -2.168404345e-19) 456
(0.05853249902 0.0190589073 -8.131516294e-20) 447
(0.03233637724 0.03986295383 5.421010862e-20) 484
(0.06553168602 0.08684012933 5.421010862e-20) 538
(-0.01986462133 0.02688415646 0) 77
(0.07146200787 0.04543362946 -1.084202172e-19) 479
(0.0501864388 0.04083617979 -2.168404345e-19) 476
(0.06860884849 0.03187080654 2.168404345e-19) 459
(0.02830572178 0.03774968715 2.168404345e-19) 483
(0.06599458215 0.02612530275 0) 458
(0.07565380256 0.03523344922 -2.168404345e-19) 469
(0.05200780524 0.01561056094 0) 446
(0.06953949233 0.05845267526 0) 499
(0.07317314013 0.06623284145 -5.421010862e-20) 509
(0.05473849164 0.07953716415 -2.168404345e-19) 537
(0.0513454066 0.01709264001 1.084202172e-19) 446
(0.07207941906 0.02618108653 -2.168404345e-19) 449
(0.07571524503 0.04697317002 0) 479
(0.07008091756 0.02127575109 0) 449
(0.02408819884 0.01448506536 -2.168404345e-19) 453
(0.07270983944 0.05600536959 2.168404345e-19) 499
(0.0749259981 0.09849837483 2.168404345e-19) 559
(0.06293456084 0.04091114862 -3.252606517e-19) 478
(0.0631503108 0.05189935002 -2.168404345e-19) 488
(0.05062777736 0.1167198417 -2.168404345e-19) 586
(0.06476738657 0.01819775748 -2.117582368e-21) 448
(0.0590135729 0.01737144121 -4.33680869e-19) 447
(0.06242437933 0.02241812613 4.33680869e-19) 448
(0.07276480448 0.01960569786 4.33680869e-19) 449
(0.06694865543 0.05351655412 2.168404345e-19) 498
(0.04716977984 0.03049073333 0) 466
(0.05544108404 0.02870798715 -1.084202172e-19) 457
(0.03298946247 0.02080935388 1.084202172e-19) 454
(0.06431971198 0.05790743238 -1.084202172e-19) 498
(0.05807374569 0.06130847402 0) 507
(0.054650862 0.04816217861 0) 487
(0.07494698841 0.03789315124 0) 469
(0.02990581125 0.04814511862 -1.524659305e-19) 493
(0.01943202025 0.03462340158 -1.084202172e-19) 472
(0.05486248228 0.0173755037 -1.084202172e-19) 447
(0.04810387087 0.07669100482 1.084202172e-19) 526
(0.05280914471 0.03683917983 -2.168404345e-19) 476
(0.07461495316 0.07970989213 0) 529
(0.06472925028 0.06678272199 4.33680869e-19) 508
(0.06806677033 0.0379223043 0) 468
(0.05967915049 0.03827073483 2.168404345e-19) 477
(0.03304661036 0.01683189413 -3.252606517e-19) 454
(0.02742823087 0.04405500054 0) 493
(0.06185820558 0.04373116965 0) 478
(0.03155810471 0.051759824 3.252606517e-19) 494
(0.0516180828 0.02815684512 0) 466
(0.03901502681 0.02444188845 -5.963111949e-19) 455
(0.05953471762 0.01775205836 2.168404345e-19) 447
(0.06959574535 0.04142367304 -1.626303259e-19) 479
(0.0521153568 0.06425448884 4.33680869e-19) 516
(0.05194783911 0.01493722205 0) 446
(0.061853342 0.07960090422 -1.219727444e-19) 528
(0.05257984398 0.02998740449 -2.168404345e-19) 466
(0.06892222077 0.0264000592 5.421010862e-20) 459
(0.07397576769 0.02312758476 2.710505431e-20) 449
(0.06863551791 0.03582541311 0) 469
(0.05111358907 0.01562257837 -1.084202172e-19) 446
(0.04326932827 0.01366872489 1.084202172e-19) 445
(0.03734260678 0.03700712448 0) 474
(0.04203642869 0.09557438883 8.131516294e-20) 555
(0.07414413687 0.05843806879 2.168404345e-19) 499
(0.05294713202 0.019835663 -2.168404345e-19) 446
(0.03399728529 0.07725409292 -1.355252716e-19) 534
(0.03496328718 0.01439857141 5.421010862e-20) 444
(0.02794541768 0.008242109686 -2.168404345e-19) 443
(0.02314664759 0.01841870686 -1.084202172e-19) 453
(0.05869325092 0.0303997645 -2.168404345e-19) 467
(0.06585587439 0.04791355929 0) 488
(0.07155377398 0.04224780398 1.626303259e-19) 479
(0.0737417445 0.05215934886 1.084202172e-19) 489
(0.07189091002 0.07283218438 -5.421010862e-20) 519
(0.03600389378 0.01944459281 -2.168404345e-19) 454
(0.04338433699 0.0920205469 0) 555
(0.06693563584 0.02930881832 -2.168404345e-19) 458
(0.05605185655 0.01663840664 -3.252606517e-19) 447
(0.0452669368 0.03781929902 -4.33680869e-19) 475
(0.03263254136 0.009241287738 -1.084202172e-19) 444
(0.03479245947 0.03294381825 -2.168404345e-19) 474
(0.01192098377 0.01313677902 -1.084202172e-19) 451
(0.0695320921 0.04546884568 0) 479
(0.07443211724 0.06653622322 0) 509
(0.05996664296 0.02487055107 2.168404345e-19) 457
(0.05945263904 0.02414500465 -2.168404345e-19) 457
(0.04841774444 0.03375266912 0) 466
(0.06614374993 0.03286890432 0) 468
(0.03387318332 0.06865615228 -2.439454888e-19) 524
(0.03778009214 0.04510989835 2.168404345e-19) 484
(0.0623122754 0.02120156075 0) 448
(0.04750034567 0.01642803552 -1.219727444e-19) 446
(0.06270155698 0.02182047393 1.084202172e-19) 448
(0.07259419156 0.0340881855 -4.33680869e-19) 469
(0.05991418911 0.04283126333 0) 477
(0.02991160133 0.04538168554 -2.168404345e-19) 493
(0.03984735766 0.04175212181 -5.421010862e-19) 485
(0.05939969399 0.05781969869 -4.33680869e-19) 497
(0.06097359913 0.02995064501 0) 458
(0.04504333296 0.02854188507 4.33680869e-19) 465
(0.05321436008 0.01555603023 -4.33680869e-19) 446
(0.07069296866 0.03630706218 -1.084202172e-19) 469
(0.06474288858 0.02547021614 -4.065758147e-19) 458
(0.07212532751 0.1453836529 0) 619
(-0.01458228454 0.02408266848 -2.168404345e-19) 78
(0.05096618223 0.04266188826 0) 486
(0.028261663 0.05771678946 -1.084202172e-19) 503
(0.04061149633 0.04631438452 4.33680869e-19) 485
(0.03804685842 0.04040601258 2.168404345e-19) 484
(0.06407152091 0.02562144976 -3.794707604e-19) 458
(0.02078340971 0.04852883808 1.084202172e-19) 492
(0.07225133893 0.03181831695 0) 459
(0.03060529954 0.01591448181 -8.131516294e-20) 454
(0.06371303429 0.09594318136 -1.084202172e-19) 558
(0.0647415344 0.03021610795 2.168404345e-19) 458
(0.0456253076 0.03564210296 2.168404345e-19) 475
(0.07005102522 0.02864222644 -1.084202172e-19) 459
(0.06043954975 0.0200043103 0) 447
(0.06861025126 0.01901496402 1.084202172e-19) 449
(0.06050130628 0.03366708726 -1.897353802e-19) 467
(0.05126106789 0.03362573917 2.168404345e-19) 466
(0.07169669918 0.1282558229 -8.131516294e-20) 599
(0.0753508111 0.06296800093 0) 509
(0.06104092449 0.01798874384 1.084202172e-19) 448
(-0.02806654963 0.02084284479 -2.710505431e-19) 56
(0.009598261215 0.02009439289 -2.710505431e-19) 461
(0.0638336102 0.04460932724 0) 478
(0.06684220107 0.03942402848 0) 478
(0.06933413309 0.07961923725 -1.084202172e-19) 529
(0.06501573943 0.0766102981 -3.252606517e-19) 528
(0.0659612142 0.06121292277 2.168404345e-19) 508
(0.05739705759 0.1431121509 -1.626303259e-19) 617
(0.05045893177 0.02056788573 1.084202172e-19) 446
(0.04928659934 0.01730068513 2.710505431e-20) 446
(0.06539119017 0.04343272648 -5.421010862e-20) 478
(0.03454051973 0.03734029277 4.065758147e-19) 474
(-0.004421669019 0.05045192156 0) 139
(0.07461431651 0.04491535723 2.168404345e-19) 479
(0.05190985006 0.03074376023 2.168404345e-19) 466
(0.06257802721 0.03987205507 -8.131516294e-20) 478
(0.05403188242 0.03897895482 -2.168404345e-19) 477
(0.05819838817 0.04686039209 5.421010862e-20) 487
(0.06094927467 0.0695085444 -4.319868031e-20) 517
(0.06543635453 0.02591415988 0) 458
(0.04672382544 0.0616041483 2.168404345e-19) 506
(0.07604238421 0.07230089874 0) 519
(0.04286658009 0.01868377825 1.084202172e-19) 445
(0.02018174716 0.02186334345 2.168404345e-19) 462
(0.04603720465 0.02886512391 0) 466
(0.05174150128 0.06434638934 0) 516
(0.07490850748 0.08075021209 2.168404345e-19) 529
(0.07614622 0.03660869542 -1.084202172e-19) 469
(0.03173632099 0.03744495234 -1.084202172e-19) 474
(0.06577948039 0.01804523062 -2.168404345e-19) 448
(0.04603976065 0.05912720011 9.14795583e-20) 506
(0.04304582079 0.03554388836 1.084202172e-19) 475
(0.07321429947 0.07660749617 4.33680869e-19) 529
(0.03850341513 0.04483483969 0) 485
(0.07229135922 0.05911887733 0) 499
(0.06368047335 0.06694640241 -3.252606517e-19) 518
(0.06097890484 0.01896287675 -2.168404345e-19) 448
(0.05604840638 0.07401803119 -2.168404345e-19) 527
(0.07460126486 0.09107714782 0) 549
(0.05176277428 0.05042916805 0) 496
(0.05625551636 0.04629862419 2.498747194e-20) 487
(0.07525918794 0.05739132772 -2.168404345e-19) 499
(0.03901027236 0.01298871249 -2.168404345e-19) 445
(0.06849776832 0.09567339756 0) 548
(0.04675855127 0.1550089875 -2.168404345e-19) 636
(0.0274526091 0.0151334324 0) 453
(0.04749521243 0.03042207763 0) 466
(0.05370883658 0.02202552996 -4.201283418e-19) 457
(0.01226553966 0.06170722742 -5.421010862e-20) 511
(0.05621402898 0.04497298599 -2.168404345e-19) 487
(0.06922652288 0.02999009627 1.084202172e-19) 459
(0.03220339841 0.02248920243 -1.084202172e-19) 454
(0.03630169411 0.009852397078 0) 444
(0.07571300304 0.0426489915 -2.168404345e-19) 479
(0.06913416141 0.032378018 2.168404345e-19) 459
(0.05420677955 0.0175296722 -2.168404345e-19) 447
(0.06144510076 0.02678858074 0) 458
(0.04514210371 0.03798028779 -2.168404345e-19) 475
(0.05153119471 0.03925433029 0) 476
(0.07217295326 0.1218595328 -2.168404345e-19) 589
(0.05796227081 0.07221265747 -1.626303259e-19) 517
(0.04532200689 0.01927412635 -2.168404345e-19) 445
(0.07112881938 0.01923932086 -1.084202172e-19) 449
(0.06295110792 0.01811387637 0) 448
(0.0711799614 0.02945763476 -1.084202172e-19) 459
(0.05341919696 0.02347427414 -2.168404345e-19) 457
(0.0566603049 0.03275819023 0) 467
(0.0410487445 0.0504266578 -1.626303259e-19) 495
(0.06134071652 0.01958713367 0) 448
(0.067063813 0.04198068953 0) 478
(0.0172794906 0.06966676905 -3.252606517e-19) 522
(0.0704906782 0.06903954528 2.168404345e-19) 519
(0.06396803212 0.06624322122 2.168404345e-19) 508
(0.06892420496 0.0494187596 2.168404345e-19) 489
(0.05010877772 0.04440909635 1.084202172e-19) 486
(0.07269663495 0.02546052851 -3.523657061e-19) 449
(0.04840276521 0.03753852078 1.084202172e-19) 476
(0.06727063589 0.0295267786 -2.168404345e-19) 458
(0.06760121774 0.02151788176 1.355252716e-20) 448
(0.04627882781 0.03132765226 0) 466
(0.05553165567 0.01674525969 1.084202172e-19) 447
(0.07342324714 0.03462409604 2.168404345e-19) 469
(0.04112525543 0.0937871402 -2.168404345e-19) 555
(0.07580509485 0.03807024464 -2.168404345e-19) 469
(0.05967728292 0.0456560301 -4.33680869e-19) 487
(0.07195509556 0.04321298836 -2.439454888e-19) 479
(0.0548043456 0.03700866924 -2.168404345e-19) 477
(0.06395970042 0.08872366574 2.710505431e-19) 548
(0.04028653099 0.07517749432 0) 525
(0.07539126773 0.1124411225 -2.168404345e-19) 579
(0.07108893633 0.02850185924 -2.710505431e-19) 459
(0.05610262607 0.02298079096 1.084202172e-19) 457
(0.03579029702 0.0545275152 2.168404345e-19) 504
(0.04105572715 0.01783980342 2.168404345e-19) 445
(0.01222701964 0.004360699322 -4.33680869e-19) 441
(0.07371453255 0.03486051359 4.33680869e-19) 469
(0.06283057493 0.02304260274 0) 448
(0.06875313169 0.04487342673 0) 479
(0.07107212972 0.02106639077 -1.084202172e-19) 449
(0.05967921591 0.04702962959 0) 487
(0.04775720354 0.09870260188 0) 556
(0.06812771606 0.1450959867 0) 628
(0.06062693105 0.1246339247 -3.252606517e-19) 597
(0.05494677622 0.05932519008 2.710505431e-20) 507
(0.07245544713 0.1308123162 4.065758147e-20) 599
(0.06975546241 0.1636004316 -1.626303259e-19) 649
(0.0619376567 0.04631592198 -2.710505431e-19) 488
(0.04587167951 0.02839543995 2.168404345e-19) 466
(0.06708239842 0.02953382232 0) 458
(0.0430716957 0.02623819129 -2.168404345e-19) 465
(0.028954716 0.01734222939 -2.168404345e-19) 453
(0.05009920044 0.05208732426 0) 496
(0.0349034134 0.02871773629 0) 464
(0.0709151638 0.08207063904 -2.168404345e-19) 529
(0.07552266788 0.03757912492 -3.659182332e-19) 469
(0.06909139863 0.02258544551 1.084202172e-19) 449
(0.07269552121 0.1032209724 -2.168404345e-19) 559
(0.03740254494 0.08025148298 -2.168404345e-19) 534
(0.06521209859 0.02582211587 -2.168404345e-19) 458
(0.07526171585 0.03425510691 -4.33680869e-19) 469
(0.0417838065 0.01943118504 -4.065758147e-20) 455
(0.06426871268 0.02549663354 0) 458
(0.00358549851 0.007254647382 0) 440
(0.06800526768 0.02647733259 -2.168404345e-19) 458
(0.04583432599 0.01269787974 1.084202172e-19) 446
(0.05255735299 0.04162735627 0) 476
(0.06650349045 0.01805912447 -4.33680869e-19) 448
(0.01529085894 0.03670111864 0) 482
(0.06387796621 0.06809439041 0) 518
(0.007391372535 0.03106541088 4.33680869e-19) 470
(0.03829049505 0.05249146941 0) 495
(0.04758004019 0.1231195656 2.168404345e-19) 596
(0.05078464052 0.0263454874 -1.084202172e-19) 456
(0.07453313569 0.05094038417 1.084202172e-19) 489
(0.05633580632 0.01926018243 -1.084202172e-19) 447
(0.06448190337 0.1530989205 -1.626303259e-19) 638
(0.06320715056 0.02216255978 2.710505431e-20) 448
(0.04683193514 0.02279596691 0) 456
(0.06516987875 0.03092028378 -2.439454888e-19) 458
(0.05928509083 0.06435384709 2.168404345e-19) 507
(0.07263159176 0.06621996714 2.710505431e-20) 509
(0.05270599596 0.02975381043 2.168404345e-19) 466
(0.04527099118 0.0226469548 -1.897353802e-19) 455
(0.0580217998 0.01832093502 0) 447
(0.01897238649 0.01222056487 0) 442
(0.05817313944 0.03104767907 -2.168404345e-19) 467
(0.06544323687 0.03350257435 0) 468
(0.0596487852 0.02449920091 2.168404345e-19) 457
(0.07443781308 0.0240853856 0) 449
(0.07245412873 0.06879846087 0) 519
(-0.01592812202 0.1141064242 -4.33680869e-19) 317
(0.07546480459 0.0685630989 -2.168404345e-19) 509
(0.03593505202 0.1028280444 -3.252606517e-19) 564
(0.06913537462 0.1137762807 1.626303259e-19) 579
(0.05786210402 0.09145558754 1.084202172e-19) 547
(0.06511780384 0.03267818231 2.168404345e-19) 468
(0.07572820853 0.04094060348 2.168404345e-19) 469
(0.04479413623 0.02499407391 -2.168404345e-19) 455
(0.03750207586 0.01054393832 0) 444
(0.05201753235 0.01882563182 2.168404345e-19) 446
(0.0472949088 0.02303325266 0) 456
(0.042493697 0.02006729788 2.168404345e-19) 455
(0.06874416853 0.08024049031 4.33680869e-19) 529
(0.06761349855 0.02145590868 1.219727444e-19) 448
(0.04073800204 0.03690143323 5.421010862e-20) 475
(0.04196467567 0.01651877378 -5.421010862e-20) 445
(0.06278746024 0.02824969637 1.084202172e-19) 458
(0.05487728023 0.05476101358 -3.794707604e-19) 497
(0.06403409431 0.03939562797 -1.626303259e-19) 478
(0.07086656932 0.02111293203 -1.897353802e-19) 449
(0.07020303313 0.03217217187 1.084202172e-19) 459
(0.06976408418 0.03346366143 0) 469
(0.0556171737 0.1040909281 -4.743384505e-20) 567
(0.07413245247 0.06839549477 1.084202172e-19) 509
(0.07372876562 0.1090531023 0) 569
(0.05520761016 0.1292435797 0) 607
(0.05982594168 0.103672243 -1.084202172e-19) 567
(0.04778884467 0.02227190536 2.710505431e-19) 456
(0.05928902051 0.02578573913 -5.421010862e-20) 457
(0.02244044939 0.01759785671 -2.168404345e-19) 452
(0.03524577357 0.02470926006 2.168404345e-19) 464
(0.06717705366 0.02059664219 -2.168404345e-19) 448
(0.06600000601 0.01910779745 2.168404345e-19) 448
(0.0372925987 0.06167542806 0) 514
(0.0636090462 0.03285213316 4.33680869e-19) 468
(0.04101649237 0.01781889264 0) 445
(0.01846685312 0.04883722283 -2.168404345e-19) 492
(0.0702860403 0.05679234668 -1.084202172e-19) 499
(0.06216742483 0.05157524736 0) 488
(0.05071048079 0.06100900661 0) 506
(0.07116964729 0.1303576825 2.168404345e-19) 599
(0.07118604056 0.07802641825 2.168404345e-19) 529
(0.05181885959 0.08227655263 0) 536
(0.05235952547 0.02215899966 -2.168404345e-19) 456
(0.06125551073 0.05490616636 2.168404345e-19) 498
(0.05051976267 0.09734435464 -2.168404345e-19) 556
(0.07357279717 0.08009893722 2.168404345e-19) 529
(0.05550012692 0.1456282407 3.252606517e-19) 627
(0.04175941592 0.1273176287 4.065758147e-19) 605
(0.04969806515 0.05424259053 0) 496
(0.01341993236 0.006779824518 -2.168404345e-19) 441
(0.06761640371 0.02628193368 -2.168404345e-19) 458
(0.0350264154 0.01637441628 -1.084202172e-19) 444
(0.02106884142 0.01395631417 6.505213035e-19) 452
(0.05853010111 0.05471491688 1.355252716e-20) 497
(0.06887295541 0.02220321005 -1.084202172e-19) 449
(0.03373461691 0.0768851692 -2.710505431e-19) 534
(-0.01808447413 0.003029351359 5.421010862e-20) 17
(0.07036337127 0.04137858654 2.168404345e-19) 479
(0.06089045669 0.07368083786 -2.168404345e-19) 527
(0.07052806574 0.03181856507 -1.084202172e-19) 459
(0.0666580709 0.0329388303 4.33680869e-19) 468
(0.06683374794 0.03780154573 0) 468
(0.07034667903 0.02056007352 -1.28749008e-19) 449
(0.04596294245 0.0515193572 2.168404345e-19) 496
(0.05289248598 0.02040811594 -2.168404345e-19) 446
(0.0628235187 0.1082212215 4.33680869e-19) 568
(0.04785238384 0.02691244157 0) 456
(0.05615998531 0.03608471095 4.33680869e-19) 467
(0.04852774066 0.1083134887 0) 576
(0.05688096949 0.1014847876 -3.523657061e-19) 567
(0.055011907 0.1067795207 0) 567
(0.0651248426 0.1273443562 8.131516294e-20) 598
(0.07526286243 0.1393585642 -2.168404345e-19) 619
(0.04795883229 0.09904111248 -3.252606517e-19) 566
(0.04578330517 0.04487055565 -8.131516294e-20) 486
(0.07296703451 0.07525843716 -2.168404345e-19) 519
(0.004620362248 0.03010659686 3.252606517e-19) 470
(0.0725900584 0.04036611296 -2.439454888e-19) 469
(0.0508124921 0.06241159449 1.084202172e-19) 506
(0.02528023587 0.04372216742 -1.084202172e-19) 493
(0.03903703786 0.04821060175 -2.710505431e-19) 495
(0.04217428007 0.01867579658 4.33680869e-19) 455
(0.0521906464 0.0171702039 -1.897353802e-19) 446
(0.038497742 0.02710938902 0) 465
(0.0489890356 0.01604486259 5.421010862e-20) 446
(0.07399115192 0.05269980103 -2.168404345e-19) 489
(0.07232808518 0.05415417254 6.505213035e-19) 489
(0.03900458643 0.01359475345 2.168404345e-19) 445
(0.04056251554 0.0152955657 0) 445
(0.06517835063 0.05464383269 2.168404345e-19) 498
(0.06237106595 0.03516290599 5.421010862e-20) 468
(0.06753573677 0.05620399381 -1.084202172e-19) 498
(0.06857453533 0.0726030617 0) 518
(0.06553332257 0.111332212 -5.421010862e-19) 578
(0.03837733402 0.04753962054 3.252606517e-19) 495
(0.06497205957 0.06445404098 -9.486769009e-20) 508
(0.07185208766 0.06135911009 0) 499
(0.0685370028 0.06588585397 0) 508
(0.04584453944 0.04411214752 0) 486
(0.04993757994 0.1035816716 -8.131516294e-20) 566
(0.05858799239 0.1085740036 0) 577
(0.07102850653 0.1129785552 1.897353802e-19) 579
(0.05171256766 0.07072791944 0) 516
(0.045594306 0.1567774598 -2.168404345e-19) 645
(0.06813871039 0.1076352803 2.168404345e-19) 568
(0.05013299722 0.1357496951 0) 616
(0.07418099036 0.1479292257 -1.084202172e-19) 629
(0.07560608001 0.1043197569 0) 569
(0.0424463969 0.1325712322 1.626303259e-19) 605
(0.03286384053 0.009202583202 0) 444
(0.07279020403 0.05056378785 1.626303259e-19) 489
(0.05170124406 0.04112494545 -2.168404345e-19) 476
(0.04454213151 0.03278378748 0) 465
(0.05286363171 0.02682851439 0) 456
(0.03827903706 0.01818069112 0) 455
(0.05691087018 0.01632480556 -2.981555974e-19) 447
(0.0736906106 0.06472375909 -1.626303259e-19) 509
(0.06419712411 0.03954974863 -2.168404345e-19) 478
(0.0761832698 0.05119986501 -1.084202172e-19) 489
(0.03267147948 0.04277363167 0) 484
(0.06126924479 0.07135423896 2.168404345e-19) 518
(0.06615602313 0.02405795953 4.33680869e-19) 448
(0.06731529029 0.02222879763 2.168404345e-19) 448
(0.06146569427 0.04014996881 -4.33680869e-19) 478
(0.0626035701 0.06311088564 -1.626303259e-19) 508
(0.06818341472 0.05245611787 -2.168404345e-19) 488
(0.07559216987 0.0745797896 2.168404345e-19) 519
(0.0624228509 0.06674894875 0) 518
(0.07413233304 0.1008160599 -2.168404345e-19) 559
(0.0552310209 0.08243761213 0) 537
(0.07122073788 0.09889020864 6.776263578e-20) 559
(0.0739711828 0.03678030589 0) 469
(0.06550235144 0.1260489163 0) 598
(0.04274103687 0.1017813753 0) 565
(0.06513144578 0.1323504248 -2.168404345e-19) 608
(0.0688963268 0.1641703865 2.168404345e-19) 649
(0.06146232179 0.1191220534 2.168404345e-19) 588
(0.04930704321 0.1249087535 1.355252716e-19) 596
(0.04335980741 0.02757491966 6.505213035e-19) 465
(0.07119158794 0.02094418257 2.168404345e-19) 449
(0.07346540378 0.04998347912 1.084202172e-19) 489
(0.0284307955 0.009739298641 1.084202172e-19) 443
(0.06955298555 0.04254272139 -2.168404345e-19) 479
(0.07585289701 0.04484137713 2.168404345e-19) 479
(0.01553617237 0.01980115445 -5.421010862e-20) 462
(0.04022025651 0.03039041236 -1.084202172e-19) 465
(0.02490673932 0.01377701224 0) 443
(0.07174310746 0.02619546288 -4.33680869e-19) 449
(0.07523816632 0.02953156456 2.168404345e-19) 459
(0.06684398441 0.02853578715 0) 458
(0.07455908143 0.07460717527 4.33680869e-19) 519
(0.06332925894 0.01732389089 1.084202172e-19) 448
(0.02934258063 0.009349991641 -2.168404345e-19) 443
(0.016411637 0.01574288808 8.131516294e-20) 452
(0.02867385158 0.05121596134 2.168404345e-19) 493
(0.05744259945 0.07010586143 5.421010862e-20) 517
(0.04518020013 0.01741216152 2.168404345e-19) 445
(0.01092167045 0.01818812677 -2.168404345e-19) 461
(0.06814899723 0.0484996661 -4.33680869e-19) 488
(0.03973396814 0.0784908519 0) 535
(0.02313885365 0.03751173629 -1.084202172e-19) 483
(0.03352772305 0.0532090006 5.421010862e-20) 504
(0.05184646386 0.05302204032 1.355252716e-19) 496
(0.06288080393 0.07033790365 -4.065758147e-19) 518
(0.04050563937 0.09089521637 4.33680869e-19) 555
(0.07438349242 0.1141565383 2.710505431e-20) 579
(0.03784766773 0.1051377856 0) 574
(0.0615714053 0.05734125146 2.168404345e-19) 498
(0.02643659946 0.1046782761 1.355252716e-19) 573
(0.06415156618 0.1246099072 -3.794707604e-19) 598
(0.05129049995 0.1262675085 2.168404345e-19) 596
(0.05380014131 0.1200582041 0) 587
(0.0668392869 0.08937071913 2.168404345e-19) 548
(0.07063494356 0.1562182932 -2.710505431e-20) 639
(0.04333997541 0.05788120312 1.084202172e-19) 505
(0.04633707338 0.0900167922 2.168404345e-19) 546
(0.07058038598 0.07596623318 0) 529
(0.01975219227 0.01874522033 -1.626303259e-19) 452
(0.0378627024 0.05836889507 -4.33680869e-19) 504
(0.0659314243 0.04252923274 0) 478
(0.07017339453 0.01992657767 -2.168404345e-19) 449
(0.07533838914 0.02790091391 -6.505213035e-19) 459
(0.05899181598 0.03159281556 2.168404345e-19) 467
(0.07519524689 0.06905311094 0) 509
(0.02066684619 0.008236837758 -1.084202172e-19) 442
(0.06659136262 0.03609884563 0) 468
(0.04327450681 0.01942297181 -2.168404345e-19) 455
(0.039139625 0.01604960508 2.168404345e-19) 445
(0.06025057791 0.02871579089 -2.168404345e-19) 457
(0.03841314713 0.02837512849 0) 465
(0.05225664549 0.04214430357 2.168404345e-19) 476
(0.05652397182 0.03629995863 -2.168404345e-19) 467
(0.04271714369 0.05788447661 0) 505
(0.03416320059 0.06133050674 4.33680869e-19) 514
(0.04133319843 0.07314192281 -3.388131789e-19) 525
(0.06311673163 0.06566381321 0) 508
(0.03317497668 0.02170273634 1.084202172e-19) 454
(0.03635033042 0.1143357109 -2.710505431e-19) 584
(0.07076702076 0.08378551746 0) 539
(0.07243115401 0.1440724867 6.437450399e-20) 619
(0.06666241672 0.1385162196 2.168404345e-19) 618
(0.04938263157 0.1559036808 2.168404345e-19) 636
(0.04852244996 0.1517907931 0) 636
(0.07093347149 0.1045492338 1.084202172e-19) 569
(0.06501383657 0.04704443524 0) 488
(0.04589344911 0.01930220217 0) 446
(0.05548357599 0.03270493195 -3.354250471e-19) 467
(0.04520056151 0.01701009339 -2.168404345e-19) 445
(0.04781772054 0.04771133055 2.168404345e-19) 486
(0.04236157118 0.02732858438 -2.168404345e-19) 465
(0.04134226125 0.04182269254 -1.626303259e-19) 485
(0.02101176073 0.006527784085 -4.33680869e-19) 442
(0.06692357407 0.04216167923 0) 478
(0.05455390894 0.03905866215 -2.168404345e-19) 477
(0.06990685011 0.04792813421 -2.168404345e-19) 489
(0.05168955228 0.03458484209 0) 466
(0.05883907496 0.08418819775 -3.252606517e-19) 537
(0.0504123886 0.0663420808 1.084202172e-19) 516
(0.06411625243 0.03063503803 -4.33680869e-19) 458
(0.023866573 0.141175312 -2.168404345e-19) 623
(0.05924147951 0.01910558046 2.710505431e-19) 447
(0.0238518039 0.04006010227 4.33680869e-19) 483
(0.07439204295 0.09116531651 2.168404345e-19) 549
(0.07139164266 0.1070419434 2.032879073e-19) 569
(0.06768697629 0.0951278868 -2.168404345e-19) 548
(0.07485342689 0.03176443429 0) 459
(0.05792422779 0.04752184077 -8.089164646e-20) 487
(0.07567007752 0.1183071631 0) 589
(0.07522005842 0.08626112428 1.084202172e-19) 539
(0.02369187926 0.05645102099 -2.168404345e-19) 503
(0.0581927004 0.1179594288 0) 587
(0.06450139711 0.1416823311 5.421010862e-19) 618
(0.05340184376 0.07103372555 0) 517
(0.06875155379 0.1522686131 0) 639
(0.05851763398 0.09484888199 -2.168404345e-19) 557
(0.07386484216 0.150545586 -2.168404345e-19) 629
(0.06869672791 0.1404088946 -2.168404345e-19) 619
(0.06161508023 0.08260140101 -2.168404345e-19) 538
(0.05111812704 0.1335434589 0) 606
(0.06044015135 0.09485817485 -4.33680869e-19) 557
(0.0756385126 0.1191101688 -2.168404345e-19) 589
(0.0686110056 0.1194264288 0) 589
(0.06798800245 0.1574590926 -4.33680869e-19) 638
(0.07145525909 0.1545696207 -3.252606517e-19) 639
(0.07610669453 0.1540895271 -2.168404345e-19) 639
(0.007188641837 0.02271898822 0) 460
(0.05572487246 0.02938531643 -3.252606517e-19) 467
(0.04374018589 0.02166657992 2.168404345e-19) 455
(0.04413510648 0.07169923076 -1.084202172e-19) 525
(0.009485459219 0.01539533446 2.168404345e-19) 451
(0.04474789961 0.02341803597 0) 455
(0.06449353519 0.02330686108 2.168404345e-19) 448
(0.03281461982 0.02143988664 -5.421010862e-20) 454
(0.05244280026 0.02373198034 3.252606517e-19) 456
(0.02454553692 0.01497200269 -2.168404345e-19) 453
(0.06598248244 0.0618300371 2.168404345e-19) 508
(0.0382810834 0.01432907594 5.421010862e-20) 445
(0.03284542634 0.04750284524 -1.321371398e-19) 494
(0.06905444063 0.06068648539 3.252606517e-19) 499
(0.05580807034 0.02472318965 -5.421010862e-20) 457
(0.06393271841 0.03673456219 -3.252606517e-19) 468
(0.006641896633 0.02147853573 0) 460
(0.0409221396 0.07148962403 -4.573977915e-19) 525
(0.06291920512 0.05429898254 -2.710505431e-20) 498
(0.0562186403 0.01751548578 -1.084202172e-19) 447
(0.07616509848 0.07055698248 -2.168404345e-19) 519
(0.07266643671 0.08372671719 -2.168404345e-19) 539
(0.06525188274 0.0697176533 2.168404345e-19) 518
(0.07567936933 0.05654173028 0) 499
(0.07176333666 0.02378991725 1.084202172e-19) 449
(0.07513452409 0.06355796654 -2.168404345e-19) 509
(0.05337967921 0.05911031797 -2.168404345e-19) 507
(0.03019832857 0.06795819454 2.168404345e-19) 523
(0.07079491883 0.09083098883 -1.084202172e-19) 549
(0.03114915362 0.06486412602 -2.168404345e-19) 514
(0.05231358689 0.03646282103 -4.33680869e-19) 476
(0.06888582613 0.09420801532 -4.33680869e-19) 549
(0.05053381276 0.08247208011 0) 536
(0.04743458973 0.1456991952 -1.626303259e-19) 626
(0.07457981801 0.1087026178 2.168404345e-19) 569
(0.05442537315 0.1025621494 0) 567
(0.05713173698 0.1455241781 2.286988958e-19) 627
(0.03393891256 0.09299996085 0) 554
(0.04018284377 0.1481109398 2.168404345e-19) 625
(0.03496878754 0.1313593393 -5.421010862e-20) 604
(0.0482012149 0.1440450075 -2.168404345e-19) 626
(0.05829870782 0.04303617906 0) 477
(0.05806924336 0.05568143444 -3.252606517e-19) 497
(0.04919095608 0.02315785912 8.131516294e-20) 456
(0.03625488488 0.0254559959 6.505213035e-19) 464
(0.06295629059 0.02266740345 -2.168404345e-19) 448
(0.02558037581 0.007107697994 1.084202172e-19) 443
(0.047670573 0.03317859453 2.710505431e-19) 466
(0.01997325937 0.03084145246 1.084202172e-19) 472
(0.07109220183 0.03020629396 3.252606517e-19) 459
(0.04133566061 0.01335976345 -3.794707604e-19) 445
(0.07157934526 0.05807991743 -1.084202172e-19) 499
(0.06303882545 0.04109934112 0) 478
(0.05120776357 0.01889876382 3.252606517e-19) 446
(0.04537622326 0.0328210546 0) 465
(0.05708824534 0.04467727461 3.388131789e-20) 487
(0.0398445613 0.02353055945 1.016439537e-19) 455
(0.07161418322 0.06603808851 -2.710505431e-19) 509
(0.0747111635 0.05787635234 -3.794707604e-19) 499
(0.04685198561 0.022881616 0) 456
(0.07493644612 0.0737883716 2.168404345e-19) 519
(0.05462645588 0.1293468075 -2.168404345e-19) 607
(0.07339788209 0.08577245905 -1.084202172e-19) 539
(0.07074352092 0.06195284014 -1.084202172e-19) 509
(0.07100815306 0.1043704795 1.084202172e-19) 569
(0.07358976703 0.1380049453 4.33680869e-19) 609
(0.0480046585 0.04367857168 -1.084202172e-19) 486
(0.04923798104 0.1444224866 -8.131516294e-20) 626
(0.05348817481 0.1475065088 -2.168404345e-19) 627
(0.06826981431 0.1136405412 -2.168404345e-19) 578
(0.06852383634 0.1260785829 0) 598
(0.0760261999 0.1475409505 0) 629
(0.07141002009 0.1146835114 0) 579
(0.05632730398 0.1259489696 -5.421010862e-20) 597
(0.06023109548 0.1549244881 0) 637
(0.0214283096 0.008427679942 3.252606517e-19) 442
(0.06830392398 0.01940622362 -2.168404345e-19) 448
(0.04446710572 0.01830781492 2.168404345e-19) 445
(0.04262206781 0.01353499219 2.168404345e-19) 445
(0.04619928485 0.02421641141 -4.33680869e-19) 456
(0.05794511836 0.02018348115 0) 447
(0.02490902125 0.02836141463 0) 463
(0.04804928115 0.02180889292 -1.084202172e-19) 456
(0.02732216161 0.01781217909 -5.421010862e-20) 453
(0.02667950199 0.01918558342 9.232659125e-20) 453