/*--------------------------------*- C++ -*----------------------------------*\
| =========                 |                                                 |
| \\      /  F ield         | OpenFOAM: The Open Source CFD Toolbox           |
|  \\    /   O peration     | Version:  2406                                  |
|   \\  /    A nd           | Website:  www.openfoam.com                      |
|    \\/     M anipulation  |                                                 |
\*---------------------------------------------------------------------------*/
FoamFile
{
    version     2.0;
    format      ascii;
    arch        "LSB;label=32;scalar=64";
    class       vectorField;
    location    "0.008/lagrangian/dsmc";
    object      U;
}
// * * * * * * * * * * * * * * * * * * * * * * * * * * * * * * * * * * * * * //


6908
(
(528.9779677 363.3610059 227.4862326)
(1692.930587 -1002.454601 -34.66451687)
(463.3228664 575.3861709 118.570324)
(1379.459147 836.4722914 -692.7298577)
(-165.6671296 514.5736613 1023.20111)
(355.9128634 -85.3249419 -1.256434571)
(1785.249689 340.7442828 500.0060403)
(-270.7754497 1012.559154 174.8495825)
(-245.6078784 -33.92204902 631.6543928)
(339.966158 319.5703516 -53.85429167)
(368.388568 -116.1333112 -19.10921272)
(242.9856652 699.3279822 158.2584584)
(842.9925776 708.1297103 209.6349637)
(631.6669425 660.2766892 -1232.455396)
(226.7732314 940.80735 -470.9312068)
(-176.7507131 707.5300798 34.94296971)
(983.1583751 667.2209882 542.6286763)
(68.72150534 222.3559235 -116.3846441)
(-466.3894058 938.919815 838.1451507)
(-454.2372546 1148.796908 -787.5022323)
(-494.1510566 271.8007977 -1069.550623)
(857.8988269 117.0212756 1205.151412)
(462.2019449 -96.70235293 -910.3042625)
(358.1345092 -291.1707295 298.2660603)
(48.7103184 53.14491749 765.0924121)
(740.7019634 227.8124273 -274.172075)
(515.3433983 1576.765293 21.41146224)
(1045.234717 -172.2929934 369.6473082)
(173.4130348 856.286568 -159.2258778)
(1192.991703 215.2222183 590.2993757)
(514.3436415 1.146314996 -886.5190704)
(749.0446276 25.12203342 -558.6656285)
(791.6066034 1189.872026 224.8120646)
(1117.90662 -312.849259 254.4736375)
(48.20485081 969.4110369 419.5390724)
(1492.377568 -396.1883868 393.8897644)
(815.268063 1080.089479 -193.7408139)
(796.7307744 859.4212881 442.0441586)
(349.6910613 251.342214 -248.1582082)
(560.7621928 -872.6002703 -437.9424403)
(1494.20588 202.2211375 -602.0595688)
(824.6881446 1274.483492 -592.7099114)
(-150.2810572 379.5571815 -542.4120161)
(1035.013742 793.200898 228.1418444)
(-214.1068608 1387.337384 -151.1775314)
(324.0092042 856.9854049 -81.12187591)
(-373.9713187 -84.97215893 730.9197958)
(-117.9731753 399.4546929 -461.841976)
(331.0136361 671.9375442 861.9179792)
(1380.77667 1685.216916 -1026.061331)
(490.8139703 730.8450574 607.5350566)
(1862.362278 845.0260095 166.3425103)
(381.3405995 -331.1466071 16.46176283)
(811.8170062 945.1864584 61.39711491)
(1364.64785 93.53581679 65.50496434)
(-96.87106176 873.0463136 483.3314494)
(113.8867513 -65.70909115 5.4685639)
(6.262252708 549.9005062 805.2489559)
(834.7345314 -744.37387 -253.2672)
(651.1914948 388.4157676 213.4123147)
(505.9408438 174.7787509 193.6601235)
(665.166298 -277.2353673 -415.1641151)
(730.5561886 457.7650803 501.4885611)
(-186.2795984 822.4382167 122.7506587)
(1823.442369 388.5174061 -575.4297474)
(1018.015747 -282.141386 -245.0387152)
(-276.1923983 198.9339733 -380.502796)
(1337.114982 421.2612391 -251.5559347)
(787.5822956 39.84778734 47.73274725)
(1176.765463 -190.0365715 -135.8853848)
(1336.621969 772.3481832 -287.9800319)
(513.3721517 1246.74012 272.813997)
(280.3653166 482.1902782 -485.3670697)
(1550.377389 -750.1151412 -194.1910924)
(72.4668707 80.91374113 -674.6334183)
(-851.3755854 475.7373671 466.6486663)
(780.4195566 552.2709392 631.8540754)
(548.281887 -252.4761808 629.9401623)
(200.0820586 498.2596881 -632.0349739)
(192.3217089 492.3019647 -333.257145)
(471.736543 -161.3490484 -31.73983427)
(991.9946974 173.8337254 137.4280731)
(625.6855152 136.8138572 -438.7412528)
(1029.166324 141.3676044 -418.7242285)
(544.2018563 -926.978116 189.573648)
(802.5475253 1437.242809 79.30152869)
(437.2162045 1189.738001 -121.8925551)
(-127.1952597 990.0920904 -422.2786757)
(-515.5042086 689.4572462 561.1360881)
(-372.1643559 191.5068274 29.69856274)
(-816.7178816 223.1280222 -595.7927849)
(828.0761537 437.3848818 -251.9888066)
(52.41829831 753.3614229 -1031.257228)
(1108.679942 692.9480923 142.5807149)
(1825.780601 -484.9338244 46.37383194)
(2510.967608 688.8583591 48.23103142)
(-901.1969293 509.5450562 -233.6225175)
(185.3114784 223.7998514 636.8599564)
(619.7294815 -73.25604925 517.0974435)
(768.280231 20.96968303 160.3777058)
(1308.333318 878.3613621 367.360017)
(50.94988138 122.5304388 -654.5175778)
(1214.93877 232.0127062 295.8775704)
(741.1388842 196.3889612 1228.546033)
(662.1413624 633.5807275 -478.3320106)
(414.2043976 429.9134958 194.6937833)
(-255.3000584 726.5761692 -631.1623365)
(437.2897493 53.71489282 108.2672015)
(646.9486679 548.9484265 -625.0109696)
(-268.2662716 531.6885551 -303.8404253)
(1089.725515 874.968261 -426.0209909)
(402.8585014 511.4563634 -9.593875981)
(55.7210849 561.5777848 -732.5685998)
(994.9903492 64.54929741 409.3129091)
(452.2256325 189.307033 -58.75006325)
(784.9697208 995.6423038 346.1783857)
(435.5163752 329.5384483 -363.5700448)
(-108.3831483 1259.659678 -360.7121209)
(-53.54838422 1212.80965 652.0215592)
(2045.831467 1067.799208 536.2586612)
(1255.864155 -632.0360902 -396.391973)
(887.1146498 239.9483443 -728.0631892)
(-521.8475032 332.3353865 326.4130203)
(1125.214407 1098.654021 1.354285995)
(773.6804207 748.0067979 -430.4742224)
(1978.821418 179.2521005 163.7669762)
(-305.2341033 578.4522128 -610.1991986)
(727.6537279 593.9664706 -877.503045)
(157.7167853 -1162.203718 -477.8547664)
(1150.123018 925.8193919 540.8647649)
(-224.5097247 633.0797111 580.2105979)
(-262.5871442 292.9063796 89.56757703)
(-520.8518311 460.592036 -359.4777054)
(1068.621125 580.9064109 -239.8160851)
(-391.9528744 -56.88956158 134.821358)
(1279.980723 338.3400794 263.2662837)
(1096.8115 -790.027895 569.7269836)
(1506.179633 734.8421217 -744.2602774)
(230.5248229 295.8315612 773.4620428)
(299.7031613 -283.912469 -99.49773218)
(-364.876538 -34.16464451 149.8720506)
(1587.19994 1039.280241 -33.60105728)
(2261.172784 569.4377626 664.6560418)
(1276.395457 557.3871948 -88.25278916)
(339.0624003 355.5098757 239.2136181)
(-483.0160512 -20.54845277 385.1981034)
(-465.3060611 303.7621484 260.3056456)
(321.9556202 990.1090864 617.1186201)
(1801.871475 350.2242407 -451.6994898)
(861.0945608 365.9930634 -898.4046054)
(1295.136282 318.8838918 248.5647181)
(2096.639326 -231.1234099 -358.3406431)
(1308.527946 1261.271976 -212.6223539)
(1343.542474 85.44296943 -537.5361335)
(694.1469393 577.4149204 392.815964)
(193.6543193 789.8474382 442.9410876)
(1529.146393 885.3238893 229.7196368)
(606.8492014 263.3371407 460.3490769)
(-604.112968 1907.872977 515.4554507)
(860.8903658 445.0974731 -747.2590955)
(546.8059171 882.2153185 373.5991444)
(530.7571798 -509.84379 -313.9505863)
(1339.769677 323.8395042 407.2310013)
(546.0338181 825.5232976 179.2075465)
(2135.096901 -231.4920944 322.0829085)
(489.9360521 298.7069265 -512.1295361)
(115.0062266 964.4477434 245.7985557)
(1861.825764 420.8443118 184.1819639)
(529.3226145 -761.7237946 581.421169)
(755.8632057 1375.509919 -98.14020191)
(169.1432988 -195.7906387 959.4727143)
(538.9381013 42.79886721 54.21276778)
(1026.069744 233.7297791 -53.48556186)
(663.2159373 292.065979 -549.8372086)
(1529.843567 243.796737 487.7479247)
(383.97354 -68.48975057 77.89518487)
(-15.90601769 1368.453745 731.0980396)
(250.9690618 -168.3334644 -383.7666482)
(1992.460243 741.8251492 794.813216)
(740.4359898 1098.600499 145.4056226)
(360.310653 254.6379601 -34.78970876)
(1351.084174 1182.63349 557.8251873)
(73.03637964 -250.7501529 515.7878301)
(1365.010887 517.854861 -617.5721008)
(233.5378197 859.2224427 -412.5448043)
(1618.917223 147.328898 -526.6229195)
(1247.38148 749.0400752 -175.3901207)
(558.6828965 112.1739921 332.0903306)
(861.4393711 63.14556751 78.18461321)
(2099.762739 -364.3701824 33.66200406)
(1340.548241 313.0911097 95.30483274)
(701.0211983 764.7339676 310.5098607)
(1395.160319 509.6035928 -275.7166298)
(1209.958148 1248.20703 242.6109239)
(995.6257528 1582.483541 462.0359293)
(1556.658464 524.5732966 555.5482484)
(-264.9521948 487.4562572 64.70592201)
(188.1003734 617.1970801 1079.483171)
(8.928136322 -157.8417372 -749.0245629)
(1466.597324 -38.40367085 -1379.75005)
(623.8677961 -143.7112939 -479.3288302)
(1039.834071 -135.7796856 -661.0088612)
(1282.464299 -135.7456747 -529.9483261)
(547.7453248 823.1275063 728.0679912)
(330.7514969 320.2453878 -834.6928878)
(1462.315344 365.8263761 273.0734206)
(1995.871558 289.4555954 -387.0639758)
(275.7822479 95.81420442 703.4995038)
(881.8742614 -18.46542122 -203.8377925)
(153.3569135 68.25360028 431.4645961)
(409.9631175 -193.5745854 494.7107848)
(826.5105909 483.5908963 114.9363601)
(201.1935317 -424.6967075 -413.0471307)
(927.1274151 816.1735574 -72.4702081)
(941.8509369 -257.5045769 -861.9804207)
(290.7428656 508.1854588 -475.7703564)
(143.6580824 829.3875147 986.0455707)
(1259.274783 -225.0495017 -317.5100087)
(255.3737895 839.3530236 98.59085067)
(1572.597218 -214.6129766 347.8218501)
(908.9676237 463.4339431 -58.26914108)
(1491.325054 -801.8305457 39.87187599)
(302.9097901 430.038653 -77.84341106)
(419.0583794 631.4648327 456.8346847)
(2030.190254 -5.844525522 565.4604726)
(1308.453574 697.1054919 15.79979702)
(-74.79001945 492.8900485 287.6472378)
(26.5067116 -49.06528147 287.0481544)
(674.9562919 -427.7270146 206.758493)
(614.3303087 -517.5726612 63.84076016)
(1510.743674 290.707415 -196.7040863)
(521.8577906 1088.233087 548.5847985)
(181.6410776 1027.746014 38.89148288)
(1267.057013 -148.0190824 -541.9727053)
(1276.439055 38.51510822 -143.5122777)
(1187.826713 -416.2687918 -212.2467679)
(1180.066267 180.2088939 -219.2047851)
(1028.796585 -131.7905328 -145.9604201)
(1311.229844 121.911451 -165.186766)
(210.0727734 738.7154293 -121.3333107)
(24.34001904 448.5616175 -453.3613755)
(570.8416266 564.2073516 -1012.407646)
(696.7416732 -595.9188717 211.7794297)
(1128.197871 734.6404022 294.6365393)
(8.105439054 -149.6172098 537.7004172)
(1279.992543 -62.43798095 116.7645628)
(898.0302908 243.8731183 -651.8498441)
(949.9792897 193.3071673 -476.2313667)
(1773.142526 483.894239 -189.4676254)
(1292.352503 -264.2958046 1142.530153)
(1437.619225 176.7027163 54.19432112)
(1493.525523 218.3615062 13.83967137)
(1426.216438 -100.5519285 340.0484886)
(1244.942537 -615.6227305 766.4882767)
(1038.109669 -69.99264446 169.8034391)
(-117.4580358 -678.8924959 366.7112009)
(-222.6763247 263.8821945 -728.3462519)
(209.7973123 -10.93707256 221.4543759)
(542.0665749 465.3220018 -652.8371287)
(988.300353 908.6587959 214.6669806)
(1248.147524 -109.3297576 819.45118)
(59.8204298 -663.6438001 509.781728)
(1512.387908 469.8721288 -287.7471923)
(1143.651949 205.2938787 63.74327807)
(-43.58492532 708.4357789 32.78912885)
(378.6683127 -65.58930553 -167.7211905)
(513.9384012 86.64549313 -410.5139751)
(1154.788399 812.4564067 -1284.641858)
(-320.2722794 366.9227299 49.82946939)
(-234.7392642 854.0270926 -925.3007085)
(1549.328998 -522.5534493 266.9429284)
(689.4866181 1060.870626 256.7231197)
(721.8101367 12.68450932 225.51019)
(1627.133866 672.7187796 475.4345905)
(1165.125903 766.9243386 -217.7905192)
(1138.664713 473.3026309 477.6926499)
(179.5193056 1521.785655 -126.6926046)
(1739.984802 440.7724202 884.2096364)
(1449.231821 261.6013942 477.9515377)
(893.1839383 263.0029296 -12.60604707)
(268.3125401 -225.1470534 -1203.510798)
(1673.80444 -387.1380113 160.6103973)
(96.64367121 376.852625 -680.0234239)
(166.3158487 870.9974564 -691.8306691)
(1115.902063 -353.6930086 823.1864134)
(1593.77387 553.5491923 -679.7740764)
(848.6729206 1419.662261 -204.4276424)
(-962.451023 29.70321131 101.0216227)
(977.4159079 803.7069798 282.7766047)
(1197.660007 -578.2008474 -64.06631906)
(119.0815585 317.6680098 -11.29511588)
(926.012686 65.28237706 670.9963999)
(417.0412426 322.3454069 96.26627517)
(903.3680478 661.9545112 -973.734646)
(522.1623459 84.16648238 -661.0068299)
(1509.472715 -660.5386808 28.84870308)
(1166.062882 228.5550455 1116.598724)
(952.908512 -223.6609074 12.16439878)
(1082.079647 267.4656689 258.5156878)
(1524.656418 109.4718938 -6.759659765)
(202.4245801 779.5453593 -347.4459577)
(1121.37228 1237.290121 -1213.709182)
(15.32944492 881.5072408 503.5210141)
(1712.285595 -113.9985831 -146.7602412)
(890.5154943 163.078549 435.7199813)
(459.1229085 342.8420169 -50.360287)
(20.91249787 -216.6070489 -1039.590458)
(44.24751259 796.4817268 757.2266116)
(1426.037138 -206.7307599 151.7277746)
(1005.354909 -251.8151801 221.9463728)
(323.131097 253.8186554 -647.8374557)
(1466.021123 -70.54655272 -1074.446729)
(1538.744348 852.3862446 -898.789189)
(673.4628381 1249.713989 227.4424243)
(989.9777523 467.4091178 26.92122064)
(-122.5471727 24.1222379 107.9944226)
(181.4940933 390.4244926 -464.8935224)
(902.4113306 1007.243959 906.3084493)
(178.3335269 535.0979034 -1234.35262)
(1198.448308 586.8951418 288.5651334)
(1721.292405 335.5943035 173.1696515)
(1686.882484 272.3115163 146.0372116)
(2114.694512 -29.86679703 105.6020081)
(130.7185148 345.6258612 501.1110928)
(-165.1527376 3.212005817 423.8362916)
(-501.5713967 414.9192724 272.7291399)
(484.0919616 120.6089012 660.2102491)
(448.4002063 407.5022964 -345.5634068)
(32.07776856 473.1127365 18.83794163)
(186.4618163 784.9723429 -680.3855604)
(1256.323437 87.2725664 -1629.178314)
(1432.772652 290.1975152 174.2489109)
(-341.4629717 199.9837739 -1218.896381)
(1742.053049 -611.6431672 386.7614924)
(1450.009064 603.4954647 121.766826)
(454.8896885 189.5861207 -510.6192629)
(453.4189913 560.3201499 -142.0098838)
(1404.944989 -140.0921289 315.7559764)
(1244.555863 135.4952927 -1404.192604)
(1138.808907 -378.3171109 499.1594916)
(1444.69702 -114.5083412 -570.9641748)
(709.7236653 -269.971661 75.45535561)
(1830.273966 -316.8811236 130.0789616)
(1399.048245 412.0700211 277.7373816)
(1544.475394 -0.8544263607 -44.5554199)
(799.5790026 926.4324652 -496.6150813)
(130.9923456 984.8165573 86.83302652)
(599.9082684 -536.763929 -299.7994645)
(1167.922683 519.968126 -549.8597218)
(303.2226847 796.789995 -464.239149)
(1110.041802 641.7088807 255.4352819)
(651.2484445 441.5593332 509.2698671)
(532.7496695 875.2052393 -643.6615051)
(-111.5746723 -460.6856628 -410.4819346)
(799.571328 775.6181738 -253.2281066)
(1297.014443 224.5291626 -77.43858888)
(662.7964875 -546.2142408 45.92082973)
(452.5401219 803.5853458 -462.6862712)
(434.1167013 269.4683654 -603.7318234)
(-357.8854091 144.2708537 426.3863391)
(1155.989281 -94.33742831 -1119.072358)
(-19.14882666 233.2414589 -426.2768405)
(1353.362358 206.3767556 -564.8681685)
(533.5508486 48.44856741 483.0849504)
(1607.905147 -307.9545606 -269.9347561)
(949.0683461 45.24917844 -72.82078259)
(1294.428375 -41.6849485 -102.0487794)
(1649.086598 165.2304021 -584.044054)
(1586.107131 328.009361 122.5424294)
(2033.20099 -22.98086905 -15.38617339)
(1370.177281 -660.4253786 111.2162177)
(285.6802987 69.84954506 -668.9266262)
(1389.128844 691.2703633 -347.8460247)
(890.8082943 -367.0739144 -66.52014475)
(1290.328389 437.0295169 -831.9445171)
(1012.761698 1933.86241 -175.6574235)
(363.0302799 439.8895426 -256.7897925)
(-301.8926255 1500.882641 -227.4767339)
(846.6686954 -355.2695275 489.2544386)
(1021.671308 377.4561246 335.0699542)
(1007.736829 529.3059261 633.4256388)
(150.1838788 325.8270592 185.0427099)
(897.7402466 -35.78881262 -475.1430516)
(1396.828526 492.2043722 -929.833527)
(-125.1774607 -416.3861594 -104.4167024)
(-387.5704335 159.381563 16.90368809)
(1027.795355 -556.2389388 -52.61839656)
(868.8973866 553.062845 719.3881561)
(1438.40591 -228.3534283 -408.3172916)
(815.3008103 293.9138033 -996.2590514)
(1563.6512 189.0276414 -756.3463086)
(1002.562463 84.02965319 372.724038)
(1932.661273 -123.5737662 -348.5921581)
(1206.491219 -120.6217271 518.4509406)
(1575.97701 195.5322039 297.4351454)
(1693.282225 -833.654067 -700.8875648)
(1014.175781 217.7602483 -246.8559197)
(1677.642033 -36.03163147 -92.05342446)
(1271.229429 1267.044758 448.6699283)
(656.3397695 349.9820748 213.7201845)
(1258.133767 129.8894022 104.2268557)
(1564.099576 -181.6601638 460.9033675)
(1924.592356 -367.0063479 17.40503311)
(1473.682444 225.6623855 -512.7874661)
(1786.761954 73.07807024 46.84752153)
(193.4642553 1827.191562 -493.107584)
(163.6221121 -217.6170561 575.3498512)
(1632.223024 654.8623326 555.9197413)
(1233.440254 134.5916891 799.7039809)
(378.2960871 403.1190712 -358.683423)
(1276.741863 71.7886731 972.3378079)
(1244.428431 167.5976138 158.8295134)
(568.7425311 610.9373373 -466.3897513)
(1170.990828 -258.215805 259.5450176)
(346.4530314 54.11445443 601.0814966)
(724.7049742 605.0253397 -644.6730709)
(710.2287823 -832.9740206 6.10164255)
(1110.148006 845.3034891 144.996966)
(1121.646162 16.52731331 94.78066845)
(868.6125751 -709.2192248 -607.3343449)
(1152.404496 -682.3973854 138.5362455)
(1336.217535 242.8384785 -610.4664777)
(787.1638236 71.79243472 -176.8579388)
(1071.647608 373.4731581 -149.2964524)
(1753.863705 297.5305034 586.9384473)
(859.082604 1515.015455 1083.390821)
(1132.18821 -29.61940851 642.1423148)
(1706.670075 178.8222838 363.479727)
(1599.070973 513.7717822 -125.406769)
(1730.268463 204.1672498 2.624005146)
(1200.142963 38.93451086 -1175.328115)
(1334.228469 -113.8603465 58.34277335)
(1552.791786 280.1775441 314.5207523)
(2115.721023 -213.4071457 -119.3499386)
(1108.554465 -258.3314385 -674.4034365)
(-537.4252456 615.9738935 529.0759867)
(514.5446608 -169.6039207 441.5650501)
(1726.269325 236.316169 -591.3129737)
(57.64721229 209.3567984 147.1760928)
(809.468129 154.4783679 982.5442323)
(1108.773237 909.4914053 111.9644866)
(314.3320283 700.3592801 -328.5211132)
(510.4958959 -209.9701913 -694.1550633)
(-105.6949918 564.5677039 116.1163282)
(1021.281247 -93.92014451 -928.8564293)
(1667.571455 26.70754392 63.9018644)
(796.2037434 -1045.481819 698.8444494)
(501.4375052 497.313748 34.27845718)
(627.8176873 760.2620381 -200.66675)
(-981.0578041 -396.2993864 268.3873944)
(342.1494374 468.5988838 -128.128788)
(792.3162033 1301.400118 -89.27658134)
(1321.236636 1015.31577 371.5505061)
(199.5208914 -10.37588648 523.5622706)
(-248.7654562 36.3995138 -484.4634222)
(1238.017288 317.8146986 218.2279199)
(1312.660713 206.4644634 -56.2335892)
(917.1720585 677.5436209 173.1955959)
(294.194776 602.281556 61.58990483)
(1929.944188 49.90851579 256.3065238)
(1634.815849 531.5574902 44.86823601)
(1327.274404 422.8078569 -759.9708667)
(1560.911516 415.8776867 -206.9023171)
(1470.944454 214.834507 77.35746519)
(-352.5699804 1176.570901 149.5554562)
(1257.969752 43.71059522 -16.22031339)
(1868.125936 -23.94603883 117.4247488)
(1505.869005 -29.20869961 68.99546072)
(1247.795504 183.3636908 -27.98332115)
(2035.687516 -270.1249522 125.0503516)
(1583.243657 -38.88900086 -132.3084699)
(774.8399058 1090.41652 -400.468957)
(1208.81951 903.2345936 -500.0340666)
(1605.217765 415.2764824 -20.87575724)
(606.6061222 569.8668968 687.7327527)
(1738.925263 394.8337639 -116.1587566)
(1519.294174 329.2043866 -132.3114901)
(-626.8783437 402.7437629 139.511538)
(1651.492873 262.6618925 89.87970451)
(1592.531006 406.9135242 -219.2650999)
(1523.121698 224.1314692 164.9407993)
(-674.8742455 547.9297188 -277.7696495)
(615.787394 615.754408 206.9674896)
(-680.8244504 450.4326994 205.9927807)
(472.7559801 -637.8114477 33.99845868)
(899.7080781 -224.9313413 -574.4357428)
(-23.74148137 467.2358091 266.771981)
(2074.162105 290.2771592 112.5326104)
(1572.840702 102.5069772 -189.1316677)
(1185.883802 659.2478927 -445.4529114)
(1362.249907 319.990263 337.5737071)
(886.7856837 854.2513872 -688.8512376)
(448.2341124 803.5636419 794.6530067)
(-5.996618187 117.106643 -763.8847721)
(1408.775962 -125.0945273 -158.9196369)
(1486.676971 -275.1628208 334.5934118)
(1589.231356 363.2347669 -814.3929709)
(1404.367295 116.5339012 -378.2472186)
(1341.108102 -125.3740762 69.24668004)
(957.6398042 -13.75325378 -103.0633131)
(1866.14234 -87.95668994 536.3786368)
(940.7242777 1185.634472 488.6216175)
(177.1295183 104.105434 138.4450865)
(949.1800538 -703.6615104 767.7090223)
(521.1862581 833.8698387 665.0137151)
(575.5949055 1112.231318 236.5581732)
(1169.804211 306.3025424 -186.300959)
(1363.318977 168.7688043 153.8677572)
(956.4247573 393.0108849 1013.175401)
(1534.353442 45.59103791 35.12440892)
(1422.583297 -111.0915306 739.5632702)
(1947.367276 435.0688726 106.2262255)
(608.7383611 -1100.944012 643.8190151)
(1403.239408 150.5501799 -17.21428093)
(1571.904061 -57.07956615 -162.7575592)
(549.4509761 156.1409058 295.55186)
(903.7657662 -392.1784571 -47.28541152)
(-153.5037185 649.2111902 100.1913404)
(-212.3788979 1053.548458 -378.6385454)
(1817.625703 -91.68696987 -186.6078526)
(1556.805695 481.7973759 260.8284336)
(1075.264177 363.489603 1620.505617)
(708.0586628 167.3749126 -615.193629)
(1860.981927 173.3821511 261.1976468)
(1562.846198 423.0077597 69.35079454)
(2195.093659 -201.0147772 572.3485776)
(410.3123873 953.5650065 -559.4958253)
(1492.70381 162.9085119 164.4446898)
(1178.26808 308.4506946 -202.0062369)
(941.0750311 1.906901372 -344.9265543)
(1004.855414 -80.27734662 369.1982538)
(1451.048877 -34.81245691 -581.2979703)
(1469.809527 689.2495496 -6.377076606)
(1547.066859 -126.3836512 -397.8504723)
(1250.530558 27.41311602 152.1866723)
(1371.053353 -154.0570564 -126.9010699)
(1438.906139 -229.8875765 -72.62676845)
(1508.785358 371.6139745 146.725539)
(1241.240765 -357.2001107 336.8208937)
(1542.707932 -302.9609587 309.5355135)
(2045.10165 234.985921 229.652427)
(1907.496913 259.9881206 -191.869506)
(245.337397 786.0347373 -997.203514)
(1470.271041 721.0819109 -683.814202)
(1478.592214 -246.7326425 -915.224358)
(1361.812518 199.9136276 414.5429129)
(24.22806716 -255.6198062 528.4234717)
(-246.9574665 560.3206749 478.041054)
(1820.835328 377.4198447 181.6551575)
(1130.87642 459.5771425 180.5527059)
(1093.313913 621.6482672 84.44601839)
(837.3285164 -411.9447979 9.931532584)
(656.9265272 1243.927514 377.4155052)
(615.5205996 506.2410814 -910.215967)
(-77.43425436 342.0503961 205.4261852)
(870.2269354 572.5108856 1169.509028)
(284.5134309 -150.183988 950.0224107)
(1264.003687 -734.9459237 156.5188938)
(-10.65299341 -16.58190965 955.4531112)
(1679.76342 386.1659463 -153.2936078)
(1166.12495 -51.12572789 231.7303781)
(174.2467371 -438.6339967 593.7008709)
(1520.252884 69.88182639 -129.7472545)
(1652.213542 -134.10543 320.5862417)
(1491.235657 -221.944314 -179.635495)
(1586.910442 840.8562347 332.8488719)
(319.9356404 134.6726569 335.3012871)
(322.0373883 5.974537487 -669.8677062)
(944.603257 -576.1362039 699.0512686)
(1618.923974 249.0098209 -454.8598112)
(1337.104537 -163.2594952 49.081254)
(640.0607615 91.02448331 773.7667793)
(1527.129873 -698.5736092 879.1120141)
(819.6470614 555.324524 -154.3579126)
(1480.382394 237.477667 166.2791232)
(1735.572289 187.1355013 75.29523983)
(1809.727928 134.7793239 -335.8699457)
(53.7905613 143.0813855 -260.710012)
(1865.778795 -37.24644857 330.0898394)
(298.0181671 -103.8726799 -381.0610981)
(1446.3546 -306.8798603 355.2393318)
(1190.079208 94.28189909 -802.16369)
(1532.821934 -15.56133699 60.49292985)
(1267.628813 361.9265464 -419.7745111)
(2283.128965 -19.2394249 -343.0013539)
(594.8559585 593.5987194 626.1101889)
(1233.843466 986.1781343 558.9869796)
(1531.256614 605.0045945 -367.8645064)
(-235.3634926 184.9811465 106.0287745)
(633.7473902 1343.199413 357.5319148)
(290.3613825 516.2828945 -231.5039819)
(1143.449093 -136.6149098 1597.304739)
(651.5637515 -242.6917231 563.5368895)
(441.6420879 1390.334444 -475.6063746)
(1894.51377 230.7496514 -247.7100017)
(803.1581321 -717.9913648 -82.0666045)
(1237.710805 453.764209 -36.26960443)
(1358.624112 705.329348 -476.8169649)
(-102.0393695 -438.8851668 -30.07355853)
(2280.294627 541.7268964 -701.2035738)
(1634.018453 130.4115835 -645.1103573)
(1101.509441 -18.71975389 224.8523606)
(1746.7349 531.7097618 631.9658969)
(1329.816469 525.3195584 104.3629988)
(1286.391402 523.7955113 561.7142077)
(974.3171058 638.7306811 839.9645409)
(1540.159219 -199.3309069 92.10698869)
(1645.802233 281.9149443 -9.725345269)
(1484.512101 -401.2249917 -2.799022218)
(1784.050448 63.26211181 62.60485027)
(1522.778936 196.9153623 454.8183612)
(1225.802493 -306.3666723 667.2412267)
(1743.410008 -37.93160318 429.5747046)
(1899.384365 27.85329959 556.1478549)
(1726.020219 -488.7815704 73.30778397)
(1656.866843 46.58147533 -389.4227982)
(1465.470864 -233.764302 -110.9977167)
(134.2362439 403.7462872 -204.077937)
(-131.6485286 248.2476435 173.7661569)
(-813.6983266 -7.219903128 29.4399758)
(545.7347197 1189.401236 -132.6349342)
(1248.468923 -38.17070991 396.3838667)
(1173.474413 401.8976431 -956.3240524)
(176.9587179 646.2853507 -1286.745199)
(312.2025441 158.1432304 356.7330479)
(642.6312632 -502.6960272 1250.841208)
(1398.274735 481.2693215 -468.1665733)
(-304.0301452 735.9053675 134.4958383)
(277.828757 -309.05373 -933.9126679)
(-579.4902057 582.6049623 -46.26150413)
(1504.728117 431.8620744 -189.2968653)
(771.0109807 409.0136247 198.4346751)
(395.2923313 -211.7509291 -863.0921639)
(-576.3234014 107.2543513 228.5471242)
(1784.534985 154.5262502 266.758014)
(1129.130518 66.61572714 -47.52674503)
(971.4313927 520.2460452 -230.2235326)
(1076.782062 671.500741 420.3506463)
(1381.174239 128.9637849 -83.71440301)
(1051.250292 -235.4249483 43.45054808)
(2079.705618 541.6345961 162.7249523)
(569.4835132 71.48555138 -21.88212995)
(1272.472023 0.1144081016 -20.87372577)
(1201.807064 -77.67771276 864.2173602)
(968.2246972 501.3991089 743.4996198)
(1389.871192 248.8379409 -192.4833321)
(1225.669821 951.8583182 522.2068259)
(1879.252267 333.9451896 -741.9380788)
(1388.575662 -23.04550007 10.85755001)
(415.6200538 152.4765389 81.99448883)
(2184.161483 -177.3464118 -169.38026)
(1414.92445 420.5335264 229.8824121)
(1885.68594 -394.0487329 233.0500936)
(10.17971877 777.0231288 192.6944227)
(959.0892458 98.38252646 -91.34866663)
(1442.97528 -86.55988403 109.1575538)
(752.7456694 712.5729995 228.1864852)
(1476.786672 -263.5367491 135.494813)
(-78.91603958 -19.53743739 -78.13174506)
(1228.839959 122.1752954 128.6963398)
(2110.692658 -239.6248525 29.36161211)
(1270.137824 365.3027325 -289.4653722)
(1968.656026 10.7984112 503.4444421)
(200.0827827 356.941747 144.4281415)
(1799.42939 70.07983504 -8.540296989)
(1743.942726 463.028754 -441.9575313)
(1873.432313 311.8372009 88.44568732)
(1660.61908 -302.6960807 -129.2921762)
(1694.497902 -277.4247882 247.2351949)
(1476.428266 362.6460397 -60.9017363)
(1436.57154 144.0555757 130.5117364)
(1817.325483 116.3632803 470.2777044)
(1414.223131 -93.93744355 192.6805854)
(202.3267064 449.3024308 224.863577)
(602.0042995 -65.40765807 -194.0851772)
(943.1546469 157.951575 995.1964486)
(872.3614795 24.09670627 339.9696077)
(711.2060155 691.2068699 -437.7933106)
(-25.69011451 -101.6629218 1067.262033)
(1388.554088 153.8668155 57.59311001)
(1156.005161 -242.6652661 -257.8894384)
(-22.0282182 83.43142958 475.045595)
(378.8095657 523.4780232 -1088.412109)
(915.7264205 1117.342737 -1050.03605)
(632.8064745 72.21976407 -141.4795512)
(1460.887636 -465.9183256 -350.1634392)
(1365.761366 2.623939387 -867.31868)
(1370.10777 301.1881765 -402.9488037)
(2189.091716 458.2259115 -538.8824747)
(1036.311575 670.1566724 -288.0502517)
(275.237913 302.340374 -12.49023618)
(1525.343178 307.0241554 146.1228264)
(1692.121818 -11.86504477 -710.1784674)
(1065.747194 -95.77724389 414.6736643)
(1608.169653 -395.3001452 176.0063265)
(599.7735493 234.4617367 -981.7968242)
(1690.919289 -353.0691193 -117.7418365)
(1881.031839 173.75411 -23.98260996)
(113.2696605 342.6690314 -957.6917599)
(1257.617877 525.7414492 206.1133777)
(1268.410469 -498.3314194 450.8504636)
(1077.042843 476.3548846 -132.2521048)
(697.2212228 -151.5720662 46.11553966)
(1349.597203 -418.0802932 -44.6314831)
(882.2634058 -45.77956206 476.9253837)
(1372.421187 -121.0157035 -378.1042335)
(1452.308852 71.6339879 255.1387571)
(1373.525047 233.7476667 120.1918308)
(1764.977956 -46.02657355 70.3463408)
(1350.163341 483.7858747 359.2813116)
(1646.734167 -597.1087491 13.32548073)
(1585.92542 253.8429635 -101.9941329)
(2156.115548 270.6657758 -24.26866521)
(1776.648784 -281.5352515 133.5802145)
(1539.137636 -29.33280094 182.6545512)
(2033.361069 301.3356569 359.0005283)
(1169.200168 -56.64506772 749.8740045)
(1822.137762 -437.8252043 579.2749455)
(1573.925656 206.266971 182.809537)
(1424.318832 180.1536729 -49.35246734)
(1531.136721 193.5787717 213.314392)
(1688.028965 654.3912497 375.8509685)
(1655.663682 -526.6364606 -368.0722315)
(2213.405337 -400.1739031 88.07440133)
(1621.628405 723.0189546 272.3517252)
(52.8883021 -296.2739252 405.5656921)
(1665.834195 144.1579248 -240.8794526)
(2210.649596 -134.1258428 124.4652883)
(-195.5275015 -70.77037484 -807.0915011)
(138.160559 473.2058267 -6.034310204)
(1025.567587 743.6916825 782.595615)
(1418.065038 894.8304031 -217.7382323)
(125.1292879 -687.1768165 -424.0158868)
(845.0485773 1133.385667 -683.7232814)
(1128.759643 -152.1349226 772.6012477)
(1122.007636 -424.8697214 15.27596671)
(807.3964812 667.3159736 1048.704387)
(1056.471293 6.886156054 928.4651089)
(1204.16102 -175.5288724 -1139.677139)
(1606.316757 -26.803526 -837.6549201)
(1394.171603 52.95710262 -150.1163234)
(1372.463903 -219.55208 210.0946848)
(1763.033243 356.1180646 248.7753412)
(1623.768311 679.0967316 325.8016805)
(1705.80587 -264.9209742 1164.357336)
(546.5804564 110.3197323 -895.4733871)
(1769.958963 313.160727 350.1897351)
(1753.526071 -437.7492362 210.9691628)
(2341.515206 -18.12413545 -228.082577)
(1471.456471 69.25876687 -184.6225074)
(1792.513296 1005.814917 425.827353)
(1563.448345 11.33293766 -150.8263581)
(1913.088147 293.0958524 -310.7119062)
(1333.991894 1005.181452 424.7911825)
(1318.945396 341.409864 40.65186079)
(1441.96412 18.74905574 459.724809)
(1772.306688 259.3958523 243.1221294)